Generated by trjconv : CNT in water t= 114.00000
33518
    1C        C    1   2.843   2.766   4.746
    1C        C    2   2.891   2.711   4.867
    1C        C    3   2.838   2.768   4.983
    1C        C    4   2.849   2.769   4.258
    1C        C    5   2.900   2.726   4.382
    1C        C    6   2.845   2.771   4.504
    1C        C    7   3.011   2.636   4.624
    1C        C    8   2.895   2.716   4.624
    1C        C    9   3.075   2.600   4.744
    1C        C   10   3.004   2.626   4.863
    1C        C   11   3.177   2.486   4.976
    1C        C   12   3.052   2.549   4.970
    1C        C   13   2.845   2.764   3.770
    1C        C   14   2.893   2.714   3.893
    1C        C   15   2.847   2.769   4.015
    1C        C   16   3.013   2.634   4.134
    1C        C   17   2.899   2.718   4.136
    1C        C   18   3.075   2.606   4.258
    1C        C   19   3.015   2.643   4.380
    1C        C   20   3.204   2.548   4.502
    1C        C   21   3.074   2.602   4.501
    1C        C   22   3.274   2.526   4.623
    1C        C   23   3.204   2.538   4.745
    1C        C   24   3.408   2.481   4.863
    1C        C   25   3.266   2.492   4.864
    1C        C   26   3.490   2.481   4.977
    1C        C   27   2.847   2.763   3.277
    1C        C   28   2.901   2.720   3.400
    1C        C   29   2.850   2.766   3.524
    1C        C   30   3.013   2.635   3.647
    1C        C   31   2.899   2.719   3.648
    1C        C   32   3.072   2.598   3.770
    1C        C   33   3.005   2.628   3.891
    1C        C   34   3.203   2.544   4.015
    1C        C   35   3.071   2.594   4.011
    1C        C   36   3.271   2.522   4.138
    1C        C   37   3.204   2.548   4.259
    1C        C   38   3.413   2.507   4.378
    1C        C   39   3.272   2.524   4.380
    1C        C   40   3.483   2.501   4.501
    1C        C   41   3.412   2.495   4.622
    1C        C   42   3.626   2.479   4.741
    1C        C   43   3.484   2.479   4.743
    1C        C   44   3.702   2.482   4.860
    1C        C   45   3.629   2.476   4.979
    1C        C   46   2.837   2.750   2.792
    1C        C   47   2.891   2.704   2.913
    1C        C   48   2.836   2.751   3.035
    1C        C   49   3.013   2.630   3.158
    1C        C   50   2.896   2.709   3.156
    1C        C   51   3.073   2.597   3.281
    1C        C   52   3.010   2.629   3.403
    1C        C   53   3.202   2.541   3.527
    1C        C   54   3.072   2.597   3.525
    1C        C   55   3.269   2.518   3.649
    1C        C   56   3.203   2.544   3.771
    1C        C   57   3.410   2.501   3.891
    1C        C   58   3.271   2.526   3.893
    1C        C   59   3.480   2.494   4.014
    1C        C   60   3.410   2.497   4.136
    1C        C   61   3.625   2.494   4.256
    1C        C   62   3.484   2.496   4.257
    1C        C   63   3.696   2.508   4.377
    1C        C   64   3.624   2.503   4.499
    1C        C   65   3.833   2.538   4.619
    1C        C   66   3.697   2.501   4.620
    1C        C   67   3.900   2.561   4.741
    1C        C   68   3.836   2.524   4.862
    1C        C   69   4.046   2.583   4.974
    1C        C   70   3.916   2.531   4.977
    1C        C   71   2.820   2.731   2.308
    1C        C   72   2.881   2.687   2.427
    1C        C   73   2.830   2.742   2.547
    1C        C   74   3.003   2.621   2.670
    1C        C   75   2.885   2.699   2.669
    1C        C   76   3.069   2.590   2.791
    1C        C   77   3.009   2.627   2.914
    1C        C   78   3.200   2.533   3.035
    1C        C   79   3.069   2.587   3.035
    1C        C   80   3.268   2.516   3.158
    1C        C   81   3.202   2.539   3.281
    1C        C   82   3.407   2.492   3.401
    1C        C   83   3.268   2.518   3.404
    1C        C   84   3.477   2.488   3.524
    1C        C   85   3.408   2.494   3.647
    1C        C   86   3.621   2.495   3.765
    1C        C   87   3.480   2.490   3.769
    1C        C   88   3.690   2.505   3.888
    1C        C   89   3.621   2.503   4.011
    1C        C   90   3.829   2.550   4.131
    1C        C   91   3.692   2.514   4.133
    1C        C   92   3.897   2.568   4.254
    1C        C   93   3.833   2.541   4.376
    1C        C   94   4.025   2.633   4.497
    1C        C   95   3.897   2.572   4.498
    1C        C   96   4.085   2.672   4.619
    1C        C   97   4.027   2.624   4.738
    1C        C   98   4.186   2.765   4.858
    1C        C   99   4.094   2.655   4.860
    1C        C  100   4.198   2.850   4.968
    1C        C  101   2.819   2.734   2.068
    1C        C  102   2.982   2.587   2.185
    1C        C  103   2.875   2.683   2.186
    1C        C  104   3.055   2.567   2.305
    1C        C  105   3.000   2.611   2.427
    1C        C  106   3.195   2.525   2.548
    1C        C  107   3.067   2.585   2.549
    1C        C  108   3.265   2.510   2.670
    1C        C  109   3.201   2.539   2.792
    1C        C  110   3.408   2.491   2.914
    1C        C  111   3.268   2.514   2.913
    1C        C  112   3.478   2.489   3.036
    1C        C  113   3.407   2.492   3.158
    1C        C  114   3.620   2.493   3.275
    1C        C  115   3.479   2.485   3.280
    1C        C  116   3.688   2.505   3.399
    1C        C  117   3.618   2.495   3.521
    1C        C  118   3.826   2.547   3.642
    1C        C  119   3.690   2.509   3.642
    1C        C  120   3.890   2.573   3.765
    1C        C  121   3.827   2.541   3.887
    1C        C  122   4.017   2.640   4.011
    1C        C  123   3.894   2.570   4.008
    1C        C  124   4.081   2.674   4.133
    1C        C  125   4.023   2.632   4.255
    1C        C  126   4.193   2.763   4.375
    1C        C  127   4.086   2.671   4.376
    1C        C  128   4.242   2.818   4.495
    1C        C  129   4.192   2.764   4.616
    1C        C  130   4.326   2.932   4.739
    1C        C  131   4.242   2.817   4.738
    1C        C  132   4.352   3.005   4.857
    1C        C  133   4.282   2.960   4.970
    1C        C  134   3.165   2.465   2.080
    1C        C  135   3.028   2.495   2.085
    1C        C  136   3.255   2.480   2.186
    1C        C  137   3.188   2.517   2.305
    1C        C  138   3.399   2.478   2.426
    1C        C  139   3.260   2.500   2.425
    1C        C  140   3.474   2.478   2.546
    1C        C  141   3.405   2.489   2.669
    1C        C  142   3.617   2.487   2.788
    1C        C  143   3.476   2.481   2.790
    1C        C  144   3.690   2.500   2.909
    1C        C  145   3.620   2.490   3.031
    1C        C  146   3.827   2.534   3.153
    1C        C  147   3.690   2.498   3.153
    1C        C  148   3.893   2.561   3.276
    1C        C  149   3.824   2.543   3.398
    1C        C  150   4.018   2.633   3.520
    1C        C  151   3.892   2.569   3.519
    1C        C  152   4.078   2.672   3.643
    1C        C  153   4.015   2.639   3.765
    1C        C  154   4.188   2.760   3.884
    1C        C  155   4.075   2.675   3.888
    1C        C  156   4.242   2.810   4.005
    1C        C  157   4.190   2.764   4.128
    1C        C  158   4.326   2.923   4.251
    1C        C  159   4.243   2.809   4.251
    1C        C  160   4.367   2.985   4.371
    1C        C  161   4.328   2.930   4.495
    1C        C  162   4.433   3.114   4.612
    1C        C  163   4.367   2.990   4.617
    1C        C  164   4.463   3.183   4.732
    1C        C  165   4.432   3.121   4.855
    1C        C  166   4.506   3.319   4.970
    1C        C  167   4.475   3.183   4.972
    1C        C  168   3.472   2.442   2.071
    1C        C  169   3.395   2.458   2.187
    1C        C  170   3.613   2.466   2.304
    1C        C  171   3.471   2.462   2.306
    1C        C  172   3.686   2.491   2.423
    1C        C  173   3.615   2.486   2.545
    1C        C  174   3.823   2.536   2.662
    1C        C  175   3.688   2.496   2.666
    1C        C  176   3.890   2.560   2.784
    1C        C  177   3.825   2.542   2.908
    1C        C  178   4.017   2.627   3.030
    1C        C  179   3.892   2.560   3.031
    1C        C  180   4.079   2.662   3.152
    1C        C  181   4.019   2.625   3.274
    1C        C  182   4.189   2.752   3.395
    1C        C  183   4.075   2.669   3.396
    1C        C  184   4.236   2.806   3.517
    1C        C  185   4.192   2.755   3.641
    1C        C  186   4.336   2.913   3.762
    1C        C  187   4.245   2.805   3.762
    1C        C  188   4.373   2.974   3.884
    1C        C  189   4.332   2.918   4.007
    1C        C  190   4.442   3.101   4.126
    1C        C  191   4.372   2.978   4.129
    1C        C  192   4.463   3.173   4.246
    1C        C  193   4.436   3.109   4.368
    1C        C  194   4.505   3.312   4.490
    1C        C  195   4.459   3.178   4.489
    1C        C  196   4.521   3.386   4.609
    1C        C  197   4.512   3.317   4.732
    1C        C  198   4.555   3.531   4.849
    1C        C  199   4.534   3.389   4.852
    1C        C  200   4.580   3.615   4.962
    1C        C  201   3.610   2.418   2.071
    1C        C  202   3.822   2.513   2.178
    1C        C  203   3.688   2.461   2.183
    1C        C  204   3.894   2.538   2.298
    1C        C  205   3.822   2.527   2.419
    1C        C  206   4.020   2.612   2.537
    1C        C  207   3.891   2.555   2.539
    1C        C  208   4.078   2.654   2.659
    1C        C  209   4.015   2.626   2.782
    1C        C  210   4.189   2.743   2.902
    1C        C  211   4.074   2.662   2.906
    1C        C  212   4.241   2.794   3.023
    1C        C  213   4.188   2.752   3.147
    1C        C  214   4.326   2.908   3.270
    1C        C  215   4.241   2.795   3.271
    1C        C  216   4.366   2.970   3.391
    1C        C  217   4.326   2.915   3.514
    1C        C  218   4.422   3.102   3.637
    1C        C  219   4.367   2.972   3.637
    1C        C  220   4.452   3.167   3.759
    1C        C  221   4.436   3.100   3.883
    1C        C  222   4.501   3.304   3.999
    1C        C  223   4.466   3.167   4.004
    1C        C  224   4.512   3.376   4.120
    1C        C  225   4.499   3.310   4.244
    1C        C  226   4.514   3.520   4.361
    1C        C  227   4.517   3.379   4.366
    1C        C  228   4.514   3.592   4.483
    1C        C  229   4.528   3.527   4.607
    1C        C  230   4.498   3.739   4.725
    1C        C  231   4.539   3.602   4.727
    1C        C  232   4.493   3.817   4.842
    1C        C  233   4.540   3.750   4.955
    1C        C  234   4.010   2.616   2.060
    1C        C  235   3.890   2.545   2.061
    1C        C  236   4.084   2.645   2.175
    1C        C  237   4.019   2.607   2.295
    1C        C  238   4.198   2.730   2.417
    1C        C  239   4.083   2.646   2.415
    1C        C  240   4.254   2.776   2.538
    1C        C  241   4.194   2.735   2.659
    1C        C  242   4.329   2.902   2.779
    1C        C  243   4.241   2.792   2.780
    1C        C  244   4.371   2.960   2.901
    1C        C  245   4.332   2.903   3.024
    1C        C  246   4.429   3.090   3.144
    1C        C  247   4.366   2.963   3.147
    1C        C  248   4.455   3.158   3.265
    1C        C  249   4.431   3.096   3.390
    1C        C  250   4.493   3.297   3.511
    1C        C  251   4.455   3.161   3.513
    1C        C  252   4.508   3.368   3.633
    1C        C  253   4.493   3.302   3.757
    1C        C  254   4.518   3.515   3.873
    1C        C  255   4.513   3.374   3.877
    1C        C  256   4.516   3.585   3.996
    1C        C  257   4.523   3.517   4.119
    1C        C  258   4.491   3.730   4.236
    1C        C  259   4.517   3.592   4.239
    1C        C  260   4.468   3.798   4.358
    1C        C  261   4.484   3.730   4.481
    1C        C  262   4.418   3.933   4.604
    1C        C  263   4.466   3.800   4.602
    1C        C  264   4.394   4.007   4.722
    1C        C  265   4.428   3.943   4.843
    1C        C  266   4.315   4.127   4.959
    1C        C  267   4.389   4.010   4.960
    1C        C  268   4.261   2.773   2.058
    1C        C  269   4.199   2.726   2.175
    1C        C  270   4.344   2.886   2.294
    1C        C  271   4.249   2.780   2.295
    1C        C  272   4.383   2.946   2.416
    1C        C  273   4.344   2.886   2.537
    1C        C  274   4.444   3.078   2.657
    1C        C  275   4.375   2.955   2.656
    1C        C  276   4.468   3.148   2.778
    1C        C  277   4.439   3.084   2.901
    1C        C  278   4.502   3.288   3.021
    1C        C  279   4.464   3.152   3.022
    1C        C  280   4.505   3.360   3.142
    1C        C  281   4.495   3.294   3.266
    1C        C  282   4.510   3.506   3.386
    1C        C  283   4.506   3.365   3.388
    1C        C  284   4.511   3.580   3.507
    1C        C  285   4.517   3.509   3.629
    1C        C  286   4.487   3.722   3.749
    1C        C  287   4.510   3.582   3.749
    1C        C  288   4.470   3.791   3.871
    1C        C  289   4.488   3.724   3.993
    1C        C  290   4.419   3.928   4.115
    1C        C  291   4.473   3.797   4.113
    1C        C  292   4.390   3.991   4.238
    1C        C  293   4.422   3.932   4.362
    1C        C  294   4.319   4.121   4.479
    1C        C  295   4.388   3.998   4.482
    1C        C  296   4.274   4.183   4.598
    1C        C  297   4.324   4.131   4.720
    1C        C  298   4.197   4.309   4.839
    1C        C  299   4.282   4.194   4.840
    1C        C  300   4.167   4.401   4.945
    1C        C  301   4.348   2.881   2.057
    1C        C  302   4.472   3.063   2.173
    1C        C  303   4.396   2.941   2.174
    1C        C  304   4.486   3.135   2.294
    1C        C  305   4.447   3.073   2.415
    1C        C  306   4.502   3.280   2.531
    1C        C  307   4.472   3.142   2.535
    1C        C  308   4.510   3.353   2.652
    1C        C  309   4.500   3.285   2.776
    1C        C  310   4.520   3.496   2.896
    1C        C  311   4.520   3.355   2.897
    1C        C  312   4.511   3.569   3.017
    1C        C  313   4.513   3.501   3.141
    1C        C  314   4.483   3.712   3.259
    1C        C  315   4.509   3.574   3.262
    1C        C  316   4.469   3.783   3.381
    1C        C  317   4.487   3.719   3.506
    1C        C  318   4.431   3.926   3.623
    1C        C  319   4.475   3.791   3.626
    1C        C  320   4.393   3.986   3.746
    1C        C  321   4.421   3.924   3.869
    1C        C  322   4.310   4.106   3.988
    1C        C  323   4.385   3.986   3.991
    1C        C  324   4.272   4.166   4.110
    1C        C  325   4.314   4.110   4.233
    1C        C  326   4.182   4.277   4.352
    1C        C  327   4.280   4.174   4.354
    1C        C  328   4.129   4.333   4.471
    1C        C  329   4.182   4.289   4.594
    1C        C  330   4.023   4.432   4.713
    1C        C  331   4.135   4.344   4.716
    1C        C  332   3.964   4.487   4.829
    1C        C  333   4.048   4.475   4.941
    1C        C  334   4.549   3.264   2.058
    1C        C  335   4.535   3.125   2.060
    1C        C  336   4.542   3.344   2.173
    1C        C  337   4.518   3.274   2.293
    1C        C  338   4.521   3.493   2.407
    1C        C  339   4.519   3.352   2.411
    1C        C  340   4.516   3.564   2.529
    1C        C  341   4.521   3.494   2.652
    1C        C  342   4.495   3.705   2.771
    1C        C  343   4.521   3.566   2.773
    1C        C  344   4.477   3.776   2.891
    1C        C  345   4.490   3.709   3.015
    1C        C  346   4.418   3.911   3.135
    1C        C  347   4.465   3.778   3.135
    1C        C  348   4.389   3.977   3.257
    1C        C  349   4.420   3.915   3.380
    1C        C  350   4.313   4.100   3.498
    1C        C  351   4.396   3.986   3.501
    1C        C  352   4.265   4.155   3.620
    1C        C  353   4.313   4.102   3.742
    1C        C  354   4.175   4.265   3.864
    1C        C  355   4.266   4.157   3.863
    1C        C  356   4.119   4.311   3.986
    1C        C  357   4.172   4.266   4.109
    1C        C  358   4.011   4.402   4.229
    1C        C  359   4.127   4.321   4.230
    1C        C  360   3.950   4.445   4.349
    1C        C  361   4.014   4.414   4.472
    1C        C  362   3.825   4.514   4.589
    1C        C  363   3.955   4.458   4.592
    1C        C  364   3.758   4.548   4.709
    1C        C  365   3.833   4.539   4.828
    1C        C  366   3.623   4.583   4.944
    1C        C  367   3.761   4.564   4.946
    1C        C  368   4.509   3.562   2.050
    1C        C  369   4.529   3.485   2.166
    1C        C  370   4.503   3.701   2.282
    1C        C  371   4.523   3.562   2.284
    1C        C  372   4.483   3.771   2.403
    1C        C  373   4.498   3.704   2.527
    1C        C  374   4.426   3.905   2.645
    1C        C  375   4.477   3.773   2.648
    1C        C  376   4.395   3.969   2.767
    1C        C  377   4.427   3.909   2.891
    1C        C  378   4.312   4.090   3.008
    1C        C  379   4.389   3.971   3.011
    1C        C  380   4.268   4.148   3.129
    1C        C  381   4.309   4.093   3.253
    1C        C  382   4.172   4.255   3.375
    1C        C  383   4.268   4.152   3.375
    1C        C  384   4.115   4.302   3.495
    1C        C  385   4.167   4.256   3.618
    1C        C  386   4.004   4.388   3.741
    1C        C  387   4.120   4.308   3.741
    1C        C  388   3.941   4.426   3.862
    1C        C  389   4.002   4.390   3.985
    1C        C  390   3.814   4.484   4.104
    1C        C  391   3.944   4.429   4.107
    1C        C  392   3.749   4.513   4.226
    1C        C  393   3.820   4.500   4.347
    1C        C  394   3.613   4.545   4.470
    1C        C  395   3.753   4.526   4.468
    1C        C  396   3.542   4.554   4.592
    1C        C  397   3.618   4.562   4.711
    1C        C  398   3.403   4.545   4.836
    1C        C  399   3.542   4.568   4.830
    1C        C  400   3.334   4.511   4.953
    1C        C  401   4.499   3.700   2.047
    1C        C  402   4.447   3.911   2.163
    1C        C  403   4.492   3.777   2.164
    1C        C  404   4.404   3.970   2.283
    1C        C  405   4.430   3.902   2.404
    1C        C  406   4.321   4.090   2.524
    1C        C  407   4.392   3.967   2.523
    1C        C  408   4.279   4.150   2.645
    1C        C  409   4.319   4.088   2.765
    1C        C  410   4.169   4.244   2.884
    1C        C  411   4.270   4.145   2.885
    1C        C  412   4.115   4.292   3.005
    1C        C  413   4.170   4.250   3.129
    1C        C  414   4.000   4.374   3.250
    1C        C  415   4.120   4.300   3.251
    1C        C  416   3.941   4.415   3.372
    1C        C  417   4.000   4.384   3.497
    1C        C  418   3.813   4.481   3.618
    1C        C  419   3.940   4.419   3.620
    1C        C  420   3.744   4.506   3.738
    1C        C  421   3.812   4.481   3.860
    1C        C  422   3.607   4.530   3.985
    1C        C  423   3.747   4.508   3.982
    1C        C  424   3.537   4.535   4.107
    1C        C  425   3.609   4.533   4.228
    1C        C  426   3.397   4.544   4.354
    1C        C  427   3.538   4.545   4.350
    1C        C  428   3.327   4.545   4.477
    1C        C  429   3.401   4.551   4.597
    1C        C  430   3.187   4.514   4.720
    1C        C  431   3.328   4.538   4.717
    1C        C  432   3.119   4.488   4.841
    1C        C  433   3.197   4.486   4.957
    1C        C  434   4.381   4.114   2.050
    1C        C  435   4.443   3.988   2.046
    1C        C  436   4.298   4.157   2.159
    1C        C  437   4.324   4.088   2.281
    1C        C  438   4.181   4.248   2.399
    1C        C  439   4.278   4.145   2.402
    1C        C  440   4.123   4.293   2.519
    1C        C  441   4.179   4.249   2.641
    1C        C  442   4.000   4.370   2.760
    1C        C  443   4.116   4.290   2.761
    1C        C  444   3.939   4.406   2.882
    1C        C  445   3.999   4.372   3.005
    1C        C  446   3.806   4.459   3.130
    1C        C  447   3.936   4.405   3.127
    1C        C  448   3.742   4.488   3.252
    1C        C  449   3.811   4.471   3.374
    1C        C  450   3.607   4.530   3.493
    1C        C  451   3.746   4.502   3.495
    1C        C  452   3.536   4.537   3.614
    1C        C  453   3.605   4.533   3.738
    1C        C  454   3.396   4.531   3.863
    1C        C  455   3.538   4.538   3.862
    1C        C  456   3.327   4.522   3.985
    1C        C  457   3.395   4.531   4.108
    1C        C  458   3.190   4.496   4.234
    1C        C  459   3.328   4.526   4.232
    1C        C  460   3.124   4.474   4.357
    1C        C  461   3.191   4.509   4.477
    1C        C  462   2.991   4.432   4.601
    1C        C  463   3.122   4.486   4.598
    1C        C  464   2.926   4.399   4.722
    1C        C  465   2.984   4.439   4.846
    1C        C  466   2.794   4.335   4.957
    1C        C  467   2.897   4.430   4.959
    1C        C  468   4.119   4.281   2.039
    1C        C  469   4.184   4.243   2.157
    1C        C  470   4.006   4.370   2.275
    1C        C  471   4.123   4.290   2.277
    1C        C  472   3.939   4.400   2.395
    1C        C  473   4.004   4.369   2.517
    1C        C  474   3.810   4.463   2.640
    1C        C  475   3.941   4.408   2.637
    1C        C  476   3.742   4.487   2.761
    1C        C  477   3.810   4.465   2.883
    1C        C  478   3.604   4.512   3.007
    1C        C  479   3.742   4.482   3.006
    1C        C  480   3.533   4.528   3.128
    1C        C  481   3.605   4.525   3.250
    1C        C  482   3.394   4.531   3.374
    1C        C  483   3.535   4.537   3.372
    1C        C  484   3.324   4.527   3.496
    1C        C  485   3.395   4.536   3.618
    1C        C  486   3.188   4.493   3.742
    1C        C  487   3.325   4.528   3.741
    1C        C  488   3.123   4.469   3.865
    1C        C  489   3.189   4.491   3.989
    1C        C  490   2.998   4.409   4.112
    1C        C  491   3.122   4.476   4.112
    1C        C  492   2.936   4.379   4.236
    1C        C  493   2.994   4.419   4.358
    1C        C  494   2.823   4.298   4.482
    1C        C  495   2.931   4.390   4.481
    1C        C  496   2.768   4.252   4.604
    1C        C  497   2.814   4.311   4.723
    1C        C  498   2.658   4.162   4.844
    1C        C  499   2.747   4.271   4.841
    1C        C  500   2.585   4.118   4.955
    1C        C  501   3.999   4.351   2.035
    1C        C  502   3.812   4.458   2.153
    1C        C  503   3.939   4.397   2.153
    1C        C  504   3.742   4.480   2.273
    1C        C  505   3.809   4.454   2.395
    1C        C  506   3.602   4.501   2.517
    1C        C  507   3.742   4.476   2.517
    1C        C  508   3.532   4.514   2.638
    1C        C  509   3.603   4.513   2.760
    1C        C  510   3.394   4.525   2.881
    1C        C  511   3.535   4.520   2.884
    1C        C  512   3.323   4.517   3.004
    1C        C  513   3.392   4.525   3.127
    1C        C  514   3.187   4.489   3.251
    1C        C  515   3.325   4.521   3.251
    1C        C  516   3.121   4.464   3.374
    1C        C  517   3.187   4.492   3.495
    1C        C  518   2.995   4.408   3.620
    1C        C  519   3.123   4.468   3.619
    1C        C  520   2.936   4.371   3.743
    1C        C  521   2.997   4.405   3.866
    1C        C  522   2.830   4.280   3.996
    1C        C  523   2.941   4.367   3.989
    1C        C  524   2.777   4.233   4.118
    1C        C  525   2.827   4.289   4.238
    1C        C  526   2.686   4.135   4.364
    1C        C  527   2.772   4.247   4.361
    1C        C  528   2.645   4.077   4.486
    1C        C  529   2.681   4.140   4.607
    1C        C  530   2.576   3.955   4.731
    1C        C  531   2.630   4.087   4.727
    1C        C  532   2.538   3.899   4.856
    1C        C  533   2.523   3.993   4.962
    1C        C  534   3.617   4.559   2.038
    1C        C  535   3.749   4.511   2.039
    1C        C  536   3.533   4.531   2.150
    1C        C  537   3.602   4.507   2.272
    1C        C  538   3.391   4.512   2.395
    1C        C  539   3.532   4.511   2.395
    1C        C  540   3.321   4.508   2.518
    1C        C  541   3.391   4.515   2.641
    1C        C  542   3.181   4.482   2.760
    1C        C  543   3.319   4.512   2.762
    1C        C  544   3.120   4.454   2.885
    1C        C  545   3.187   4.479   3.006
    1C        C  546   2.997   4.393   3.132
    1C        C  547   3.121   4.459   3.130
    1C        C  548   2.935   4.360   3.255
    1C        C  549   2.997   4.396   3.376
    1C        C  550   2.831   4.270   3.502
    1C        C  551   2.936   4.363   3.500
    1C        C  552   2.779   4.226   3.626
    1C        C  553   2.830   4.278   3.747
    1C        C  554   2.693   4.121   3.872
    1C        C  555   2.784   4.229   3.872
    1C        C  556   2.651   4.065   3.995
    1C        C  557   2.692   4.121   4.118
    1C        C  558   2.590   3.942   4.242
    1C        C  559   2.656   4.067   4.244
    1C        C  560   2.560   3.880   4.366
    1C        C  561   2.582   3.950   4.486
    1C        C  562   2.526   3.749   4.611
    1C        C  563   2.558   3.886   4.610
    1C        C  564   2.513   3.680   4.734
    1C        C  565   2.521   3.756   4.853
    1C        C  566   2.531   3.543   4.970
    1C        C  567   2.524   3.682   4.972
    1C        C  568   3.322   4.471   2.033
    1C        C  569   3.393   4.507   2.148
    1C        C  570   3.183   4.478   2.274
    1C        C  571   3.322   4.505   2.272
    1C        C  572   3.116   4.453   2.396
    1C        C  573   3.184   4.473   2.519
    1C        C  574   2.986   4.398   2.645
    1C        C  575   3.110   4.465   2.639
    1C        C  576   2.924   4.362   2.767
    1C        C  577   2.993   4.391   2.887
    1C        C  578   2.823   4.270   3.012
    1C        C  579   2.935   4.357   3.010
    1C        C  580   2.776   4.219   3.135
    1C        C  581   2.825   4.271   3.257
    1C        C  582   2.694   4.107   3.381
    1C        C  583   2.778   4.221   3.380
    1C        C  584   2.652   4.055   3.506
    1C        C  585   2.687   4.119   3.627
    1C        C  586   2.584   3.938   3.750
    1C        C  587   2.650   4.063   3.751
    1C        C  588   2.559   3.874   3.874
    1C        C  589   2.589   3.938   3.996
    1C        C  590   2.529   3.739   4.127
    1C        C  591   2.565   3.876   4.120
    1C        C  592   2.513   3.669   4.248
    1C        C  593   2.523   3.744   4.368
    1C        C  594   2.506   3.533   4.494
    1C        C  595   2.517   3.674   4.491
    1C        C  596   2.513   3.462   4.616
    1C        C  597   2.510   3.538   4.735
    1C        C  598   2.527   3.324   4.859
    1C        C  599   2.518   3.465   4.855
    1C        C  600   2.535   3.247   4.976
    1C        C  601   3.193   4.423   2.041
    1C        C  602   2.979   4.392   2.156
    1C        C  603   3.116   4.433   2.157
    1C        C  604   2.922   4.355   2.281
    1C        C  605   2.989   4.392   2.400
    1C        C  606   2.820   4.267   2.525
    1C        C  607   2.929   4.356   2.523
    1C        C  608   2.767   4.218   2.647
    1C        C  609   2.816   4.271   2.768
    1C        C  610   2.684   4.107   2.890
    1C        C  611   2.770   4.219   2.891
    1C        C  612   2.647   4.051   3.014
    1C        C  613   2.687   4.109   3.137
    1C        C  614   2.580   3.927   3.264
    1C        C  615   2.651   4.049   3.260
    1C        C  616   2.553   3.864   3.387
    1C        C  617   2.586   3.930   3.507
    1C        C  618   2.518   3.732   3.638
    1C        C  619   2.558   3.867   3.631
    1C        C  620   2.507   3.663   3.761
    1C        C  621   2.521   3.738   3.880
    1C        C  622   2.512   3.529   4.008
    1C        C  623   2.516   3.670   4.004
    1C        C  624   2.515   3.455   4.129
    1C        C  625   2.512   3.528   4.250
    1C        C  626   2.541   3.321   4.376
    1C        C  627   2.516   3.460   4.373
    1C        C  628   2.558   3.253   4.498
    1C        C  629   2.542   3.324   4.619
    1C        C  630   2.594   3.116   4.744
    1C        C  631   2.551   3.252   4.740
    1C        C  632   2.613   3.044   4.865
    1C        C  633   2.562   3.110   4.981
    1C        C  634   2.781   4.298   2.052
    1C        C  635   2.890   4.385   2.044
    1C        C  636   2.745   4.226   2.166
    1C        C  637   2.808   4.269   2.284
    1C        C  638   2.672   4.108   2.409
    1C        C  639   2.759   4.220   2.407
    1C        C  640   2.638   4.043   2.530
    1C        C  641   2.680   4.107   2.649
    1C        C  642   2.577   3.920   2.775
    1C        C  643   2.640   4.046   2.770
    1C        C  644   2.560   3.855   2.899
    1C        C  645   2.586   3.924   3.020
    1C        C  646   2.522   3.722   3.147
    1C        C  647   2.555   3.860   3.142
    1C        C  648   2.514   3.652   3.269
    1C        C  649   2.523   3.726   3.389
    1C        C  650   2.513   3.522   3.518
    1C        C  651   2.514   3.663   3.515
    1C        C  652   2.519   3.453   3.641
    1C        C  653   2.510   3.522   3.764
    1C        C  654   2.542   3.316   3.888
    1C        C  655   2.513   3.454   3.888
    1C        C  656   2.559   3.246   4.010
    1C        C  657   2.543   3.317   4.131
    1C        C  658   2.603   3.116   4.255
    1C        C  659   2.558   3.250   4.255
    1C        C  660   2.634   3.052   4.377
    1C        C  661   2.605   3.119   4.498
    1C        C  662   2.708   2.937   4.623
    1C        C  663   2.635   3.059   4.621
    1C        C  664   2.750   2.873   4.742
    1C        C  665   2.698   2.928   4.862
    1C        C  666   2.736   2.862   4.979
    1C        C  667   2.673   4.019   2.054
    1C        C  668   2.680   4.101   2.168
    1C        C  669   2.581   3.912   2.291
    1C        C  670   2.636   4.043   2.289
    1C        C  671   2.551   3.845   2.412
    1C        C  672   2.576   3.916   2.531
    1C        C  673   2.508   3.717   2.659
    1C        C  674   2.545   3.854   2.654
    1C        C  675   2.500   3.645   2.780
    1C        C  676   2.524   3.718   2.899
    1C        C  677   2.505   3.512   3.029
    1C        C  678   2.512   3.653   3.024
    1C        C  679   2.514   3.442   3.151
    1C        C  680   2.512   3.511   3.275
    1C        C  681   2.537   3.306   3.399
    1C        C  682   2.511   3.445   3.400
    1C        C  683   2.555   3.240   3.523
    1C        C  684   2.538   3.312   3.643
    1C        C  685   2.608   3.114   3.766
    1C        C  686   2.558   3.246   3.767
    1C        C  687   2.641   3.051   3.888
    1C        C  688   2.605   3.112   4.010
    1C        C  689   2.714   2.934   4.138
    1C        C  690   2.634   3.050   4.134
    1C        C  691   2.756   2.875   4.260
    1C        C  692   2.711   2.933   4.380
    1C        C  693   2.752   2.877   4.504
    1C        C  694   2.626   3.888   2.057
    1C        C  695   2.518   3.702   2.174
    1C        C  696   2.573   3.832   2.174
    1C        C  697   2.498   3.634   2.296
    1C        C  698   2.512   3.709   2.415
    1C        C  699   2.485   3.504   2.542
    1C        C  700   2.492   3.645   2.539
    1C        C  701   2.504   3.433   2.663
    1C        C  702   2.498   3.504   2.785
    1C        C  703   2.531   3.298   2.908
    1C        C  704   2.506   3.437   2.909
    1C        C  705   2.546   3.231   3.032
    1C        C  706   2.531   3.302   3.153
    1C        C  707   2.602   3.105   3.275
    1C        C  708   2.548   3.236   3.277
    1C        C  709   2.635   3.043   3.398
    1C        C  710   2.606   3.108   3.520
    1C        C  711   2.715   2.930   3.647
    1C        C  712   2.639   3.049   3.644
    1C        C  713   2.757   2.874   3.770
    1C        C  714   2.718   2.933   3.892
    1C        C  715   2.758   2.878   4.016
    1C        C  716   2.444   3.497   2.059
    1C        C  717   2.492   3.628   2.058
    1C        C  718   2.455   3.418   2.179
    1C        C  719   2.477   3.493   2.297
    1C        C  720   2.513   3.290   2.425
    1C        C  721   2.484   3.428   2.423
    1C        C  722   2.538   3.220   2.545
    1C        C  723   2.530   3.295   2.665
    1C        C  724   2.597   3.095   2.786
    1C        C  725   2.546   3.226   2.787
    1C        C  726   2.632   3.035   2.910
    1C        C  727   2.597   3.100   3.030
    1C        C  728   2.705   2.920   3.157
    1C        C  729   2.630   3.039   3.154
    1C        C  730   2.751   2.867   3.280
    1C        C  731   2.714   2.926   3.403
    1C        C  732   2.753   2.868   3.526
    1C        C  733   2.474   3.191   2.073
    1C        C  734   2.476   3.277   2.184
    1C        C  735   2.587   3.091   2.301
    1C        C  736   2.524   3.218   2.304
    1C        C  737   2.620   3.023   2.420
    1C        C  738   2.593   3.090   2.542
    1C        C  739   2.696   2.907   2.666
    1C        C  740   2.619   3.025   2.665
    1C        C  741   2.740   2.853   2.789
    1C        C  742   2.704   2.913   2.911
    1C        C  743   2.745   2.859   3.035
    1C        C  744   2.530   3.063   2.074
    1C        C  745   2.678   2.896   2.181
    1C        C  746   2.608   3.018   2.181
    1C        C  747   2.725   2.837   2.301
    1C        C  748   2.686   2.898   2.422
    1C        C  749   2.733   2.846   2.544
    1C        C  750   2.731   2.841   2.064
    1C        C  751   3.643   2.309   1.977
    1C        O  752   3.687   2.199   2.017
    1C        O  753   3.672   2.330   1.841
    1C        C  754   4.614   3.048   1.960
    1C        O  755   4.576   3.039   1.841
    1C        O  756   4.752   3.032   1.973
    1C        C  757   4.451   4.210   1.963
    1C        O  758   4.558   4.266   1.998
    1C        O  759   4.448   4.197   1.823
    1C        C  760   3.595   4.662   1.934
    1C        O  761   3.550   4.778   1.954
    1C        O  762   3.596   4.626   1.799
    1C        C  763   2.875   4.489   1.940
    1C        O  764   2.906   4.475   1.818
    1C        O  765   2.792   4.601   1.950
    1C        C  766   2.340   3.475   1.956
    1C        O  767   2.354   3.445   1.835
    1C        O  768   2.203   3.496   1.980
    1C        C  769   4.680   3.581   5.065
    1C        O  770   4.655   3.614   5.184
    1C        O  771   4.816   3.558   5.040
    1C        C  772   4.269   4.453   5.038
    1C        O  773   4.248   4.471   5.161
    1C        O  774   4.367   4.548   5.008
    1C        C  775   4.137   2.529   5.078
    1C        O  776   4.178   2.410   5.088
    1C        O  777   4.106   2.578   5.205
    1C        C  778   2.895   4.518   5.078
    1C        O  779   2.815   4.615   5.075
    1C        O  780   2.909   4.479   5.211
    1C        C  781   2.471   3.035   5.071
    1C        O  782   2.373   2.962   5.039
    1C        O  783   2.465   3.058   5.208
    1C        C  784   2.398   3.994   5.042
    1C        O  785   2.305   4.071   5.004
    1C        O  786   2.379   3.955   5.176
    1C        C  787   2.940   2.398   2.016
    1C        O  788   2.959   2.350   1.901
    1C        O  789   2.875   2.297   2.085
    1C        C  790   3.177   2.356   5.047
    1C        O  791   3.148   2.253   4.981
    1C        O  792   3.206   2.352   5.184
    1C        H  793   4.331   2.980   5.063
    1C        H  794   4.118   2.848   5.040
    1C        H  795   4.507   3.120   5.053
    1C        H  796   4.522   3.363   5.066
    1C        H  797   4.536   3.791   5.054
    1C        H  798   4.379   3.952   5.049
    1C        H  799   4.304   4.178   5.052
    1C        H  800   4.051   4.563   5.001
    1C        H  801   3.806   4.555   5.043
    1C        H  802   3.588   4.647   5.022
    1C        H  803   3.391   4.501   5.043
    1C        H  804   3.152   4.458   5.050
    1C        H  805   3.898   2.470   5.063
    1C        H  806   3.670   2.406   5.049
    1C        H  807   2.986   2.523   5.051
    1C        H  808   3.447   2.454   5.072
    1C        H  809   2.894   2.769   5.075
    1C        H  810   2.657   2.849   5.051
    1C        H  811   2.508   3.289   5.071
    1C        H  812   2.505   3.498   5.064
    1C        H  813   2.584   3.721   5.052
    1C        H  814   2.575   4.184   5.040
    1C        H  815   2.774   4.288   5.051
    1C        H  816   2.717   2.894   1.972
    1C        H  817   2.864   2.704   1.976
    1C        H  818   3.208   2.471   1.981
    1C        H  819   3.428   2.487   1.984
    1C        H  820   3.873   2.487   1.972
    1C        H  821   4.037   2.659   1.965
    1C        H  822   4.229   2.733   1.964
    1C        H  823   4.358   2.925   1.960
    1C        H  824   4.593   3.300   1.967
    1C        H  825   4.496   3.507   1.959
    1C        H  826   4.447   3.738   1.961
    1C        H  827   3.796   4.496   1.945
    1C        H  828   3.942   4.334   1.947
    1C        H  829   4.168   4.251   1.949
    1C        H  830   4.468   3.950   1.950
    1C        H  831   2.627   3.834   1.965
    1C        H  832   2.748   4.040   1.980
    1C        H  833   2.707   4.307   1.974
    1C        H  834   3.356   4.499   1.935
    1C        H  835   3.166   4.345   1.972
    1C        H  836   2.494   2.988   2.008
    1C        H  837   2.424   3.218   1.982
    1C        H  838   2.504   3.674   1.962
    2V3OU   H29  839   2.795   3.550   1.552
    2V3OU   C27  840   2.783   3.499   1.651
    2V3OU   H27  841   2.730   3.575   1.714
    2V3OU   H28  842   2.725   3.405   1.632
    2V3OU   O11  843   2.912   3.473   1.706
    2V3OU   C15  844   2.919   3.396   1.820
    2V3OU   C13  845   3.049   3.369   1.869
    2V3OU   C14  846   3.073   3.263   1.958
    2V3OU   C16  847   2.966   3.185   2.001
    2V3OU    H6  848   2.987   3.101   2.068
    2V3OU   C12  849   3.207   3.235   2.014
    2V3OU    O2  850   3.237   3.125   2.065
    2V3OU   C10  851   3.320   3.308   1.955
    2V3OU    C8  852   3.452   3.271   1.976
    2V3OU   O10  853   3.485   3.148   2.025
    2V3OU   H26  854   3.398   3.109   2.043
    2V3OU    C6  855   3.561   3.346   1.922
    2V3OU    C5  856   3.533   3.462   1.851
    2V3OU    C4  857   3.699   3.292   1.929
    2V3OU    H4  858   3.725   3.222   2.015
    2V3OU    H5  859   3.707   3.229   1.836
    2V3OU    C2  860   3.811   3.397   1.924
    2V3OU    O6  861   3.809   3.473   2.045
    2V3OU   H21  862   3.766   3.559   2.031
    2V3OU    C3  863   3.775   3.491   1.808
    2V3OU    H2  864   3.857   3.566   1.793
    2V3OU    H3  865   3.774   3.427   1.717
    2V3OU   C25  866   3.945   3.326   1.910
    2V3OU    O7  867   3.996   3.300   1.801
    2V3OU   C26  868   4.027   3.288   2.033
    2V3OU   H22  869   4.063   3.386   2.074
    2V3OU   H23  870   4.109   3.217   2.004
    2V3OU    O8  871   3.962   3.211   2.132
    2V3OU   H24  872   3.923   3.260   2.206
    2V3OU    C1  873   3.641   3.562   1.822
    2V3OU    H1  874   3.622   3.619   1.726
    2V3OU    O3  875   3.656   3.646   1.936
    2V3OU   C19  876   3.615   3.783   1.929
    2V3OU    H9  877   3.517   3.793   1.875
    2V3OU    O4  878   3.704   3.844   1.839
    2V3OU   C20  879   3.836   3.868   1.889
    2V3OU   H10  880   3.891   3.770   1.901
    2V3OU   C24  881   3.606   3.851   2.066
    2V3OU   H16  882   3.545   3.788   2.136
    2V3OU   H17  883   3.561   3.952   2.055
    2V3OU   C23  884   3.749   3.871   2.117
    2V3OU   H15  885   3.789   3.765   2.131
    2V3OU    N1  886   3.736   3.949   2.239
    2V3OU   H19  887   3.804   3.913   2.303
    2V3OU   H20  888   3.643   3.935   2.272
    2V3OU   C21  889   3.846   3.946   2.021
    2V3OU   H11  890   3.950   3.930   2.061
    2V3OU    O5  891   3.818   4.085   2.025
    2V3OU   H18  892   3.775   4.100   2.111
    2V3OU   C22  893   3.905   3.942   1.775
    2V3OU   H12  894   3.860   4.044   1.764
    2V3OU   H13  895   3.898   3.882   1.681
    2V3OU   H14  896   4.012   3.962   1.800
    2V3OU   C11  897   3.155   3.467   1.846
    2V3OU    O1  898   3.132   3.583   1.805
    2V3OU    C9  899   3.293   3.425   1.878
    2V3OU    C7  900   3.398   3.501   1.827
    2V3OU    O9  901   3.389   3.616   1.751
    2V3OU   H25  902   3.294   3.625   1.734
    2V3OU   C17  903   2.815   3.309   1.860
    2V3OU    H7  904   2.713   3.338   1.836
    2V3OU   C18  905   2.838   3.208   1.952
    2V3OU    H8  906   2.751   3.150   1.986
    3SOL     OW  907   1.994   4.114   1.484
    3SOL    HW1  908   2.049   4.040   1.444
    3SOL    HW2  909   2.018   4.201   1.440
    4SOL     OW  910   5.789   0.051   1.529
    4SOL    HW1  911   5.862   7.005   1.558
    4SOL    HW2  912   5.700   0.007   1.541
    5SOL     OW  913   4.242   1.257   1.227
    5SOL    HW1  914   4.272   1.211   1.143
    5SOL    HW2  915   4.143   1.247   1.237
    6SOL     OW  916   3.154   2.089   2.041
    6SOL    HW1  917   3.150   2.180   2.083
    6SOL    HW2  918   3.072   2.074   1.986
    7SOL     OW  919   6.057   2.403   2.221
    7SOL    HW1  920   5.971   2.429   2.265
    7SOL    HW2  921   6.081   2.310   2.249
    8SOL     OW  922   2.593   6.615   4.136
    8SOL    HW1  923   2.563   6.710   4.147
    8SOL    HW2  924   2.515   6.554   4.152
    9SOL     OW  925   1.747   5.485   5.739
    9SOL    HW1  926   1.829   5.535   5.766
    9SOL    HW2  927   1.672   5.509   5.800
   10SOL     OW  928   0.719   4.536   6.133
   10SOL    HW1  929   0.679   4.627   6.145
   10SOL    HW2  930   0.812   4.545   6.098
   11SOL     OW  931   3.851   6.646   0.180
   11SOL    HW1  932   3.780   6.591   0.136
   11SOL    HW2  933   3.885   6.598   0.261
   12SOL     OW  934   5.085   5.683   3.271
   12SOL    HW1  935   5.067   5.674   3.173
   12SOL    HW2  936   5.038   5.610   3.321
   13SOL     OW  937   2.814   6.419   4.170
   13SOL    HW1  938   2.804   6.477   4.251
   13SOL    HW2  939   2.842   6.474   4.092
   14SOL     OW  940   3.647   5.825   6.911
   14SOL    HW1  941   3.703   5.742   6.913
   14SOL    HW2  942   3.706   5.904   6.900
   15SOL     OW  943   1.035   6.140   6.955
   15SOL    HW1  944   0.942   6.165   6.925
   15SOL    HW2  945   1.077   6.218   7.001
   16SOL     OW  946   6.726   1.909   6.024
   16SOL    HW1  947   6.746   1.997   5.981
   16SOL    HW2  948   6.740   1.917   6.123
   17SOL     OW  949   5.483   6.558   4.116
   17SOL    HW1  950   5.420   6.542   4.040
   17SOL    HW2  951   5.453   6.638   4.168
   18SOL     OW  952   2.075   1.895   5.951
   18SOL    HW1  953   2.077   1.929   6.046
   18SOL    HW2  954   2.168   1.897   5.914
   19SOL     OW  955   0.103   7.000   2.880
   19SOL    HW1  956   0.173   7.015   2.810
   19SOL    HW2  957   0.015   0.017   2.847
   20SOL     OW  958   3.647   1.557   4.061
   20SOL    HW1  959   3.705   1.482   4.028
   20SOL    HW2  960   3.577   1.521   4.122
   21SOL     OW  961   3.113   1.815   2.082
   21SOL    HW1  962   3.131   1.913   2.080
   21SOL    HW2  963   3.026   1.797   2.035
   22SOL     OW  964   2.305   6.569   6.429
   22SOL    HW1  965   2.232   6.637   6.428
   22SOL    HW2  966   2.279   6.492   6.486
   23SOL     OW  967   4.325   6.202   3.742
   23SOL    HW1  968   4.257   6.266   3.706
   23SOL    HW2  969   4.407   6.206   3.685
   24SOL     OW  970   5.172   0.984   4.392
   24SOL    HW1  971   5.191   0.961   4.296
   24SOL    HW2  972   5.150   0.901   4.443
   25SOL     OW  973   3.082   5.565   0.170
   25SOL    HW1  974   3.179   5.581   0.151
   25SOL    HW2  975   3.035   5.653   0.177
   26SOL     OW  976   6.405   1.325   1.813
   26SOL    HW1  977   6.367   1.391   1.879
   26SOL    HW2  978   6.478   1.368   1.761
   27SOL     OW  979   6.368   0.153   2.564
   27SOL    HW1  980   6.366   0.229   2.630
   27SOL    HW2  981   6.457   0.108   2.569
   28SOL     OW  982   4.124   1.027   6.475
   28SOL    HW1  983   4.153   0.944   6.428
   28SOL    HW2  984   4.076   1.087   6.411
   29SOL     OW  985   5.357   2.542   2.216
   29SOL    HW1  986   5.401   2.497   2.293
   29SOL    HW2  987   5.310   2.474   2.160
   30SOL     OW  988   2.870   6.980   5.429
   30SOL    HW1  989   2.959   6.942   5.403
   30SOL    HW2  990   2.825   0.001   5.348
   31SOL     OW  991   0.872   0.982   5.204
   31SOL    HW1  992   0.961   1.026   5.194
   31SOL    HW2  993   0.877   0.912   5.276
   32SOL     OW  994   0.660   2.118   2.672
   32SOL    HW1  995   0.690   2.135   2.766
   32SOL    HW2  996   0.708   2.038   2.636
   33SOL     OW  997   1.564   2.912   5.645
   33SOL    HW1  998   1.582   2.827   5.595
   33SOL    HW2  999   1.650   2.962   5.658
   34SOL     OW 1000   2.068   0.149   4.865
   34SOL    HW1 1001   2.041   0.106   4.779
   34SOL    HW2 1002   2.164   0.129   4.884
   35SOL     OW 1003   3.994   1.732   6.679
   35SOL    HW1 1004   3.901   1.744   6.713
   35SOL    HW2 1005   4.039   1.658   6.729
   36SOL     OW 1006   1.111   0.726   6.436
   36SOL    HW1 1007   1.115   0.779   6.521
   36SOL    HW2 1008   1.204   0.713   6.400
   37SOL     OW 1009   2.425   6.495   1.474
   37SOL    HW1 1010   2.495   6.546   1.425
   37SOL    HW2 1011   2.339   6.546   1.472
   38SOL     OW 1012   6.927   6.120   2.784
   38SOL    HW1 1013   7.007   6.114   2.724
   38SOL    HW2 1014   6.911   6.216   2.808
   39SOL     OW 1015   6.142   3.784   5.885
   39SOL    HW1 1016   6.227   3.733   5.898
   39SOL    HW2 1017   6.064   3.724   5.903
   40SOL     OW 1018   6.411   1.441   2.789
   40SOL    HW1 1019   6.328   1.486   2.757
   40SOL    HW2 1020   6.441   1.373   2.723
   41SOL     OW 1021   1.638   6.869   4.304
   41SOL    HW1 1022   1.667   6.781   4.266
   41SOL    HW2 1023   1.717   6.913   4.348
   42SOL     OW 1024   3.421   6.989   6.231
   42SOL    HW1 1025   3.344   6.947   6.183
   42SOL    HW2 1026   3.427   6.952   6.323
   43SOL     OW 1027   5.495   6.437   5.799
   43SOL    HW1 1028   5.529   6.527   5.828
   43SOL    HW2 1029   5.400   6.427   5.826
   44SOL     OW 1030   0.253   3.087   6.308
   44SOL    HW1 1031   0.172   3.119   6.355
   44SOL    HW2 1032   0.236   2.997   6.268
   45SOL     OW 1033   2.983   0.659   2.420
   45SOL    HW1 1034   2.892   0.640   2.382
   45SOL    HW2 1035   2.973   0.703   2.509
   46SOL     OW 1036   1.206   3.657   4.440
   46SOL    HW1 1037   1.156   3.597   4.502
   46SOL    HW2 1038   1.227   3.608   4.356
   47SOL     OW 1039   6.166   3.918   3.449
   47SOL    HW1 1040   6.086   3.925   3.508
   47SOL    HW2 1041   6.247   3.952   3.498
   48SOL     OW 1042   0.445   2.810   4.584
   48SOL    HW1 1043   0.398   2.750   4.519
   48SOL    HW2 1044   0.427   2.778   4.677
   49SOL     OW 1045   4.641   4.223   1.155
   49SOL    HW1 1046   4.596   4.312   1.169
   49SOL    HW2 1047   4.576   4.158   1.117
   50SOL     OW 1048   6.738   3.330   4.485
   50SOL    HW1 1049   6.662   3.347   4.421
   50SOL    HW2 1050   6.825   3.338   4.436
   51SOL     OW 1051   3.606   5.000   2.716
   51SOL    HW1 1052   3.516   4.987   2.674
   51SOL    HW2 1053   3.597   5.057   2.798
   52SOL     OW 1054   2.805   1.687   2.514
   52SOL    HW1 1055   2.882   1.638   2.554
   52SOL    HW2 1056   2.786   1.651   2.423
   53SOL     OW 1057   4.649   6.826   3.916
   53SOL    HW1 1058   4.674   6.753   3.853
   53SOL    HW2 1059   4.729   6.880   3.940
   54SOL     OW 1060   2.849   5.087   6.084
   54SOL    HW1 1061   2.866   5.026   6.007
   54SOL    HW2 1062   2.914   5.163   6.081
   55SOL     OW 1063   3.743   1.114   6.046
   55SOL    HW1 1064   3.717   1.050   5.973
   55SOL    HW2 1065   3.841   1.110   6.060
   56SOL     OW 1066   1.747   0.655   2.292
   56SOL    HW1 1067   1.746   0.663   2.392
   56SOL    HW2 1068   1.669   0.706   2.254
   57SOL     OW 1069   5.118   0.839   0.465
   57SOL    HW1 1070   5.096   0.932   0.435
   57SOL    HW2 1071   5.181   0.843   0.543
   58SOL     OW 1072   0.182   6.062   7.012
   58SOL    HW1 1073   0.204   6.154   6.979
   58SOL    HW2 1074   0.189   6.059   0.095
   59SOL     OW 1075   1.565   0.428   5.800
   59SOL    HW1 1076   1.585   0.339   5.841
   59SOL    HW2 1077   1.552   0.496   5.872
   60SOL     OW 1078   4.435   0.253   5.782
   60SOL    HW1 1079   4.380   0.334   5.762
   60SOL    HW2 1080   4.429   0.232   5.879
   61SOL     OW 1081   5.091   0.187   4.170
   61SOL    HW1 1082   5.045   0.198   4.081
   61SOL    HW2 1083   5.031   0.140   4.233
   62SOL     OW 1084   1.053   0.383   3.860
   62SOL    HW1 1085   1.152   0.389   3.842
   62SOL    HW2 1086   1.030   0.438   3.940
   63SOL     OW 1087   6.410   2.200   3.445
   63SOL    HW1 1088   6.411   2.277   3.509
   63SOL    HW2 1089   6.505   2.177   3.420
   64SOL     OW 1090   6.460   3.789   6.262
   64SOL    HW1 1091   6.409   3.794   6.348
   64SOL    HW2 1092   6.492   3.881   6.237
   65SOL     OW 1093   6.862   4.686   4.927
   65SOL    HW1 1094   6.808   4.614   4.972
   65SOL    HW2 1095   6.912   4.739   4.996
   66SOL     OW 1096   3.564   0.663   6.648
   66SOL    HW1 1097   3.492   0.683   6.713
   66SOL    HW2 1098   3.588   0.566   6.652
   67SOL     OW 1099   5.919   6.692   5.300
   67SOL    HW1 1100   5.937   6.689   5.399
   67SOL    HW2 1101   5.949   6.607   5.258
   68SOL     OW 1102   5.965   1.507   6.799
   68SOL    HW1 1103   5.960   1.533   6.895
   68SOL    HW2 1104   6.060   1.490   6.774
   69SOL     OW 1105   1.877   4.149   6.123
   69SOL    HW1 1106   1.968   4.134   6.161
   69SOL    HW2 1107   1.846   4.066   6.076
   70SOL     OW 1108   6.498   5.530   2.710
   70SOL    HW1 1109   6.404   5.507   2.685
   70SOL    HW2 1110   6.502   5.624   2.744
   71SOL     OW 1111   2.840   2.349   3.655
   71SOL    HW1 1112   2.896   2.304   3.725
   71SOL    HW2 1113   2.774   2.409   3.700
   72SOL     OW 1114   3.239   5.843   3.778
   72SOL    HW1 1115   3.281   5.901   3.848
   72SOL    HW2 1116   3.262   5.748   3.796
   73SOL     OW 1117   3.224   2.381   6.842
   73SOL    HW1 1118   3.278   2.306   6.803
   73SOL    HW2 1119   3.279   2.465   6.839
   74SOL     OW 1120   5.442   6.840   0.242
   74SOL    HW1 1121   5.505   6.825   0.319
   74SOL    HW2 1122   5.493   6.850   0.158
   75SOL     OW 1123   3.488   5.344   5.116
   75SOL    HW1 1124   3.409   5.284   5.102
   75SOL    HW2 1125   3.545   5.307   5.190
   76SOL     OW 1126   2.258   2.074   1.178
   76SOL    HW1 1127   2.233   1.980   1.156
   76SOL    HW2 1128   2.194   2.110   1.246
   77SOL     OW 1129   5.383   5.522   4.914
   77SOL    HW1 1130   5.337   5.451   4.967
   77SOL    HW2 1131   5.481   5.504   4.910
   78SOL     OW 1132   6.358   6.423   6.225
   78SOL    HW1 1133   6.357   6.381   6.134
   78SOL    HW2 1134   6.268   6.462   6.245
   79SOL     OW 1135   3.378   0.078   0.808
   79SOL    HW1 1136   3.308   0.145   0.783
   79SOL    HW2 1137   3.362   7.010   0.757
   80SOL     OW 1138   6.554   0.720   5.205
   80SOL    HW1 1139   6.542   0.796   5.141
   80SOL    HW2 1140   6.588   0.755   5.292
   81SOL     OW 1141   2.018   0.715   2.884
   81SOL    HW1 1142   1.944   0.781   2.897
   81SOL    HW2 1143   2.027   0.659   2.966
   82SOL     OW 1144   6.671   5.078   6.682
   82SOL    HW1 1145   6.687   5.052   6.587
   82SOL    HW2 1146   6.578   5.112   6.692
   83SOL     OW 1147   6.988   6.833   0.606
   83SOL    HW1 1148   0.021   6.873   0.683
   83SOL    HW2 1149   6.890   6.848   0.617
   84SOL     OW 1150   5.452   3.568   2.309
   84SOL    HW1 1151   5.509   3.487   2.297
   84SOL    HW2 1152   5.445   3.618   2.223
   85SOL     OW 1153   0.684   1.135   5.055
   85SOL    HW1 1154   0.743   1.080   5.114
   85SOL    HW2 1155   0.617   1.184   5.111
   86SOL     OW 1156   0.099   0.410   5.818
   86SOL    HW1 1157   0.033   0.484   5.804
   86SOL    HW2 1158   0.055   0.323   5.798
   87SOL     OW 1159   4.684   2.759   0.290
   87SOL    HW1 1160   4.610   2.802   0.239
   87SOL    HW2 1161   4.732   2.694   0.230
   88SOL     OW 1162   4.924   1.626   0.271
   88SOL    HW1 1163   4.840   1.607   0.322
   88SOL    HW2 1164   4.998   1.645   0.336
   89SOL     OW 1165   1.638   2.780   6.640
   89SOL    HW1 1166   1.544   2.803   6.665
   89SOL    HW2 1167   1.646   2.681   6.629
   90SOL     OW 1168   5.221   6.389   3.707
   90SOL    HW1 1169   5.272   6.311   3.674
   90SOL    HW2 1170   5.124   6.378   3.683
   91SOL     OW 1171   4.509   4.427   3.840
   91SOL    HW1 1172   4.469   4.481   3.914
   91SOL    HW2 1173   4.564   4.353   3.879
   92SOL     OW 1174   2.993   5.393   0.352
   92SOL    HW1 1175   3.052   5.448   0.293
   92SOL    HW2 1176   3.045   5.314   0.386
   93SOL     OW 1177   3.068   4.592   5.724
   93SOL    HW1 1178   2.987   4.544   5.689
   93SOL    HW2 1179   3.061   4.689   5.703
   94SOL     OW 1180   3.270   5.361   6.933
   94SOL    HW1 1181   3.361   5.370   6.975
   94SOL    HW2 1182   3.227   5.450   6.927
   95SOL     OW 1183   0.515   1.083   3.374
   95SOL    HW1 1184   0.568   1.158   3.334
   95SOL    HW2 1185   0.534   1.078   3.472
   96SOL     OW 1186   2.495   6.874   5.522
   96SOL    HW1 1187   2.574   6.853   5.580
   96SOL    HW2 1188   2.466   6.968   5.538
   97SOL     OW 1189   6.556   4.081   4.689
   97SOL    HW1 1190   6.520   4.070   4.782
   97SOL    HW2 1191   6.488   4.047   4.623
   98SOL     OW 1192   5.709   2.879   6.388
   98SOL    HW1 1193   5.798   2.837   6.370
   98SOL    HW2 1194   5.661   2.892   6.301
   99SOL     OW 1195   4.299   2.966   0.968
   99SOL    HW1 1196   4.272   3.034   0.899
   99SOL    HW2 1197   4.350   3.010   1.041
  100SOL     OW 1198   0.400   6.755   6.614
  100SOL    HW1 1199   0.459   6.803   6.548
  100SOL    HW2 1200   0.443   6.669   6.640
  101SOL     OW 1201   0.736   5.749   3.429
  101SOL    HW1 1202   0.777   5.782   3.344
  101SOL    HW2 1203   0.757   5.813   3.503
  102SOL     OW 1204   4.295   0.513   3.229
  102SOL    HW1 1205   4.241   0.583   3.182
  102SOL    HW2 1206   4.330   0.550   3.315
  103SOL     OW 1207   4.299   1.492   1.853
  103SOL    HW1 1208   4.342   1.577   1.824
  103SOL    HW2 1209   4.332   1.417   1.797
  104SOL     OW 1210   6.496   5.291   3.043
  104SOL    HW1 1211   6.528   5.290   2.948
  104SOL    HW2 1212   6.401   5.321   3.047
  105SOL     OW 1213   6.826   1.008   6.757
  105SOL    HW1 1214   6.882   1.031   6.836
  105SOL    HW2 1215   6.742   0.963   6.787
  106SOL     OW 1216   2.519   6.672   6.572
  106SOL    HW1 1217   2.430   6.641   6.541
  106SOL    HW2 1218   2.516   6.688   6.671
  107SOL     OW 1219   1.531   1.994   1.400
  107SOL    HW1 1220   1.594   1.947   1.462
  107SOL    HW2 1221   1.563   1.982   1.306
  108SOL     OW 1222   4.699   4.288   0.092
  108SOL    HW1 1223   4.639   4.327   0.022
  108SOL    HW2 1224   4.792   4.322   0.079
  109SOL     OW 1225   0.552   0.453   1.276
  109SOL    HW1 1226   0.543   0.533   1.217
  109SOL    HW2 1227   0.524   0.371   1.226
  110SOL     OW 1228   3.684   5.740   5.609
  110SOL    HW1 1229   3.662   5.689   5.525
  110SOL    HW2 1230   3.733   5.680   5.672
  111SOL     OW 1231   3.907   0.760   4.148
  111SOL    HW1 1232   3.920   0.788   4.053
  111SOL    HW2 1233   3.963   0.679   4.167
  112SOL     OW 1234   5.714   5.968   5.586
  112SOL    HW1 1235   5.735   6.029   5.663
  112SOL    HW2 1236   5.706   6.022   5.502
  113SOL     OW 1237   6.452   4.854   3.625
  113SOL    HW1 1238   6.401   4.901   3.697
  113SOL    HW2 1239   6.543   4.894   3.616
  114SOL     OW 1240   0.503   6.675   0.859
  114SOL    HW1 1241   0.569   6.654   0.931
  114SOL    HW2 1242   0.434   6.738   0.896
  115SOL     OW 1243   4.813   0.991   4.143
  115SOL    HW1 1244   4.732   1.030   4.097
  115SOL    HW2 1245   4.786   0.954   4.231
  116SOL     OW 1246   6.232   5.004   2.238
  116SOL    HW1 1247   6.310   5.002   2.300
  116SOL    HW2 1248   6.265   5.003   2.143
  117SOL     OW 1249   0.677   0.988   6.366
  117SOL    HW1 1250   0.690   0.967   6.269
  117SOL    HW2 1251   0.664   1.087   6.377
  118SOL     OW 1252   0.345   1.124   1.414
  118SOL    HW1 1253   0.437   1.134   1.377
  118SOL    HW2 1254   0.299   1.213   1.415
  119SOL     OW 1255   0.050   2.071   6.204
  119SOL    HW1 1256   0.036   2.084   6.302
  119SOL    HW2 1257   0.108   2.144   6.168
  120SOL     OW 1258   6.329   0.318   0.851
  120SOL    HW1 1259   6.315   0.284   0.758
  120SOL    HW2 1260   6.243   0.357   0.885
  121SOL     OW 1261   2.442   3.407   6.785
  121SOL    HW1 1262   2.356   3.457   6.798
  121SOL    HW2 1263   2.439   3.322   6.837
  122SOL     OW 1264   1.437   4.142   5.125
  122SOL    HW1 1265   1.537   4.140   5.129
  122SOL    HW2 1266   1.408   4.133   5.030
  123SOL     OW 1267   0.103   2.359   1.095
  123SOL    HW1 1268   0.197   2.362   1.060
  123SOL    HW2 1269   0.061   2.272   1.073
  124SOL     OW 1270   5.007   3.518   0.589
  124SOL    HW1 1271   5.086   3.477   0.542
  124SOL    HW2 1272   4.930   3.454   0.585
  125SOL     OW 1273   2.065   2.002   2.504
  125SOL    HW1 1274   1.971   2.024   2.529
  125SOL    HW2 1275   2.119   1.984   2.586
  126SOL     OW 1276   3.223   4.489   0.598
  126SOL    HW1 1277   3.245   4.395   0.626
  126SOL    HW2 1278   3.225   4.549   0.678
  127SOL     OW 1279   6.673   4.930   5.983
  127SOL    HW1 1280   6.577   4.911   6.006
  127SOL    HW2 1281   6.728   4.928   6.066
  128SOL     OW 1282   4.594   2.646   1.816
  128SOL    HW1 1283   4.651   2.685   1.888
  128SOL    HW2 1284   4.634   2.560   1.783
  129SOL     OW 1285   3.594   3.286   6.312
  129SOL    HW1 1286   3.587   3.386   6.303
  129SOL    HW2 1287   3.637   3.248   6.230
  130SOL     OW 1288   1.080   0.862   4.291
  130SOL    HW1 1289   0.995   0.913   4.293
  130SOL    HW2 1290   1.060   0.764   4.300
  131SOL     OW 1291   4.450   1.429   3.564
  131SOL    HW1 1292   4.533   1.438   3.509
  131SOL    HW2 1293   4.472   1.443   3.661
  132SOL     OW 1294   1.616   2.656   1.143
  132SOL    HW1 1295   1.545   2.675   1.075
  132SOL    HW2 1296   1.647   2.561   1.132
  133SOL     OW 1297   5.650   6.294   2.894
  133SOL    HW1 1298   5.622   6.205   2.856
  133SOL    HW2 1299   5.569   6.352   2.905
  134SOL     OW 1300   5.897   2.602   3.121
  134SOL    HW1 1301   5.925   2.697   3.137
  134SOL    HW2 1302   5.977   2.548   3.096
  135SOL     OW 1303   5.239   1.516   3.183
  135SOL    HW1 1304   5.305   1.538   3.255
  135SOL    HW2 1305   5.172   1.589   3.176
  136SOL     OW 1306   5.130   4.309   5.719
  136SOL    HW1 1307   5.151   4.383   5.655
  136SOL    HW2 1308   5.031   4.298   5.726
  137SOL     OW 1309   4.739   0.088   5.370
  137SOL    HW1 1310   4.728   0.140   5.454
  137SOL    HW2 1311   4.652   0.089   5.319
  138SOL     OW 1312   0.355   4.953   4.393
  138SOL    HW1 1313   0.432   4.893   4.415
  138SOL    HW2 1314   0.269   4.907   4.417
  139SOL     OW 1315   2.472   5.512   5.161
  139SOL    HW1 1316   2.549   5.568   5.129
  139SOL    HW2 1317   2.477   5.422   5.119
  140SOL     OW 1318   6.251   5.033   4.575
  140SOL    HW1 1319   6.299   5.057   4.491
  140SOL    HW2 1320   6.277   4.940   4.602
  141SOL     OW 1321   0.932   1.652   5.338
  141SOL    HW1 1322   1.018   1.651   5.389
  141SOL    HW2 1323   0.892   1.744   5.341
  142SOL     OW 1324   1.362   6.013   1.782
  142SOL    HW1 1325   1.292   5.949   1.749
  142SOL    HW2 1326   1.331   6.107   1.767
  143SOL     OW 1327   5.590   4.565   2.076
  143SOL    HW1 1328   5.632   4.479   2.104
  143SOL    HW2 1329   5.518   4.547   2.008
  144SOL     OW 1330   1.653   6.533   6.408
  144SOL    HW1 1331   1.578   6.469   6.391
  144SOL    HW2 1332   1.632   6.621   6.367
  145SOL     OW 1333   1.062   5.167   0.620
  145SOL    HW1 1334   0.980   5.186   0.673
  145SOL    HW2 1335   1.134   5.233   0.644
  146SOL     OW 1336   4.753   6.590   0.098
  146SOL    HW1 1337   4.842   6.615   0.138
  146SOL    HW2 1338   4.695   6.551   0.169
  147SOL     OW 1339   6.558   2.661   0.294
  147SOL    HW1 1340   6.476   2.683   0.240
  147SOL    HW2 1341   6.639   2.672   0.238
  148SOL     OW 1342   0.414   5.116   5.232
  148SOL    HW1 1343   0.474   5.169   5.291
  148SOL    HW2 1344   0.462   5.035   5.199
  149SOL     OW 1345   2.727   1.303   3.844
  149SOL    HW1 1346   2.746   1.401   3.850
  149SOL    HW2 1347   2.812   1.252   3.834
  150SOL     OW 1348   6.945   5.126   6.059
  150SOL    HW1 1349   6.915   5.033   6.037
  150SOL    HW2 1350   0.020   5.142   6.020
  151SOL     OW 1351   3.708   1.776   1.345
  151SOL    HW1 1352   3.654   1.800   1.425
  151SOL    HW2 1353   3.732   1.859   1.295
  152SOL     OW 1354   2.274   0.622   4.329
  152SOL    HW1 1355   2.349   0.646   4.268
  152SOL    HW2 1356   2.186   0.635   4.282
  153SOL     OW 1357   2.345   0.078   2.205
  153SOL    HW1 1358   2.376   0.145   2.137
  153SOL    HW2 1359   2.305   0.127   2.283
  154SOL     OW 1360   6.993   2.959   1.888
  154SOL    HW1 1361   6.989   2.892   1.814
  154SOL    HW2 1362   7.010   3.049   1.850
  155SOL     OW 1363   0.315   1.315   3.523
  155SOL    HW1 1364   0.365   1.399   3.499
  155SOL    HW2 1365   0.375   1.255   3.576
  156SOL     OW 1366   6.427   1.850   1.324
  156SOL    HW1 1367   6.417   1.791   1.243
  156SOL    HW2 1368   6.457   1.941   1.296
  157SOL     OW 1369   6.290   3.153   2.098
  157SOL    HW1 1370   6.291   3.098   2.014
  157SOL    HW2 1371   6.343   3.237   2.083
  158SOL     OW 1372   3.280   0.679   2.527
  158SOL    HW1 1373   3.181   0.676   2.543
  158SOL    HW2 1374   3.328   0.633   2.602
  159SOL     OW 1375   4.845   4.508   1.440
  159SOL    HW1 1376   4.945   4.507   1.436
  159SOL    HW2 1377   4.811   4.414   1.453
  160SOL     OW 1378   6.900   4.757   6.538
  160SOL    HW1 1379   6.920   4.663   6.510
  160SOL    HW2 1380   6.937   4.820   6.471
  161SOL     OW 1381   1.920   5.380   4.871
  161SOL    HW1 1382   1.996   5.374   4.935
  161SOL    HW2 1383   1.943   5.332   4.787
  162SOL     OW 1384   4.351   6.216   0.220
  162SOL    HW1 1385   4.256   6.243   0.231
  162SOL    HW2 1386   4.384   6.246   0.130
  163SOL     OW 1387   3.921   6.115   1.795
  163SOL    HW1 1388   3.995   6.075   1.742
  163SOL    HW2 1389   3.949   6.204   1.830
  164SOL     OW 1390   6.773   4.078   1.324
  164SOL    HW1 1391   6.729   3.999   1.367
  164SOL    HW2 1392   6.750   4.161   1.374
  165SOL     OW 1393   4.517   3.271   0.161
  165SOL    HW1 1394   4.574   3.195   0.193
  165SOL    HW2 1395   4.565   3.320   0.087
  166SOL     OW 1396   0.162   5.936   3.518
  166SOL    HW1 1397   0.237   5.891   3.567
  166SOL    HW2 1398   0.197   6.017   3.471
  167SOL     OW 1399   6.062   2.375   0.168
  167SOL    HW1 1400   6.046   2.391   0.266
  167SOL    HW2 1401   5.982   2.331   0.128
  168SOL     OW 1402   3.012   3.883   0.900
  168SOL    HW1 1403   3.000   3.981   0.916
  168SOL    HW2 1404   3.088   3.849   0.956
  169SOL     OW 1405   3.017   6.928   1.787
  169SOL    HW1 1406   2.983   6.986   1.713
  169SOL    HW2 1407   2.994   6.832   1.767
  170SOL     OW 1408   0.336   1.755   3.994
  170SOL    HW1 1409   0.302   1.809   3.917
  170SOL    HW2 1410   0.260   1.728   4.053
  171SOL     OW 1411   3.213   3.596   0.394
  171SOL    HW1 1412   3.236   3.687   0.358
  171SOL    HW2 1413   3.115   3.580   0.383
  172SOL     OW 1414   6.665   1.740   4.665
  172SOL    HW1 1415   6.613   1.817   4.702
  172SOL    HW2 1416   6.761   1.749   4.690
  173SOL     OW 1417   6.923   6.973   4.374
  173SOL    HW1 1418   6.846   7.012   4.325
  173SOL    HW2 1419   6.958   6.894   4.324
  174SOL     OW 1420   2.705   5.460   3.236
  174SOL    HW1 1421   2.675   5.373   3.197
  174SOL    HW2 1422   2.805   5.461   3.243
  175SOL     OW 1423   1.648   6.464   1.863
  175SOL    HW1 1424   1.583   6.391   1.884
  175SOL    HW2 1425   1.712   6.433   1.792
  176SOL     OW 1426   2.508   4.002   1.020
  176SOL    HW1 1427   2.560   3.974   1.101
  176SOL    HW2 1428   2.432   4.060   1.049
  177SOL     OW 1429   5.224   2.474   3.328
  177SOL    HW1 1430   5.157   2.429   3.269
  177SOL    HW2 1431   5.243   2.566   3.292
  178SOL     OW 1432   5.115   4.224   6.420
  178SOL    HW1 1433   5.070   4.277   6.348
  178SOL    HW2 1434   5.140   4.284   6.496
  179SOL     OW 1435   2.903   0.587   0.367
  179SOL    HW1 1436   2.816   0.595   0.319
  179SOL    HW2 1437   2.935   0.679   0.394
  180SOL     OW 1438   0.814   1.241   6.785
  180SOL    HW1 1439   0.715   1.243   6.799
  180SOL    HW2 1440   0.835   1.189   6.703
  181SOL     OW 1441   3.521   1.897   6.389
  181SOL    HW1 1442   3.515   1.969   6.319
  181SOL    HW2 1443   3.575   1.821   6.353
  182SOL     OW 1444   4.403   2.114   4.201
  182SOL    HW1 1445   4.500   2.090   4.192
  182SOL    HW2 1446   4.394   2.214   4.203
  183SOL     OW 1447   4.190   0.757   1.881
  183SOL    HW1 1448   4.143   0.841   1.857
  183SOL    HW2 1449   4.228   0.714   1.799
  184SOL     OW 1450   1.400   5.765   3.583
  184SOL    HW1 1451   1.445   5.849   3.551
  184SOL    HW2 1452   1.410   5.694   3.514
  185SOL     OW 1453   1.180   3.529   6.710
  185SOL    HW1 1454   1.209   3.506   6.618
  185SOL    HW2 1455   1.122   3.610   6.708
  186SOL     OW 1456   6.182   0.304   3.290
  186SOL    HW1 1457   6.198   0.346   3.379
  186SOL    HW2 1458   6.260   0.248   3.264
  187SOL     OW 1459   5.672   0.837   4.225
  187SOL    HW1 1460   5.770   0.822   4.240
  187SOL    HW2 1461   5.648   0.930   4.252
  188SOL     OW 1462   5.561   2.409   3.340
  188SOL    HW1 1463   5.582   2.485   3.279
  188SOL    HW2 1464   5.469   2.376   3.323
  189SOL     OW 1465   1.946   5.672   2.692
  189SOL    HW1 1466   2.041   5.644   2.706
  189SOL    HW2 1467   1.937   5.770   2.711
  190SOL     OW 1468   3.794   1.091   4.998
  190SOL    HW1 1469   3.805   1.188   4.976
  190SOL    HW2 1470   3.884   1.047   4.998
  191SOL     OW 1471   5.933   5.592   5.932
  191SOL    HW1 1472   5.858   5.570   5.995
  191SOL    HW2 1473   5.988   5.510   5.917
  192SOL     OW 1474   6.949   6.583   2.098
  192SOL    HW1 1475   6.989   6.497   2.067
  192SOL    HW2 1476   7.013   6.658   2.082
  193SOL     OW 1477   5.147   2.859   6.555
  193SOL    HW1 1478   5.049   2.852   6.538
  193SOL    HW2 1479   5.175   2.955   6.558
  194SOL     OW 1480   3.546   0.685   2.870
  194SOL    HW1 1481   3.544   0.707   2.967
  194SOL    HW2 1482   3.561   0.769   2.817
  195SOL     OW 1483   1.916   5.484   3.198
  195SOL    HW1 1484   1.969   5.408   3.235
  195SOL    HW2 1485   1.826   5.486   3.240
  196SOL     OW 1486   1.793   2.187   6.571
  196SOL    HW1 1487   1.882   2.230   6.589
  196SOL    HW2 1488   1.751   2.230   6.491
  197SOL     OW 1489   2.193   1.388   1.357
  197SOL    HW1 1490   2.184   1.294   1.326
  197SOL    HW2 1491   2.260   1.436   1.302
  198SOL     OW 1492   4.119   0.936   3.235
  198SOL    HW1 1493   4.183   1.004   3.272
  198SOL    HW2 1494   4.062   0.979   3.165
  199SOL     OW 1495   1.372   2.764   4.234
  199SOL    HW1 1496   1.328   2.681   4.266
  199SOL    HW2 1497   1.345   2.783   4.140
  200SOL     OW 1498   0.600   2.457   0.596
  200SOL    HW1 1499   0.634   2.523   0.663
  200SOL    HW2 1500   0.673   2.431   0.534
  201SOL     OW 1501   0.657   0.932   5.796
  201SOL    HW1 1502   0.662   1.001   5.724
  201SOL    HW2 1503   0.630   0.844   5.756
  202SOL     OW 1504   4.551   0.458   6.016
  202SOL    HW1 1505   4.605   0.455   5.932
  202SOL    HW2 1506   4.605   0.421   6.092
  203SOL     OW 1507   5.779   2.938   5.457
  203SOL    HW1 1508   5.854   3.001   5.439
  203SOL    HW2 1509   5.758   2.885   5.375
  204SOL     OW 1510   0.117   0.359   5.507
  204SOL    HW1 1511   0.082   0.446   5.542
  204SOL    HW2 1512   0.096   0.286   5.572
  205SOL     OW 1513   0.835   2.610   2.272
  205SOL    HW1 1514   0.889   2.530   2.296
  205SOL    HW2 1515   0.797   2.650   2.355
  206SOL     OW 1516   0.608   3.328   1.483
  206SOL    HW1 1517   0.523   3.373   1.454
  206SOL    HW2 1518   0.611   3.235   1.447
  207SOL     OW 1519   5.226   1.994   3.068
  207SOL    HW1 1520   5.286   2.044   3.130
  207SOL    HW2 1521   5.131   2.022   3.083
  208SOL     OW 1522   0.192   4.121   5.202
  208SOL    HW1 1523   0.180   4.129   5.103
  208SOL    HW2 1524   0.265   4.183   5.233
  209SOL     OW 1525   6.582   4.362   2.469
  209SOL    HW1 1526   6.546   4.420   2.543
  209SOL    HW2 1527   6.548   4.396   2.381
  210SOL     OW 1528   4.690   2.519   0.722
  210SOL    HW1 1529   4.674   2.569   0.807
  210SOL    HW2 1530   4.782   2.481   0.722
  211SOL     OW 1531   1.755   0.324   3.121
  211SOL    HW1 1532   1.657   0.305   3.107
  211SOL    HW2 1533   1.769   0.356   3.215
  212SOL     OW 1534   1.236   3.462   2.745
  212SOL    HW1 1535   1.233   3.365   2.767
  212SOL    HW2 1536   1.190   3.515   2.817
  213SOL     OW 1537   1.930   5.746   1.174
  213SOL    HW1 1538   1.949   5.767   1.078
  213SOL    HW2 1539   1.938   5.647   1.188
  214SOL     OW 1540   4.351   5.521   2.211
  214SOL    HW1 1541   4.393   5.523   2.120
  214SOL    HW2 1542   4.405   5.463   2.271
  215SOL     OW 1543   2.497   5.192   1.613
  215SOL    HW1 1544   2.457   5.256   1.547
  215SOL    HW2 1545   2.596   5.203   1.615
  216SOL     OW 1546   1.703   0.248   2.709
  216SOL    HW1 1547   1.701   0.216   2.803
  216SOL    HW2 1548   1.623   0.305   2.691
  217SOL     OW 1549   0.814   3.439   5.740
  217SOL    HW1 1550   0.863   3.354   5.760
  217SOL    HW2 1551   0.730   3.443   5.794
  218SOL     OW 1552   0.892   2.649   5.276
  218SOL    HW1 1553   0.876   2.704   5.358
  218SOL    HW2 1554   0.934   2.562   5.301
  219SOL     OW 1555   3.563   0.795   0.249
  219SOL    HW1 1556   3.652   0.815   0.207
  219SOL    HW2 1557   3.573   0.720   0.314
  220SOL     OW 1558   3.281   0.513   0.992
  220SOL    HW1 1559   3.260   0.521   0.895
  220SOL    HW2 1560   3.204   0.468   1.039
  221SOL     OW 1561   6.079   5.735   1.148
  221SOL    HW1 1562   6.024   5.725   1.065
  221SOL    HW2 1563   6.042   5.810   1.203
  222SOL     OW 1564   1.964   4.630   6.558
  222SOL    HW1 1565   1.959   4.690   6.638
  222SOL    HW2 1566   2.056   4.634   6.519
  223SOL     OW 1567   6.869   2.910   5.284
  223SOL    HW1 1568   6.878   3.009   5.296
  223SOL    HW2 1569   6.959   2.867   5.290
  224SOL     OW 1570   2.665   2.132   5.815
  224SOL    HW1 1571   2.657   2.225   5.780
  224SOL    HW2 1572   2.723   2.132   5.897
  225SOL     OW 1573   4.667   3.655   6.015
  225SOL    HW1 1574   4.684   3.680   5.919
  225SOL    HW2 1575   4.676   3.735   6.073
  226SOL     OW 1576   0.950   1.717   6.258
  226SOL    HW1 1577   1.012   1.785   6.219
  226SOL    HW2 1578   0.920   1.747   6.348
  227SOL     OW 1579   2.129   4.153   2.555
  227SOL    HW1 1580   2.170   4.244   2.547
  227SOL    HW2 1581   2.154   4.098   2.476
  228SOL     OW 1582   1.743   0.670   3.100
  228SOL    HW1 1583   1.715   0.598   3.036
  228SOL    HW2 1584   1.751   0.757   3.051
  229SOL     OW 1585   5.228   4.712   6.850
  229SOL    HW1 1586   5.199   4.775   6.777
  229SOL    HW2 1587   5.315   4.669   6.825
  230SOL     OW 1588   4.369   6.413   4.465
  230SOL    HW1 1589   4.325   6.498   4.435
  230SOL    HW2 1590   4.304   6.337   4.458
  231SOL     OW 1591   5.247   1.325   6.759
  231SOL    HW1 1592   5.288   1.261   6.694
  231SOL    HW2 1593   5.266   1.419   6.731
  232SOL     OW 1594   0.288   2.589   6.606
  232SOL    HW1 1595   0.378   2.614   6.642
  232SOL    HW2 1596   0.298   2.524   6.531
  233SOL     OW 1597   3.197   1.885   3.575
  233SOL    HW1 1598   3.207   1.794   3.533
  233SOL    HW2 1599   3.238   1.953   3.515
  234SOL     OW 1600   5.530   0.683   5.937
  234SOL    HW1 1601   5.499   0.774   5.911
  234SOL    HW2 1602   5.501   0.663   6.031
  235SOL     OW 1603   4.862   3.045   2.446
  235SOL    HW1 1604   4.858   3.068   2.349
  235SOL    HW2 1605   4.955   3.059   2.480
  236SOL     OW 1606   4.409   3.485   6.531
  236SOL    HW1 1607   4.463   3.440   6.602
  236SOL    HW2 1608   4.470   3.527   6.464
  237SOL     OW 1609   6.792   4.182   2.513
  237SOL    HW1 1610   6.768   4.119   2.440
  237SOL    HW2 1611   6.717   4.248   2.526
  238SOL     OW 1612   6.696   1.270   0.421
  238SOL    HW1 1613   6.708   1.205   0.495
  238SOL    HW2 1614   6.744   1.355   0.444
  239SOL     OW 1615   1.253   4.396   0.593
  239SOL    HW1 1616   1.306   4.447   0.660
  239SOL    HW2 1617   1.158   4.427   0.594
  240SOL     OW 1618   6.646   3.586   3.203
  240SOL    HW1 1619   6.744   3.604   3.201
  240SOL    HW2 1620   6.628   3.509   3.264
  241SOL     OW 1621   2.585   2.171   3.954
  241SOL    HW1 1622   2.492   2.138   3.969
  241SOL    HW2 1623   2.635   2.172   4.040
  242SOL     OW 1624   3.295   3.842   3.523
  242SOL    HW1 1625   3.382   3.821   3.567
  242SOL    HW2 1626   3.290   3.796   3.435
  243SOL     OW 1627   4.834   2.001   0.189
  243SOL    HW1 1628   4.902   1.938   0.226
  243SOL    HW2 1629   4.817   1.979   0.093
  244SOL     OW 1630   6.197   3.183   6.695
  244SOL    HW1 1631   6.180   3.281   6.708
  244SOL    HW2 1632   6.123   3.131   6.737
  245SOL     OW 1633   3.580   1.936   3.787
  245SOL    HW1 1634   3.521   1.963   3.863
  245SOL    HW2 1635   3.571   1.838   3.770
  246SOL     OW 1636   5.677   1.658   3.319
  246SOL    HW1 1637   5.713   1.566   3.308
  246SOL    HW2 1638   5.708   1.695   3.407
  247SOL     OW 1639   2.808   1.883   0.417
  247SOL    HW1 1640   2.800   1.807   0.481
  247SOL    HW2 1641   2.756   1.863   0.334
  248SOL     OW 1642   2.336   1.626   2.763
  248SOL    HW1 1643   2.433   1.636   2.739
  248SOL    HW2 1644   2.284   1.600   2.681
  249SOL     OW 1645   5.201   0.300   5.095
  249SOL    HW1 1646   5.230   0.226   5.156
  249SOL    HW2 1647   5.204   0.267   5.000
  250SOL     OW 1648   3.458   2.642   0.748
  250SOL    HW1 1649   3.403   2.620   0.667
  250SOL    HW2 1650   3.399   2.681   0.819
  251SOL     OW 1651   4.768   3.441   5.464
  251SOL    HW1 1652   4.857   3.457   5.421
  251SOL    HW2 1653   4.711   3.523   5.453
  252SOL     OW 1654   6.477   6.961   5.594
  252SOL    HW1 1655   6.503   0.033   5.554
  252SOL    HW2 1656   6.388   6.971   5.639
  253SOL     OW 1657   3.937   4.542   5.807
  253SOL    HW1 1658   3.873   4.555   5.731
  253SOL    HW2 1659   4.013   4.486   5.778
  254SOL     OW 1660   6.696   2.905   4.120
  254SOL    HW1 1661   6.659   2.820   4.156
  254SOL    HW2 1662   6.796   2.904   4.126
  255SOL     OW 1663   1.196   4.611   6.098
  255SOL    HW1 1664   1.222   4.597   6.003
  255SOL    HW2 1665   1.278   4.619   6.154
  256SOL     OW 1666   4.984   3.061   6.032
  256SOL    HW1 1667   4.979   3.073   6.131
  256SOL    HW2 1668   5.078   3.039   6.006
  257SOL     OW 1669   4.994   6.362   2.795
  257SOL    HW1 1670   5.010   6.442   2.737
  257SOL    HW2 1671   5.039   6.282   2.754
  258SOL     OW 1672   2.515   4.051   5.596
  258SOL    HW1 1673   2.480   4.118   5.661
  258SOL    HW2 1674   2.492   4.080   5.503
  259SOL     OW 1675   4.880   0.705   2.424
  259SOL    HW1 1676   4.884   0.626   2.363
  259SOL    HW2 1677   4.810   0.690   2.494
  260SOL     OW 1678   3.627   4.923   3.162
  260SOL    HW1 1679   3.539   4.942   3.117
  260SOL    HW2 1680   3.696   4.902   3.093
  261SOL     OW 1681   5.237   5.248   1.133
  261SOL    HW1 1682   5.213   5.318   1.065
  261SOL    HW2 1683   5.187   5.266   1.218
  262SOL     OW 1684   2.168   3.559   1.266
  262SOL    HW1 1685   2.155   3.602   1.355
  262SOL    HW2 1686   2.199   3.627   1.200
  263SOL     OW 1687   1.179   6.931   3.725
  263SOL    HW1 1688   1.223   6.883   3.801
  263SOL    HW2 1689   1.247   6.952   3.655
  264SOL     OW 1690   6.823   2.632   0.168
  264SOL    HW1 1691   6.770   2.560   0.122
  264SOL    HW2 1692   6.912   2.642   0.123
  265SOL     OW 1693   6.199   6.819   3.215
  265SOL    HW1 1694   6.232   6.900   3.167
  265SOL    HW2 1695   6.104   6.832   3.243
  266SOL     OW 1696   4.958   2.678   6.093
  266SOL    HW1 1697   4.921   2.610   6.156
  266SOL    HW2 1698   4.887   2.745   6.070
  267SOL     OW 1699   1.329   0.965   5.246
  267SOL    HW1 1700   1.289   0.881   5.208
  267SOL    HW2 1701   1.262   1.039   5.243
  268SOL     OW 1702   3.667   1.304   6.257
  268SOL    HW1 1703   3.663   1.403   6.243
  268SOL    HW2 1704   3.705   1.261   6.175
  269SOL     OW 1705   3.078   2.175   6.941
  269SOL    HW1 1706   3.017   2.188   0.003
  269SOL    HW2 1707   3.100   2.264   6.901
  270SOL     OW 1708   0.689   5.992   6.993
  270SOL    HW1 1709   0.680   6.004   0.075
  270SOL    HW2 1710   0.634   5.913   6.964
  271SOL     OW 1711   0.609   1.484   6.020
  271SOL    HW1 1712   0.605   1.384   6.027
  271SOL    HW2 1713   0.657   1.521   6.099
  272SOL     OW 1714   3.394   5.945   3.978
  272SOL    HW1 1715   3.464   5.889   4.023
  272SOL    HW2 1716   3.373   6.024   4.035
  273SOL     OW 1717   1.565   4.864   6.022
  273SOL    HW1 1718   1.570   4.775   5.976
  273SOL    HW2 1719   1.656   4.890   6.055
  274SOL     OW 1720   3.967   0.870   3.916
  274SOL    HW1 1721   4.055   0.907   3.945
  274SOL    HW2 1722   3.895   0.937   3.932
  275SOL     OW 1723   6.840   6.393   2.846
  275SOL    HW1 1724   6.819   6.415   2.942
  275SOL    HW2 1725   6.861   6.478   2.797
  276SOL     OW 1726   0.309   0.001   3.909
  276SOL    HW1 1727   0.403   6.987   3.926
  276SOL    HW2 1728   0.300   0.032   3.814
  277SOL     OW 1729   1.630   2.910   0.523
  277SOL    HW1 1730   1.667   2.818   0.518
  277SOL    HW2 1731   1.535   2.906   0.555
  278SOL     OW 1732   0.145   3.158   3.154
  278SOL    HW1 1733   0.190   3.247   3.152
  278SOL    HW2 1734   0.160   3.115   3.243
  279SOL     OW 1735   5.599   2.700   4.462
  279SOL    HW1 1736   5.629   2.626   4.522
  279SOL    HW2 1737   5.527   2.667   4.401
  280SOL     OW 1738   1.928   5.530   1.573
  280SOL    HW1 1739   2.025   5.520   1.596
  280SOL    HW2 1740   1.895   5.445   1.531
  281SOL     OW 1741   2.274   4.252   1.865
  281SOL    HW1 1742   2.231   4.276   1.779
  281SOL    HW2 1743   2.233   4.169   1.902
  282SOL     OW 1744   3.535   0.932   5.729
  282SOL    HW1 1745   3.496   0.998   5.793
  282SOL    HW2 1746   3.508   0.956   5.635
  283SOL     OW 1747   5.568   2.620   6.436
  283SOL    HW1 1748   5.540   2.685   6.507
  283SOL    HW2 1749   5.488   2.575   6.398
  284SOL     OW 1750   0.606   3.562   3.650
  284SOL    HW1 1751   0.626   3.615   3.568
  284SOL    HW2 1752   0.536   3.609   3.704
  285SOL     OW 1753   5.751   4.739   4.095
  285SOL    HW1 1754   5.710   4.704   4.179
  285SOL    HW2 1755   5.678   4.762   4.030
  286SOL     OW 1756   3.323   3.767   0.063
  286SOL    HW1 1757   3.404   3.709   0.068
  286SOL    HW2 1758   3.241   3.710   0.056
  287SOL     OW 1759   1.977   3.753   0.702
  287SOL    HW1 1760   1.885   3.747   0.741
  287SOL    HW2 1761   1.972   3.746   0.603
  288SOL     OW 1762   3.904   1.305   6.423
  288SOL    HW1 1763   3.938   1.331   6.333
  288SOL    HW2 1764   3.805   1.289   6.417
  289SOL     OW 1765   2.074   4.713   5.673
  289SOL    HW1 1766   2.008   4.784   5.649
  289SOL    HW2 1767   2.164   4.754   5.685
  290SOL     OW 1768   0.201   2.088   5.627
  290SOL    HW1 1769   0.235   2.014   5.570
  290SOL    HW2 1770   0.271   2.159   5.634
  291SOL     OW 1771   0.451   1.591   3.530
  291SOL    HW1 1772   0.523   1.575   3.598
  291SOL    HW2 1773   0.395   1.669   3.558
  292SOL     OW 1774   2.059   0.428   3.406
  292SOL    HW1 1775   2.150   0.412   3.367
  292SOL    HW2 1776   2.020   0.511   3.367
  293SOL     OW 1777   4.523   5.440   4.093
  293SOL    HW1 1778   4.489   5.452   4.187
  293SOL    HW2 1779   4.617   5.471   4.088
  294SOL     OW 1780   5.505   6.280   6.513
  294SOL    HW1 1781   5.511   6.192   6.465
  294SOL    HW2 1782   5.444   6.341   6.463
  295SOL     OW 1783   5.097   0.740   3.576
  295SOL    HW1 1784   5.066   0.687   3.498
  295SOL    HW2 1785   5.190   0.713   3.601
  296SOL     OW 1786   2.968   1.545   2.676
  296SOL    HW1 1787   3.035   1.476   2.651
  296SOL    HW2 1788   2.979   1.570   2.773
  297SOL     OW 1789   1.767   3.643   3.359
  297SOL    HW1 1790   1.781   3.695   3.275
  297SOL    HW2 1791   1.803   3.695   3.437
  298SOL     OW 1792   6.331   5.790   1.100
  298SOL    HW1 1793   6.238   5.760   1.122
  298SOL    HW2 1794   6.340   5.800   1.001
  299SOL     OW 1795   6.293   2.878   4.793
  299SOL    HW1 1796   6.373   2.818   4.793
  299SOL    HW2 1797   6.238   2.860   4.711
  300SOL     OW 1798   6.328   0.576   3.290
  300SOL    HW1 1799   6.249   0.582   3.351
  300SOL    HW2 1800   6.394   0.647   3.314
  301SOL     OW 1801   5.695   3.559   6.948
  301SOL    HW1 1802   5.661   3.506   0.009
  301SOL    HW2 1803   5.739   3.642   6.981
  302SOL     OW 1804   0.653   0.232   3.620
  302SOL    HW1 1805   0.684   0.278   3.703
  302SOL    HW2 1806   0.687   0.138   3.620
  303SOL     OW 1807   4.946   0.616   3.311
  303SOL    HW1 1808   4.981   0.705   3.284
  303SOL    HW2 1809   4.863   0.596   3.260
  304SOL     OW 1810   2.308   6.780   3.269
  304SOL    HW1 1811   2.296   6.859   3.329
  304SOL    HW2 1812   2.280   6.697   3.317
  305SOL     OW 1813   1.356   3.853   0.387
  305SOL    HW1 1814   1.367   3.761   0.350
  305SOL    HW2 1815   1.263   3.864   0.423
  306SOL     OW 1816   2.251   0.727   3.790
  306SOL    HW1 1817   2.179   0.698   3.853
  306SOL    HW2 1818   2.274   0.823   3.807
  307SOL     OW 1819   4.502   0.175   1.138
  307SOL    HW1 1820   4.437   0.180   1.214
  307SOL    HW2 1821   4.588   0.135   1.171
  308SOL     OW 1822   1.013   6.250   2.893
  308SOL    HW1 1823   0.923   6.293   2.887
  308SOL    HW2 1824   1.069   6.299   2.960
  309SOL     OW 1825   3.714   4.672   5.305
  309SOL    HW1 1826   3.790   4.711   5.253
  309SOL    HW2 1827   3.628   4.710   5.270
  310SOL     OW 1828   0.052   6.438   5.614
  310SOL    HW1 1829   6.970   6.455   5.600
  310SOL    HW2 1830   0.071   6.341   5.600
  311SOL     OW 1831   0.473   5.900   1.676
  311SOL    HW1 1832   0.568   5.893   1.706
  311SOL    HW2 1833   0.430   5.978   1.721
  312SOL     OW 1834   5.034   2.106   5.366
  312SOL    HW1 1835   4.953   2.116   5.310
  312SOL    HW2 1836   5.014   2.047   5.445
  313SOL     OW 1837   2.112   4.049   1.913
  313SOL    HW1 1838   2.151   3.992   1.985
  313SOL    HW2 1839   2.012   4.042   1.916
  314SOL     OW 1840   3.632   5.675   0.312
  314SOL    HW1 1841   3.598   5.750   0.255
  314SOL    HW2 1842   3.731   5.685   0.324
  315SOL     OW 1843   0.695   2.871   3.621
  315SOL    HW1 1844   0.598   2.896   3.628
  315SOL    HW2 1845   0.733   2.909   3.536
  316SOL     OW 1846   2.393   2.746   3.722
  316SOL    HW1 1847   2.446   2.814   3.773
  316SOL    HW2 1848   2.311   2.722   3.775
  317SOL     OW 1849   6.800   1.592   6.850
  317SOL    HW1 1850   6.809   1.617   6.946
  317SOL    HW2 1851   6.889   1.601   6.804
  318SOL     OW 1852   2.382   3.768   0.948
  318SOL    HW1 1853   2.435   3.851   0.961
  318SOL    HW2 1854   2.297   3.789   0.899
  319SOL     OW 1855   1.561   6.612   0.792
  319SOL    HW1 1856   1.648   6.662   0.797
  319SOL    HW2 1857   1.486   6.671   0.822
  320SOL     OW 1858   6.347   3.397   0.936
  320SOL    HW1 1859   6.428   3.444   0.972
  320SOL    HW2 1860   6.365   3.299   0.929
  321SOL     OW 1861   2.220   2.824   1.471
  321SOL    HW1 1862   2.237   2.828   1.373
  321SOL    HW2 1863   2.209   2.917   1.507
  322SOL     OW 1864   3.871   3.036   5.241
  322SOL    HW1 1865   3.829   3.125   5.224
  322SOL    HW2 1866   3.866   2.980   5.159
  323SOL     OW 1867   6.592   4.133   1.132
  323SOL    HW1 1868   6.668   4.096   1.187
  323SOL    HW2 1869   6.510   4.140   1.190
  324SOL     OW 1870   1.139   3.081   4.606
  324SOL    HW1 1871   1.188   3.116   4.526
  324SOL    HW2 1872   1.182   3.117   4.689
  325SOL     OW 1873   2.069   2.785   1.780
  325SOL    HW1 1874   2.092   2.830   1.866
  325SOL    HW2 1875   2.116   2.697   1.775
  326SOL     OW 1876   1.850   5.810   6.601
  326SOL    HW1 1877   1.794   5.867   6.661
  326SOL    HW2 1878   1.836   5.713   6.623
  327SOL     OW 1879   6.425   4.983   5.733
  327SOL    HW1 1880   6.497   5.025   5.788
  327SOL    HW2 1881   6.342   4.974   5.787
  328SOL     OW 1882   4.122   4.839   2.140
  328SOL    HW1 1883   4.102   4.932   2.170
  328SOL    HW2 1884   4.044   4.802   2.090
  329SOL     OW 1885   3.511   3.765   3.266
  329SOL    HW1 1886   3.514   3.668   3.289
  329SOL    HW2 1887   3.592   3.811   3.304
  330SOL     OW 1888   3.335   6.750   1.599
  330SOL    HW1 1889   3.284   6.799   1.528
  330SOL    HW2 1890   3.326   6.799   1.686
  331SOL     OW 1891   5.101   5.227   5.772
  331SOL    HW1 1892   5.176   5.260   5.829
  331SOL    HW2 1893   5.036   5.176   5.828
  332SOL     OW 1894   2.797   1.989   3.702
  332SOL    HW1 1895   2.733   1.912   3.695
  332SOL    HW2 1896   2.758   2.069   3.656
  333SOL     OW 1897   3.744   5.826   6.160
  333SOL    HW1 1898   3.656   5.833   6.207
  333SOL    HW2 1899   3.745   5.890   6.082
  334SOL     OW 1900   3.465   0.146   2.349
  334SOL    HW1 1901   3.442   0.239   2.376
  334SOL    HW2 1902   3.387   0.105   2.301
  335SOL     OW 1903   3.040   6.717   3.406
  335SOL    HW1 1904   3.101   6.711   3.327
  335SOL    HW2 1905   3.054   6.637   3.465
  336SOL     OW 1906   3.332   1.157   3.791
  336SOL    HW1 1907   3.306   1.244   3.749
  336SOL    HW2 1908   3.289   1.150   3.881
  337SOL     OW 1909   0.038   4.048   1.366
  337SOL    HW1 1910   0.062   3.996   1.448
  337SOL    HW2 1911   6.959   4.078   1.372
  338SOL     OW 1912   3.020   2.524   1.483
  338SOL    HW1 1913   3.064   2.459   1.545
  338SOL    HW2 1914   3.089   2.562   1.421
  339SOL     OW 1915   4.200   6.434   2.629
  339SOL    HW1 1916   4.139   6.502   2.670
  339SOL    HW2 1917   4.295   6.461   2.645
  340SOL     OW 1918   4.917   3.559   4.545
  340SOL    HW1 1919   4.874   3.577   4.633
  340SOL    HW2 1920   4.964   3.471   4.548
  341SOL     OW 1921   5.333   5.895   4.345
  341SOL    HW1 1922   5.344   5.978   4.399
  341SOL    HW2 1923   5.356   5.915   4.249
  342SOL     OW 1924   6.275   5.027   0.720
  342SOL    HW1 1925   6.244   5.021   0.815
  342SOL    HW2 1926   6.325   5.112   0.707
  343SOL     OW 1927   3.649   0.367   1.554
  343SOL    HW1 1928   3.736   0.417   1.560
  343SOL    HW2 1929   3.601   0.371   1.641
  344SOL     OW 1930   2.144   4.752   0.786
  344SOL    HW1 1931   2.175   4.748   0.881
  344SOL    HW2 1932   2.146   4.661   0.745
  345SOL     OW 1933   0.914   0.347   5.117
  345SOL    HW1 1934   0.917   0.429   5.060
  345SOL    HW2 1935   0.833   0.294   5.095
  346SOL     OW 1936   1.460   0.192   2.512
  346SOL    HW1 1937   1.418   0.173   2.601
  346SOL    HW2 1938   1.422   0.276   2.475
  347SOL     OW 1939   4.977   0.077   6.413
  347SOL    HW1 1940   4.902   0.074   6.480
  347SOL    HW2 1941   4.976   0.165   6.367
  348SOL     OW 1942   3.358   5.399   1.232
  348SOL    HW1 1943   3.391   5.493   1.223
  348SOL    HW2 1944   3.271   5.399   1.281
  349SOL     OW 1945   1.079   4.945   2.409
  349SOL    HW1 1946   1.058   4.881   2.482
  349SOL    HW2 1947   0.994   4.986   2.374
  350SOL     OW 1948   3.947   3.331   1.518
  350SOL    HW1 1949   3.984   3.240   1.538
  350SOL    HW2 1950   3.856   3.339   1.558
  351SOL     OW 1951   2.893   1.650   6.867
  351SOL    HW1 1952   2.824   1.600   6.919
  351SOL    HW2 1953   2.860   1.742   6.848
  352SOL     OW 1954   3.297   0.680   6.097
  352SOL    HW1 1955   3.316   0.723   6.008
  352SOL    HW2 1956   3.377   0.689   6.156
  353SOL     OW 1957   1.635   6.059   0.686
  353SOL    HW1 1958   1.711   6.016   0.734
  353SOL    HW2 1959   1.618   6.150   0.724
  354SOL     OW 1960   4.150   1.609   0.536
  354SOL    HW1 1961   4.233   1.561   0.564
  354SOL    HW2 1962   4.124   1.674   0.607
  355SOL     OW 1963   6.956   3.466   2.935
  355SOL    HW1 1964   0.037   3.461   2.917
  355SOL    HW2 1965   6.918   3.550   2.895
  356SOL     OW 1966   4.065   5.241   3.276
  356SOL    HW1 1967   4.124   5.304   3.327
  356SOL    HW2 1968   4.119   5.164   3.242
  357SOL     OW 1969   0.058   5.661   5.222
  357SOL    HW1 1970   0.081   5.715   5.141
  357SOL    HW2 1971   0.084   5.712   5.304
  358SOL     OW 1972   5.343   0.235   1.699
  358SOL    HW1 1973   5.443   0.235   1.703
  358SOL    HW2 1974   5.310   0.324   1.670
  359SOL     OW 1975   1.286   1.631   2.283
  359SOL    HW1 1976   1.192   1.657   2.262
  359SOL    HW2 1977   1.340   1.713   2.302
  360SOL     OW 1978   3.860   6.904   0.090
  360SOL    HW1 1979   3.848   6.813   0.128
  360SOL    HW2 1980   3.777   6.958   0.104
  361SOL     OW 1981   4.541   6.608   2.326
  361SOL    HW1 1982   4.605   6.669   2.281
  361SOL    HW2 1983   4.501   6.546   2.258
  362SOL     OW 1984   2.993   3.149   1.172
  362SOL    HW1 1985   2.942   3.221   1.124
  362SOL    HW2 1986   2.977   3.061   1.126
  363SOL     OW 1987   4.110   4.827   4.046
  363SOL    HW1 1988   4.162   4.835   4.130
  363SOL    HW2 1989   4.166   4.784   3.975
  364SOL     OW 1990   1.043   5.180   6.277
  364SOL    HW1 1991   1.038   5.191   6.178
  364SOL    HW2 1992   1.122   5.231   6.312
  365SOL     OW 1993   4.796   6.420   1.810
  365SOL    HW1 1994   4.827   6.344   1.866
  365SOL    HW2 1995   4.775   6.386   1.718
  366SOL     OW 1996   5.615   1.114   6.982
  366SOL    HW1 1997   5.665   1.110   6.896
  366SOL    HW2 1998   5.535   1.054   6.977
  367SOL     OW 1999   5.424   2.722   1.567
  367SOL    HW1 2000   5.376   2.809   1.554
  367SOL    HW2 2001   5.450   2.712   1.662
  368SOL     OW 2002   1.095   5.126   5.327
  368SOL    HW1 2003   1.123   5.187   5.253
  368SOL    HW2 2004   1.012   5.078   5.300
  369SOL     OW 2005   0.838   3.974   1.768
  369SOL    HW1 2006   0.747   3.980   1.729
  369SOL    HW2 2007   0.906   4.003   1.700
  370SOL     OW 2008   3.260   1.368   5.465
  370SOL    HW1 2009   3.176   1.422   5.468
  370SOL    HW2 2010   3.242   1.278   5.426
  371SOL     OW 2011   3.182   2.931   0.241
  371SOL    HW1 2012   3.166   2.834   0.258
  371SOL    HW2 2013   3.270   2.958   0.280
  372SOL     OW 2014   0.043   6.300   6.263
  372SOL    HW1 2015   0.038   6.205   6.294
  372SOL    HW2 2016   6.975   6.348   6.287
  373SOL     OW 2017   6.972   6.809   0.331
  373SOL    HW1 2018   6.985   6.714   0.302
  373SOL    HW2 2019   7.008   6.820   0.424
  374SOL     OW 2020   3.509   0.720   1.853
  374SOL    HW1 2021   3.422   0.676   1.872
  374SOL    HW2 2022   3.584   0.661   1.885
  375SOL     OW 2023   6.580   4.826   3.259
  375SOL    HW1 2024   6.615   4.794   3.171
  375SOL    HW2 2025   6.528   4.753   3.304
  376SOL     OW 2026   1.806   2.774   4.030
  376SOL    HW1 2027   1.859   2.712   4.089
  376SOL    HW2 2028   1.800   2.735   3.938
  377SOL     OW 2029   4.776   1.890   3.495
  377SOL    HW1 2030   4.838   1.815   3.519
  377SOL    HW2 2031   4.720   1.915   3.574
  378SOL     OW 2032   5.023   2.724   5.151
  378SOL    HW1 2033   5.015   2.699   5.247
  378SOL    HW2 2034   5.077   2.808   5.142
  379SOL     OW 2035   5.885   3.534   0.979
  379SOL    HW1 2036   5.835   3.506   0.897
  379SOL    HW2 2037   5.973   3.572   0.952
  380SOL     OW 2038   1.484   1.648   1.308
  380SOL    HW1 2039   1.498   1.716   1.236
  380SOL    HW2 2040   1.570   1.632   1.356
  381SOL     OW 2041   3.366   3.564   1.293
  381SOL    HW1 2042   3.411   3.652   1.308
  381SOL    HW2 2043   3.431   3.490   1.313
  382SOL     OW 2044   2.877   5.887   0.385
  382SOL    HW1 2045   2.837   5.828   0.455
  382SOL    HW2 2046   2.826   5.973   0.380
  383SOL     OW 2047   6.463   2.343   0.225
  383SOL    HW1 2048   6.375   2.329   0.180
  383SOL    HW2 2049   6.464   2.433   0.268
  384SOL     OW 2050   1.289   5.516   4.670
  384SOL    HW1 2051   1.200   5.471   4.660
  384SOL    HW2 2052   1.285   5.607   4.628
  385SOL     OW 2053   5.051   6.032   0.716
  385SOL    HW1 2054   4.989   6.084   0.774
  385SOL    HW2 2055   5.000   5.998   0.637
  386SOL     OW 2056   3.237   6.150   5.865
  386SOL    HW1 2057   3.200   6.173   5.955
  386SOL    HW2 2058   3.242   6.232   5.809
  387SOL     OW 2059   0.156   0.661   5.287
  387SOL    HW1 2060   0.162   0.750   5.332
  387SOL    HW2 2061   0.233   0.604   5.314
  388SOL     OW 2062   6.173   2.507   4.909
  388SOL    HW1 2063   6.232   2.544   4.981
  388SOL    HW2 2064   6.223   2.508   4.822
  389SOL     OW 2065   4.303   4.980   1.645
  389SOL    HW1 2066   4.271   5.028   1.727
  389SOL    HW2 2067   4.258   4.892   1.638
  390SOL     OW 2068   3.408   2.101   0.748
  390SOL    HW1 2069   3.497   2.129   0.712
  390SOL    HW2 2070   3.336   2.133   0.686
  391SOL     OW 2071   3.497   4.494   5.705
  391SOL    HW1 2072   3.409   4.463   5.741
  391SOL    HW2 2073   3.558   4.416   5.693
  392SOL     OW 2074   1.122   3.788   2.004
  392SOL    HW1 2075   1.103   3.805   1.908
  392SOL    HW2 2076   1.121   3.690   2.023
  393SOL     OW 2077   1.042   4.411   1.620
  393SOL    HW1 2078   1.092   4.326   1.601
  393SOL    HW2 2079   1.096   4.489   1.588
  394SOL     OW 2080   6.949   1.178   6.315
  394SOL    HW1 2081   6.891   1.257   6.335
  394SOL    HW2 2082   7.016   1.166   6.388
  395SOL     OW 2083   5.410   4.814   1.132
  395SOL    HW1 2084   5.493   4.845   1.084
  395SOL    HW2 2085   5.379   4.886   1.195
  396SOL     OW 2086   2.553   1.251   2.112
  396SOL    HW1 2087   2.557   1.269   2.211
  396SOL    HW2 2088   2.468   1.289   2.075
  397SOL     OW 2089   4.801   1.895   4.840
  397SOL    HW1 2090   4.735   1.960   4.879
  397SOL    HW2 2091   4.888   1.942   4.824
  398SOL     OW 2092   2.025   1.438   4.214
  398SOL    HW1 2093   2.006   1.374   4.140
  398SOL    HW2 2094   1.945   1.497   4.227
  399SOL     OW 2095   5.938   6.074   3.863
  399SOL    HW1 2096   6.001   6.101   3.936
  399SOL    HW2 2097   5.851   6.123   3.874
  400SOL     OW 2098   6.733   0.555   4.634
  400SOL    HW1 2099   6.777   0.491   4.697
  400SOL    HW2 2100   6.635   0.538   4.632
  401SOL     OW 2101   6.770   5.760   5.971
  401SOL    HW1 2102   6.688   5.767   5.916
  401SOL    HW2 2103   6.796   5.664   5.982
  402SOL     OW 2104   6.284   0.159   2.293
  402SOL    HW1 2105   6.325   0.157   2.385
  402SOL    HW2 2106   6.243   0.249   2.278
  403SOL     OW 2107   2.354   1.092   5.181
  403SOL    HW1 2108   2.429   1.157   5.191
  403SOL    HW2 2109   2.358   1.026   5.255
  404SOL     OW 2110   3.685   4.861   3.555
  404SOL    HW1 2111   3.734   4.884   3.470
  404SOL    HW2 2112   3.751   4.836   3.625
  405SOL     OW 2113   2.620   4.782   4.024
  405SOL    HW1 2114   2.703   4.838   4.027
  405SOL    HW2 2115   2.609   4.743   3.933
  406SOL     OW 2116   0.684   5.658   5.929
  406SOL    HW1 2117   0.754   5.592   5.957
  406SOL    HW2 2118   0.700   5.745   5.975
  407SOL     OW 2119   2.034   3.309   4.671
  407SOL    HW1 2120   2.031   3.388   4.731
  407SOL    HW2 2121   2.098   3.241   4.707
  408SOL     OW 2122   2.535   1.640   3.616
  408SOL    HW1 2123   2.538   1.685   3.706
  408SOL    HW2 2124   2.540   1.709   3.544
  409SOL     OW 2125   1.035   3.649   2.666
  409SOL    HW1 2126   1.106   3.582   2.643
  409SOL    HW2 2127   0.950   3.601   2.687
  410SOL     OW 2128   1.982   1.600   1.492
  410SOL    HW1 2129   2.053   1.552   1.543
  410SOL    HW2 2130   2.020   1.634   1.406
  411SOL     OW 2131   0.818   2.928   1.478
  411SOL    HW1 2132   0.897   2.896   1.426
  411SOL    HW2 2133   0.850   2.972   1.563
  412SOL     OW 2134   1.447   5.700   1.751
  412SOL    HW1 2135   1.387   5.680   1.829
  412SOL    HW2 2136   1.542   5.703   1.782
  413SOL     OW 2137   5.782   5.645   2.367
  413SOL    HW1 2138   5.698   5.695   2.388
  413SOL    HW2 2139   5.846   5.654   2.444
  414SOL     OW 2140   2.166   6.619   3.547
  414SOL    HW1 2141   2.123   6.542   3.593
  414SOL    HW2 2142   2.233   6.586   3.481
  415SOL     OW 2143   6.683   1.134   0.677
  415SOL    HW1 2144   6.722   1.174   0.760
  415SOL    HW2 2145   6.666   1.036   0.692
  416SOL     OW 2146   5.126   2.957   5.069
  416SOL    HW1 2147   5.106   3.021   5.143
  416SOL    HW2 2148   5.044   2.946   5.012
  417SOL     OW 2149   2.811   1.930   5.974
  417SOL    HW1 2150   2.849   1.839   5.992
  417SOL    HW2 2151   2.840   1.961   5.883
  418SOL     OW 2152   3.825   6.347   4.987
  418SOL    HW1 2153   3.888   6.270   4.986
  418SOL    HW2 2154   3.754   6.333   4.919
  419SOL     OW 2155   0.462   0.004   0.965
  419SOL    HW1 2156   0.553   6.978   0.962
  419SOL    HW2 2157   0.438   0.038   0.874
  420SOL     OW 2158   5.167   1.366   6.111
  420SOL    HW1 2159   5.089   1.379   6.171
  420SOL    HW2 2160   5.142   1.306   6.035
  421SOL     OW 2161   5.276   3.253   2.572
  421SOL    HW1 2162   5.326   3.195   2.635
  421SOL    HW2 2163   5.225   3.323   2.623
  422SOL     OW 2164   4.934   3.150   1.833
  422SOL    HW1 2165   5.013   3.181   1.885
  422SOL    HW2 2166   4.875   3.095   1.891
  423SOL     OW 2167   3.622   1.574   6.635
  423SOL    HW1 2168   3.708   1.534   6.665
  423SOL    HW2 2169   3.570   1.506   6.583
  424SOL     OW 2170   0.965   3.713   3.317
  424SOL    HW1 2171   0.914   3.627   3.310
  424SOL    HW2 2172   0.928   3.767   3.393
  425SOL     OW 2173   2.735   0.962   5.472
  425SOL    HW1 2174   2.738   0.900   5.394
  425SOL    HW2 2175   2.700   0.913   5.552
  426SOL     OW 2176   2.799   2.298   4.274
  426SOL    HW1 2177   2.808   2.279   4.372
  426SOL    HW2 2178   2.766   2.391   4.260
  427SOL     OW 2179   3.787   2.135   3.305
  427SOL    HW1 2180   3.717   2.142   3.375
  427SOL    HW2 2181   3.754   2.077   3.230
  428SOL     OW 2182   2.561   1.942   5.632
  428SOL    HW1 2183   2.582   2.010   5.703
  428SOL    HW2 2184   2.560   1.987   5.542
  429SOL     OW 2185   0.742   5.854   3.857
  429SOL    HW1 2186   0.806   5.779   3.872
  429SOL    HW2 2187   0.755   5.891   3.765
  430SOL     OW 2188   1.362   6.893   3.498
  430SOL    HW1 2189   1.350   6.980   3.451
  430SOL    HW2 2190   1.459   6.881   3.521
  431SOL     OW 2191   2.659   1.884   1.636
  431SOL    HW1 2192   2.589   1.813   1.640
  431SOL    HW2 2193   2.631   1.960   1.695
  432SOL     OW 2194   4.095   2.244   2.451
  432SOL    HW1 2195   4.166   2.304   2.413
  432SOL    HW2 2196   4.005   2.276   2.421
  433SOL     OW 2197   2.169   5.564   0.440
  433SOL    HW1 2198   2.248   5.622   0.423
  433SOL    HW2 2199   2.186   5.506   0.520
  434SOL     OW 2200   4.227   5.959   3.819
  434SOL    HW1 2201   4.129   5.940   3.816
  434SOL    HW2 2202   4.243   6.057   3.803
  435SOL     OW 2203   3.578   1.861   5.946
  435SOL    HW1 2204   3.659   1.906   5.909
  435SOL    HW2 2205   3.501   1.874   5.883
  436SOL     OW 2206   4.840   0.029   2.658
  436SOL    HW1 2207   4.893   6.983   2.715
  436SOL    HW2 2208   4.807   6.997   2.577
  437SOL     OW 2209   6.723   0.496   5.135
  437SOL    HW1 2210   6.680   0.412   5.104
  437SOL    HW2 2211   6.653   0.564   5.158
  438SOL     OW 2212   0.294   4.094   2.917
  438SOL    HW1 2213   0.207   4.138   2.939
  438SOL    HW2 2214   0.353   4.161   2.871
  439SOL     OW 2215   6.932   0.195   4.161
  439SOL    HW1 2216   6.916   0.225   4.255
  439SOL    HW2 2217   0.013   0.182   4.147
  440SOL     OW 2218   3.839   1.378   0.779
  440SOL    HW1 2219   3.742   1.401   0.786
  440SOL    HW2 2220   3.850   1.279   0.789
  441SOL     OW 2221   7.006   3.882   2.644
  441SOL    HW1 2222   6.957   3.889   2.557
  441SOL    HW2 2223   0.085   3.858   2.626
  442SOL     OW 2224   5.149   3.401   5.867
  442SOL    HW1 2225   5.231   3.408   5.922
  442SOL    HW2 2226   5.147   3.312   5.820
  443SOL     OW 2227   4.941   3.428   2.215
  443SOL    HW1 2228   4.902   3.338   2.196
  443SOL    HW2 2229   4.913   3.458   2.306
  444SOL     OW 2230   3.847   0.910   1.697
  444SOL    HW1 2231   3.776   0.980   1.695
  444SOL    HW2 2232   3.922   0.940   1.755
  445SOL     OW 2233   1.304   5.835   2.334
  445SOL    HW1 2234   1.260   5.745   2.345
  445SOL    HW2 2235   1.336   5.845   2.240
  446SOL     OW 2236   5.349   6.916   1.633
  446SOL    HW1 2237   5.323   6.977   1.558
  446SOL    HW2 2238   5.314   6.824   1.616
  447SOL     OW 2239   6.146   4.743   0.997
  447SOL    HW1 2240   6.194   4.743   0.909
  447SOL    HW2 2241   6.211   4.718   1.069
  448SOL     OW 2242   2.623   0.048   3.110
  448SOL    HW1 2243   2.606   0.035   3.208
  448SOL    HW2 2244   2.706   0.103   3.098
  449SOL     OW 2245   1.251   4.219   4.918
  449SOL    HW1 2246   1.280   4.294   4.858
  449SOL    HW2 2247   1.201   4.152   4.864
  450SOL     OW 2248   0.689   4.686   3.668
  450SOL    HW1 2249   0.644   4.694   3.757
  450SOL    HW2 2250   0.624   4.650   3.600
  451SOL     OW 2251   0.649   2.116   2.323
  451SOL    HW1 2252   0.697   2.031   2.343
  451SOL    HW2 2253   0.709   2.193   2.344
  452SOL     OW 2254   4.944   5.110   2.092
  452SOL    HW1 2255   4.897   5.042   2.034
  452SOL    HW2 2256   4.881   5.184   2.115
  453SOL     OW 2257   3.715   0.611   6.185
  453SOL    HW1 2258   3.742   0.537   6.247
  453SOL    HW2 2259   3.641   0.664   6.227
  454SOL     OW 2260   6.625   3.322   6.245
  454SOL    HW1 2261   6.607   3.401   6.187
  454SOL    HW2 2262   6.582   3.241   6.206
  455SOL     OW 2263   6.029   4.758   5.924
  455SOL    HW1 2264   6.044   4.855   5.904
  455SOL    HW2 2265   6.095   4.729   5.994
  456SOL     OW 2266   2.626   0.921   2.585
  456SOL    HW1 2267   2.638   0.875   2.673
  456SOL    HW2 2268   2.587   1.012   2.599
  457SOL     OW 2269   2.825   0.192   0.060
  457SOL    HW1 2270   2.878   0.116   0.024
  457SOL    HW2 2271   2.731   0.186   0.028
  458SOL     OW 2272   3.242   1.608   3.472
  458SOL    HW1 2273   3.240   1.560   3.560
  458SOL    HW2 2274   3.331   1.593   3.428
  459SOL     OW 2275   3.486   6.983   3.971
  459SOL    HW1 2276   3.572   6.933   3.981
  459SOL    HW2 2277   3.502   0.063   3.993
  460SOL     OW 2278   0.885   1.266   6.059
  460SOL    HW1 2279   0.948   1.203   6.104
  460SOL    HW2 2280   0.923   1.294   5.971
  461SOL     OW 2281   0.774   5.216   5.924
  461SOL    HW1 2282   0.720   5.148   5.973
  461SOL    HW2 2283   0.870   5.208   5.952
  462SOL     OW 2284   3.056   4.002   4.796
  462SOL    HW1 2285   3.035   4.018   4.699
  462SOL    HW2 2286   3.015   4.074   4.851
  463SOL     OW 2287   5.146   6.939   2.945
  463SOL    HW1 2288   5.072   6.950   3.011
  463SOL    HW2 2289   5.109   6.905   2.859
  464SOL     OW 2290   3.866   5.230   6.322
  464SOL    HW1 2291   3.770   5.251   6.341
  464SOL    HW2 2292   3.921   5.311   6.340
  465SOL     OW 2293   0.780   3.982   1.364
  465SOL    HW1 2294   0.728   3.896   1.372
  465SOL    HW2 2295   0.819   3.989   1.273
  466SOL     OW 2296   3.665   5.356   4.562
  466SOL    HW1 2297   3.581   5.393   4.602
  466SOL    HW2 2298   3.714   5.303   4.631
  467SOL     OW 2299   5.828   0.067   2.088
  467SOL    HW1 2300   5.920   0.048   2.123
  467SOL    HW2 2301   5.824   0.161   2.055
  468SOL     OW 2302   3.139   6.915   6.649
  468SOL    HW1 2303   3.047   6.874   6.650
  468SOL    HW2 2304   3.137   7.000   6.700
  469SOL     OW 2305   3.467   4.895   5.587
  469SOL    HW1 2306   3.562   4.873   5.568
  469SOL    HW2 2307   3.409   4.819   5.560
  470SOL     OW 2308   2.235   5.071   2.976
  470SOL    HW1 2309   2.331   5.058   2.950
  470SOL    HW2 2310   2.201   5.157   2.938
  471SOL     OW 2311   1.742   2.437   3.862
  471SOL    HW1 2312   1.804   2.360   3.844
  471SOL    HW2 2313   1.704   2.428   3.954
  472SOL     OW 2314   5.762   3.242   6.554
  472SOL    HW1 2315   5.830   3.240   6.481
  472SOL    HW2 2316   5.706   3.159   6.550
  473SOL     OW 2317   6.496   2.953   2.184
  473SOL    HW1 2318   6.403   2.988   2.195
  473SOL    HW2 2319   6.498   2.889   2.107
  474SOL     OW 2320   4.491   6.344   3.903
  474SOL    HW1 2321   4.421   6.308   3.841
  474SOL    HW2 2322   4.578   6.352   3.853
  475SOL     OW 2323   6.006   1.959   0.621
  475SOL    HW1 2324   5.968   1.937   0.710
  475SOL    HW2 2325   5.956   2.037   0.582
  476SOL     OW 2326   1.241   4.572   1.511
  476SOL    HW1 2327   1.272   4.667   1.519
  476SOL    HW2 2328   1.200   4.558   1.421
  477SOL     OW 2329   1.695   4.447   3.853
  477SOL    HW1 2330   1.681   4.515   3.926
  477SOL    HW2 2331   1.609   4.435   3.803
  478SOL     OW 2332   5.123   5.523   1.957
  478SOL    HW1 2333   5.147   5.509   1.861
  478SOL    HW2 2334   5.142   5.441   2.010
  479SOL     OW 2335   3.253   4.123   3.703
  479SOL    HW1 2336   3.282   4.174   3.621
  479SOL    HW2 2337   3.193   4.048   3.676
  480SOL     OW 2338   1.263   0.975   3.094
  480SOL    HW1 2339   1.281   0.929   3.180
  480SOL    HW2 2340   1.347   0.980   3.040
  481SOL     OW 2341   0.010   6.903   0.885
  481SOL    HW1 2342   6.965   6.981   0.876
  481SOL    HW2 2343   0.084   6.926   0.949
  482SOL     OW 2344   3.805   5.081   1.667
  482SOL    HW1 2345   3.813   4.991   1.624
  482SOL    HW2 2346   3.748   5.073   1.750
  483SOL     OW 2347   5.444   1.747   3.863
  483SOL    HW1 2348   5.459   1.836   3.906
  483SOL    HW2 2349   5.383   1.758   3.784
  484SOL     OW 2350   2.597   4.572   4.493
  484SOL    HW1 2351   2.607   4.591   4.396
  484SOL    HW2 2352   2.639   4.646   4.546
  485SOL     OW 2353   5.788   3.424   1.649
  485SOL    HW1 2354   5.776   3.523   1.636
  485SOL    HW2 2355   5.703   3.377   1.625
  486SOL     OW 2356   6.028   5.967   6.567
  486SOL    HW1 2357   6.011   5.877   6.608
  486SOL    HW2 2358   6.056   6.032   6.638
  487SOL     OW 2359   6.471   0.003   6.154
  487SOL    HW1 2360   6.392   0.057   6.184
  487SOL    HW2 2361   6.555   0.043   6.189
  488SOL     OW 2362   1.931   5.938   2.773
  488SOL    HW1 2363   1.993   5.963   2.847
  488SOL    HW2 2364   1.862   6.010   2.761
  489SOL     OW 2365   1.357   6.175   6.189
  489SOL    HW1 2366   1.435   6.203   6.244
  489SOL    HW2 2367   1.306   6.256   6.159
  490SOL     OW 2368   1.141   4.412   4.384
  490SOL    HW1 2369   1.095   4.457   4.307
  490SOL    HW2 2370   1.217   4.469   4.416
  491SOL     OW 2371   0.620   2.541   0.966
  491SOL    HW1 2372   0.652   2.594   1.045
  491SOL    HW2 2373   0.665   2.574   0.883
  492SOL     OW 2374   0.954   2.556   5.624
  492SOL    HW1 2375   0.910   2.490   5.563
  492SOL    HW2 2376   0.992   2.631   5.569
  493SOL     OW 2377   2.580   5.498   4.480
  493SOL    HW1 2378   2.655   5.508   4.415
  493SOL    HW2 2379   2.493   5.518   4.435
  494SOL     OW 2380   2.374   6.444   4.662
  494SOL    HW1 2381   2.469   6.462   4.636
  494SOL    HW2 2382   2.331   6.529   4.692
  495SOL     OW 2383   3.987   3.922   5.921
  495SOL    HW1 2384   3.890   3.923   5.897
  495SOL    HW2 2385   4.026   3.833   5.897
  496SOL     OW 2386   4.673   1.450   3.409
  496SOL    HW1 2387   4.745   1.414   3.350
  496SOL    HW2 2388   4.672   1.550   3.404
  497SOL     OW 2389   4.231   1.758   0.151
  497SOL    HW1 2390   4.308   1.730   0.208
  497SOL    HW2 2391   4.158   1.796   0.209
  498SOL     OW 2392   0.757   6.656   1.709
  498SOL    HW1 2393   0.747   6.747   1.668
  498SOL    HW2 2394   0.688   6.595   1.672
  499SOL     OW 2395   2.858   6.178   6.993
  499SOL    HW1 2396   2.803   6.114   0.030
  499SOL    HW2 2397   2.943   6.133   6.965
  500SOL     OW 2398   5.922   2.112   0.421
  500SOL    HW1 2399   5.894   2.200   0.383
  500SOL    HW2 2400   5.853   2.042   0.400
  501SOL     OW 2401   1.214   1.096   4.290
  501SOL    HW1 2402   1.239   1.105   4.387
  501SOL    HW2 2403   1.168   1.008   4.276
  502SOL     OW 2404   1.916   5.022   6.648
  502SOL    HW1 2405   1.917   4.958   6.726
  502SOL    HW2 2406   1.957   4.978   6.569
  503SOL     OW 2407   4.033   4.859   0.398
  503SOL    HW1 2408   4.050   4.793   0.325
  503SOL    HW2 2409   3.954   4.916   0.374
  504SOL     OW 2410   5.838   6.224   1.738
  504SOL    HW1 2411   5.916   6.207   1.797
  504SOL    HW2 2412   5.826   6.147   1.675
  505SOL     OW 2413   4.543   5.983   4.877
  505SOL    HW1 2414   4.612   6.027   4.934
  505SOL    HW2 2415   4.461   6.040   4.873
  506SOL     OW 2416   4.365   4.914   2.007
  506SOL    HW1 2417   4.281   4.872   2.042
  506SOL    HW2 2418   4.439   4.900   2.074
  507SOL     OW 2419   3.104   0.799   0.985
  507SOL    HW1 2420   3.177   0.768   0.923
  507SOL    HW2 2421   3.145   0.838   1.068
  508SOL     OW 2422   6.928   4.233   3.478
  508SOL    HW1 2423   6.883   4.148   3.506
  508SOL    HW2 2424   0.010   4.217   3.470
  509SOL     OW 2425   4.668   0.183   6.161
  509SOL    HW1 2426   4.614   0.107   6.196
  509SOL    HW2 2427   4.676   0.253   6.232
  510SOL     OW 2428   6.583   3.847   7.010
  510SOL    HW1 2429   6.577   3.906   6.930
  510SOL    HW2 2430   6.546   3.895   0.074
  511SOL     OW 2431   0.570   2.224   0.761
  511SOL    HW1 2432   0.564   2.144   0.702
  511SOL    HW2 2433   0.565   2.307   0.706
  512SOL     OW 2434   0.097   2.525   5.056
  512SOL    HW1 2435   0.136   2.593   5.118
  512SOL    HW2 2436   0.098   2.435   5.100
  513SOL     OW 2437   5.483   1.014   3.053
  513SOL    HW1 2438   5.399   0.987   3.006
  513SOL    HW2 2439   5.537   0.933   3.073
  514SOL     OW 2440   6.314   0.092   4.729
  514SOL    HW1 2441   6.364   0.008   4.750
  514SOL    HW2 2442   6.231   0.096   4.785
  515SOL     OW 2443   3.722   0.128   5.637
  515SOL    HW1 2444   3.712   0.207   5.576
  515SOL    HW2 2445   3.691   0.045   5.591
  516SOL     OW 2446   2.281   5.889   2.034
  516SOL    HW1 2447   2.228   5.949   1.975
  516SOL    HW2 2448   2.373   5.927   2.046
  517SOL     OW 2449   3.871   5.767   1.283
  517SOL    HW1 2450   3.966   5.751   1.258
  517SOL    HW2 2451   3.814   5.759   1.201
  518SOL     OW 2452   2.055   3.523   3.944
  518SOL    HW1 2453   2.045   3.563   4.035
  518SOL    HW2 2454   1.979   3.552   3.886
  519SOL     OW 2455   0.126   0.186   2.218
  519SOL    HW1 2456   0.039   0.180   2.170
  519SOL    HW2 2457   0.199   0.206   2.153
  520SOL     OW 2458   1.704   3.657   0.895
  520SOL    HW1 2459   1.617   3.678   0.941
  520SOL    HW2 2460   1.739   3.569   0.927
  521SOL     OW 2461   6.273   6.372   4.812
  521SOL    HW1 2462   6.357   6.318   4.804
  521SOL    HW2 2463   6.197   6.322   4.770
  522SOL     OW 2464   3.731   4.126   1.462
  522SOL    HW1 2465   3.702   4.112   1.557
  522SOL    HW2 2466   3.824   4.092   1.450
  523SOL     OW 2467   0.977   0.096   1.040
  523SOL    HW1 2468   1.069   0.112   1.005
  523SOL    HW2 2469   0.951   0.001   1.022
  524SOL     OW 2470   0.207   2.369   1.574
  524SOL    HW1 2471   0.299   2.398   1.599
  524SOL    HW2 2472   0.188   2.396   1.480
  525SOL     OW 2473   0.985   3.657   5.434
  525SOL    HW1 2474   1.052   3.651   5.508
  525SOL    HW2 2475   0.908   3.597   5.454
  526SOL     OW 2476   3.386   0.394   3.838
  526SOL    HW1 2477   3.357   0.327   3.770
  526SOL    HW2 2478   3.310   0.457   3.858
  527SOL     OW 2479   0.502   0.820   0.735
  527SOL    HW1 2480   0.412   0.777   0.732
  527SOL    HW2 2481   0.524   0.858   0.645
  528SOL     OW 2482   6.513   3.645   3.999
  528SOL    HW1 2483   6.564   3.729   3.978
  528SOL    HW2 2484   6.506   3.589   3.916
  529SOL     OW 2485   1.681   0.757   0.353
  529SOL    HW1 2486   1.745   0.680   0.363
  529SOL    HW2 2487   1.694   0.821   0.428
  530SOL     OW 2488   3.879   3.898   0.887
  530SOL    HW1 2489   3.813   3.828   0.862
  530SOL    HW2 2490   3.898   3.894   0.985
  531SOL     OW 2491   1.128   0.460   0.818
  531SOL    HW1 2492   1.150   0.436   0.913
  531SOL    HW2 2493   1.176   0.398   0.756
  532SOL     OW 2494   1.769   2.141   6.933
  532SOL    HW1 2495   1.849   2.200   6.948
  532SOL    HW2 2496   1.786   2.082   6.854
  533SOL     OW 2497   3.590   0.198   4.594
  533SOL    HW1 2498   3.641   0.283   4.601
  533SOL    HW2 2499   3.617   0.137   4.669
  534SOL     OW 2500   1.507   5.090   1.792
  534SOL    HW1 2501   1.541   5.083   1.698
  534SOL    HW2 2502   1.539   5.175   1.833
  535SOL     OW 2503   5.299   3.094   4.056
  535SOL    HW1 2504   5.236   3.019   4.037
  535SOL    HW2 2505   5.327   3.137   3.969
  536SOL     OW 2506   6.867   0.166   2.171
  536SOL    HW1 2507   6.874   0.072   2.205
  536SOL    HW2 2508   6.784   0.209   2.207
  537SOL     OW 2509   4.049   2.201   4.586
  537SOL    HW1 2510   4.115   2.261   4.630
  537SOL    HW2 2511   4.090   2.160   4.504
  538SOL     OW 2512   3.261   4.736   5.433
  538SOL    HW1 2513   3.288   4.817   5.381
  538SOL    HW2 2514   3.166   4.713   5.412
  539SOL     OW 2515   0.820   0.184   0.098
  539SOL    HW1 2516   0.883   0.205   0.173
  539SOL    HW2 2517   0.735   0.146   0.136
  540SOL     OW 2518   0.942   0.035   4.159
  540SOL    HW1 2519   0.985   0.069   4.076
  540SOL    HW2 2520   0.922   0.112   4.220
  541SOL     OW 2521   3.998   5.529   4.131
  541SOL    HW1 2522   3.978   5.448   4.186
  541SOL    HW2 2523   3.980   5.510   4.035
  542SOL     OW 2524   3.261   0.489   5.764
  542SOL    HW1 2525   3.240   0.422   5.835
  542SOL    HW2 2526   3.264   0.581   5.804
  543SOL     OW 2527   6.461   2.430   4.409
  543SOL    HW1 2528   6.553   2.396   4.393
  543SOL    HW2 2529   6.394   2.362   4.379
  544SOL     OW 2530   1.811   3.795   1.252
  544SOL    HW1 2531   1.791   3.893   1.252
  544SOL    HW2 2532   1.910   3.781   1.243
  545SOL     OW 2533   5.694   0.835   1.168
  545SOL    HW1 2534   5.647   0.788   1.094
  545SOL    HW2 2535   5.627   0.874   1.231
  546SOL     OW 2536   0.064   4.198   2.965
  546SOL    HW1 2537   0.012   4.262   2.909
  546SOL    HW2 2538   0.088   4.240   3.052
  547SOL     OW 2539   5.145   1.004   6.176
  547SOL    HW1 2540   5.187   1.004   6.085
  547SOL    HW2 2541   5.047   0.985   6.168
  548SOL     OW 2542   3.558   2.276   6.781
  548SOL    HW1 2543   3.556   2.177   6.769
  548SOL    HW2 2544   3.551   2.321   6.692
  549SOL     OW 2545   6.014   1.424   1.791
  549SOL    HW1 2546   6.055   1.334   1.801
  549SOL    HW2 2547   6.063   1.476   1.721
  550SOL     OW 2548   6.820   5.301   3.266
  550SOL    HW1 2549   6.914   5.270   3.283
  550SOL    HW2 2550   6.816   5.401   3.274
  551SOL     OW 2551   6.599   0.839   0.712
  551SOL    HW1 2552   6.534   0.797   0.776
  551SOL    HW2 2553   6.687   0.791   0.719
  552SOL     OW 2554   6.091   5.008   5.850
  552SOL    HW1 2555   6.109   5.105   5.868
  552SOL    HW2 2556   6.074   4.995   5.753
  553SOL     OW 2557   2.563   1.274   6.662
  553SOL    HW1 2558   2.579   1.300   6.757
  553SOL    HW2 2559   2.475   1.227   6.655
  554SOL     OW 2560   5.802   6.448   1.583
  554SOL    HW1 2561   5.895   6.485   1.579
  554SOL    HW2 2562   5.797   6.377   1.653
  555SOL     OW 2563   1.411   4.008   5.589
  555SOL    HW1 2564   1.358   4.026   5.672
  555SOL    HW2 2565   1.355   4.027   5.509
  556SOL     OW 2566   5.456   0.093   4.333
  556SOL    HW1 2567   5.490   0.015   4.384
  556SOL    HW2 2568   5.506   0.176   4.361
  557SOL     OW 2569   6.950   4.408   6.776
  557SOL    HW1 2570   0.000   4.425   6.849
  557SOL    HW2 2571   6.874   4.353   6.812
  558SOL     OW 2572   3.207   4.086   2.518
  558SOL    HW1 2573   3.210   4.157   2.589
  558SOL    HW2 2574   3.125   4.030   2.532
  559SOL     OW 2575   6.068   0.153   5.736
  559SOL    HW1 2576   5.973   0.183   5.746
  559SOL    HW2 2577   6.112   0.152   5.825
  560SOL     OW 2578   6.224   3.214   3.115
  560SOL    HW1 2579   6.148   3.192   3.176
  560SOL    HW2 2580   6.226   3.149   3.039
  561SOL     OW 2581   0.919   3.054   0.254
  561SOL    HW1 2582   0.997   3.000   0.287
  561SOL    HW2 2583   0.926   3.067   0.155
  562SOL     OW 2584   4.320   7.012   5.396
  562SOL    HW1 2585   4.244   7.005   5.331
  562SOL    HW2 2586   4.286   0.029   5.484
  563SOL     OW 2587   2.014   1.328   4.502
  563SOL    HW1 2588   2.036   1.367   4.412
  563SOL    HW2 2589   1.953   1.249   4.490
  564SOL     OW 2590   7.011   1.965   5.774
  564SOL    HW1 2591   6.946   2.021   5.826
  564SOL    HW2 2592   0.058   2.025   5.725
  565SOL     OW 2593   4.074   3.400   3.245
  565SOL    HW1 2594   4.110   3.381   3.336
  565SOL    HW2 2595   4.096   3.323   3.184
  566SOL     OW 2596   3.393   0.160   3.129
  566SOL    HW1 2597   3.424   0.241   3.178
  566SOL    HW2 2598   3.403   0.080   3.189
  567SOL     OW 2599   2.041   3.023   6.164
  567SOL    HW1 2600   2.119   3.036   6.227
  567SOL    HW2 2601   2.036   2.928   6.136
  568SOL     OW 2602   6.788   6.471   0.276
  568SOL    HW1 2603   6.727   6.445   0.201
  568SOL    HW2 2604   6.836   6.390   0.310
  569SOL     OW 2605   6.593   2.157   0.370
  569SOL    HW1 2606   6.542   2.234   0.330
  569SOL    HW2 2607   6.611   2.176   0.466
  570SOL     OW 2608   2.356   0.818   5.696
  570SOL    HW1 2609   2.354   0.833   5.597
  570SOL    HW2 2610   2.281   0.758   5.721
  571SOL     OW 2611   2.215   5.465   2.527
  571SOL    HW1 2612   2.211   5.521   2.610
  571SOL    HW2 2613   2.172   5.514   2.452
  572SOL     OW 2614   2.719   6.965   3.989
  572SOL    HW1 2615   2.640   6.910   4.014
  572SOL    HW2 2616   2.716   0.036   4.039
  573SOL     OW 2617   0.080   1.298   5.188
  573SOL    HW1 2618   0.005   1.234   5.206
  573SOL    HW2 2619   0.050   1.368   5.124
  574SOL     OW 2620   2.301   2.213   5.690
  574SOL    HW1 2621   2.348   2.289   5.645
  574SOL    HW2 2622   2.238   2.249   5.759
  575SOL     OW 2623   3.693   2.745   0.414
  575SOL    HW1 2624   3.594   2.755   0.403
  575SOL    HW2 2625   3.717   2.649   0.400
  576SOL     OW 2626   2.007   3.212   3.003
  576SOL    HW1 2627   1.915   3.191   3.035
  576SOL    HW2 2628   2.057   3.127   2.984
  577SOL     OW 2629   0.910   1.398   2.056
  577SOL    HW1 2630   0.955   1.404   1.967
  577SOL    HW2 2631   0.839   1.327   2.052
  578SOL     OW 2632   2.276   6.508   6.884
  578SOL    HW1 2633   2.250   6.513   6.981
  578SOL    HW2 2634   2.257   6.596   6.840
  579SOL     OW 2635   2.374   4.455   2.013
  579SOL    HW1 2636   2.352   4.374   1.958
  579SOL    HW2 2637   2.449   4.505   1.969
  580SOL     OW 2638   4.274   5.114   4.429
  580SOL    HW1 2639   4.253   5.189   4.366
  580SOL    HW2 2640   4.204   5.110   4.500
  581SOL     OW 2641   1.975   2.728   4.565
  581SOL    HW1 2642   1.878   2.715   4.587
  581SOL    HW2 2643   2.028   2.734   4.649
  582SOL     OW 2644   5.382   5.887   3.767
  582SOL    HW1 2645   5.316   5.885   3.843
  582SOL    HW2 2646   5.332   5.876   3.681
  583SOL     OW 2647   4.151   5.662   5.761
  583SOL    HW1 2648   4.096   5.599   5.706
  583SOL    HW2 2649   4.214   5.610   5.818
  584SOL     OW 2650   4.455   0.733   5.740
  584SOL    HW1 2651   4.402   0.780   5.670
  584SOL    HW2 2652   4.540   0.783   5.756
  585SOL     OW 2653   3.111   0.410   1.998
  585SOL    HW1 2654   3.021   0.417   2.041
  585SOL    HW2 2655   3.102   0.366   1.909
  586SOL     OW 2656   4.650   6.847   0.912
  586SOL    HW1 2657   4.747   6.829   0.931
  586SOL    HW2 2658   4.641   6.935   0.865
  587SOL     OW 2659   4.785   1.985   1.711
  587SOL    HW1 2660   4.730   2.064   1.683
  587SOL    HW2 2661   4.742   1.901   1.680
  588SOL     OW 2662   1.236   5.386   2.562
  588SOL    HW1 2663   1.249   5.294   2.524
  588SOL    HW2 2664   1.158   5.385   2.624
  589SOL     OW 2665   3.130   6.090   1.028
  589SOL    HW1 2666   3.169   6.025   0.963
  589SOL    HW2 2667   3.137   6.183   0.990
  590SOL     OW 2668   4.899   1.847   0.694
  590SOL    HW1 2669   4.961   1.825   0.769
  590SOL    HW2 2670   4.862   1.939   0.708
  591SOL     OW 2671   3.705   6.041   4.881
  591SOL    HW1 2672   3.737   6.037   4.786
  591SOL    HW2 2673   3.700   5.949   4.919
  592SOL     OW 2674   4.137   1.996   4.231
  592SOL    HW1 2675   4.228   2.036   4.222
  592SOL    HW2 2676   4.068   2.062   4.201
  593SOL     OW 2677   2.871   1.280   6.323
  593SOL    HW1 2678   2.926   1.239   6.396
  593SOL    HW2 2679   2.903   1.246   6.235
  594SOL     OW 2680   5.251   1.411   2.060
  594SOL    HW1 2681   5.301   1.457   1.987
  594SOL    HW2 2682   5.172   1.467   2.087
  595SOL     OW 2683   5.452   5.895   2.514
  595SOL    HW1 2684   5.438   5.896   2.613
  595SOL    HW2 2685   5.428   5.805   2.478
  596SOL     OW 2686   6.667   4.861   4.037
  596SOL    HW1 2687   6.763   4.861   4.008
  596SOL    HW2 2688   6.662   4.836   4.134
  597SOL     OW 2689   2.513   0.214   5.905
  597SOL    HW1 2690   2.462   0.292   5.941
  597SOL    HW2 2691   2.608   0.241   5.888
  598SOL     OW 2692   3.020   3.177   4.409
  598SOL    HW1 2693   3.086   3.107   4.438
  598SOL    HW2 2694   2.980   3.219   4.490
  599SOL     OW 2695   1.318   5.629   2.011
  599SOL    HW1 2696   1.329   5.530   1.999
  599SOL    HW2 2697   1.254   5.647   2.086
  600SOL     OW 2698   0.005   3.823   4.816
  600SOL    HW1 2699   0.005   3.885   4.737
  600SOL    HW2 2700   0.099   3.792   4.834
  601SOL     OW 2701   2.056   6.409   5.032
  601SOL    HW1 2702   1.998   6.408   5.114
  601SOL    HW2 2703   2.013   6.466   4.962
  602SOL     OW 2704   2.688   6.164   4.176
  602SOL    HW1 2705   2.732   6.247   4.143
  602SOL    HW2 2706   2.635   6.183   4.258
  603SOL     OW 2707   1.826   1.295   5.618
  603SOL    HW1 2708   1.831   1.205   5.575
  603SOL    HW2 2709   1.897   1.354   5.579
  604SOL     OW 2710   6.603   2.451   1.688
  604SOL    HW1 2711   6.688   2.399   1.700
  604SOL    HW2 2712   6.567   2.434   1.596
  605SOL     OW 2713   0.216   5.556   2.246
  605SOL    HW1 2714   0.256   5.587   2.333
  605SOL    HW2 2715   0.149   5.483   2.264
  606SOL     OW 2716   3.221   6.431   4.865
  606SOL    HW1 2717   3.265   6.483   4.939
  606SOL    HW2 2718   3.233   6.480   4.778
  607SOL     OW 2719   0.885   4.567   5.889
  607SOL    HW1 2720   0.799   4.531   5.852
  607SOL    HW2 2721   0.881   4.666   5.891
  608SOL     OW 2722   2.827   1.347   5.394
  608SOL    HW1 2723   2.877   1.276   5.345
  608SOL    HW2 2724   2.808   1.423   5.332
  609SOL     OW 2725   3.310   2.843   2.196
  609SOL    HW1 2726   3.272   2.818   2.107
  609SOL    HW2 2727   3.375   2.774   2.225
  610SOL     OW 2728   4.797   3.581   0.836
  610SOL    HW1 2729   4.875   3.582   0.898
  610SOL    HW2 2730   4.713   3.565   0.889
  611SOL     OW 2731   3.792   0.404   2.514
  611SOL    HW1 2732   3.707   0.372   2.556
  611SOL    HW2 2733   3.845   0.455   2.582
  612SOL     OW 2734   4.056   4.584   6.070
  612SOL    HW1 2735   4.004   4.573   5.985
  612SOL    HW2 2736   4.003   4.544   6.146
  613SOL     OW 2737   4.461   5.434   5.474
  613SOL    HW1 2738   4.441   5.359   5.537
  613SOL    HW2 2739   4.527   5.496   5.516
  614SOL     OW 2740   4.102   4.936   6.017
  614SOL    HW1 2741   4.088   4.965   6.112
  614SOL    HW2 2742   4.020   4.890   5.984
  615SOL     OW 2743   0.754   5.102   1.859
  615SOL    HW1 2744   0.666   5.066   1.827
  615SOL    HW2 2745   0.739   5.186   1.911
  616SOL     OW 2746   5.721   3.511   3.266
  616SOL    HW1 2747   5.734   3.456   3.349
  616SOL    HW2 2748   5.801   3.501   3.206
  617SOL     OW 2749   3.119   5.566   6.579
  617SOL    HW1 2750   3.094   5.527   6.490
  617SOL    HW2 2751   3.059   5.529   6.650
  618SOL     OW 2752   1.431   1.003   2.278
  618SOL    HW1 2753   1.377   1.000   2.363
  618SOL    HW2 2754   1.374   1.038   2.204
  619SOL     OW 2755   0.950   1.067   6.611
  619SOL    HW1 2756   0.957   1.121   6.528
  619SOL    HW2 2757   1.026   1.088   6.672
  620SOL     OW 2758   4.470   3.695   0.702
  620SOL    HW1 2759   4.542   3.753   0.664
  620SOL    HW2 2760   4.495   3.666   0.794
  621SOL     OW 2761   0.397   4.858   2.201
  621SOL    HW1 2762   0.445   4.773   2.183
  621SOL    HW2 2763   0.360   4.895   2.116
  622SOL     OW 2764   1.712   1.228   7.001
  622SOL    HW1 2765   1.625   1.248   6.955
  622SOL    HW2 2766   1.787   1.244   6.938
  623SOL     OW 2767   0.733   4.791   6.571
  623SOL    HW1 2768   0.770   4.713   6.520
  623SOL    HW2 2769   0.801   4.822   6.638
  624SOL     OW 2770   0.532   2.628   2.656
  624SOL    HW1 2771   0.506   2.725   2.660
  624SOL    HW2 2772   0.459   2.576   2.612
  625SOL     OW 2773   2.533   1.657   2.066
  625SOL    HW1 2774   2.475   1.671   1.985
  625SOL    HW2 2775   2.524   1.736   2.127
  626SOL     OW 2776   2.714   6.252   4.712
  626SOL    HW1 2777   2.661   6.169   4.728
  626SOL    HW2 2778   2.753   6.284   4.798
  627SOL     OW 2779   5.398   0.953   6.965
  627SOL    HW1 2780   5.411   0.912   6.875
  627SOL    HW2 2781   5.347   0.890   0.007
  628SOL     OW 2782   4.920   4.021   3.719
  628SOL    HW1 2783   4.838   4.052   3.671
  628SOL    HW2 2784   4.964   4.099   3.763
  629SOL     OW 2785   1.223   0.037   0.956
  629SOL    HW1 2786   1.226   6.998   1.040
  629SOL    HW2 2787   1.314   0.072   0.937
  630SOL     OW 2788   3.996   2.047   1.098
  630SOL    HW1 2789   3.984   2.029   1.195
  630SOL    HW2 2790   4.091   2.030   1.072
  631SOL     OW 2791   2.598   0.024   5.273
  631SOL    HW1 2792   2.575   6.975   5.345
  631SOL    HW2 2793   2.603   6.994   5.185
  632SOL     OW 2794   2.355   0.591   0.929
  632SOL    HW1 2795   2.278   0.620   0.872
  632SOL    HW2 2796   2.347   0.631   1.020
  633SOL     OW 2797   2.484   6.946   6.316
  633SOL    HW1 2798   2.399   6.940   6.263
  633SOL    HW2 2799   2.539   6.864   6.298
  634SOL     OW 2800   3.529   5.947   0.499
  634SOL    HW1 2801   3.568   5.907   0.583
  634SOL    HW2 2802   3.490   5.874   0.443
  635SOL     OW 2803   2.585   0.385   2.521
  635SOL    HW1 2804   2.607   0.441   2.601
  635SOL    HW2 2805   2.598   0.289   2.542
  636SOL     OW 2806   5.055   5.042   0.076
  636SOL    HW1 2807   5.091   5.095   7.015
  636SOL    HW2 2808   5.029   5.105   0.150
  637SOL     OW 2809   4.421   4.408   1.079
  637SOL    HW1 2810   4.374   4.457   1.153
  637SOL    HW2 2811   4.359   4.398   1.001
  638SOL     OW 2812   5.024   1.175   2.648
  638SOL    HW1 2813   5.008   1.205   2.743
  638SOL    HW2 2814   5.038   1.076   2.646
  639SOL     OW 2815   4.449   4.518   2.080
  639SOL    HW1 2816   4.468   4.432   2.127
  639SOL    HW2 2817   4.478   4.511   1.985
  640SOL     OW 2818   2.801   4.212   5.263
  640SOL    HW1 2819   2.856   4.135   5.230
  640SOL    HW2 2820   2.842   4.297   5.231
  641SOL     OW 2821   0.169   5.944   4.766
  641SOL    HW1 2822   0.229   6.022   4.747
  641SOL    HW2 2823   0.075   5.977   4.776
  642SOL     OW 2824   0.784   5.273   4.785
  642SOL    HW1 2825   0.690   5.238   4.792
  642SOL    HW2 2826   0.785   5.370   4.809
  643SOL     OW 2827   5.948   5.904   5.341
  643SOL    HW1 2828   5.858   5.907   5.298
  643SOL    HW2 2829   6.016   5.876   5.273
  644SOL     OW 2830   1.395   6.522   2.203
  644SOL    HW1 2831   1.434   6.519   2.295
  644SOL    HW2 2832   1.431   6.445   2.149
  645SOL     OW 2833   5.433   2.521   3.616
  645SOL    HW1 2834   5.400   2.616   3.617
  645SOL    HW2 2835   5.507   2.512   3.549
  646SOL     OW 2836   1.698   1.854   4.424
  646SOL    HW1 2837   1.770   1.912   4.387
  646SOL    HW2 2838   1.734   1.801   4.502
  647SOL     OW 2839   6.051   3.255   0.238
  647SOL    HW1 2840   6.103   3.260   0.323
  647SOL    HW2 2841   6.111   3.225   0.164
  648SOL     OW 2842   6.066   3.335   1.720
  648SOL    HW1 2843   5.973   3.360   1.692
  648SOL    HW2 2844   6.087   3.381   1.806
  649SOL     OW 2845   4.179   4.369   1.398
  649SOL    HW1 2846   4.193   4.389   1.495
  649SOL    HW2 2847   4.234   4.432   1.342
  650SOL     OW 2848   4.902   4.882   0.525
  650SOL    HW1 2849   4.937   4.862   0.616
  650SOL    HW2 2850   4.967   4.850   0.456
  651SOL     OW 2851   1.133   6.077   6.674
  651SOL    HW1 2852   1.113   6.105   6.768
  651SOL    HW2 2853   1.128   6.156   6.614
  652SOL     OW 2854   4.164   1.422   2.538
  652SOL    HW1 2855   4.123   1.497   2.486
  652SOL    HW2 2856   4.235   1.378   2.483
  653SOL     OW 2857   3.421   4.960   3.448
  653SOL    HW1 2858   3.448   4.995   3.537
  653SOL    HW2 2859   3.477   4.880   3.425
  654SOL     OW 2860   6.787   4.427   0.408
  654SOL    HW1 2861   6.737   4.422   0.494
  654SOL    HW2 2862   6.810   4.523   0.388
  655SOL     OW 2863   0.560   0.639   1.070
  655SOL    HW1 2864   0.555   0.556   1.015
  655SOL    HW2 2865   0.654   0.671   1.073
  656SOL     OW 2866   2.788   6.519   2.003
  656SOL    HW1 2867   2.827   6.431   2.032
  656SOL    HW2 2868   2.792   6.584   2.078
  657SOL     OW 2869   3.147   1.653   6.727
  657SOL    HW1 2870   3.141   1.745   6.689
  657SOL    HW2 2871   3.058   1.627   6.765
  658SOL     OW 2872   3.237   4.428   6.100
  658SOL    HW1 2873   3.220   4.330   6.109
  658SOL    HW2 2874   3.332   4.443   6.074
  659SOL     OW 2875   2.296   0.012   6.543
  659SOL    HW1 2876   2.287   0.112   6.550
  659SOL    HW2 2877   2.387   7.005   6.511
  660SOL     OW 2878   3.872   5.371   2.660
  660SOL    HW1 2879   3.890   5.469   2.662
  660SOL    HW2 2880   3.854   5.338   2.753
  661SOL     OW 2881   5.109   5.375   2.871
  661SOL    HW1 2882   5.050   5.398   2.793
  661SOL    HW2 2883   5.196   5.339   2.837
  662SOL     OW 2884   3.177   1.215   6.921
  662SOL    HW1 2885   3.081   1.226   6.893
  662SOL    HW2 2886   3.212   1.303   6.954
  663SOL     OW 2887   2.260   4.302   5.240
  663SOL    HW1 2888   2.327   4.229   5.256
  663SOL    HW2 2889   2.167   4.264   5.251
  664SOL     OW 2890   6.404   0.621   6.858
  664SOL    HW1 2891   6.342   0.546   6.881
  664SOL    HW2 2892   6.498   0.594   6.876
  665SOL     OW 2893   2.200   5.627   2.786
  665SOL    HW1 2894   2.208   5.723   2.760
  665SOL    HW2 2895   2.264   5.608   2.860
  666SOL     OW 2896   4.303   0.929   2.220
  666SOL    HW1 2897   4.242   0.976   2.155
  666SOL    HW2 2898   4.384   0.985   2.237
  667SOL     OW 2899   0.789   6.668   2.692
  667SOL    HW1 2900   0.736   6.664   2.777
  667SOL    HW2 2901   0.732   6.707   2.619
  668SOL     OW 2902   5.344   3.675   0.205
  668SOL    HW1 2903   5.303   3.757   0.165
  668SOL    HW2 2904   5.350   3.604   0.135
  669SOL     OW 2905   5.069   1.758   3.121
  669SOL    HW1 2906   5.091   1.855   3.121
  669SOL    HW2 2907   4.974   1.745   3.151
  670SOL     OW 2908   2.107   2.152   3.641
  670SOL    HW1 2909   2.038   2.156   3.713
  670SOL    HW2 2910   2.144   2.060   3.635
  671SOL     OW 2911   2.811   6.417   1.735
  671SOL    HW1 2912   2.836   6.494   1.794
  671SOL    HW2 2913   2.894   6.373   1.701
  672SOL     OW 2914   1.092   6.491   2.247
  672SOL    HW1 2915   1.065   6.571   2.300
  672SOL    HW2 2916   1.191   6.489   2.236
  673SOL     OW 2917   5.303   0.031   0.393
  673SOL    HW1 2918   5.309   0.071   0.302
  673SOL    HW2 2919   5.335   6.953   0.391
  674SOL     OW 2920   0.289   0.684   4.391
  674SOL    HW1 2921   0.349   0.724   4.460
  674SOL    HW2 2922   0.318   0.590   4.373
  675SOL     OW 2923   6.262   2.712   2.462
  675SOL    HW1 2924   6.349   2.727   2.509
  675SOL    HW2 2925   6.225   2.623   2.488
  676SOL     OW 2926   2.142   5.778   6.217
  676SOL    HW1 2927   2.165   5.874   6.234
  676SOL    HW2 2928   2.216   5.734   6.166
  677SOL     OW 2929   4.780   1.451   0.656
  677SOL    HW1 2930   4.753   1.531   0.602
  677SOL    HW2 2931   4.870   1.420   0.625
  678SOL     OW 2932   2.009   4.939   4.832
  678SOL    HW1 2933   1.914   4.960   4.855
  678SOL    HW2 2934   2.029   4.844   4.854
  679SOL     OW 2935   5.464   1.884   5.409
  679SOL    HW1 2936   5.489   1.796   5.450
  679SOL    HW2 2937   5.404   1.867   5.331
  680SOL     OW 2938   4.405   0.122   4.515
  680SOL    HW1 2939   4.350   0.063   4.456
  680SOL    HW2 2940   4.441   0.199   4.462
  681SOL     OW 2941   4.697   4.835   2.401
  681SOL    HW1 2942   4.787   4.791   2.400
  681SOL    HW2 2943   4.627   4.768   2.375
  682SOL     OW 2944   0.983   0.648   3.760
  682SOL    HW1 2945   0.928   0.730   3.745
  682SOL    HW2 2946   0.936   0.587   3.825
  683SOL     OW 2947   4.541   3.656   1.234
  683SOL    HW1 2948   4.636   3.636   1.258
  683SOL    HW2 2949   4.483   3.580   1.261
  684SOL     OW 2950   6.616   0.878   6.010
  684SOL    HW1 2951   6.649   0.971   5.995
  684SOL    HW2 2952   6.670   0.835   6.082
  685SOL     OW 2953   3.330   0.469   3.040
  685SOL    HW1 2954   3.406   0.472   3.105
  685SOL    HW2 2955   3.283   0.557   3.040
  686SOL     OW 2956   4.265   0.838   5.268
  686SOL    HW1 2957   4.219   0.923   5.294
  686SOL    HW2 2958   4.198   0.764   5.265
  687SOL     OW 2959   1.429   1.806   4.367
  687SOL    HW1 2960   1.522   1.823   4.400
  687SOL    HW2 2961   1.427   1.720   4.317
  688SOL     OW 2962   6.287   1.410   0.071
  688SOL    HW1 2963   6.369   1.383   0.121
  688SOL    HW2 2964   6.213   1.428   0.136
  689SOL     OW 2965   1.347   5.041   6.103
  689SOL    HW1 2966   1.417   4.985   6.060
  689SOL    HW2 2967   1.376   5.137   6.103
  690SOL     OW 2968   5.683   3.296   2.513
  690SOL    HW1 2969   5.762   3.288   2.575
  690SOL    HW2 2970   5.697   3.237   2.434
  691SOL     OW 2971   4.511   1.738   0.054
  691SOL    HW1 2972   4.475   1.824   0.018
  691SOL    HW2 2973   4.564   1.692   6.999
  692SOL     OW 2974   2.714   0.800   4.628
  692SOL    HW1 2975   2.744   0.752   4.546
  692SOL    HW2 2976   2.620   0.776   4.648
  693SOL     OW 2977   5.121   6.040   3.962
  693SOL    HW1 2978   5.197   5.998   4.012
  693SOL    HW2 2979   5.035   6.013   4.005
  694SOL     OW 2980   4.696   5.628   5.068
  694SOL    HW1 2981   4.697   5.623   5.168
  694SOL    HW2 2982   4.777   5.678   5.037
  695SOL     OW 2983   3.245   0.111   4.194
  695SOL    HW1 2984   3.325   0.150   4.240
  695SOL    HW2 2985   3.275   0.056   4.117
  696SOL     OW 2986   4.675   4.319   3.331
  696SOL    HW1 2987   4.715   4.379   3.399
  696SOL    HW2 2988   4.600   4.366   3.285
  697SOL     OW 2989   0.302   5.091   2.420
  697SOL    HW1 2990   0.307   4.992   2.428
  697SOL    HW2 2991   0.359   5.121   2.343
  698SOL     OW 2992   5.609   0.083   1.166
  698SOL    HW1 2993   5.560   0.135   1.236
  698SOL    HW2 2994   5.632   0.144   1.090
  699SOL     OW 2995   2.384   2.139   0.892
  699SOL    HW1 2996   2.373   2.182   0.982
  699SOL    HW2 2997   2.372   2.040   0.902
  700SOL     OW 2998   3.824   6.787   2.914
  700SOL    HW1 2999   3.798   6.720   2.844
  700SOL    HW2 3000   3.810   6.747   3.005
  701SOL     OW 3001   6.176   5.309   1.373
  701SOL    HW1 3002   6.127   5.300   1.460
  701SOL    HW2 3003   6.200   5.404   1.358
  702SOL     OW 3004   2.936   1.154   3.822
  702SOL    HW1 3005   2.980   1.071   3.787
  702SOL    HW2 3006   2.969   1.171   3.915
  703SOL     OW 3007   2.969   2.557   5.966
  703SOL    HW1 3008   3.063   2.564   5.934
  703SOL    HW2 3009   2.919   2.640   5.943
  704SOL     OW 3010   1.279   2.875   6.036
  704SOL    HW1 3011   1.339   2.867   6.116
  704SOL    HW2 3012   1.231   2.788   6.022
  705SOL     OW 3013   0.033   6.398   4.788
  705SOL    HW1 3014   6.970   6.347   4.755
  705SOL    HW2 3015   0.010   6.495   4.797
  706SOL     OW 3016   4.645   1.024   5.167
  706SOL    HW1 3017   4.634   1.059   5.074
  706SOL    HW2 3018   4.738   0.989   5.178
  707SOL     OW 3019   3.343   5.366   3.548
  707SOL    HW1 3020   3.387   5.446   3.508
  707SOL    HW2 3021   3.310   5.306   3.475
  708SOL     OW 3022   3.503   0.631   3.749
  708SOL    HW1 3023   3.464   0.540   3.760
  708SOL    HW2 3024   3.522   0.670   3.838
  709SOL     OW 3025   2.407   0.171   1.529
  709SOL    HW1 3026   2.351   0.122   1.596
  709SOL    HW2 3027   2.449   0.105   1.467
  710SOL     OW 3028   4.566   2.863   1.608
  710SOL    HW1 3029   4.560   2.776   1.657
  710SOL    HW2 3030   4.576   2.938   1.674
  711SOL     OW 3031   0.215   2.406   5.880
  711SOL    HW1 3032   0.219   2.506   5.872
  711SOL    HW2 3033   0.269   2.365   5.806
  712SOL     OW 3034   5.053   3.766   0.466
  712SOL    HW1 3035   5.020   3.678   0.501
  712SOL    HW2 3036   5.153   3.768   0.474
  713SOL     OW 3037   3.928   2.734   5.309
  713SOL    HW1 3038   3.917   2.821   5.261
  713SOL    HW2 3039   3.992   2.676   5.259
  714SOL     OW 3040   5.231   5.162   3.647
  714SOL    HW1 3041   5.238   5.232   3.576
  714SOL    HW2 3042   5.273   5.077   3.614
  715SOL     OW 3043   6.256   5.256   5.442
  715SOL    HW1 3044   6.206   5.195   5.504
  715SOL    HW2 3045   6.239   5.351   5.468
  716SOL     OW 3046   1.853   1.665   2.637
  716SOL    HW1 3047   1.899   1.715   2.564
  716SOL    HW2 3048   1.818   1.578   2.600
  717SOL     OW 3049   5.210   5.457   4.063
  717SOL    HW1 3050   5.276   5.395   4.022
  717SOL    HW2 3051   5.199   5.435   4.160
  718SOL     OW 3052   5.630   1.680   4.333
  718SOL    HW1 3053   5.594   1.595   4.371
  718SOL    HW2 3054   5.729   1.671   4.318
  719SOL     OW 3055   5.323   0.120   3.572
  719SOL    HW1 3056   5.402   0.172   3.605
  719SOL    HW2 3057   5.315   0.035   3.623
  720SOL     OW 3058   2.107   0.917   6.907
  720SOL    HW1 3059   2.190   0.887   6.859
  720SOL    HW2 3060   2.104   0.876   6.998
  721SOL     OW 3061   0.269   2.503   2.825
  721SOL    HW1 3062   0.359   2.499   2.780
  721SOL    HW2 3063   0.265   2.583   2.884
  722SOL     OW 3064   4.069   6.847   0.275
  722SOL    HW1 3065   4.002   6.825   0.204
  722SOL    HW2 3066   4.041   6.804   0.361
  723SOL     OW 3067   2.611   5.742   3.652
  723SOL    HW1 3068   2.580   5.691   3.732
  723SOL    HW2 3069   2.622   5.679   3.575
  724SOL     OW 3070   1.274   0.752   3.588
  724SOL    HW1 3071   1.258   0.792   3.678
  724SOL    HW2 3072   1.307   0.822   3.525
  725SOL     OW 3073   1.641   3.925   2.629
  725SOL    HW1 3074   1.592   3.995   2.577
  725SOL    HW2 3075   1.578   3.851   2.653
  726SOL     OW 3076   2.089   4.081   0.463
  726SOL    HW1 3077   2.149   4.063   0.541
  726SOL    HW2 3078   1.994   4.070   0.491
  727SOL     OW 3079   4.239   5.415   5.144
  727SOL    HW1 3080   4.174   5.353   5.189
  727SOL    HW2 3081   4.263   5.490   5.207
  728SOL     OW 3082   6.471   3.363   4.093
  728SOL    HW1 3083   6.462   3.295   4.021
  728SOL    HW2 3084   6.529   3.437   4.062
  729SOL     OW 3085   0.326   4.298   1.522
  729SOL    HW1 3086   0.377   4.294   1.608
  729SOL    HW2 3087   0.352   4.221   1.464
  730SOL     OW 3088   5.036   0.414   3.473
  730SOL    HW1 3089   4.975   0.474   3.421
  730SOL    HW2 3090   5.131   0.435   3.451
  731SOL     OW 3091   4.242   4.390   6.300
  731SOL    HW1 3092   4.309   4.318   6.283
  731SOL    HW2 3093   4.289   4.477   6.315
  732SOL     OW 3094   4.958   1.441   3.896
  732SOL    HW1 3095   4.918   1.507   3.959
  732SOL    HW2 3096   5.052   1.467   3.876
  733SOL     OW 3097   5.926   6.747   3.373
  733SOL    HW1 3098   5.898   6.652   3.361
  733SOL    HW2 3099   5.955   6.762   3.468
  734SOL     OW 3100   5.616   6.127   2.643
  734SOL    HW1 3101   5.619   6.120   2.543
  734SOL    HW2 3102   5.570   6.047   2.682
  735SOL     OW 3103   5.217   1.143   1.926
  735SOL    HW1 3104   5.238   1.239   1.944
  735SOL    HW2 3105   5.302   1.089   1.929
  736SOL     OW 3106   0.859   1.351   4.432
  736SOL    HW1 3107   0.906   1.314   4.511
  736SOL    HW2 3108   0.915   1.422   4.390
  737SOL     OW 3109   5.574   0.926   6.271
  737SOL    HW1 3110   5.667   0.954   6.297
  737SOL    HW2 3111   5.508   0.986   6.315
  738SOL     OW 3112   2.675   4.215   1.330
  738SOL    HW1 3113   2.731   4.297   1.318
  738SOL    HW2 3114   2.650   4.178   1.241
  739SOL     OW 3115   2.954   6.613   4.885
  739SOL    HW1 3116   3.009   6.661   4.954
  739SOL    HW2 3117   3.012   6.593   4.806
  740SOL     OW 3118   5.178   3.056   3.066
  740SOL    HW1 3119   5.116   3.134   3.062
  740SOL    HW2 3120   5.259   3.081   3.119
  741SOL     OW 3121   2.766   0.745   2.909
  741SOL    HW1 3122   2.696   0.711   2.846
  741SOL    HW2 3123   2.846   0.685   2.905
  742SOL     OW 3124   1.820   6.819   1.424
  742SOL    HW1 3125   1.789   6.748   1.488
  742SOL    HW2 3126   1.907   6.857   1.457
  743SOL     OW 3127   0.874   6.411   3.261
  743SOL    HW1 3128   0.862   6.508   3.278
  743SOL    HW2 3129   0.804   6.359   3.311
  744SOL     OW 3130   4.650   2.083   0.405
  744SOL    HW1 3131   4.701   2.061   0.322
  744SOL    HW2 3132   4.555   2.053   0.395
  745SOL     OW 3133   2.810   6.353   4.962
  745SOL    HW1 3134   2.900   6.389   4.939
  745SOL    HW2 3135   2.789   6.373   5.057
  746SOL     OW 3136   6.479   4.258   5.410
  746SOL    HW1 3137   6.398   4.242   5.354
  746SOL    HW2 3138   6.486   4.355   5.432
  747SOL     OW 3139   5.303   5.701   3.045
  747SOL    HW1 3140   5.267   5.616   3.084
  747SOL    HW2 3141   5.305   5.772   3.115
  748SOL     OW 3142   5.741   5.276   2.140
  748SOL    HW1 3143   5.708   5.205   2.077
  748SOL    HW2 3144   5.664   5.334   2.168
  749SOL     OW 3145   5.017   3.508   3.764
  749SOL    HW1 3146   5.007   3.425   3.709
  749SOL    HW2 3147   4.979   3.493   3.855
  750SOL     OW 3148   2.200   2.189   1.601
  750SOL    HW1 3149   2.140   2.109   1.608
  750SOL    HW2 3150   2.184   2.250   1.678
  751SOL     OW 3151   4.671   0.353   6.891
  751SOL    HW1 3152   4.706   0.431   6.944
  751SOL    HW2 3153   4.571   0.361   6.883
  752SOL     OW 3154   3.467   2.456   5.381
  752SOL    HW1 3155   3.381   2.508   5.370
  752SOL    HW2 3156   3.456   2.365   5.342
  753SOL     OW 3157   3.904   3.765   4.644
  753SOL    HW1 3158   3.977   3.706   4.610
  753SOL    HW2 3159   3.914   3.857   4.606
  754SOL     OW 3160   5.845   0.457   6.833
  754SOL    HW1 3161   5.818   0.551   6.816
  754SOL    HW2 3162   5.835   0.436   6.931
  755SOL     OW 3163   4.120   4.684   5.258
  755SOL    HW1 3164   4.139   4.598   5.211
  755SOL    HW2 3165   4.120   4.669   5.357
  756SOL     OW 3166   2.305   4.888   5.747
  756SOL    HW1 3167   2.347   4.904   5.657
  756SOL    HW2 3168   2.372   4.844   5.807
  757SOL     OW 3169   2.812   6.848   2.454
  757SOL    HW1 3170   2.865   6.874   2.373
  757SOL    HW2 3171   2.714   6.848   2.431
  758SOL     OW 3172   3.210   1.676   3.755
  758SOL    HW1 3173   3.192   1.762   3.708
  758SOL    HW2 3174   3.252   1.694   3.844
  759SOL     OW 3175   0.730   2.875   4.333
  759SOL    HW1 3176   0.727   2.974   4.326
  759SOL    HW2 3177   0.642   2.836   4.305
  760SOL     OW 3178   6.845   5.834   3.700
  760SOL    HW1 3179   6.759   5.863   3.658
  760SOL    HW2 3180   6.914   5.905   3.687
  761SOL     OW 3181   4.697   3.393   5.975
  761SOL    HW1 3182   4.743   3.374   5.889
  761SOL    HW2 3183   4.696   3.491   5.992
  762SOL     OW 3184   3.529   5.643   4.651
  762SOL    HW1 3185   3.455   5.592   4.694
  762SOL    HW2 3186   3.525   5.630   4.551
  763SOL     OW 3187   5.746   0.600   0.263
  763SOL    HW1 3188   5.689   0.679   0.239
  763SOL    HW2 3189   5.838   0.631   0.286
  764SOL     OW 3190   5.284   0.108   5.258
  764SOL    HW1 3191   5.384   0.109   5.258
  764SOL    HW2 3192   5.251   0.024   5.300
  765SOL     OW 3193   0.056   6.451   1.132
  765SOL    HW1 3194   0.024   6.484   1.221
  765SOL    HW2 3195   0.067   6.529   1.070
  766SOL     OW 3196   1.938   2.121   5.522
  766SOL    HW1 3197   1.962   2.218   5.524
  766SOL    HW2 3198   1.956   2.080   5.611
  767SOL     OW 3199   0.458   6.366   4.755
  767SOL    HW1 3200   0.443   6.297   4.826
  767SOL    HW2 3201   0.552   6.359   4.722
  768SOL     OW 3202   2.195   5.393   1.913
  768SOL    HW1 3203   2.157   5.485   1.929
  768SOL    HW2 3204   2.295   5.397   1.915
  769SOL     OW 3205   2.901   2.246   4.841
  769SOL    HW1 3206   2.861   2.336   4.824
  769SOL    HW2 3207   2.996   2.257   4.873
  770SOL     OW 3208   1.777   4.641   4.976
  770SOL    HW1 3209   1.806   4.643   5.072
  770SOL    HW2 3210   1.856   4.630   4.917
  771SOL     OW 3211   0.959   5.972   2.952
  771SOL    HW1 3212   0.937   6.068   2.967
  771SOL    HW2 3213   1.037   5.946   3.009
  772SOL     OW 3214   5.744   4.440   0.647
  772SOL    HW1 3215   5.718   4.536   0.641
  772SOL    HW2 3216   5.689   4.395   0.717
  773SOL     OW 3217   0.392   3.812   3.515
  773SOL    HW1 3218   0.303   3.839   3.478
  773SOL    HW2 3219   0.379   3.768   3.604
  774SOL     OW 3220   2.276   0.481   2.911
  774SOL    HW1 3221   2.282   0.502   3.009
  774SOL    HW2 3222   2.190   0.516   2.874
  775SOL     OW 3223   1.930   4.537   3.427
  775SOL    HW1 3224   1.930   4.514   3.525
  775SOL    HW2 3225   2.015   4.586   3.405
  776SOL     OW 3226   2.421   5.320   6.859
  776SOL    HW1 3227   2.450   5.416   6.856
  776SOL    HW2 3228   2.381   5.295   6.771
  777SOL     OW 3229   2.095   3.775   0.232
  777SOL    HW1 3230   2.054   3.864   0.212
  777SOL    HW2 3231   2.025   3.704   0.226
  778SOL     OW 3232   2.962   0.087   1.217
  778SOL    HW1 3233   2.885   0.140   1.250
  778SOL    HW2 3234   2.997   0.029   1.291
  779SOL     OW 3235   0.250   2.216   3.667
  779SOL    HW1 3236   0.279   2.191   3.574
  779SOL    HW2 3237   0.166   2.269   3.663
  780SOL     OW 3238   1.020   1.548   4.351
  780SOL    HW1 3239   0.984   1.622   4.294
  780SOL    HW2 3240   1.041   1.584   4.442
  781SOL     OW 3241   0.981   4.417   0.579
  781SOL    HW1 3242   0.919   4.495   0.591
  781SOL    HW2 3243   0.934   4.346   0.526
  782SOL     OW 3244   2.027   3.851   5.331
  782SOL    HW1 3245   2.040   3.813   5.239
  782SOL    HW2 3246   1.944   3.813   5.371
  783SOL     OW 3247   6.149   5.030   6.587
  783SOL    HW1 3248   6.119   5.085   6.509
  783SOL    HW2 3249   6.113   4.937   6.578
  784SOL     OW 3250   3.177   6.314   0.307
  784SOL    HW1 3251   3.139   6.378   0.241
  784SOL    HW2 3252   3.220   6.365   0.382
  785SOL     OW 3253   1.394   6.538   4.766
  785SOL    HW1 3254   1.406   6.618   4.707
  785SOL    HW2 3255   1.307   6.493   4.743
  786SOL     OW 3256   6.805   1.336   3.506
  786SOL    HW1 3257   6.774   1.283   3.427
  786SOL    HW2 3258   6.899   1.312   3.529
  787SOL     OW 3259   2.948   0.620   0.714
  787SOL    HW1 3260   2.871   0.673   0.749
  787SOL    HW2 3261   2.997   0.673   0.645
  788SOL     OW 3262   3.294   2.693   0.976
  788SOL    HW1 3263   3.327   2.767   1.036
  788SOL    HW2 3264   3.309   2.605   1.022
  789SOL     OW 3265   4.102   5.095   1.451
  789SOL    HW1 3266   4.148   5.139   1.373
  789SOL    HW2 3267   4.170   5.063   1.516
  790SOL     OW 3268   1.016   2.510   2.838
  790SOL    HW1 3269   0.920   2.532   2.857
  790SOL    HW2 3270   1.035   2.525   2.741
  791SOL     OW 3271   3.221   5.233   5.126
  791SOL    HW1 3272   3.198   5.210   5.031
  791SOL    HW2 3273   3.138   5.228   5.182
  792SOL     OW 3274   1.304   0.720   1.005
  792SOL    HW1 3275   1.399   0.714   0.973
  792SOL    HW2 3276   1.242   0.694   0.931
  793SOL     OW 3277   3.254   5.867   4.359
  793SOL    HW1 3278   3.299   5.932   4.297
  793SOL    HW2 3279   3.296   5.777   4.348
  794SOL     OW 3280   3.517   3.472   3.311
  794SOL    HW1 3281   3.615   3.466   3.293
  794SOL    HW2 3282   3.500   3.459   3.409
  795SOL     OW 3283   3.713   7.000   6.404
  795SOL    HW1 3284   3.740   0.010   6.311
  795SOL    HW2 3285   3.630   6.944   6.399
  796SOL     OW 3286   0.732   3.191   6.762
  796SOL    HW1 3287   0.638   3.195   6.798
  796SOL    HW2 3288   0.781   3.116   6.806
  797SOL     OW 3289   5.269   6.694   0.953
  797SOL    HW1 3290   5.340   6.752   0.993
  797SOL    HW2 3291   5.295   6.598   0.964
  798SOL     OW 3292   3.939   6.415   1.041
  798SOL    HW1 3293   3.973   6.503   1.075
  798SOL    HW2 3294   3.874   6.432   0.966
  799SOL     OW 3295   1.293   2.511   5.652
  799SOL    HW1 3296   1.232   2.589   5.641
  799SOL    HW2 3297   1.347   2.523   5.735
  800SOL     OW 3298   5.957   2.604   1.914
  800SOL    HW1 3299   6.041   2.652   1.940
  800SOL    HW2 3300   5.881   2.637   1.970
  801SOL     OW 3301   2.205   5.246   5.607
  801SOL    HW1 3302   2.121   5.197   5.630
  801SOL    HW2 3303   2.242   5.291   5.689
  802SOL     OW 3304   5.770   2.910   6.661
  802SOL    HW1 3305   5.747   2.869   6.573
  802SOL    HW2 3306   5.752   2.845   6.735
  803SOL     OW 3307   2.750   1.496   5.137
  803SOL    HW1 3308   2.677   1.560   5.116
  803SOL    HW2 3309   2.838   1.544   5.139
  804SOL     OW 3310   6.041   1.074   2.378
  804SOL    HW1 3311   6.137   1.095   2.358
  804SOL    HW2 3312   6.034   1.036   2.470
  805SOL     OW 3313   3.660   0.295   3.642
  805SOL    HW1 3314   3.724   0.341   3.703
  805SOL    HW2 3315   3.570   0.291   3.685
  806SOL     OW 3316   2.167   6.030   5.819
  806SOL    HW1 3317   2.256   6.039   5.775
  806SOL    HW2 3318   2.100   6.086   5.770
  807SOL     OW 3319   0.483   5.991   6.083
  807SOL    HW1 3320   0.449   6.009   6.175
  807SOL    HW2 3321   0.417   6.025   6.015
  808SOL     OW 3322   5.379   2.725   6.892
  808SOL    HW1 3323   5.281   2.742   6.881
  808SOL    HW2 3324   5.425   2.737   6.804
  809SOL     OW 3325   2.096   4.353   0.407
  809SOL    HW1 3326   2.092   4.257   0.436
  809SOL    HW2 3327   2.128   4.358   0.312
  810SOL     OW 3328   3.808   3.218   0.070
  810SOL    HW1 3329   3.814   3.186   0.165
  810SOL    HW2 3330   3.900   3.230   0.033
  811SOL     OW 3331   5.228   5.090   4.418
  811SOL    HW1 3332   5.317   5.047   4.428
  811SOL    HW2 3333   5.237   5.189   4.433
  812SOL     OW 3334   0.291   2.991   1.834
  812SOL    HW1 3335   0.349   3.072   1.844
  812SOL    HW2 3336   0.198   3.012   1.864
  813SOL     OW 3337   0.848   1.969   4.376
  813SOL    HW1 3338   0.874   1.935   4.285
  813SOL    HW2 3339   0.748   1.969   4.384
  814SOL     OW 3340   0.922   5.194   3.227
  814SOL    HW1 3341   0.999   5.258   3.232
  814SOL    HW2 3342   0.895   5.166   3.320
  815SOL     OW 3343   4.627   1.610   4.045
  815SOL    HW1 3344   4.693   1.605   4.120
  815SOL    HW2 3345   4.551   1.669   4.072
  816SOL     OW 3346   5.666   4.856   6.610
  816SOL    HW1 3347   5.681   4.874   6.513
  816SOL    HW2 3348   5.611   4.772   6.619
  817SOL     OW 3349   0.944   4.426   6.754
  817SOL    HW1 3350   1.024   4.366   6.745
  817SOL    HW2 3351   0.955   4.506   6.695
  818SOL     OW 3352   6.156   2.822   4.520
  818SOL    HW1 3353   6.120   2.738   4.478
  818SOL    HW2 3354   6.252   2.832   4.496
  819SOL     OW 3355   5.378   2.797   2.264
  819SOL    HW1 3356   5.383   2.837   2.173
  819SOL    HW2 3357   5.371   2.698   2.257
  820SOL     OW 3358   2.115   2.135   4.897
  820SOL    HW1 3359   2.150   2.050   4.936
  820SOL    HW2 3360   2.180   2.209   4.913
  821SOL     OW 3361   6.046   3.574   5.647
  821SOL    HW1 3362   6.037   3.673   5.634
  821SOL    HW2 3363   6.041   3.553   5.744
  822SOL     OW 3364   0.833   4.042   3.334
  822SOL    HW1 3365   0.827   3.979   3.256
  822SOL    HW2 3366   0.759   4.021   3.398
  823SOL     OW 3367   0.726   4.217   5.318
  823SOL    HW1 3368   0.694   4.181   5.230
  823SOL    HW2 3369   0.780   4.147   5.364
  824SOL     OW 3370   5.858   1.770   5.658
  824SOL    HW1 3371   5.824   1.864   5.655
  824SOL    HW2 3372   5.955   1.768   5.635
  825SOL     OW 3373   6.648   5.541   0.928
  825SOL    HW1 3374   6.733   5.575   0.890
  825SOL    HW2 3375   6.572   5.598   0.898
  826SOL     OW 3376   3.453   1.126   5.887
  826SOL    HW1 3377   3.396   1.195   5.844
  826SOL    HW2 3378   3.500   1.166   5.966
  827SOL     OW 3379   3.735   4.174   4.682
  827SOL    HW1 3380   3.790   4.128   4.612
  827SOL    HW2 3381   3.643   4.192   4.646
  828SOL     OW 3382   6.571   5.880   5.326
  828SOL    HW1 3383   6.632   5.823   5.382
  828SOL    HW2 3384   6.481   5.836   5.321
  829SOL     OW 3385   3.245   2.914   2.655
  829SOL    HW1 3386   3.155   2.878   2.629
  829SOL    HW2 3387   3.309   2.902   2.579
  830SOL     OW 3388   6.566   4.296   0.231
  830SOL    HW1 3389   6.604   4.204   0.239
  830SOL    HW2 3390   6.599   4.352   0.307
  831SOL     OW 3391   4.840   6.385   1.431
  831SOL    HW1 3392   4.867   6.298   1.389
  831SOL    HW2 3393   4.896   6.401   1.513
  832SOL     OW 3394   3.161   1.995   4.441
  832SOL    HW1 3395   3.219   2.026   4.517
  832SOL    HW2 3396   3.109   1.914   4.470
  833SOL     OW 3397   2.361   2.666   6.622
  833SOL    HW1 3398   2.405   2.673   6.711
  833SOL    HW2 3399   2.262   2.656   6.635
  834SOL     OW 3400   5.342   3.361   0.106
  834SOL    HW1 3401   5.441   3.361   0.116
  834SOL    HW2 3402   5.300   3.391   0.192
  835SOL     OW 3403   0.554   6.736   4.283
  835SOL    HW1 3404   0.614   6.815   4.271
  835SOL    HW2 3405   0.474   6.762   4.337
  836SOL     OW 3406   3.703   1.431   4.369
  836SOL    HW1 3407   3.786   1.391   4.330
  836SOL    HW2 3408   3.683   1.518   4.325
  837SOL     OW 3409   1.667   0.696   0.711
  837SOL    HW1 3410   1.698   0.774   0.656
  837SOL    HW2 3411   1.632   0.729   0.799
  838SOL     OW 3412   2.050   5.716   3.093
  838SOL    HW1 3413   1.991   5.708   3.013
  838SOL    HW2 3414   2.053   5.629   3.142
  839SOL     OW 3415   1.309   2.104   0.274
  839SOL    HW1 3416   1.351   2.016   0.250
  839SOL    HW2 3417   1.228   2.119   0.218
  840SOL     OW 3418   5.248   5.345   6.815
  840SOL    HW1 3419   5.229   5.411   6.743
  840SOL    HW2 3420   5.331   5.295   6.793
  841SOL     OW 3421   3.833   4.512   6.422
  841SOL    HW1 3422   3.907   4.445   6.415
  841SOL    HW2 3423   3.778   4.493   6.503
  842SOL     OW 3424   3.293   6.608   6.766
  842SOL    HW1 3425   3.324   6.593   6.860
  842SOL    HW2 3426   3.300   6.705   6.744
  843SOL     OW 3427   1.322   1.046   2.506
  843SOL    HW1 3428   1.355   1.137   2.530
  843SOL    HW2 3429   1.245   1.022   2.565
  844SOL     OW 3430   5.782   0.418   1.158
  844SOL    HW1 3431   5.799   0.378   1.248
  844SOL    HW2 3432   5.753   0.347   1.095
  845SOL     OW 3433   3.837   1.390   2.504
  845SOL    HW1 3434   3.829   1.303   2.552
  845SOL    HW2 3435   3.896   1.379   2.424
  846SOL     OW 3436   2.697   2.310   0.220
  846SOL    HW1 3437   2.746   2.248   0.159
  846SOL    HW2 3438   2.759   2.343   0.291
  847SOL     OW 3439   2.414   4.698   1.676
  847SOL    HW1 3440   2.458   4.644   1.748
  847SOL    HW2 3441   2.335   4.648   1.641
  848SOL     OW 3442   6.880   5.478   6.733
  848SOL    HW1 3443   6.925   5.543   6.795
  848SOL    HW2 3444   6.892   5.385   6.768
  849SOL     OW 3445   6.205   3.459   6.951
  849SOL    HW1 3446   6.185   3.510   0.019
  849SOL    HW2 3447   6.304   3.450   6.941
  850SOL     OW 3448   0.716   0.653   5.300
  850SOL    HW1 3449   0.640   0.705   5.262
  850SOL    HW2 3450   0.681   0.587   5.367
  851SOL     OW 3451   6.578   3.471   5.864
  851SOL    HW1 3452   6.577   3.515   5.953
  851SOL    HW2 3453   6.562   3.373   5.875
  852SOL     OW 3454   0.888   4.106   2.238
  852SOL    HW1 3455   0.885   4.155   2.151
  852SOL    HW2 3456   0.873   4.009   2.222
  853SOL     OW 3457   2.648   3.667   6.990
  853SOL    HW1 3458   2.559   3.713   6.985
  853SOL    HW2 3459   2.664   3.636   0.068
  854SOL     OW 3460   5.411   6.519   6.414
  854SOL    HW1 3461   5.483   6.537   6.347
  854SOL    HW2 3462   5.330   6.575   6.392
  855SOL     OW 3463   6.246   0.857   0.324
  855SOL    HW1 3464   6.307   0.875   0.401
  855SOL    HW2 3465   6.295   0.877   0.239
  856SOL     OW 3466   2.194   6.079   0.668
  856SOL    HW1 3467   2.167   6.090   0.764
  856SOL    HW2 3468   2.126   6.023   0.621
  857SOL     OW 3469   6.021   5.065   5.366
  857SOL    HW1 3470   6.006   5.164   5.366
  857SOL    HW2 3471   6.000   5.028   5.457
  858SOL     OW 3472   4.025   3.473   0.134
  858SOL    HW1 3473   4.071   3.399   0.182
  858SOL    HW2 3474   4.070   3.560   0.156
  859SOL     OW 3475   4.290   6.272   5.801
  859SOL    HW1 3476   4.304   6.287   5.703
  859SOL    HW2 3477   4.193   6.256   5.819
  860SOL     OW 3478   5.321   3.628   5.693
  860SOL    HW1 3479   5.225   3.600   5.703
  860SOL    HW2 3480   5.357   3.653   5.783
  861SOL     OW 3481   2.639   6.335   2.413
  861SOL    HW1 3482   2.627   6.409   2.347
  861SOL    HW2 3483   2.704   6.363   2.483
  862SOL     OW 3484   1.187   4.598   3.664
  862SOL    HW1 3485   1.125   4.519   3.666
  862SOL    HW2 3486   1.201   4.626   3.569
  863SOL     OW 3487   0.173   0.609   0.102
  863SOL    HW1 3488   0.112   0.601   0.181
  863SOL    HW2 3489   0.175   0.705   0.072
  864SOL     OW 3490   5.930   0.279   4.894
  864SOL    HW1 3491   5.973   0.192   4.868
  864SOL    HW2 3492   5.998   0.353   4.889
  865SOL     OW 3493   1.946   6.278   4.254
  865SOL    HW1 3494   2.029   6.227   4.276
  865SOL    HW2 3495   1.886   6.280   4.333
  866SOL     OW 3496   3.416   6.340   2.147
  866SOL    HW1 3497   3.495   6.328   2.086
  866SOL    HW2 3498   3.449   6.349   2.241
  867SOL     OW 3499   6.180   2.070   0.204
  867SOL    HW1 3500   6.125   2.006   0.151
  867SOL    HW2 3501   6.120   2.132   0.255
  868SOL     OW 3502   0.266   1.921   2.388
  868SOL    HW1 3503   0.201   1.949   2.458
  868SOL    HW2 3504   0.314   2.001   2.352
  869SOL     OW 3505   6.656   4.125   3.119
  869SOL    HW1 3506   6.567   4.148   3.159
  869SOL    HW2 3507   6.682   4.195   3.053
  870SOL     OW 3508   3.406   5.378   1.698
  870SOL    HW1 3509   3.482   5.364   1.762
  870SOL    HW2 3510   3.340   5.303   1.707
  871SOL     OW 3511   4.467   1.790   3.637
  871SOL    HW1 3512   4.538   1.804   3.706
  871SOL    HW2 3513   4.395   1.731   3.675
  872SOL     OW 3514   6.709   3.413   4.782
  872SOL    HW1 3515   6.725   3.406   4.683
  872SOL    HW2 3516   6.782   3.467   4.823
  873SOL     OW 3517   4.927   6.615   6.226
  873SOL    HW1 3518   4.893   6.708   6.240
  873SOL    HW2 3519   4.941   6.600   6.128
  874SOL     OW 3520   4.990   4.587   0.423
  874SOL    HW1 3521   5.015   4.507   0.477
  874SOL    HW2 3522   4.893   4.608   0.438
  875SOL     OW 3523   4.933   5.316   0.762
  875SOL    HW1 3524   4.984   5.263   0.694
  875SOL    HW2 3525   4.855   5.263   0.794
  876SOL     OW 3526   6.992   6.253   1.314
  876SOL    HW1 3527   0.028   6.175   1.282
  876SOL    HW2 3528   7.007   6.331   1.253
  877SOL     OW 3529   2.872   3.723   6.868
  877SOL    HW1 3530   2.859   3.757   6.775
  877SOL    HW2 3531   2.782   3.711   6.911
  878SOL     OW 3532   3.928   6.703   4.334
  878SOL    HW1 3533   3.987   6.643   4.389
  878SOL    HW2 3534   3.856   6.741   4.393
  879SOL     OW 3535   5.853   0.824   0.813
  879SOL    HW1 3536   5.782   0.887   0.844
  879SOL    HW2 3537   5.868   0.754   0.883
  880SOL     OW 3538   3.059   3.865   2.570
  880SOL    HW1 3539   3.000   3.802   2.521
  880SOL    HW2 3540   3.016   3.892   2.656
  881SOL     OW 3541   4.360   1.980   6.459
  881SOL    HW1 3542   4.387   1.988   6.363
  881SOL    HW2 3543   4.396   2.058   6.510
  882SOL     OW 3544   0.967   3.316   4.218
  882SOL    HW1 3545   1.058   3.276   4.207
  882SOL    HW2 3546   0.976   3.414   4.236
  883SOL     OW 3547   2.728   0.146   2.590
  883SOL    HW1 3548   2.804   0.081   2.593
  883SOL    HW2 3549   2.641   0.096   2.592
  884SOL     OW 3550   4.650   2.898   5.079
  884SOL    HW1 3551   4.610   2.828   5.137
  884SOL    HW2 3552   4.750   2.895   5.087
  885SOL     OW 3553   3.676   1.682   6.256
  885SOL    HW1 3554   3.760   1.663   6.306
  885SOL    HW2 3555   3.698   1.706   6.161
  886SOL     OW 3556   3.439   0.368   0.047
  886SOL    HW1 3557   3.472   0.326   6.979
  886SOL    HW2 3558   3.461   0.466   0.046
  887SOL     OW 3559   4.291   0.782   4.116
  887SOL    HW1 3560   4.309   0.808   4.211
  887SOL    HW2 3561   4.214   0.719   4.113
  888SOL     OW 3562   0.333   0.401   3.274
  888SOL    HW1 3563   0.271   0.405   3.196
  888SOL    HW2 3564   0.406   0.335   3.257
  889SOL     OW 3565   0.873   3.792   6.992
  889SOL    HW1 3566   0.865   3.797   0.075
  889SOL    HW2 3567   0.828   3.709   6.960
  890SOL     OW 3568   2.322   5.894   4.005
  890SOL    HW1 3569   2.395   5.953   3.972
  890SOL    HW2 3570   2.276   5.851   3.928
  891SOL     OW 3571   5.693   5.869   0.886
  891SOL    HW1 3572   5.671   5.901   0.793
  891SOL    HW2 3573   5.762   5.929   0.926
  892SOL     OW 3574   2.732   3.767   5.918
  892SOL    HW1 3575   2.831   3.758   5.913
  892SOL    HW2 3576   2.705   3.860   5.894
  893SOL     OW 3577   2.783   6.639   2.660
  893SOL    HW1 3578   2.814   6.553   2.618
  893SOL    HW2 3579   2.793   6.714   2.595
  894SOL     OW 3580   1.617   4.160   1.554
  894SOL    HW1 3581   1.547   4.153   1.624
  894SOL    HW2 3582   1.690   4.094   1.573
  895SOL     OW 3583   0.301   6.202   3.609
  895SOL    HW1 3584   0.316   6.228   3.514
  895SOL    HW2 3585   0.382   6.225   3.663
  896SOL     OW 3586   6.383   6.322   5.985
  896SOL    HW1 3587   6.329   6.341   5.903
  896SOL    HW2 3588   6.438   6.239   5.971
  897SOL     OW 3589   5.523   0.741   6.509
  897SOL    HW1 3590   5.490   0.647   6.508
  897SOL    HW2 3591   5.528   0.775   6.415
  898SOL     OW 3592   3.409   5.944   2.877
  898SOL    HW1 3593   3.450   5.953   2.968
  898SOL    HW2 3594   3.434   5.855   2.838
  899SOL     OW 3595   0.251   4.987   6.295
  899SOL    HW1 3596   0.175   5.028   6.246
  899SOL    HW2 3597   0.326   5.053   6.301
  900SOL     OW 3598   5.912   0.011   0.593
  900SOL    HW1 3599   5.948   0.043   0.505
  900SOL    HW2 3600   5.815   7.004   0.582
  901SOL     OW 3601   1.594   1.209   2.319
  901SOL    HW1 3602   1.556   1.255   2.399
  901SOL    HW2 3603   1.547   1.122   2.304
  902SOL     OW 3604   6.348   4.154   1.260
  902SOL    HW1 3605   6.337   4.073   1.317
  902SOL    HW2 3606   6.290   4.228   1.294
  903SOL     OW 3607   6.976   1.805   0.241
  903SOL    HW1 3608   6.898   1.854   0.280
  903SOL    HW2 3609   0.027   1.787   0.313
  904SOL     OW 3610   3.305   2.111   3.473
  904SOL    HW1 3611   3.247   2.145   3.398
  904SOL    HW2 3612   3.317   2.183   3.541
  905SOL     OW 3613   6.154   2.755   0.296
  905SOL    HW1 3614   6.222   2.752   0.223
  905SOL    HW2 3615   6.126   2.662   0.320
  906SOL     OW 3616   0.121   2.885   5.534
  906SOL    HW1 3617   0.179   2.960   5.502
  906SOL    HW2 3618   0.064   2.918   5.609
  907SOL     OW 3619   4.561   3.472   6.797
  907SOL    HW1 3620   4.623   3.444   6.871
  907SOL    HW2 3621   4.474   3.502   6.836
  908SOL     OW 3622   2.685   4.678   2.187
  908SOL    HW1 3623   2.735   4.638   2.264
  908SOL    HW2 3624   2.728   4.650   2.102
  909SOL     OW 3625   4.948   5.156   6.516
  909SOL    HW1 3626   4.967   5.088   6.586
  909SOL    HW2 3627   4.864   5.131   6.467
  910SOL     OW 3628   2.850   2.988   1.738
  910SOL    HW1 3629   2.760   3.029   1.719
  910SOL    HW2 3630   2.845   2.889   1.725
  911SOL     OW 3631   1.625   5.621   6.118
  911SOL    HW1 3632   1.583   5.531   6.117
  911SOL    HW2 3633   1.637   5.653   6.024
  912SOL     OW 3634   4.679   2.288   3.625
  912SOL    HW1 3635   4.629   2.373   3.610
  912SOL    HW2 3636   4.614   2.214   3.641
  913SOL     OW 3637   5.284   0.116   3.286
  913SOL    HW1 3638   5.364   0.080   3.238
  913SOL    HW2 3639   5.304   0.120   3.384
  914SOL     OW 3640   2.867   0.148   6.722
  914SOL    HW1 3641   2.825   0.228   6.679
  914SOL    HW2 3642   2.795   0.086   6.753
  915SOL     OW 3643   6.032   6.166   0.767
  915SOL    HW1 3644   6.007   6.179   0.671
  915SOL    HW2 3645   6.132   6.168   0.776
  916SOL     OW 3646   0.941   2.384   2.377
  916SOL    HW1 3647   0.906   2.352   2.465
  916SOL    HW2 3648   1.041   2.385   2.379
  917SOL     OW 3649   0.240   0.066   0.761
  917SOL    HW1 3650   0.204   0.111   0.842
  917SOL    HW2 3651   0.221   0.121   0.680
  918SOL     OW 3652   1.586   5.982   0.979
  918SOL    HW1 3653   1.669   6.020   0.938
  918SOL    HW2 3654   1.566   6.029   1.065
  919SOL     OW 3655   5.996   1.564   3.714
  919SOL    HW1 3656   5.899   1.541   3.706
  919SOL    HW2 3657   6.045   1.536   3.632
  920SOL     OW 3658   2.710   4.962   2.190
  920SOL    HW1 3659   2.625   5.001   2.154
  920SOL    HW2 3660   2.713   4.864   2.171
  921SOL     OW 3661   4.928   5.872   4.543
  921SOL    HW1 3662   4.911   5.800   4.610
  921SOL    HW2 3663   4.983   5.835   4.468
  922SOL     OW 3664   4.023   3.445   3.836
  922SOL    HW1 3665   3.958   3.370   3.820
  922SOL    HW2 3666   3.972   3.528   3.859
  923SOL     OW 3667   2.250   3.125   5.587
  923SOL    HW1 3668   2.330   3.157   5.537
  923SOL    HW2 3669   2.197   3.203   5.621
  924SOL     OW 3670   7.010   3.652   2.385
  924SOL    HW1 3671   6.949   3.718   2.427
  924SOL    HW2 3672   0.069   3.631   2.449
  925SOL     OW 3673   6.036   1.746   0.445
  925SOL    HW1 3674   6.037   1.831   0.499
  925SOL    HW2 3675   5.953   1.742   0.391
  926SOL     OW 3676   0.745   1.188   1.988
  926SOL    HW1 3677   0.703   1.106   2.029
  926SOL    HW2 3678   0.758   1.172   1.890
  927SOL     OW 3679   5.479   4.042   3.629
  927SOL    HW1 3680   5.526   4.097   3.699
  927SOL    HW2 3681   5.459   4.099   3.550
  928SOL     OW 3682   3.029   5.954   6.899
  928SOL    HW1 3683   2.996   5.886   6.965
  928SOL    HW2 3684   3.028   5.914   6.807
  929SOL     OW 3685   6.684   1.338   5.395
  929SOL    HW1 3686   6.631   1.422   5.402
  929SOL    HW2 3687   6.625   1.264   5.362
  930SOL     OW 3688   5.383   5.050   6.478
  930SOL    HW1 3689   5.314   5.103   6.429
  930SOL    HW2 3690   5.397   4.962   6.434
  931SOL     OW 3691   6.575   2.661   3.406
  931SOL    HW1 3692   6.665   2.627   3.435
  931SOL    HW2 3693   6.552   2.621   3.317
  932SOL     OW 3694   3.533   0.619   4.016
  932SOL    HW1 3695   3.604   0.688   4.031
  932SOL    HW2 3696   3.520   0.566   4.100
  933SOL     OW 3697   1.221   4.951   2.694
  933SOL    HW1 3698   1.209   4.981   2.599
  933SOL    HW2 3699   1.133   4.953   2.740
  934SOL     OW 3700   1.683   4.641   6.482
  934SOL    HW1 3701   1.763   4.657   6.539
  934SOL    HW2 3702   1.707   4.655   6.386
  935SOL     OW 3703   5.237   3.346   3.422
  935SOL    HW1 3704   5.154   3.316   3.468
  935SOL    HW2 3705   5.228   3.443   3.398
  936SOL     OW 3706   1.526   0.291   6.562
  936SOL    HW1 3707   1.502   0.325   6.653
  936SOL    HW2 3708   1.465   0.215   6.538
  937SOL     OW 3709   5.264   1.310   5.304
  937SOL    HW1 3710   5.348   1.346   5.345
  937SOL    HW2 3711   5.283   1.221   5.262
  938SOL     OW 3712   5.721   5.588   4.111
  938SOL    HW1 3713   5.696   5.550   4.022
  938SOL    HW2 3714   5.680   5.533   4.184
  939SOL     OW 3715   0.332   0.139   5.099
  939SOL    HW1 3716   0.257   0.204   5.111
  939SOL    HW2 3717   0.304   0.050   5.134
  940SOL     OW 3718   2.007   4.967   0.514
  940SOL    HW1 3719   2.072   4.992   0.585
  940SOL    HW2 3720   1.924   4.928   0.556
  941SOL     OW 3721   3.723   0.386   6.329
  941SOL    HW1 3722   3.662   0.330   6.273
  941SOL    HW2 3723   3.818   0.356   6.315
  942SOL     OW 3724   0.438   5.470   0.779
  942SOL    HW1 3725   0.375   5.460   0.702
  942SOL    HW2 3726   0.387   5.500   0.860
  943SOL     OW 3727   2.857   5.091   2.970
  943SOL    HW1 3728   2.818   5.019   2.913
  943SOL    HW2 3729   2.859   5.177   2.919
  944SOL     OW 3730   0.850   6.634   4.528
  944SOL    HW1 3731   0.785   6.610   4.455
  944SOL    HW2 3732   0.913   6.704   4.494
  945SOL     OW 3733   0.777   5.625   6.386
  945SOL    HW1 3734   0.870   5.647   6.354
  945SOL    HW2 3735   0.741   5.549   6.333
  946SOL     OW 3736   5.029   3.199   3.903
  946SOL    HW1 3737   4.972   3.275   3.935
  946SOL    HW2 3738   4.977   3.114   3.908
  947SOL     OW 3739   3.877   4.018   4.499
  947SOL    HW1 3740   3.861   3.987   4.406
  947SOL    HW2 3741   3.952   4.084   4.501
  948SOL     OW 3742   4.410   0.911   2.566
  948SOL    HW1 3743   4.387   0.989   2.624
  948SOL    HW2 3744   4.326   0.874   2.525
  949SOL     OW 3745   2.896   6.559   6.755
  949SOL    HW1 3746   2.838   6.518   6.825
  949SOL    HW2 3747   2.953   6.488   6.713
  950SOL     OW 3748   0.201   6.367   2.009
  950SOL    HW1 3749   0.224   6.379   2.106
  950SOL    HW2 3750   0.270   6.411   1.952
  951SOL     OW 3751   2.040   6.530   2.922
  951SOL    HW1 3752   2.010   6.613   2.875
  951SOL    HW2 3753   1.988   6.452   2.886
  952SOL     OW 3754   3.608   1.593   1.926
  952SOL    HW1 3755   3.551   1.582   1.844
  952SOL    HW2 3756   3.633   1.689   1.937
  953SOL     OW 3757   6.086   4.625   5.330
  953SOL    HW1 3758   6.028   4.657   5.256
  953SOL    HW2 3759   6.062   4.530   5.353
  954SOL     OW 3760   4.798   5.793   2.379
  954SOL    HW1 3761   4.699   5.803   2.391
  954SOL    HW2 3762   4.836   5.876   2.339
  955SOL     OW 3763   1.557   4.036   0.368
  955SOL    HW1 3764   1.543   4.135   0.366
  955SOL    HW2 3765   1.476   3.991   0.402
  956SOL     OW 3766   6.031   0.762   1.679
  956SOL    HW1 3767   5.936   0.761   1.649
  956SOL    HW2 3768   6.042   0.698   1.755
  957SOL     OW 3769   6.154   2.448   3.707
  957SOL    HW1 3770   6.147   2.508   3.786
  957SOL    HW2 3771   6.097   2.368   3.720
  958SOL     OW 3772   5.150   0.166   1.901
  958SOL    HW1 3773   5.093   0.239   1.938
  958SOL    HW2 3774   5.205   0.201   1.825
  959SOL     OW 3775   3.916   6.389   4.112
  959SOL    HW1 3776   3.879   6.386   4.205
  959SOL    HW2 3777   3.854   6.341   4.050
  960SOL     OW 3778   0.888   0.567   6.960
  960SOL    HW1 3779   0.846   0.500   6.898
  960SOL    HW2 3780   0.830   0.578   0.024
  961SOL     OW 3781   3.638   0.037   2.844
  961SOL    HW1 3782   3.695   0.010   2.766
  961SOL    HW2 3783   3.595   0.125   2.825
  962SOL     OW 3784   6.672   0.142   4.759
  962SOL    HW1 3785   6.756   0.185   4.792
  962SOL    HW2 3786   6.630   0.199   4.689
  963SOL     OW 3787   5.151   3.041   0.871
  963SOL    HW1 3788   5.129   2.980   0.794
  963SOL    HW2 3789   5.191   2.989   0.945
  964SOL     OW 3790   4.594   4.411   5.343
  964SOL    HW1 3791   4.620   4.318   5.366
  964SOL    HW2 3792   4.608   4.427   5.245
  965SOL     OW 3793   5.960   2.554   3.867
  965SOL    HW1 3794   5.881   2.582   3.922
  965SOL    HW2 3795   5.956   2.599   3.778
  966SOL     OW 3796   5.209   1.745   4.542
  966SOL    HW1 3797   5.250   1.655   4.552
  966SOL    HW2 3798   5.278   1.816   4.555
  967SOL     OW 3799   5.404   4.054   6.091
  967SOL    HW1 3800   5.475   4.086   6.029
  967SOL    HW2 3801   5.432   3.968   6.133
  968SOL     OW 3802   3.735   0.574   1.949
  968SOL    HW1 3803   3.828   0.540   1.960
  968SOL    HW2 3804   3.728   0.668   1.982
  969SOL     OW 3805   3.465   4.034   5.886
  969SOL    HW1 3806   3.443   4.116   5.939
  969SOL    HW2 3807   3.381   3.988   5.858
  970SOL     OW 3808   5.774   0.418   5.980
  970SOL    HW1 3809   5.804   0.511   5.961
  970SOL    HW2 3810   5.714   0.418   6.061
  971SOL     OW 3811   5.332   4.251   2.878
  971SOL    HW1 3812   5.281   4.250   2.792
  971SOL    HW2 3813   5.365   4.159   2.897
  972SOL     OW 3814   0.368   2.654   1.003
  972SOL    HW1 3815   0.372   2.751   0.979
  972SOL    HW2 3816   0.461   2.616   1.003
  973SOL     OW 3817   6.981   3.565   6.069
  973SOL    HW1 3818   0.050   3.516   6.052
  973SOL    HW2 3819   6.976   3.645   6.008
  974SOL     OW 3820   0.109   5.671   3.955
  974SOL    HW1 3821   0.072   5.668   3.862
  974SOL    HW2 3822   0.205   5.645   3.954
  975SOL     OW 3823   2.700   6.719   2.161
  975SOL    HW1 3824   2.627   6.660   2.194
  975SOL    HW2 3825   2.662   6.801   2.120
  976SOL     OW 3826   6.724   3.637   2.612
  976SOL    HW1 3827   6.729   3.680   2.522
  976SOL    HW2 3828   6.674   3.550   2.604
  977SOL     OW 3829   0.272   0.878   2.627
  977SOL    HW1 3830   0.338   0.842   2.692
  977SOL    HW2 3831   0.249   0.973   2.651
  978SOL     OW 3832   5.491   3.023   2.120
  978SOL    HW1 3833   5.455   3.107   2.161
  978SOL    HW2 3834   5.588   3.035   2.098
  979SOL     OW 3835   0.126   4.007   0.105
  979SOL    HW1 3836   0.045   4.015   0.046
  979SOL    HW2 3837   0.096   3.990   0.199
  980SOL     OW 3838   3.515   1.592   4.753
  980SOL    HW1 3839   3.438   1.656   4.760
  980SOL    HW2 3840   3.507   1.539   4.669
  981SOL     OW 3841   6.486   6.428   5.512
  981SOL    HW1 3842   6.553   6.355   5.526
  981SOL    HW2 3843   6.445   6.419   5.421
  982SOL     OW 3844   6.860   1.145   5.199
  982SOL    HW1 3845   6.791   1.215   5.215
  982SOL    HW2 3846   6.827   1.081   5.130
  983SOL     OW 3847   0.042   4.196   4.290
  983SOL    HW1 3848   6.972   4.245   4.299
  983SOL    HW2 3849   0.055   4.134   4.368
  984SOL     OW 3850   1.469   2.249   3.148
  984SOL    HW1 3851   1.456   2.301   3.064
  984SOL    HW2 3852   1.386   2.196   3.167
  985SOL     OW 3853   6.802   4.115   4.576
  985SOL    HW1 3854   6.835   4.210   4.573
  985SOL    HW2 3855   6.723   4.109   4.636
  986SOL     OW 3856   5.319   5.048   1.297
  986SOL    HW1 3857   5.324   5.147   1.307
  986SOL    HW2 3858   5.345   5.004   1.383
  987SOL     OW 3859   5.424   5.261   3.934
  987SOL    HW1 3860   5.414   5.276   3.836
  987SOL    HW2 3861   5.350   5.201   3.967
  988SOL     OW 3862   3.063   4.472   1.261
  988SOL    HW1 3863   3.127   4.405   1.297
  988SOL    HW2 3864   2.976   4.466   1.310
  989SOL     OW 3865   0.542   1.526   1.157
  989SOL    HW1 3866   0.567   1.505   1.063
  989SOL    HW2 3867   0.455   1.482   1.179
  990SOL     OW 3868   4.034   0.092   3.418
  990SOL    HW1 3869   4.007   0.011   3.367
  990SOL    HW2 3870   4.078   0.157   3.357
  991SOL     OW 3871   6.939   4.341   3.902
  991SOL    HW1 3872   6.992   4.258   3.882
  991SOL    HW2 3873   7.001   4.414   3.929
  992SOL     OW 3874   0.573   2.707   1.383
  992SOL    HW1 3875   0.496   2.727   1.444
  992SOL    HW2 3876   0.659   2.722   1.432
  993SOL     OW 3877   1.523   5.168   0.637
  993SOL    HW1 3878   1.498   5.257   0.601
  993SOL    HW2 3879   1.526   5.101   0.562
  994SOL     OW 3880   3.067   6.468   0.120
  994SOL    HW1 3881   3.123   6.466   0.037
  994SOL    HW2 3882   3.076   6.557   0.164
  995SOL     OW 3883   5.655   3.056   6.143
  995SOL    HW1 3884   5.733   2.995   6.127
  995SOL    HW2 3885   5.684   3.151   6.130
  996SOL     OW 3886   3.788   5.999   5.939
  996SOL    HW1 3887   3.840   5.948   5.870
  996SOL    HW2 3888   3.778   6.094   5.909
  997SOL     OW 3889   1.569   5.545   4.035
  997SOL    HW1 3890   1.666   5.554   4.010
  997SOL    HW2 3891   1.539   5.452   4.015
  998SOL     OW 3892   6.638   0.225   6.705
  998SOL    HW1 3893   6.694   0.253   6.784
  998SOL    HW2 3894   6.563   0.167   6.736
  999SOL     OW 3895   4.959   3.958   1.764
  999SOL    HW1 3896   4.897   3.881   1.778
  999SOL    HW2 3897   4.913   4.043   1.791
 1000SOL     OW 3898   4.455   1.683   1.490
 1000SOL    HW1 3899   4.463   1.583   1.493
 1000SOL    HW2 3900   4.426   1.711   1.399
 1001SOL     OW 3901   2.952   6.296   2.054
 1001SOL    HW1 3902   3.028   6.290   1.989
 1001SOL    HW2 3903   2.980   6.259   2.142
 1002SOL     OW 3904   5.508   2.366   1.553
 1002SOL    HW1 3905   5.538   2.410   1.468
 1002SOL    HW2 3906   5.544   2.417   1.631
 1003SOL     OW 3907   0.658   0.015   2.840
 1003SOL    HW1 3908   0.754   7.004   2.850
 1003SOL    HW2 3909   0.617   6.983   2.763
 1004SOL     OW 3910   5.186   1.210   3.632
 1004SOL    HW1 3911   5.154   1.129   3.680
 1004SOL    HW2 3912   5.269   1.244   3.675
 1005SOL     OW 3913   1.413   4.440   3.791
 1005SOL    HW1 3914   1.379   4.428   3.884
 1005SOL    HW2 3915   1.353   4.503   3.741
 1006SOL     OW 3916   2.847   3.225   1.393
 1006SOL    HW1 3917   2.850   3.325   1.387
 1006SOL    HW2 3918   2.913   3.185   1.330
 1007SOL     OW 3919   5.127   1.275   6.413
 1007SOL    HW1 3920   5.112   1.221   6.330
 1007SOL    HW2 3921   5.061   1.247   6.483
 1008SOL     OW 3922   0.061   4.895   4.716
 1008SOL    HW1 3923   6.994   4.901   4.661
 1008SOL    HW2 3924   0.090   4.986   4.743
 1009SOL     OW 3925   6.401   5.135   6.705
 1009SOL    HW1 3926   6.353   5.071   6.645
 1009SOL    HW2 3927   6.381   5.229   6.676
 1010SOL     OW 3928   2.627   3.051   1.422
 1010SOL    HW1 3929   2.583   3.061   1.512
 1010SOL    HW2 3930   2.703   3.116   1.415
 1011SOL     OW 3931   0.044   4.858   2.654
 1011SOL    HW1 3932   7.004   4.826   2.730
 1011SOL    HW2 3933   0.052   4.786   2.586
 1012SOL     OW 3934   4.915   0.210   2.467
 1012SOL    HW1 3935   4.931   0.296   2.516
 1012SOL    HW2 3936   4.888   0.139   2.531
 1013SOL     OW 3937   6.727   0.504   6.385
 1013SOL    HW1 3938   6.691   0.412   6.373
 1013SOL    HW2 3939   6.732   0.526   6.483
 1014SOL     OW 3940   1.310   5.094   4.448
 1014SOL    HW1 3941   1.376   5.133   4.512
 1014SOL    HW2 3942   1.237   5.049   4.500
 1015SOL     OW 3943   3.463   6.167   6.738
 1015SOL    HW1 3944   3.504   6.200   6.823
 1015SOL    HW2 3945   3.376   6.213   6.722
 1016SOL     OW 3946   6.153   4.220   1.523
 1016SOL    HW1 3947   6.112   4.305   1.556
 1016SOL    HW2 3948   6.082   4.164   1.480
 1017SOL     OW 3949   2.101   1.694   2.478
 1017SOL    HW1 3950   2.170   1.757   2.442
 1017SOL    HW2 3951   2.132   1.600   2.465
 1018SOL     OW 3952   0.317   5.174   3.304
 1018SOL    HW1 3953   0.312   5.093   3.246
 1018SOL    HW2 3954   0.381   5.157   3.380
 1019SOL     OW 3955   6.743   4.682   0.675
 1019SOL    HW1 3956   6.815   4.685   0.606
 1019SOL    HW2 3957   6.662   4.729   0.641
 1020SOL     OW 3958   6.530   0.349   1.042
 1020SOL    HW1 3959   6.606   0.395   0.995
 1020SOL    HW2 3960   6.457   0.330   0.976
 1021SOL     OW 3961   6.316   6.297   1.495
 1021SOL    HW1 3962   6.247   6.234   1.458
 1021SOL    HW2 3963   6.404   6.250   1.501
 1022SOL     OW 3964   2.215   6.405   6.632
 1022SOL    HW1 3965   2.204   6.422   6.730
 1022SOL    HW2 3966   2.126   6.387   6.591
 1023SOL     OW 3967   0.907   1.899   3.589
 1023SOL    HW1 3968   0.996   1.941   3.606
 1023SOL    HW2 3969   0.916   1.831   3.517
 1024SOL     OW 3970   1.372   2.049   5.105
 1024SOL    HW1 3971   1.396   1.957   5.076
 1024SOL    HW2 3972   1.370   2.110   5.026
 1025SOL     OW 3973   4.680   3.796   0.551
 1025SOL    HW1 3974   4.676   3.879   0.495
 1025SOL    HW2 3975   4.686   3.716   0.491
 1026SOL     OW 3976   2.924   2.474   1.208
 1026SOL    HW1 3977   2.911   2.394   1.266
 1026SOL    HW2 3978   3.014   2.513   1.225
 1027SOL     OW 3979   0.378   6.251   0.874
 1027SOL    HW1 3980   0.472   6.234   0.844
 1027SOL    HW2 3981   0.379   6.312   0.953
 1028SOL     OW 3982   0.945   6.127   2.533
 1028SOL    HW1 3983   0.968   6.092   2.443
 1028SOL    HW2 3984   1.021   6.109   2.596
 1029SOL     OW 3985   0.995   1.529   6.045
 1029SOL    HW1 3986   0.989   1.609   6.105
 1029SOL    HW2 3987   0.934   1.457   6.078
 1030SOL     OW 3988   3.597   3.304   1.558
 1030SOL    HW1 3989   3.630   3.209   1.557
 1030SOL    HW2 3990   3.505   3.306   1.596
 1031SOL     OW 3991   3.220   3.457   1.488
 1031SOL    HW1 3992   3.266   3.507   1.414
 1031SOL    HW2 3993   3.121   3.472   1.482
 1032SOL     OW 3994   2.108   1.930   6.220
 1032SOL    HW1 3995   2.201   1.965   6.219
 1032SOL    HW2 3996   2.107   1.834   6.191
 1033SOL     OW 3997   0.429   6.512   1.908
 1033SOL    HW1 3998   0.466   6.419   1.911
 1033SOL    HW2 3999   0.502   6.578   1.922
 1034SOL     OW 4000   2.988   6.733   4.444
 1034SOL    HW1 4001   2.891   6.710   4.429
 1034SOL    HW2 4002   2.998   6.777   4.533
 1035SOL     OW 4003   0.787   2.229   5.954
 1035SOL    HW1 4004   0.848   2.275   5.890
 1035SOL    HW2 4005   0.738   2.296   6.009
 1036SOL     OW 4006   4.961   1.563   1.041
 1036SOL    HW1 4007   5.036   1.496   1.038
 1036SOL    HW2 4008   4.883   1.527   0.990
 1037SOL     OW 4009   1.537   2.802   2.702
 1037SOL    HW1 4010   1.626   2.791   2.658
 1037SOL    HW2 4011   1.471   2.836   2.635
 1038SOL     OW 4012   3.255   6.771   0.030
 1038SOL    HW1 4013   3.314   6.692   0.016
 1038SOL    HW2 4014   3.309   6.855   0.019
 1039SOL     OW 4015   3.581   2.880   3.383
 1039SOL    HW1 4016   3.584   2.880   3.483
 1039SOL    HW2 4017   3.501   2.830   3.352
 1040SOL     OW 4018   4.124   0.681   3.113
 1040SOL    HW1 4019   4.110   0.766   3.164
 1040SOL    HW2 4020   4.062   0.679   3.035
 1041SOL     OW 4021   6.804   6.253   6.006
 1041SOL    HW1 4022   6.815   6.156   5.986
 1041SOL    HW2 4023   6.761   6.298   5.928
 1042SOL     OW 4024   5.262   4.831   2.517
 1042SOL    HW1 4025   5.220   4.858   2.430
 1042SOL    HW2 4026   5.209   4.869   2.593
 1043SOL     OW 4027   3.341   1.966   3.989
 1043SOL    HW1 4028   3.314   2.034   3.920
 1043SOL    HW2 4029   3.293   1.984   4.075
 1044SOL     OW 4030   5.698   5.190   1.331
 1044SOL    HW1 4031   5.641   5.198   1.249
 1044SOL    HW2 4032   5.794   5.185   1.305
 1045SOL     OW 4033   2.337   0.485   3.704
 1045SOL    HW1 4034   2.325   0.584   3.711
 1045SOL    HW2 4035   2.265   0.439   3.756
 1046SOL     OW 4036   2.904   1.017   0.999
 1046SOL    HW1 4037   2.926   0.930   1.044
 1046SOL    HW2 4038   2.913   1.006   0.900
 1047SOL     OW 4039   3.600   6.547   2.968
 1047SOL    HW1 4040   3.581   6.645   2.973
 1047SOL    HW2 4041   3.609   6.511   3.061
 1048SOL     OW 4042   1.424   6.312   1.993
 1048SOL    HW1 4043   1.355   6.361   1.940
 1048SOL    HW2 4044   1.482   6.260   1.931
 1049SOL     OW 4045   4.202   6.192   5.229
 1049SOL    HW1 4046   4.244   6.106   5.202
 1049SOL    HW2 4047   4.253   6.269   5.190
 1050SOL     OW 4048   3.265   5.325   3.106
 1050SOL    HW1 4049   3.244   5.283   3.018
 1050SOL    HW2 4050   3.343   5.277   3.148
 1051SOL     OW 4051   0.353   0.038   0.044
 1051SOL    HW1 4052   0.301   0.119   0.018
 1051SOL    HW2 4053   0.329   6.978   6.999
 1052SOL     OW 4054   3.656   0.922   6.588
 1052SOL    HW1 4055   3.647   0.823   6.591
 1052SOL    HW2 4056   3.745   0.949   6.623
 1053SOL     OW 4057   6.095   3.003   2.853
 1053SOL    HW1 4058   6.086   2.979   2.757
 1053SOL    HW2 4059   6.180   3.054   2.867
 1054SOL     OW 4060   3.248   4.444   6.897
 1054SOL    HW1 4061   3.330   4.472   6.847
 1054SOL    HW2 4062   3.227   4.513   6.966
 1055SOL     OW 4063   4.659   6.128   6.955
 1055SOL    HW1 4064   4.696   6.060   6.892
 1055SOL    HW2 4065   4.734   6.182   6.994
 1056SOL     OW 4066   2.790   3.812   6.617
 1056SOL    HW1 4067   2.807   3.908   6.592
 1056SOL    HW2 4068   2.818   3.753   6.542
 1057SOL     OW 4069   2.920   1.473   1.398
 1057SOL    HW1 4070   2.970   1.527   1.466
 1057SOL    HW2 4071   2.979   1.454   1.321
 1058SOL     OW 4072   2.409   2.653   2.696
 1058SOL    HW1 4073   2.477   2.580   2.697
 1058SOL    HW2 4074   2.338   2.633   2.764
 1059SOL     OW 4075   2.701   6.301   1.456
 1059SOL    HW1 4076   2.725   6.372   1.523
 1059SOL    HW2 4077   2.712   6.337   1.364
 1060SOL     OW 4078   6.048   6.191   5.187
 1060SOL    HW1 4079   6.125   6.166   5.128
 1060SOL    HW2 4080   6.047   6.132   5.268
 1061SOL     OW 4081   6.703   4.234   6.948
 1061SOL    HW1 4082   6.659   4.157   6.903
 1061SOL    HW2 4083   6.636   4.306   6.966
 1062SOL     OW 4084   3.721   6.277   5.829
 1062SOL    HW1 4085   3.689   6.371   5.820
 1062SOL    HW2 4086   3.651   6.215   5.794
 1063SOL     OW 4087   2.429   6.353   6.057
 1063SOL    HW1 4088   2.447   6.433   6.114
 1063SOL    HW2 4089   2.462   6.271   6.102
 1064SOL     OW 4090   1.526   4.309   0.503
 1064SOL    HW1 4091   1.616   4.271   0.522
 1064SOL    HW2 4092   1.537   4.397   0.456
 1065SOL     OW 4093   4.583   0.487   4.083
 1065SOL    HW1 4094   4.622   0.403   4.047
 1065SOL    HW2 4095   4.641   0.523   4.156
 1066SOL     OW 4096   4.752   0.474   1.954
 1066SOL    HW1 4097   4.734   0.571   1.934
 1066SOL    HW2 4098   4.803   0.434   1.878
 1067SOL     OW 4099   2.734   1.021   0.528
 1067SOL    HW1 4100   2.641   0.984   0.530
 1067SOL    HW2 4101   2.738   1.105   0.581
 1068SOL     OW 4102   5.881   3.376   1.245
 1068SOL    HW1 4103   5.944   3.416   1.312
 1068SOL    HW2 4104   5.881   3.432   1.162
 1069SOL     OW 4105   6.623   3.995   1.796
 1069SOL    HW1 4106   6.545   4.050   1.766
 1069SOL    HW2 4107   6.691   4.054   1.838
 1070SOL     OW 4108   1.217   0.337   2.053
 1070SOL    HW1 4109   1.265   0.382   1.978
 1070SOL    HW2 4110   1.146   0.398   2.089
 1071SOL     OW 4111   6.622   2.879   5.587
 1071SOL    HW1 4112   6.570   2.962   5.567
 1071SOL    HW2 4113   6.685   2.897   5.662
 1072SOL     OW 4114   2.518   1.845   2.266
 1072SOL    HW1 4115   2.481   1.845   2.359
 1072SOL    HW2 4116   2.480   1.923   2.216
 1073SOL     OW 4117   4.962   1.528   3.367
 1073SOL    HW1 4118   4.978   1.590   3.290
 1073SOL    HW2 4119   4.974   1.433   3.336
 1074SOL     OW 4120   2.719   4.780   1.771
 1074SOL    HW1 4121   2.757   4.721   1.842
 1074SOL    HW2 4122   2.623   4.756   1.755
 1075SOL     OW 4123   5.638   3.270   5.147
 1075SOL    HW1 4124   5.548   3.291   5.185
 1075SOL    HW2 4125   5.629   3.252   5.049
 1076SOL     OW 4126   2.114   3.823   5.090
 1076SOL    HW1 4127   2.211   3.828   5.114
 1076SOL    HW2 4128   2.104   3.782   4.999
 1077SOL     OW 4129   6.989   6.891   0.060
 1077SOL    HW1 4130   0.002   6.877   0.155
 1077SOL    HW2 4131   0.054   6.897   0.001
 1078SOL     OW 4132   6.843   5.970   4.049
 1078SOL    HW1 4133   6.797   6.044   4.000
 1078SOL    HW2 4134   6.855   5.891   3.988
 1079SOL     OW 4135   0.701   6.150   2.643
 1079SOL    HW1 4136   0.653   6.062   2.647
 1079SOL    HW2 4137   0.796   6.135   2.617
 1080SOL     OW 4138   2.015   4.938   6.377
 1080SOL    HW1 4139   2.069   4.858   6.353
 1080SOL    HW2 4140   2.065   5.021   6.353
 1081SOL     OW 4141   6.434   5.641   4.269
 1081SOL    HW1 4142   6.384   5.572   4.321
 1081SOL    HW2 4143   6.441   5.725   4.324
 1082SOL     OW 4144   5.402   0.226   6.288
 1082SOL    HW1 4145   5.419   0.185   6.198
 1082SOL    HW2 4146   5.443   0.170   6.359
 1083SOL     OW 4147   4.982   4.246   0.809
 1083SOL    HW1 4148   5.029   4.158   0.811
 1083SOL    HW2 4149   4.883   4.231   0.819
 1084SOL     OW 4150   0.511   0.311   6.392
 1084SOL    HW1 4151   0.519   0.407   6.366
 1084SOL    HW2 4152   0.602   0.271   6.400
 1085SOL     OW 4153   1.869   3.796   4.290
 1085SOL    HW1 4154   1.810   3.863   4.336
 1085SOL    HW2 4155   1.938   3.763   4.354
 1086SOL     OW 4156   6.252   4.951   0.071
 1086SOL    HW1 4157   6.195   4.873   0.098
 1086SOL    HW2 4158   6.211   4.996   7.008
 1087SOL     OW 4159   2.420   0.209   5.131
 1087SOL    HW1 4160   2.500   0.184   5.185
 1087SOL    HW2 4161   2.405   0.308   5.137
 1088SOL     OW 4162   0.031   4.583   3.396
 1088SOL    HW1 4163   6.954   4.546   3.399
 1088SOL    HW2 4164   0.063   4.601   3.489
 1089SOL     OW 4165   6.529   4.219   4.385
 1089SOL    HW1 4166   6.565   4.277   4.458
 1089SOL    HW2 4167   6.593   4.144   4.367
 1090SOL     OW 4168   5.142   1.394   4.904
 1090SOL    HW1 4169   5.194   1.317   4.868
 1090SOL    HW2 4170   5.175   1.479   4.863
 1091SOL     OW 4171   2.132   3.058   3.243
 1091SOL    HW1 4172   2.145   2.968   3.285
 1091SOL    HW2 4173   2.098   3.122   3.312
 1092SOL     OW 4174   0.607   4.993   0.673
 1092SOL    HW1 4175   0.589   5.052   0.751
 1092SOL    HW2 4176   0.663   4.915   0.702
 1093SOL     OW 4177   2.246   0.044   1.717
 1093SOL    HW1 4178   2.315   6.991   1.736
 1093SOL    HW2 4179   2.234   0.102   1.798
 1094SOL     OW 4180   1.206   0.335   2.958
 1094SOL    HW1 4181   1.224   0.343   2.860
 1094SOL    HW2 4182   1.128   0.273   2.972
 1095SOL     OW 4183   0.115   3.439   0.326
 1095SOL    HW1 4184   0.035   3.467   0.379
 1095SOL    HW2 4185   0.097   3.452   0.229
 1096SOL     OW 4186   2.828   5.732   1.919
 1096SOL    HW1 4187   2.798   5.649   1.965
 1096SOL    HW2 4188   2.765   5.753   1.844
 1097SOL     OW 4189   3.239   5.319   3.957
 1097SOL    HW1 4190   3.144   5.350   3.966
 1097SOL    HW2 4191   3.268   5.278   4.043
 1098SOL     OW 4192   6.443   4.900   0.283
 1098SOL    HW1 4193   6.500   4.981   0.273
 1098SOL    HW2 4194   6.378   4.895   0.206
 1099SOL     OW 4195   4.432   0.684   6.090
 1099SOL    HW1 4196   4.458   0.596   6.050
 1099SOL    HW2 4197   4.448   0.682   6.189
 1100SOL     OW 4198   3.387   1.684   3.959
 1100SOL    HW1 4199   3.387   1.641   4.049
 1100SOL    HW2 4200   3.398   1.783   3.969
 1101SOL     OW 4201   6.487   3.134   5.619
 1101SOL    HW1 4202   6.495   3.218   5.564
 1101SOL    HW2 4203   6.427   3.151   5.697
 1102SOL     OW 4204   2.872   1.031   4.212
 1102SOL    HW1 4205   2.790   1.088   4.215
 1102SOL    HW2 4206   2.950   1.085   4.182
 1103SOL     OW 4207   3.126   0.126   6.490
 1103SOL    HW1 4208   3.165   0.049   6.541
 1103SOL    HW2 4209   3.038   0.099   6.451
 1104SOL     OW 4210   0.213   3.473   3.572
 1104SOL    HW1 4211   0.172   3.490   3.482
 1104SOL    HW2 4212   0.146   3.428   3.631
 1105SOL     OW 4213   5.439   0.592   5.137
 1105SOL    HW1 4214   5.346   0.622   5.159
 1105SOL    HW2 4215   5.488   0.571   5.222
 1106SOL     OW 4216   0.519   1.853   0.816
 1106SOL    HW1 4217   0.599   1.793   0.811
 1106SOL    HW2 4218   0.518   1.900   0.905
 1107SOL     OW 4219   1.094   0.969   0.422
 1107SOL    HW1 4220   1.083   1.027   0.342
 1107SOL    HW2 4221   1.006   0.926   0.445
 1108SOL     OW 4222   2.635   6.390   4.491
 1108SOL    HW1 4223   2.667   6.345   4.574
 1108SOL    HW2 4224   2.570   6.330   4.443
 1109SOL     OW 4225   5.549   1.483   4.856
 1109SOL    HW1 4226   5.502   1.568   4.831
 1109SOL    HW2 4227   5.642   1.485   4.819
 1110SOL     OW 4228   3.505   1.072   2.350
 1110SOL    HW1 4229   3.466   0.984   2.321
 1110SOL    HW2 4230   3.595   1.084   2.308
 1111SOL     OW 4231   5.158   3.789   6.680
 1111SOL    HW1 4232   5.060   3.810   6.683
 1111SOL    HW2 4233   5.172   3.698   6.640
 1112SOL     OW 4234   5.244   0.293   2.151
 1112SOL    HW1 4235   5.163   0.341   2.116
 1112SOL    HW2 4236   5.225   0.195   2.153
 1113SOL     OW 4237   5.646   4.637   2.348
 1113SOL    HW1 4238   5.618   4.609   2.256
 1113SOL    HW2 4239   5.728   4.586   2.374
 1114SOL     OW 4240   4.319   3.455   5.606
 1114SOL    HW1 4241   4.391   3.513   5.569
 1114SOL    HW2 4242   4.248   3.442   5.537
 1115SOL     OW 4243   3.260   4.396   5.742
 1115SOL    HW1 4244   3.179   4.455   5.741
 1115SOL    HW2 4245   3.240   4.313   5.794
 1116SOL     OW 4246   4.687   0.319   6.412
 1116SOL    HW1 4247   4.636   0.235   6.427
 1116SOL    HW2 4248   4.755   0.331   6.485
 1117SOL     OW 4249   1.278   3.206   1.883
 1117SOL    HW1 4250   1.220   3.141   1.933
 1117SOL    HW2 4251   1.369   3.206   1.923
 1118SOL     OW 4252   2.854   4.774   6.933
 1118SOL    HW1 4253   2.862   4.831   7.014
 1118SOL    HW2 4254   2.767   4.725   6.935
 1119SOL     OW 4255   3.945   5.101   3.526
 1119SOL    HW1 4256   3.910   5.047   3.450
 1119SOL    HW2 4257   4.025   5.153   3.497
 1120SOL     OW 4258   6.574   5.198   0.875
 1120SOL    HW1 4259   6.571   5.226   0.971
 1120SOL    HW2 4260   6.658   5.146   0.858
 1121SOL     OW 4261   6.601   5.113   4.689
 1121SOL    HW1 4262   6.631   5.023   4.720
 1121SOL    HW2 4263   6.668   5.182   4.718
 1122SOL     OW 4264   5.390   2.710   1.884
 1122SOL    HW1 4265   5.317   2.779   1.885
 1122SOL    HW2 4266   5.362   2.631   1.939
 1123SOL     OW 4267   4.174   1.968   3.234
 1123SOL    HW1 4268   4.152   1.872   3.216
 1123SOL    HW2 4269   4.235   1.974   3.313
 1124SOL     OW 4270   2.262   3.015   4.772
 1124SOL    HW1 4271   2.307   3.000   4.860
 1124SOL    HW2 4272   2.182   2.956   4.765
 1125SOL     OW 4273   1.268   3.888   3.873
 1125SOL    HW1 4274   1.332   3.930   3.937
 1125SOL    HW2 4275   1.220   3.959   3.821
 1126SOL     OW 4276   3.522   5.268   5.495
 1126SOL    HW1 4277   3.599   5.286   5.557
 1126SOL    HW2 4278   3.557   5.239   5.406
 1127SOL     OW 4279   5.888   6.400   2.988
 1127SOL    HW1 4280   5.800   6.371   2.952
 1127SOL    HW2 4281   5.932   6.462   2.922
 1128SOL     OW 4282   6.093   1.499   3.446
 1128SOL    HW1 4283   6.000   1.463   3.435
 1128SOL    HW2 4284   6.130   1.525   3.357
 1129SOL     OW 4285   1.464   0.402   1.043
 1129SOL    HW1 4286   1.527   0.465   1.089
 1129SOL    HW2 4287   1.370   0.432   1.059
 1130SOL     OW 4288   2.389   5.345   2.689
 1130SOL    HW1 4289   2.372   5.392   2.603
 1130SOL    HW2 4290   2.487   5.344   2.708
 1131SOL     OW 4291   1.445   6.478   4.072
 1131SOL    HW1 4292   1.465   6.567   4.032
 1131SOL    HW2 4293   1.515   6.456   4.140
 1132SOL     OW 4294   3.599   1.420   2.639
 1132SOL    HW1 4295   3.558   1.507   2.665
 1132SOL    HW2 4296   3.668   1.434   2.568
 1133SOL     OW 4297   1.614   6.635   5.009
 1133SOL    HW1 4298   1.526   6.589   4.995
 1133SOL    HW2 4299   1.606   6.731   4.982
 1134SOL     OW 4300   4.205   6.827   1.479
 1134SOL    HW1 4301   4.241   6.882   1.554
 1134SOL    HW2 4302   4.171   6.886   1.406
 1135SOL     OW 4303   1.994   6.113   3.854
 1135SOL    HW1 4304   1.949   6.048   3.792
 1135SOL    HW2 4305   2.090   6.122   3.829
 1136SOL     OW 4306   2.866   6.142   1.838
 1136SOL    HW1 4307   2.892   6.078   1.911
 1136SOL    HW2 4308   2.870   6.236   1.874
 1137SOL     OW 4309   0.158   5.769   5.754
 1137SOL    HW1 4310   0.200   5.803   5.669
 1137SOL    HW2 4311   0.192   5.677   5.773
 1138SOL     OW 4312   2.177   3.063   4.518
 1138SOL    HW1 4313   2.209   3.072   4.612
 1138SOL    HW2 4314   2.195   2.969   4.486
 1139SOL     OW 4315   2.954   5.343   4.002
 1139SOL    HW1 4316   2.877   5.364   3.941
 1139SOL    HW2 4317   2.922   5.284   4.076
 1140SOL     OW 4318   1.441   1.596   1.989
 1140SOL    HW1 4319   1.370   1.529   2.012
 1140SOL    HW2 4320   1.409   1.688   2.013
 1141SOL     OW 4321   6.346   4.388   6.499
 1141SOL    HW1 4322   6.307   4.479   6.484
 1141SOL    HW2 4323   6.273   4.320   6.504
 1142SOL     OW 4324   2.506   6.954   2.750
 1142SOL    HW1 4325   2.431   6.958   2.816
 1142SOL    HW2 4326   2.589   6.923   2.797
 1143SOL     OW 4327   1.135   3.832   1.711
 1143SOL    HW1 4328   1.091   3.911   1.666
 1143SOL    HW2 4329   1.215   3.804   1.658
 1144SOL     OW 4330   5.488   4.104   2.173
 1144SOL    HW1 4331   5.485   4.028   2.108
 1144SOL    HW2 4332   5.547   4.176   2.137
 1145SOL     OW 4333   0.425   1.525   0.631
 1145SOL    HW1 4334   0.427   1.527   0.531
 1145SOL    HW2 4335   0.407   1.616   0.666
 1146SOL     OW 4336   0.807   1.312   1.459
 1146SOL    HW1 4337   0.783   1.402   1.423
 1146SOL    HW2 4338   0.903   1.312   1.486
 1147SOL     OW 4339   3.405   6.800   1.143
 1147SOL    HW1 4340   3.427   6.891   1.109
 1147SOL    HW2 4341   3.474   6.771   1.209
 1148SOL     OW 4342   4.201   5.561   2.636
 1148SOL    HW1 4343   4.184   5.531   2.730
 1148SOL    HW2 4344   4.299   5.555   2.617
 1149SOL     OW 4345   4.722   2.421   1.699
 1149SOL    HW1 4346   4.810   2.453   1.732
 1149SOL    HW2 4347   4.694   2.340   1.750
 1150SOL     OW 4348   1.645   4.379   7.016
 1150SOL    HW1 4349   1.616   4.285   6.999
 1150SOL    HW2 4350   1.744   4.384   0.006
 1151SOL     OW 4351   6.593   5.283   3.806
 1151SOL    HW1 4352   6.569   5.368   3.852
 1151SOL    HW2 4353   6.534   5.270   3.726
 1152SOL     OW 4354   4.583   6.810   6.544
 1152SOL    HW1 4355   4.652   6.864   6.592
 1152SOL    HW2 4356   4.572   6.845   6.451
 1153SOL     OW 4357   6.253   0.486   1.255
 1153SOL    HW1 4358   6.204   0.447   1.333
 1153SOL    HW2 4359   6.352   0.485   1.274
 1154SOL     OW 4360   1.598   2.577   1.649
 1154SOL    HW1 4361   1.585   2.481   1.624
 1154SOL    HW2 4362   1.695   2.600   1.645
 1155SOL     OW 4363   2.859   6.219   5.251
 1155SOL    HW1 4364   2.787   6.268   5.301
 1155SOL    HW2 4365   2.826   6.129   5.225
 1156SOL     OW 4366   3.685   2.097   4.241
 1156SOL    HW1 4367   3.712   2.060   4.331
 1156SOL    HW2 4368   3.596   2.061   4.216
 1157SOL     OW 4369   3.478   1.038   5.505
 1157SOL    HW1 4370   3.450   1.129   5.475
 1157SOL    HW2 4371   3.455   0.971   5.434
 1158SOL     OW 4372   5.906   6.014   2.827
 1158SOL    HW1 4373   5.932   6.109   2.808
 1158SOL    HW2 4374   5.839   6.012   2.901
 1159SOL     OW 4375   6.398   6.297   2.285
 1159SOL    HW1 4376   6.438   6.211   2.253
 1159SOL    HW2 4377   6.433   6.373   2.229
 1160SOL     OW 4378   4.993   1.069   0.353
 1160SOL    HW1 4379   4.909   1.016   0.364
 1160SOL    HW2 4380   4.982   1.133   0.277
 1161SOL     OW 4381   0.533   5.417   6.886
 1161SOL    HW1 4382   0.495   5.410   6.978
 1161SOL    HW2 4383   0.469   5.376   6.821
 1162SOL     OW 4384   2.130   2.623   5.152
 1162SOL    HW1 4385   2.052   2.599   5.210
 1162SOL    HW2 4386   2.110   2.709   5.104
 1163SOL     OW 4387   6.378   4.139   1.697
 1163SOL    HW1 4388   6.326   4.127   1.782
 1163SOL    HW2 4389   6.314   4.155   1.622
 1164SOL     OW 4390   5.036   1.729   4.305
 1164SOL    HW1 4391   5.083   1.770   4.226
 1164SOL    HW2 4392   5.095   1.735   4.386
 1165SOL     OW 4393   3.860   6.463   3.695
 1165SOL    HW1 4394   3.851   6.370   3.730
 1165SOL    HW2 4395   3.770   6.497   3.666
 1166SOL     OW 4396   2.173   6.004   0.099
 1166SOL    HW1 4397   2.180   5.916   0.053
 1166SOL    HW2 4398   2.088   6.050   0.070
 1167SOL     OW 4399   5.535   4.772   2.572
 1167SOL    HW1 4400   5.574   4.730   2.490
 1167SOL    HW2 4401   5.442   4.802   2.553
 1168SOL     OW 4402   6.270   2.208   3.176
 1168SOL    HW1 4403   6.309   2.236   3.264
 1168SOL    HW2 4404   6.335   2.229   3.103
 1169SOL     OW 4405   5.762   0.510   4.951
 1169SOL    HW1 4406   5.760   0.424   4.901
 1169SOL    HW2 4407   5.672   0.553   4.947
 1170SOL     OW 4408   4.911   6.893   3.668
 1170SOL    HW1 4409   4.854   6.813   3.688
 1170SOL    HW2 4410   4.889   6.928   3.577
 1171SOL     OW 4411   1.525   0.370   1.465
 1171SOL    HW1 4412   1.492   0.460   1.436
 1171SOL    HW2 4413   1.454   0.324   1.519
 1172SOL     OW 4414   6.935   3.691   6.574
 1172SOL    HW1 4415   6.893   3.742   6.649
 1172SOL    HW2 4416   0.014   3.720   6.565
 1173SOL     OW 4417   2.878   1.647   0.983
 1173SOL    HW1 4418   2.942   1.615   1.053
 1173SOL    HW2 4419   2.909   1.735   0.948
 1174SOL     OW 4420   3.699   3.754   1.098
 1174SOL    HW1 4421   3.607   3.789   1.081
 1174SOL    HW2 4422   3.734   3.795   1.183
 1175SOL     OW 4423   3.398   3.167   4.860
 1175SOL    HW1 4424   3.484   3.216   4.848
 1175SOL    HW2 4425   3.340   3.182   4.780
 1176SOL     OW 4426   5.305   4.043   6.354
 1176SOL    HW1 4427   5.234   4.108   6.382
 1176SOL    HW2 4428   5.326   4.057   6.257
 1177SOL     OW 4429   6.489   2.682   4.805
 1177SOL    HW1 4430   6.470   2.630   4.722
 1177SOL    HW2 4431   6.462   2.629   4.885
 1178SOL     OW 4432   2.764   4.916   0.167
 1178SOL    HW1 4433   2.692   4.903   0.099
 1178SOL    HW2 4434   2.782   5.014   0.177
 1179SOL     OW 4435   2.424   5.251   1.001
 1179SOL    HW1 4436   2.367   5.333   1.000
 1179SOL    HW2 4437   2.458   5.232   0.909
 1180SOL     OW 4438   2.943   5.540   0.598
 1180SOL    HW1 4439   2.979   5.497   0.515
 1180SOL    HW2 4440   3.011   5.536   0.670
 1181SOL     OW 4441   0.181   5.680   6.675
 1181SOL    HW1 4442   0.087   5.675   6.641
 1181SOL    HW2 4443   0.208   5.776   6.684
 1182SOL     OW 4444   4.165   5.183   2.931
 1182SOL    HW1 4445   4.231   5.223   2.867
 1182SOL    HW2 4446   4.146   5.088   2.903
 1183SOL     OW 4447   2.124   3.802   6.366
 1183SOL    HW1 4448   2.041   3.746   6.369
 1183SOL    HW2 4449   2.151   3.816   6.271
 1184SOL     OW 4450   1.743   0.066   4.995
 1184SOL    HW1 4451   1.762   0.144   5.055
 1184SOL    HW2 4452   1.803   7.006   5.019
 1185SOL     OW 4453   6.981   1.084   6.964
 1185SOL    HW1 4454   0.043   1.146   6.961
 1185SOL    HW2 4455   6.906   1.127   7.014
 1186SOL     OW 4456   4.828   6.100   4.673
 1186SOL    HW1 4457   4.850   6.169   4.605
 1186SOL    HW2 4458   4.845   6.009   4.636
 1187SOL     OW 4459   6.521   0.217   5.819
 1187SOL    HW1 4460   6.442   0.275   5.803
 1187SOL    HW2 4461   6.492   0.121   5.821
 1188SOL     OW 4462   2.563   6.570   4.976
 1188SOL    HW1 4463   2.482   6.517   4.951
 1188SOL    HW2 4464   2.624   6.576   4.897
 1189SOL     OW 4465   6.189   3.472   3.035
 1189SOL    HW1 4466   6.213   3.388   3.084
 1189SOL    HW2 4467   6.270   3.505   2.986
 1190SOL     OW 4468   1.965   6.411   2.481
 1190SOL    HW1 4469   2.030   6.486   2.490
 1190SOL    HW2 4470   1.917   6.418   2.394
 1191SOL     OW 4471   4.530   5.047   3.100
 1191SOL    HW1 4472   4.477   5.131   3.108
 1191SOL    HW2 4473   4.477   4.978   3.051
 1192SOL     OW 4474   4.107   6.020   2.896
 1192SOL    HW1 4475   4.078   6.106   2.854
 1192SOL    HW2 4476   4.185   6.036   2.956
 1193SOL     OW 4477   6.085   4.764   3.872
 1193SOL    HW1 4478   6.072   4.717   3.959
 1193SOL    HW2 4479   6.000   4.810   3.846
 1194SOL     OW 4480   4.656   0.534   1.343
 1194SOL    HW1 4481   4.734   0.596   1.339
 1194SOL    HW2 4482   4.688   0.440   1.327
 1195SOL     OW 4483   6.121   3.528   1.974
 1195SOL    HW1 4484   6.160   3.515   2.065
 1195SOL    HW2 4485   6.022   3.524   1.979
 1196SOL     OW 4486   6.359   6.758   3.849
 1196SOL    HW1 4487   6.386   6.759   3.946
 1196SOL    HW2 4488   6.442   6.757   3.792
 1197SOL     OW 4489   3.898   6.566   0.482
 1197SOL    HW1 4490   3.837   6.644   0.463
 1197SOL    HW2 4491   3.977   6.598   0.534
 1198SOL     OW 4492   1.654   2.142   0.938
 1198SOL    HW1 4493   1.678   2.217   0.999
 1198SOL    HW2 4494   1.573   2.167   0.885
 1199SOL     OW 4495   4.842   5.174   1.565
 1199SOL    HW1 4496   4.856   5.226   1.649
 1199SOL    HW2 4497   4.817   5.237   1.490
 1200SOL     OW 4498   2.854   3.433   2.219
 1200SOL    HW1 4499   2.782   3.398   2.278
 1200SOL    HW2 4500   2.892   3.517   2.258
 1201SOL     OW 4501   1.393   1.733   4.775
 1201SOL    HW1 4502   1.373   1.791   4.696
 1201SOL    HW2 4503   1.440   1.650   4.744
 1202SOL     OW 4504   0.371   5.403   6.458
 1202SOL    HW1 4505   0.453   5.459   6.459
 1202SOL    HW2 4506   0.364   5.350   6.543
 1203SOL     OW 4507   4.848   6.110   5.900
 1203SOL    HW1 4508   4.756   6.110   5.861
 1203SOL    HW2 4509   4.873   6.204   5.926
 1204SOL     OW 4510   2.475   0.950   2.302
 1204SOL    HW1 4511   2.550   0.901   2.258
 1204SOL    HW2 4512   2.419   0.995   2.232
 1205SOL     OW 4513   5.338   3.970   1.327
 1205SOL    HW1 4514   5.372   4.005   1.414
 1205SOL    HW2 4515   5.308   3.875   1.339
 1206SOL     OW 4516   3.145   3.499   4.656
 1206SOL    HW1 4517   3.213   3.570   4.671
 1206SOL    HW2 4518   3.054   3.541   4.647
 1207SOL     OW 4519   2.099   6.318   1.777
 1207SOL    HW1 4520   2.111   6.350   1.871
 1207SOL    HW2 4521   2.188   6.314   1.731
 1208SOL     OW 4522   3.695   3.321   0.403
 1208SOL    HW1 4523   3.769   3.368   0.452
 1208SOL    HW2 4524   3.677   3.233   0.446
 1209SOL     OW 4525   3.587   6.941   5.508
 1209SOL    HW1 4526   3.561   6.899   5.595
 1209SOL    HW2 4527   3.614   6.870   5.443
 1210SOL     OW 4528   3.136   0.297   3.156
 1210SOL    HW1 4529   3.191   0.368   3.111
 1210SOL    HW2 4530   3.190   0.213   3.162
 1211SOL     OW 4531   0.925   3.945   1.142
 1211SOL    HW1 4532   0.977   3.874   1.189
 1211SOL    HW2 4533   0.972   3.972   1.058
 1212SOL     OW 4534   0.492   0.049   6.673
 1212SOL    HW1 4535   0.528   0.082   6.760
 1212SOL    HW2 4536   0.394   0.070   6.668
 1213SOL     OW 4537   5.518   2.632   0.591
 1213SOL    HW1 4538   5.432   2.649   0.640
 1213SOL    HW2 4539   5.551   2.717   0.552
 1214SOL     OW 4540   6.825   2.317   0.957
 1214SOL    HW1 4541   6.860   2.238   1.009
 1214SOL    HW2 4542   6.746   2.289   0.904
 1215SOL     OW 4543   1.105   4.903   4.531
 1215SOL    HW1 4544   1.046   4.935   4.605
 1215SOL    HW2 4545   1.054   4.902   4.445
 1216SOL     OW 4546   4.383   0.449   6.384
 1216SOL    HW1 4547   4.455   0.512   6.353
 1216SOL    HW2 4548   4.399   0.425   6.480
 1217SOL     OW 4549   2.443   4.576   1.050
 1217SOL    HW1 4550   2.436   4.518   0.969
 1217SOL    HW2 4551   2.455   4.672   1.021
 1218SOL     OW 4552   1.446   4.155   3.806
 1218SOL    HW1 4553   1.436   4.136   3.904
 1218SOL    HW2 4554   1.456   4.254   3.793
 1219SOL     OW 4555   3.984   6.350   2.154
 1219SOL    HW1 4556   3.901   6.297   2.172
 1219SOL    HW2 4557   4.018   6.389   2.239
 1220SOL     OW 4558   1.356   4.674   3.150
 1220SOL    HW1 4559   1.272   4.670   3.097
 1220SOL    HW2 4560   1.356   4.756   3.207
 1221SOL     OW 4561   5.819   3.317   5.977
 1221SOL    HW1 4562   5.730   3.332   6.021
 1221SOL    HW2 4563   5.807   3.309   5.878
 1222SOL     OW 4564   6.782   6.663   0.019
 1222SOL    HW1 4565   6.815   6.733   6.972
 1222SOL    HW2 4566   6.807   6.688   0.113
 1223SOL     OW 4567   3.118   6.705   0.246
 1223SOL    HW1 4568   3.181   6.741   0.177
 1223SOL    HW2 4569   3.089   6.779   0.307
 1224SOL     OW 4570   2.581   0.324   1.122
 1224SOL    HW1 4571   2.525   0.360   1.197
 1224SOL    HW2 4572   2.586   0.393   1.049
 1225SOL     OW 4573   2.938   4.216   6.379
 1225SOL    HW1 4574   2.853   4.168   6.401
 1225SOL    HW2 4575   2.919   4.311   6.357
 1226SOL     OW 4576   1.863   5.315   1.418
 1226SOL    HW1 4577   1.784   5.318   1.358
 1226SOL    HW2 4578   1.890   5.220   1.434
 1227SOL     OW 4579   7.006   3.947   6.762
 1227SOL    HW1 4580   0.069   3.903   6.802
 1227SOL    HW2 4581   6.941   3.971   6.835
 1228SOL     OW 4582   3.901   2.709   6.071
 1228SOL    HW1 4583   3.874   2.682   5.979
 1228SOL    HW2 4584   3.967   2.643   6.107
 1229SOL     OW 4585   4.107   4.743   6.479
 1229SOL    HW1 4586   4.183   4.708   6.425
 1229SOL    HW2 4587   4.039   4.671   6.493
 1230SOL     OW 4588   4.296   6.503   3.482
 1230SOL    HW1 4589   4.304   6.487   3.384
 1230SOL    HW2 4590   4.225   6.443   3.520
 1231SOL     OW 4591   1.975   3.033   4.845
 1231SOL    HW1 4592   1.980   3.112   4.907
 1231SOL    HW2 4593   1.881   3.023   4.812
 1232SOL     OW 4594   1.066   2.429   5.279
 1232SOL    HW1 4595   1.113   2.497   5.222
 1232SOL    HW2 4596   1.101   2.338   5.256
 1233SOL     OW 4597   0.532   3.040   5.190
 1233SOL    HW1 4598   0.493   2.977   5.257
 1233SOL    HW2 4599   0.584   2.988   5.122
 1234SOL     OW 4600   5.702   4.462   4.766
 1234SOL    HW1 4601   5.697   4.492   4.671
 1234SOL    HW2 4602   5.750   4.531   4.821
 1235SOL     OW 4603   6.426   5.767   3.567
 1235SOL    HW1 4604   6.498   5.837   3.558
 1235SOL    HW2 4605   6.450   5.688   3.511
 1236SOL     OW 4606   5.739   0.741   6.880
 1236SOL    HW1 4607   5.718   0.800   6.801
 1236SOL    HW2 4608   5.767   0.798   6.957
 1237SOL     OW 4609   2.684   4.401   6.811
 1237SOL    HW1 4610   2.626   4.472   6.849
 1237SOL    HW2 4611   2.758   4.380   6.876
 1238SOL     OW 4612   1.966   1.488   0.681
 1238SOL    HW1 4613   1.880   1.488   0.631
 1238SOL    HW2 4614   1.978   1.575   0.728
 1239SOL     OW 4615   6.683   6.131   6.666
 1239SOL    HW1 4616   6.619   6.188   6.717
 1239SOL    HW2 4617   6.732   6.072   6.731
 1240SOL     OW 4618   4.907   6.164   1.900
 1240SOL    HW1 4619   4.835   6.138   1.963
 1240SOL    HW2 4620   4.894   6.118   1.813
 1241SOL     OW 4621   6.713   3.959   4.344
 1241SOL    HW1 4622   6.681   3.864   4.340
 1241SOL    HW2 4623   6.738   3.982   4.438
 1242SOL     OW 4624   2.208   3.767   0.490
 1242SOL    HW1 4625   2.216   3.849   0.547
 1242SOL    HW2 4626   2.143   3.784   0.417
 1243SOL     OW 4627   1.919   5.206   5.647
 1243SOL    HW1 4628   1.890   5.228   5.554
 1243SOL    HW2 4629   1.872   5.267   5.711
 1244SOL     OW 4630   0.273   0.920   3.401
 1244SOL    HW1 4631   0.314   1.006   3.368
 1244SOL    HW2 4632   0.333   0.844   3.378
 1245SOL     OW 4633   3.356   3.447   0.217
 1245SOL    HW1 4634   3.321   3.516   0.280
 1245SOL    HW2 4635   3.356   3.357   0.262
 1246SOL     OW 4636   2.145   6.572   2.147
 1246SOL    HW1 4637   2.160   6.475   2.128
 1246SOL    HW2 4638   2.209   6.603   2.216
 1247SOL     OW 4639   2.101   6.505   6.172
 1247SOL    HW1 4640   2.129   6.431   6.233
 1247SOL    HW2 4641   2.113   6.477   6.077
 1248SOL     OW 4642   2.017   5.415   3.551
 1248SOL    HW1 4643   1.926   5.447   3.575
 1248SOL    HW2 4644   2.013   5.363   3.465
 1249SOL     OW 4645   5.800   3.244   3.701
 1249SOL    HW1 4646   5.753   3.205   3.780
 1249SOL    HW2 4647   5.797   3.344   3.707
 1250SOL     OW 4648   1.217   4.200   4.006
 1250SOL    HW1 4649   1.237   4.288   4.049
 1250SOL    HW2 4650   1.181   4.136   4.074
 1251SOL     OW 4651   3.940   0.231   4.784
 1251SOL    HW1 4652   3.868   0.264   4.723
 1251SOL    HW2 4653   4.029   0.261   4.750
 1252SOL     OW 4654   3.059   4.034   5.579
 1252SOL    HW1 4655   3.151   4.072   5.572
 1252SOL    HW2 4656   3.025   4.044   5.672
 1253SOL     OW 4657   4.130   5.155   2.552
 1253SOL    HW1 4658   4.194   5.203   2.490
 1253SOL    HW2 4659   4.051   5.214   2.569
 1254SOL     OW 4660   6.554   1.820   3.112
 1254SOL    HW1 4661   6.501   1.736   3.113
 1254SOL    HW2 4662   6.604   1.829   3.198
 1255SOL     OW 4663   0.000   6.694   6.237
 1255SOL    HW1 4664   0.099   6.697   6.220
 1255SOL    HW2 4665   6.970   6.653   6.159
 1256SOL     OW 4666   5.816   0.227   3.131
 1256SOL    HW1 4667   5.728   0.255   3.092
 1256SOL    HW2 4668   5.866   0.308   3.161
 1257SOL     OW 4669   6.510   0.953   3.595
 1257SOL    HW1 4670   6.461   1.035   3.626
 1257SOL    HW2 4671   6.591   0.939   3.652
 1258SOL     OW 4672   0.528   6.873   3.082
 1258SOL    HW1 4673   0.581   6.958   3.079
 1258SOL    HW2 4674   0.432   6.895   3.100
 1259SOL     OW 4675   3.636   1.962   4.909
 1259SOL    HW1 4676   3.574   1.899   4.957
 1259SOL    HW2 4677   3.693   2.008   4.976
 1260SOL     OW 4678   0.673   1.004   0.194
 1260SOL    HW1 4679   0.635   1.094   0.214
 1260SOL    HW2 4680   0.721   1.007   0.106
 1261SOL     OW 4681   0.125   5.062   0.174
 1261SOL    HW1 4682   0.114   4.975   0.126
 1261SOL    HW2 4683   0.050   5.124   0.149
 1262SOL     OW 4684   5.528   5.675   1.479
 1262SOL    HW1 4685   5.536   5.697   1.382
 1262SOL    HW2 4686   5.603   5.615   1.506
 1263SOL     OW 4687   1.547   2.576   3.709
 1263SOL    HW1 4688   1.611   2.548   3.781
 1263SOL    HW2 4689   1.561   2.517   3.629
 1264SOL     OW 4690   1.012   2.477   4.905
 1264SOL    HW1 4691   1.054   2.491   4.815
 1264SOL    HW2 4692   0.923   2.522   4.908
 1265SOL     OW 4693   6.013   6.554   4.588
 1265SOL    HW1 4694   5.949   6.502   4.644
 1265SOL    HW2 4695   6.030   6.504   4.502
 1266SOL     OW 4696   2.006   0.398   4.595
 1266SOL    HW1 4697   1.962   0.459   4.660
 1266SOL    HW2 4698   2.091   0.364   4.634
 1267SOL     OW 4699   4.013   0.203   2.512
 1267SOL    HW1 4700   4.050   0.284   2.466
 1267SOL    HW2 4701   3.924   0.225   2.551
 1268SOL     OW 4702   4.299   2.407   5.363
 1268SOL    HW1 4703   4.367   2.479   5.346
 1268SOL    HW2 4704   4.220   2.420   5.302
 1269SOL     OW 4705   6.169   2.551   4.202
 1269SOL    HW1 4706   6.221   2.623   4.154
 1269SOL    HW2 4707   6.147   2.478   4.138
 1270SOL     OW 4708   0.042   4.902   3.550
 1270SOL    HW1 4709   0.016   4.995   3.578
 1270SOL    HW2 4710   6.976   4.846   3.543
 1271SOL     OW 4711   1.506   1.308   1.673
 1271SOL    HW1 4712   1.495   1.249   1.753
 1271SOL    HW2 4713   1.520   1.251   1.591
 1272SOL     OW 4714   6.939   4.194   0.373
 1272SOL    HW1 4715   6.889   4.279   0.355
 1272SOL    HW2 4716   6.882   4.132   0.426
 1273SOL     OW 4717   1.294   4.899   5.335
 1273SOL    HW1 4718   1.206   4.943   5.321
 1273SOL    HW2 4719   1.282   4.799   5.332
 1274SOL     OW 4720   0.753   5.203   2.706
 1274SOL    HW1 4721   0.773   5.218   2.803
 1274SOL    HW2 4722   0.785   5.281   2.654
 1275SOL     OW 4723   3.038   0.802   2.650
 1275SOL    HW1 4724   2.986   0.885   2.671
 1275SOL    HW2 4725   3.125   0.803   2.699
 1276SOL     OW 4726   5.332   4.320   4.112
 1276SOL    HW1 4727   5.250   4.264   4.110
 1276SOL    HW2 4728   5.311   4.412   4.077
 1277SOL     OW 4729   0.384   6.199   0.525
 1277SOL    HW1 4730   0.375   6.135   0.601
 1277SOL    HW2 4731   0.298   6.248   0.512
 1278SOL     OW 4732   1.069   5.808   2.657
 1278SOL    HW1 4733   1.002   5.786   2.727
 1278SOL    HW2 4734   1.109   5.898   2.676
 1279SOL     OW 4735   2.433   1.684   6.763
 1279SOL    HW1 4736   2.463   1.697   6.858
 1279SOL    HW2 4737   2.424   1.773   6.718
 1280SOL     OW 4738   2.533   1.834   3.413
 1280SOL    HW1 4739   2.475   1.915   3.400
 1280SOL    HW2 4740   2.614   1.842   3.356
 1281SOL     OW 4741   4.102   5.888   4.329
 1281SOL    HW1 4742   4.100   5.862   4.232
 1281SOL    HW2 4743   4.174   5.837   4.376
 1282SOL     OW 4744   0.203   2.732   1.214
 1282SOL    HW1 4745   0.265   2.719   1.136
 1282SOL    HW2 4746   0.138   2.806   1.192
 1283SOL     OW 4747   6.421   3.086   5.276
 1283SOL    HW1 4748   6.400   3.033   5.193
 1283SOL    HW2 4749   6.357   3.163   5.283
 1284SOL     OW 4750   4.117   1.655   1.343
 1284SOL    HW1 4751   4.055   1.698   1.409
 1284SOL    HW2 4752   4.169   1.583   1.388
 1285SOL     OW 4753   3.524   1.119   4.960
 1285SOL    HW1 4754   3.469   1.046   5.001
 1285SOL    HW2 4755   3.616   1.115   4.997
 1286SOL     OW 4756   4.285   2.053   2.243
 1286SOL    HW1 4757   4.200   2.063   2.191
 1286SOL    HW2 4758   4.321   2.143   2.267
 1287SOL     OW 4759   6.376   4.405   4.781
 1287SOL    HW1 4760   6.421   4.396   4.870
 1287SOL    HW2 4761   6.284   4.368   4.786
 1288SOL     OW 4762   4.481   4.437   6.476
 1288SOL    HW1 4763   4.531   4.437   6.389
 1288SOL    HW2 4764   4.467   4.342   6.506
 1289SOL     OW 4765   6.923   0.572   1.870
 1289SOL    HW1 4766   6.916   0.485   1.821
 1289SOL    HW2 4767   6.914   0.555   1.968
 1290SOL     OW 4768   1.469   0.067   6.890
 1290SOL    HW1 4769   1.471   0.160   6.855
 1290SOL    HW2 4770   1.374   0.041   6.911
 1291SOL     OW 4771   6.449   5.079   3.238
 1291SOL    HW1 4772   6.495   4.990   3.237
 1291SOL    HW2 4773   6.458   5.122   3.148
 1292SOL     OW 4774   0.833   6.246   2.105
 1292SOL    HW1 4775   0.834   6.293   2.193
 1292SOL    HW2 4776   0.925   6.243   2.068
 1293SOL     OW 4777   3.057   0.856   6.835
 1293SOL    HW1 4778   3.016   0.877   6.747
 1293SOL    HW2 4779   3.016   0.773   6.873
 1294SOL     OW 4780   2.397   3.520   5.620
 1294SOL    HW1 4781   2.460   3.519   5.542
 1294SOL    HW2 4782   2.416   3.443   5.680
 1295SOL     OW 4783   6.531   4.168   0.597
 1295SOL    HW1 4784   6.520   4.178   0.696
 1295SOL    HW2 4785   6.531   4.259   0.554
 1296SOL     OW 4786   5.307   6.754   5.692
 1296SOL    HW1 4787   5.302   6.705   5.605
 1296SOL    HW2 4788   5.398   6.795   5.702
 1297SOL     OW 4789   0.623   0.053   1.894
 1297SOL    HW1 4790   0.615   0.006   1.806
 1297SOL    HW2 4791   0.699   0.013   1.946
 1298SOL     OW 4792   5.587   5.911   2.240
 1298SOL    HW1 4793   5.583   5.937   2.337
 1298SOL    HW2 4794   5.515   5.845   2.221
 1299SOL     OW 4795   1.534   3.222   4.831
 1299SOL    HW1 4796   1.588   3.140   4.849
 1299SOL    HW2 4797   1.567   3.266   4.748
 1300SOL     OW 4798   1.460   4.627   1.667
 1300SOL    HW1 4799   1.534   4.560   1.675
 1300SOL    HW2 4800   1.379   4.581   1.630
 1301SOL     OW 4801   1.056   0.676   1.654
 1301SOL    HW1 4802   1.037   0.621   1.572
 1301SOL    HW2 4803   0.981   0.668   1.718
 1302SOL     OW 4804   5.647   6.622   5.408
 1302SOL    HW1 4805   5.680   6.578   5.491
 1302SOL    HW2 4806   5.718   6.681   5.370
 1303SOL     OW 4807   4.375   6.546   1.344
 1303SOL    HW1 4808   4.401   6.454   1.375
 1303SOL    HW2 4809   4.281   6.565   1.373
 1304SOL     OW 4810   0.516   1.437   0.898
 1304SOL    HW1 4811   0.525   1.504   0.824
 1304SOL    HW2 4812   0.429   1.388   0.887
 1305SOL     OW 4813   5.672   3.969   6.780
 1305SOL    HW1 4814   5.679   4.066   6.755
 1305SOL    HW2 4815   5.592   3.956   6.839
 1306SOL     OW 4816   2.234   5.532   3.955
 1306SOL    HW1 4817   2.201   5.617   3.915
 1306SOL    HW2 4818   2.327   5.544   3.988
 1307SOL     OW 4819   2.100   2.434   3.947
 1307SOL    HW1 4820   2.141   2.378   4.019
 1307SOL    HW2 4821   2.088   2.379   3.864
 1308SOL     OW 4822   6.401   5.610   6.282
 1308SOL    HW1 4823   6.481   5.586   6.227
 1308SOL    HW2 4824   6.426   5.614   6.378
 1309SOL     OW 4825   5.138   4.443   6.629
 1309SOL    HW1 4826   5.130   4.417   6.725
 1309SOL    HW2 4827   5.111   4.539   6.618
 1310SOL     OW 4828   1.560   4.337   3.531
 1310SOL    HW1 4829   1.508   4.373   3.608
 1310SOL    HW2 4830   1.582   4.241   3.546
 1311SOL     OW 4831   6.957   5.809   0.527
 1311SOL    HW1 4832   6.893   5.848   0.461
 1311SOL    HW2 4833   0.016   5.765   0.478
 1312SOL     OW 4834   1.995   0.732   6.245
 1312SOL    HW1 4835   1.938   0.787   6.184
 1312SOL    HW2 4836   1.945   0.711   6.328
 1313SOL     OW 4837   6.594   5.532   3.140
 1313SOL    HW1 4838   6.570   5.436   3.127
 1313SOL    HW2 4839   6.692   5.540   3.155
 1314SOL     OW 4840   2.853   1.734   4.949
 1314SOL    HW1 4841   2.766   1.708   4.906
 1314SOL    HW2 4842   2.873   1.830   4.929
 1315SOL     OW 4843   6.297   0.979   4.386
 1315SOL    HW1 4844   6.248   1.043   4.446
 1315SOL    HW2 4845   6.296   1.013   4.292
 1316SOL     OW 4846   4.344   0.583   4.723
 1316SOL    HW1 4847   4.335   0.576   4.624
 1316SOL    HW2 4848   4.440   0.596   4.747
 1317SOL     OW 4849   2.416   3.080   5.854
 1317SOL    HW1 4850   2.400   3.164   5.801
 1317SOL    HW2 4851   2.484   3.024   5.807
 1318SOL     OW 4852   1.294   2.933   6.512
 1318SOL    HW1 4853   1.303   3.027   6.546
 1318SOL    HW2 4854   1.320   2.869   6.584
 1319SOL     OW 4855   6.980   6.610   0.797
 1319SOL    HW1 4856   6.925   6.654   0.869
 1319SOL    HW2 4857   6.998   6.677   0.725
 1320SOL     OW 4858   3.251   2.716   5.595
 1320SOL    HW1 4859   3.214   2.682   5.508
 1320SOL    HW2 4860   3.287   2.639   5.648
 1321SOL     OW 4861   5.659   2.397   6.661
 1321SOL    HW1 4862   5.599   2.457   6.608
 1321SOL    HW2 4863   5.718   2.346   6.598
 1322SOL     OW 4864   3.369   1.657   0.437
 1322SOL    HW1 4865   3.276   1.685   0.460
 1322SOL    HW2 4866   3.410   1.724   0.375
 1323SOL     OW 4867   3.771   0.478   6.986
 1323SOL    HW1 4868   3.689   0.535   6.977
 1323SOL    HW2 4869   3.796   0.470   0.066
 1324SOL     OW 4870   1.206   3.616   0.064
 1324SOL    HW1 4871   1.186   3.712   0.047
 1324SOL    HW2 4872   1.279   3.586   0.002
 1325SOL     OW 4873   2.754   4.720   6.406
 1325SOL    HW1 4874   2.824   4.706   6.336
 1325SOL    HW2 4875   2.781   4.674   6.490
 1326SOL     OW 4876   4.907   3.490   4.004
 1326SOL    HW1 4877   4.839   3.559   3.978
 1326SOL    HW2 4878   4.909   3.483   4.104
 1327SOL     OW 4879   6.524   6.373   1.308
 1327SOL    HW1 4880   6.563   6.360   1.399
 1327SOL    HW2 4881   6.503   6.470   1.294
 1328SOL     OW 4882   1.172   3.682   5.641
 1328SOL    HW1 4883   1.260   3.693   5.595
 1328SOL    HW2 4884   1.188   3.655   5.736
 1329SOL     OW 4885   0.489   3.066   3.280
 1329SOL    HW1 4886   0.420   3.103   3.342
 1329SOL    HW2 4887   0.575   3.116   3.292
 1330SOL     OW 4888   6.391   3.151   1.145
 1330SOL    HW1 4889   6.431   3.155   1.053
 1330SOL    HW2 4890   6.331   3.071   1.151
 1331SOL     OW 4891   4.826   1.619   3.117
 1331SOL    HW1 4892   4.822   1.549   3.046
 1331SOL    HW2 4893   4.749   1.682   3.106
 1332SOL     OW 4894   1.569   6.901   0.528
 1332SOL    HW1 4895   1.532   6.924   0.618
 1332SOL    HW2 4896   1.536   6.811   0.500
 1333SOL     OW 4897   3.134   4.053   2.989
 1333SOL    HW1 4898   3.148   4.133   3.047
 1333SOL    HW2 4899   3.219   3.999   2.986
 1334SOL     OW 4900   6.744   2.711   2.201
 1334SOL    HW1 4901   6.668   2.702   2.137
 1334SOL    HW2 4902   6.732   2.647   2.277
 1335SOL     OW 4903   1.552   3.577   2.415
 1335SOL    HW1 4904   1.538   3.601   2.319
 1335SOL    HW2 4905   1.648   3.553   2.430
 1336SOL     OW 4906   3.526   0.202   5.155
 1336SOL    HW1 4907   3.549   0.119   5.104
 1336SOL    HW2 4908   3.536   0.185   5.253
 1337SOL     OW 4909   0.066   1.087   3.842
 1337SOL    HW1 4910   0.033   1.119   3.931
 1337SOL    HW2 4911   0.004   1.018   3.805
 1338SOL     OW 4912   5.831   4.038   4.967
 1338SOL    HW1 4913   5.817   4.112   4.901
 1338SOL    HW2 4914   5.927   4.011   4.967
 1339SOL     OW 4915   0.404   0.542   6.988
 1339SOL    HW1 4916   0.319   0.565   0.020
 1339SOL    HW2 4917   0.459   0.481   0.028
 1340SOL     OW 4918   4.872   1.994   1.998
 1340SOL    HW1 4919   4.841   1.922   1.936
 1340SOL    HW2 4920   4.824   2.079   1.977
 1341SOL     OW 4921   4.767   0.045   6.581
 1341SOL    HW1 4922   4.812   0.013   6.665
 1341SOL    HW2 4923   4.672   0.066   6.601
 1342SOL     OW 4924   2.864   5.999   1.105
 1342SOL    HW1 4925   2.930   6.018   1.033
 1342SOL    HW2 4926   2.781   6.053   1.088
 1343SOL     OW 4927   5.493   5.942   2.782
 1343SOL    HW1 4928   5.438   5.859   2.781
 1343SOL    HW2 4929   5.555   5.941   2.861
 1344SOL     OW 4930   0.199   0.022   4.864
 1344SOL    HW1 4931   0.233   6.946   4.882
 1344SOL    HW2 4932   0.255   0.089   4.912
 1345SOL     OW 4933   0.751   5.722   1.390
 1345SOL    HW1 4934   0.658   5.687   1.394
 1345SOL    HW2 4935   0.812   5.650   1.356
 1346SOL     OW 4936   2.538   5.362   6.201
 1346SOL    HW1 4937   2.477   5.320   6.134
 1346SOL    HW2 4938   2.597   5.292   6.242
 1347SOL     OW 4939   1.440   0.388   6.816
 1347SOL    HW1 4940   1.493   0.446   6.878
 1347SOL    HW2 4941   1.344   0.415   6.820
 1348SOL     OW 4942   0.249   6.138   5.333
 1348SOL    HW1 4943   0.205   6.140   5.243
 1348SOL    HW2 4944   0.324   6.204   5.334
 1349SOL     OW 4945   4.897   3.458   4.283
 1349SOL    HW1 4946   4.851   3.370   4.270
 1349SOL    HW2 4947   4.864   3.500   4.367
 1350SOL     OW 4948   3.014   3.458   0.655
 1350SOL    HW1 4949   2.978   3.444   0.747
 1350SOL    HW2 4950   3.035   3.370   0.613
 1351SOL     OW 4951   6.624   2.444   5.432
 1351SOL    HW1 4952   6.648   2.533   5.394
 1351SOL    HW2 4953   6.699   2.380   5.418
 1352SOL     OW 4954   0.106   0.277   2.484
 1352SOL    HW1 4955   0.052   0.358   2.505
 1352SOL    HW2 4956   0.097   0.254   2.387
 1353SOL     OW 4957   0.629   1.199   1.019
 1353SOL    HW1 4958   0.598   1.288   0.988
 1353SOL    HW2 4959   0.559   1.130   0.998
 1354SOL     OW 4960   5.829   4.627   1.929
 1354SOL    HW1 4961   5.743   4.607   1.975
 1354SOL    HW2 4962   5.828   4.721   1.896
 1355SOL     OW 4963   6.216   3.641   4.917
 1355SOL    HW1 4964   6.287   3.706   4.890
 1355SOL    HW2 4965   6.216   3.632   5.016
 1356SOL     OW 4966   3.820   3.076   1.250
 1356SOL    HW1 4967   3.817   3.037   1.158
 1356SOL    HW2 4968   3.761   3.157   1.254
 1357SOL     OW 4969   6.587   3.512   5.561
 1357SOL    HW1 4970   6.597   3.525   5.660
 1357SOL    HW2 4971   6.490   3.503   5.538
 1358SOL     OW 4972   1.505   6.648   0.078
 1358SOL    HW1 4973   1.455   6.607   0.002
 1358SOL    HW2 4974   1.463   6.735   0.103
 1359SOL     OW 4975   6.508   4.391   1.686
 1359SOL    HW1 4976   6.436   4.457   1.707
 1359SOL    HW2 4977   6.468   4.299   1.679
 1360SOL     OW 4978   2.544   1.987   6.414
 1360SOL    HW1 4979   2.484   2.054   6.458
 1360SOL    HW2 4980   2.631   2.032   6.390
 1361SOL     OW 4981   7.014   5.090   4.358
 1361SOL    HW1 4982   0.066   5.105   4.286
 1361SOL    HW2 4983   6.925   5.072   4.316
 1362SOL     OW 4984   3.235   2.938   2.919
 1362SOL    HW1 4985   3.248   2.910   2.824
 1362SOL    HW2 4986   3.239   3.038   2.925
 1363SOL     OW 4987   0.794   5.952   5.262
 1363SOL    HW1 4988   0.752   5.995   5.343
 1363SOL    HW2 4989   0.808   5.855   5.280
 1364SOL     OW 4990   4.334   3.991   0.828
 1364SOL    HW1 4991   4.322   3.892   0.813
 1364SOL    HW2 4992   4.246   4.037   0.815
 1365SOL     OW 4993   0.617   3.626   0.166
 1365SOL    HW1 4994   0.522   3.619   0.134
 1365SOL    HW2 4995   0.678   3.592   0.095
 1366SOL     OW 4996   2.288   6.843   4.925
 1366SOL    HW1 4997   2.315   6.791   4.844
 1366SOL    HW2 4998   2.304   6.941   4.908
 1367SOL     OW 4999   2.355   0.971   3.003
 1367SOL    HW1 5000   2.307   0.925   2.928
 1367SOL    HW2 5001   2.453   0.969   2.987
 1368SOL     OW 5002   6.046   6.708   4.175
 1368SOL    HW1 5003   6.048   6.694   4.076
 1368SOL    HW2 5004   6.058   6.621   4.222
 1369SOL     OW 5005   0.923   0.754   3.123
 1369SOL    HW1 5006   0.970   0.665   3.118
 1369SOL    HW2 5007   0.913   0.780   3.218
 1370SOL     OW 5008   2.861   0.910   1.764
 1370SOL    HW1 5009   2.800   0.989   1.765
 1370SOL    HW2 5010   2.881   0.885   1.669
 1371SOL     OW 5011   4.011   1.063   6.077
 1371SOL    HW1 5012   4.061   1.051   5.992
 1371SOL    HW2 5013   3.996   0.974   6.120
 1372SOL     OW 5014   3.681   1.828   2.335
 1372SOL    HW1 5015   3.678   1.922   2.304
 1372SOL    HW2 5016   3.712   1.769   2.260
 1373SOL     OW 5017   1.031   6.046   0.761
 1373SOL    HW1 5018   1.018   6.079   0.668
 1373SOL    HW2 5019   1.121   6.073   0.794
 1374SOL     OW 5020   5.054   2.501   0.459
 1374SOL    HW1 5021   5.006   2.431   0.405
 1374SOL    HW2 5022   5.102   2.457   0.535
 1375SOL     OW 5023   0.249   4.439   5.828
 1375SOL    HW1 5024   0.260   4.369   5.899
 1375SOL    HW2 5025   0.237   4.395   5.739
 1376SOL     OW 5026   4.964   1.993   2.614
 1376SOL    HW1 5027   4.892   1.980   2.545
 1376SOL    HW2 5028   5.052   1.964   2.576
 1377SOL     OW 5029   0.388   5.540   4.720
 1377SOL    HW1 5030   0.331   5.464   4.687
 1377SOL    HW2 5031   0.357   5.625   4.678
 1378SOL     OW 5032   1.483   1.802   1.059
 1378SOL    HW1 5033   1.529   1.767   0.978
 1378SOL    HW2 5034   1.395   1.842   1.034
 1379SOL     OW 5035   3.675   6.216   1.776
 1379SOL    HW1 5036   3.681   6.298   1.719
 1379SOL    HW2 5037   3.762   6.168   1.776
 1380SOL     OW 5038   6.174   6.703   2.289
 1380SOL    HW1 5039   6.147   6.617   2.333
 1380SOL    HW2 5040   6.264   6.693   2.247
 1381SOL     OW 5041   6.135   1.574   1.577
 1381SOL    HW1 5042   6.226   1.617   1.571
 1381SOL    HW2 5043   6.093   1.574   1.486
 1382SOL     OW 5044   5.660   5.046   6.403
 1382SOL    HW1 5045   5.645   5.036   6.305
 1382SOL    HW2 5046   5.585   5.099   6.442
 1383SOL     OW 5047   2.608   0.538   0.500
 1383SOL    HW1 5048   2.599   0.554   0.401
 1383SOL    HW2 5049   2.705   0.530   0.523
 1384SOL     OW 5050   3.410   2.051   3.032
 1384SOL    HW1 5051   3.338   2.118   3.049
 1384SOL    HW2 5052   3.425   2.043   2.933
 1385SOL     OW 5053   6.137   2.922   2.599
 1385SOL    HW1 5054   6.173   3.003   2.552
 1385SOL    HW2 5055   6.168   2.839   2.552
 1386SOL     OW 5056   1.973   2.580   4.134
 1386SOL    HW1 5057   2.041   2.652   4.151
 1386SOL    HW2 5058   2.004   2.521   4.060
 1387SOL     OW 5059   2.112   0.556   5.093
 1387SOL    HW1 5060   2.079   0.570   5.186
 1387SOL    HW2 5061   2.062   0.480   5.050
 1388SOL     OW 5062   6.652   1.078   4.590
 1388SOL    HW1 5063   6.722   1.144   4.565
 1388SOL    HW2 5064   6.685   0.985   4.569
 1389SOL     OW 5065   6.844   0.375   4.790
 1389SOL    HW1 5066   6.918   0.328   4.741
 1389SOL    HW2 5067   6.883   0.445   4.849
 1390SOL     OW 5068   4.657   2.626   2.580
 1390SOL    HW1 5069   4.695   2.713   2.608
 1390SOL    HW2 5070   4.707   2.551   2.625
 1391SOL     OW 5071   5.725   0.987   4.695
 1391SOL    HW1 5072   5.659   0.934   4.640
 1391SOL    HW2 5073   5.794   0.925   4.732
 1392SOL     OW 5074   4.416   5.194   6.076
 1392SOL    HW1 5075   4.500   5.148   6.049
 1392SOL    HW2 5076   4.383   5.156   6.162
 1393SOL     OW 5077   6.041   0.594   6.996
 1393SOL    HW1 5078   6.002   0.595   0.072
 1393SOL    HW2 5079   6.044   0.687   6.960
 1394SOL     OW 5080   4.445   6.876   4.096
 1394SOL    HW1 5081   4.534   6.858   4.054
 1394SOL    HW2 5082   4.386   6.796   4.085
 1395SOL     OW 5083   0.801   5.440   2.371
 1395SOL    HW1 5084   0.782   5.465   2.466
 1395SOL    HW2 5085   0.876   5.374   2.368
 1396SOL     OW 5086   1.698   1.809   3.821
 1396SOL    HW1 5087   1.602   1.826   3.798
 1396SOL    HW2 5088   1.756   1.866   3.764
 1397SOL     OW 5089   0.633   5.535   4.619
 1397SOL    HW1 5090   0.552   5.551   4.675
 1397SOL    HW2 5091   0.606   5.525   4.524
 1398SOL     OW 5092   0.666   6.854   0.684
 1398SOL    HW1 5093   0.570   6.824   0.680
 1398SOL    HW2 5094   0.699   6.871   0.592
 1399SOL     OW 5095   3.952   0.244   0.281
 1399SOL    HW1 5096   4.009   0.190   0.219
 1399SOL    HW2 5097   3.888   0.299   0.229
 1400SOL     OW 5098   0.129   0.748   5.026
 1400SOL    HW1 5099   0.135   0.710   5.119
 1400SOL    HW2 5100   0.168   0.840   5.025
 1401SOL     OW 5101   5.559   0.373   3.317
 1401SOL    HW1 5102   5.547   0.329   3.228
 1401SOL    HW2 5103   5.604   0.462   3.303
 1402SOL     OW 5104   6.732   4.666   2.387
 1402SOL    HW1 5105   6.793   4.595   2.423
 1402SOL    HW2 5106   6.702   4.724   2.462
 1403SOL     OW 5107   3.073   3.122   6.587
 1403SOL    HW1 5108   3.047   3.215   6.614
 1403SOL    HW2 5109   3.146   3.089   6.648
 1404SOL     OW 5110   3.782   0.056   0.366
 1404SOL    HW1 5111   3.700   0.054   0.309
 1404SOL    HW2 5112   3.842   0.130   0.337
 1405SOL     OW 5113   0.993   4.057   1.554
 1405SOL    HW1 5114   1.060   4.111   1.502
 1405SOL    HW2 5115   0.916   4.033   1.495
 1406SOL     OW 5116   2.410   3.188   0.845
 1406SOL    HW1 5117   2.436   3.224   0.935
 1406SOL    HW2 5118   2.366   3.099   0.856
 1407SOL     OW 5119   0.092   3.439   1.218
 1407SOL    HW1 5120   0.102   3.391   1.131
 1407SOL    HW2 5121   0.153   3.519   1.219
 1408SOL     OW 5122   5.527   6.925   0.944
 1408SOL    HW1 5123   5.623   6.943   0.924
 1408SOL    HW2 5124   5.517   6.898   1.040
 1409SOL     OW 5125   6.755   1.500   5.684
 1409SOL    HW1 5126   6.658   1.515   5.662
 1409SOL    HW2 5127   6.803   1.588   5.685
 1410SOL     OW 5128   4.143   1.017   5.846
 1410SOL    HW1 5129   4.109   1.015   5.752
 1410SOL    HW2 5130   4.186   0.930   5.868
 1411SOL     OW 5131   3.515   5.363   0.061
 1411SOL    HW1 5132   3.524   5.276   0.014
 1411SOL    HW2 5133   3.602   5.385   0.107
 1412SOL     OW 5134   2.312   3.231   0.251
 1412SOL    HW1 5135   2.359   3.145   0.231
 1412SOL    HW2 5136   2.286   3.276   0.166
 1413SOL     OW 5137   1.325   1.370   4.823
 1413SOL    HW1 5138   1.393   1.382   4.750
 1413SOL    HW2 5139   1.274   1.455   4.835
 1414SOL     OW 5140   0.889   4.389   2.583
 1414SOL    HW1 5141   0.905   4.363   2.678
 1414SOL    HW2 5142   0.917   4.483   2.569
 1415SOL     OW 5143   2.600   1.697   4.816
 1415SOL    HW1 5144   2.626   1.651   4.730
 1415SOL    HW2 5145   2.547   1.779   4.795
 1416SOL     OW 5146   4.553   0.649   4.467
 1416SOL    HW1 5147   4.606   0.686   4.543
 1416SOL    HW2 5148   4.584   0.690   4.382
 1417SOL     OW 5149   3.923   3.436   5.955
 1417SOL    HW1 5150   3.959   3.528   5.944
 1417SOL    HW2 5151   3.823   3.438   5.947
 1418SOL     OW 5152   4.180   4.064   5.767
 1418SOL    HW1 5153   4.117   3.995   5.803
 1418SOL    HW2 5154   4.190   4.138   5.833
 1419SOL     OW 5155   1.737   5.531   2.150
 1419SOL    HW1 5156   1.750   5.493   2.241
 1419SOL    HW2 5157   1.741   5.631   2.155
 1420SOL     OW 5158   2.741   6.895   2.919
 1420SOL    HW1 5159   2.715   6.937   3.006
 1420SOL    HW2 5160   2.828   6.933   2.888
 1421SOL     OW 5161   1.346   4.959   5.780
 1421SOL    HW1 5162   1.290   4.878   5.801
 1421SOL    HW2 5163   1.287   5.033   5.749
 1422SOL     OW 5164   2.262   3.411   6.528
 1422SOL    HW1 5165   2.239   3.448   6.438
 1422SOL    HW2 5166   2.285   3.486   6.590
 1423SOL     OW 5167   4.297   0.307   4.284
 1423SOL    HW1 5168   4.202   0.289   4.261
 1423SOL    HW2 5169   4.356   0.250   4.227
 1424SOL     OW 5170   5.919   2.920   0.256
 1424SOL    HW1 5171   5.912   2.996   0.321
 1424SOL    HW2 5172   6.008   2.876   0.267
 1425SOL     OW 5173   5.439   6.514   3.563
 1425SOL    HW1 5174   5.343   6.495   3.583
 1425SOL    HW2 5175   5.490   6.521   3.649
 1426SOL     OW 5176   3.328   1.973   6.888
 1426SOL    HW1 5177   3.326   1.944   6.792
 1426SOL    HW2 5178   3.297   2.067   6.896
 1427SOL     OW 5179   1.956   6.971   3.514
 1427SOL    HW1 5180   1.877   0.009   3.485
 1427SOL    HW2 5181   1.955   6.882   3.468
 1428SOL     OW 5182   0.593   2.356   3.870
 1428SOL    HW1 5183   0.534   2.409   3.810
 1428SOL    HW2 5184   0.687   2.358   3.837
 1429SOL     OW 5185   6.520   1.010   1.641
 1429SOL    HW1 5186   6.486   0.990   1.734
 1429SOL    HW2 5187   6.449   0.986   1.575
 1430SOL     OW 5188   2.074   3.512   4.218
 1430SOL    HW1 5189   2.076   3.538   4.315
 1430SOL    HW2 5190   2.112   3.420   4.207
 1431SOL     OW 5191   2.793   0.917   6.706
 1431SOL    HW1 5192   2.775   0.894   6.610
 1431SOL    HW2 5193   2.774   0.837   6.763
 1432SOL     OW 5194   3.230   1.025   2.156
 1432SOL    HW1 5195   3.268   1.116   2.137
 1432SOL    HW2 5196   3.229   1.011   2.255
 1433SOL     OW 5197   2.433   0.266   3.901
 1433SOL    HW1 5198   2.477   0.314   3.977
 1433SOL    HW2 5199   2.334   0.272   3.911
 1434SOL     OW 5200   0.069   3.264   0.526
 1434SOL    HW1 5201   0.089   3.299   0.434
 1434SOL    HW2 5202   0.106   3.326   0.594
 1435SOL     OW 5203   1.515   0.198   3.840
 1435SOL    HW1 5204   1.604   0.239   3.860
 1435SOL    HW2 5205   1.473   0.168   3.926
 1436SOL     OW 5206   5.176   1.101   6.874
 1436SOL    HW1 5207   5.187   1.191   6.833
 1436SOL    HW2 5208   5.263   1.071   6.913
 1437SOL     OW 5209   3.966   0.313   6.257
 1437SOL    HW1 5210   4.028   0.392   6.256
 1437SOL    HW2 5211   4.019   0.230   6.238
 1438SOL     OW 5212   2.205   0.676   2.355
 1438SOL    HW1 5213   2.275   0.664   2.284
 1438SOL    HW2 5214   2.203   0.594   2.413
 1439SOL     OW 5215   0.228   4.614   6.895
 1439SOL    HW1 5216   0.321   4.614   6.856
 1439SOL    HW2 5217   0.200   4.519   6.913
 1440SOL     OW 5218   3.354   3.188   3.343
 1440SOL    HW1 5219   3.406   3.135   3.276
 1440SOL    HW2 5220   3.415   3.219   3.416
 1441SOL     OW 5221   6.336   3.453   3.806
 1441SOL    HW1 5222   6.271   3.389   3.766
 1441SOL    HW2 5223   6.287   3.526   3.853
 1442SOL     OW 5224   5.445   6.534   0.000
 1442SOL    HW1 5225   5.376   6.562   6.951
 1442SOL    HW2 5226   5.531   6.516   6.968
 1443SOL     OW 5227   1.002   2.435   3.392
 1443SOL    HW1 5228   1.056   2.508   3.349
 1443SOL    HW2 5229   1.060   2.384   3.455
 1444SOL     OW 5230   5.417   0.863   4.790
 1444SOL    HW1 5231   5.442   0.778   4.838
 1444SOL    HW2 5232   5.458   0.863   4.699
 1445SOL     OW 5233   6.118   2.519   0.949
 1445SOL    HW1 5234   6.025   2.541   0.921
 1445SOL    HW2 5235   6.127   2.531   1.048
 1446SOL     OW 5236   4.551   0.387   0.972
 1446SOL    HW1 5237   4.528   0.306   1.026
 1446SOL    HW2 5238   4.577   0.462   1.034
 1447SOL     OW 5239   5.607   1.353   5.465
 1447SOL    HW1 5240   5.582   1.358   5.562
 1447SOL    HW2 5241   5.693   1.303   5.456
 1448SOL     OW 5242   5.522   0.352   6.793
 1448SOL    HW1 5243   5.497   0.257   6.811
 1448SOL    HW2 5244   5.542   0.399   6.879
 1449SOL     OW 5245   4.650   5.384   0.841
 1449SOL    HW1 5246   4.678   5.475   0.873
 1449SOL    HW2 5247   4.575   5.393   0.775
 1450SOL     OW 5248   5.565   2.108   3.806
 1450SOL    HW1 5249   5.571   2.204   3.832
 1450SOL    HW2 5250   5.475   2.089   3.767
 1451SOL     OW 5251   1.377   6.790   2.487
 1451SOL    HW1 5252   1.418   6.860   2.430
 1451SOL    HW2 5253   1.418   6.701   2.466
 1452SOL     OW 5254   4.758   0.718   5.097
 1452SOL    HW1 5255   4.799   0.708   5.188
 1452SOL    HW2 5256   4.806   0.791   5.047
 1453SOL     OW 5257   4.684   4.437   4.694
 1453SOL    HW1 5258   4.739   4.391   4.764
 1453SOL    HW2 5259   4.744   4.493   4.636
 1454SOL     OW 5260   4.622   3.994   1.452
 1454SOL    HW1 5261   4.660   3.948   1.372
 1454SOL    HW2 5262   4.562   4.068   1.422
 1455SOL     OW 5263   2.008   2.342   1.488
 1455SOL    HW1 5264   2.032   2.246   1.482
 1455SOL    HW2 5265   2.089   2.399   1.473
 1456SOL     OW 5266   6.936   5.457   3.993
 1456SOL    HW1 5267   6.978   5.537   4.037
 1456SOL    HW2 5268   6.884   5.488   3.912
 1457SOL     OW 5269   2.078   6.779   3.092
 1457SOL    HW1 5270   2.159   6.777   3.152
 1457SOL    HW2 5271   2.018   6.853   3.120
 1458SOL     OW 5272   6.489   5.410   7.013
 1458SOL    HW1 5273   6.473   5.433   0.093
 1458SOL    HW2 5274   6.480   5.311   7.001
 1459SOL     OW 5275   2.842   7.009   0.642
 1459SOL    HW1 5276   2.864   0.048   0.723
 1459SOL    HW2 5277   2.757   0.027   0.601
 1460SOL     OW 5278   0.601   6.328   0.097
 1460SOL    HW1 5279   0.578   6.250   0.156
 1460SOL    HW2 5280   0.643   6.400   0.152
 1461SOL     OW 5281   4.560   4.798   1.191
 1461SOL    HW1 5282   4.570   4.837   1.100
 1461SOL    HW2 5283   4.505   4.859   1.248
 1462SOL     OW 5284   5.393   0.171   5.787
 1462SOL    HW1 5285   5.303   0.165   5.744
 1462SOL    HW2 5286   5.382   0.193   5.884
 1463SOL     OW 5287   0.524   0.760   5.106
 1463SOL    HW1 5288   0.523   0.661   5.115
 1463SOL    HW2 5289   0.495   0.786   5.014
 1464SOL     OW 5290   6.790   6.867   1.440
 1464SOL    HW1 5291   6.853   6.945   1.444
 1464SOL    HW2 5292   6.730   6.868   1.521
 1465SOL     OW 5293   0.635   6.909   5.014
 1465SOL    HW1 5294   0.663   6.861   4.931
 1465SOL    HW2 5295   0.565   6.856   5.061
 1466SOL     OW 5296   5.271   5.366   4.377
 1466SOL    HW1 5297   5.309   5.450   4.414
 1466SOL    HW2 5298   5.340   5.318   4.324
 1467SOL     OW 5299   6.454   3.847   2.579
 1467SOL    HW1 5300   6.480   3.799   2.663
 1467SOL    HW2 5301   6.460   3.946   2.595
 1468SOL     OW 5302   5.376   6.305   2.713
 1468SOL    HW1 5303   5.427   6.224   2.683
 1468SOL    HW2 5304   5.418   6.387   2.674
 1469SOL     OW 5305   0.382   0.705   2.869
 1469SOL    HW1 5306   0.466   0.731   2.916
 1469SOL    HW2 5307   0.304   0.721   2.929
 1470SOL     OW 5308   0.011   1.021   3.327
 1470SOL    HW1 5309   0.105   1.001   3.356
 1470SOL    HW2 5310   6.996   1.105   3.371
 1471SOL     OW 5311   6.448   0.630   0.353
 1471SOL    HW1 5312   6.460   0.728   0.364
 1471SOL    HW2 5313   6.427   0.588   0.442
 1472SOL     OW 5314   4.606   6.308   5.138
 1472SOL    HW1 5315   4.619   6.214   5.107
 1472SOL    HW2 5316   4.571   6.308   5.232
 1473SOL     OW 5317   6.020   4.664   4.110
 1473SOL    HW1 5318   6.077   4.694   4.187
 1473SOL    HW2 5319   5.927   4.699   4.122
 1474SOL     OW 5320   4.957   4.942   3.624
 1474SOL    HW1 5321   5.028   4.970   3.560
 1474SOL    HW2 5322   4.903   5.022   3.652
 1475SOL     OW 5323   6.769   0.761   3.120
 1475SOL    HW1 5324   6.806   0.794   3.207
 1475SOL    HW2 5325   6.748   0.840   3.062
 1476SOL     OW 5326   6.345   2.340   1.027
 1476SOL    HW1 5327   6.383   2.432   1.032
 1476SOL    HW2 5328   6.278   2.327   1.099
 1477SOL     OW 5329   2.972   6.553   2.894
 1477SOL    HW1 5330   3.027   6.614   2.951
 1477SOL    HW2 5331   2.914   6.607   2.833
 1478SOL     OW 5332   6.845   4.675   1.913
 1478SOL    HW1 5333   6.813   4.766   1.886
 1478SOL    HW2 5334   6.789   4.605   1.869
 1479SOL     OW 5335   1.325   5.813   0.565
 1479SOL    HW1 5336   1.291   5.800   0.658
 1479SOL    HW2 5337   1.314   5.728   0.514
 1480SOL     OW 5338   2.690   0.894   0.031
 1480SOL    HW1 5339   2.733   0.860   6.964
 1480SOL    HW2 5340   2.591   0.899   0.018
 1481SOL     OW 5341   6.814   2.519   6.080
 1481SOL    HW1 5342   6.891   2.583   6.084
 1481SOL    HW2 5343   6.728   2.569   6.090
 1482SOL     OW 5344   6.066   0.706   6.652
 1482SOL    HW1 5345   5.998   0.678   6.720
 1482SOL    HW2 5346   6.098   0.798   6.673
 1483SOL     OW 5347   6.218   2.865   6.388
 1483SOL    HW1 5348   6.220   2.964   6.406
 1483SOL    HW2 5349   6.249   2.848   6.294
 1484SOL     OW 5350   6.383   6.558   2.561
 1484SOL    HW1 5351   6.341   6.524   2.645
 1484SOL    HW2 5352   6.316   6.557   2.487
 1485SOL     OW 5353   5.754   2.915   4.121
 1485SOL    HW1 5354   5.795   2.885   4.207
 1485SOL    HW2 5355   5.673   2.970   4.140
 1486SOL     OW 5356   4.793   1.889   2.406
 1486SOL    HW1 5357   4.713   1.911   2.349
 1486SOL    HW2 5358   4.779   1.801   2.451
 1487SOL     OW 5359   6.346   1.331   5.579
 1487SOL    HW1 5360   6.311   1.352   5.670
 1487SOL    HW2 5361   6.304   1.247   5.545
 1488SOL     OW 5362   4.053   1.792   2.796
 1488SOL    HW1 5363   3.999   1.709   2.786
 1488SOL    HW2 5364   4.058   1.840   2.708
 1489SOL     OW 5365   3.721   4.976   4.560
 1489SOL    HW1 5366   3.795   5.009   4.617
 1489SOL    HW2 5367   3.755   4.958   4.467
 1490SOL     OW 5368   2.182   2.488   0.603
 1490SOL    HW1 5369   2.191   2.586   0.585
 1490SOL    HW2 5370   2.246   2.437   0.545
 1491SOL     OW 5371   0.041   2.452   5.542
 1491SOL    HW1 5372   0.125   2.442   5.597
 1491SOL    HW2 5373   7.007   2.532   5.573
 1492SOL     OW 5374   5.589   2.852   2.416
 1492SOL    HW1 5375   5.672   2.797   2.406
 1492SOL    HW2 5376   5.522   2.823   2.348
 1493SOL     OW 5377   5.499   0.607   4.870
 1493SOL    HW1 5378   5.423   0.558   4.827
 1493SOL    HW2 5379   5.481   0.619   4.967
 1494SOL     OW 5380   5.340   2.639   4.584
 1494SOL    HW1 5381   5.266   2.660   4.647
 1494SOL    HW2 5382   5.341   2.707   4.510
 1495SOL     OW 5383   2.081   2.739   2.562
 1495SOL    HW1 5384   2.112   2.755   2.468
 1495SOL    HW2 5385   2.142   2.787   2.625
 1496SOL     OW 5386   0.676   1.269   3.250
 1496SOL    HW1 5387   0.652   1.366   3.246
 1496SOL    HW2 5388   0.775   1.259   3.243
 1497SOL     OW 5389   5.054   4.773   5.611
 1497SOL    HW1 5390   5.124   4.702   5.602
 1497SOL    HW2 5391   5.096   4.862   5.592
 1498SOL     OW 5392   2.019   5.597   0.226
 1498SOL    HW1 5393   2.074   5.606   0.144
 1498SOL    HW2 5394   2.079   5.597   0.307
 1499SOL     OW 5395   0.543   4.917   5.115
 1499SOL    HW1 5396   0.493   4.845   5.067
 1499SOL    HW2 5397   0.641   4.895   5.115
 1500SOL     OW 5398   4.347   6.727   5.263
 1500SOL    HW1 5399   4.365   6.817   5.303
 1500SOL    HW2 5400   4.416   6.662   5.296
 1501SOL     OW 5401   4.393   0.194   6.356
 1501SOL    HW1 5402   4.435   0.284   6.352
 1501SOL    HW2 5403   4.337   0.187   6.438
 1502SOL     OW 5404   6.462   6.440   0.184
 1502SOL    HW1 5405   6.532   6.377   0.152
 1502SOL    HW2 5406   6.430   6.413   0.274
 1503SOL     OW 5407   3.271   3.787   5.572
 1503SOL    HW1 5408   3.217   3.703   5.570
 1503SOL    HW2 5409   3.228   3.855   5.513
 1504SOL     OW 5410   2.478   6.206   4.377
 1504SOL    HW1 5411   2.495   6.108   4.385
 1504SOL    HW2 5412   2.443   6.226   4.286
 1505SOL     OW 5413   4.795   5.321   1.342
 1505SOL    HW1 5414   4.859   5.398   1.338
 1505SOL    HW2 5415   4.764   5.299   1.249
 1506SOL     OW 5416   0.451   6.550   2.816
 1506SOL    HW1 5417   0.399   6.466   2.800
 1506SOL    HW2 5418   0.391   6.619   2.856
 1507SOL     OW 5419   2.234   1.216   5.966
 1507SOL    HW1 5420   2.290   1.140   5.933
 1507SOL    HW2 5421   2.281   1.261   6.042
 1508SOL     OW 5422   4.639   0.138   0.495
 1508SOL    HW1 5423   4.620   0.221   0.444
 1508SOL    HW2 5424   4.645   0.060   0.432
 1509SOL     OW 5425   5.129   1.651   0.481
 1509SOL    HW1 5426   5.111   1.749   0.492
 1509SOL    HW2 5427   5.103   1.604   0.565
 1510SOL     OW 5428   0.155   1.443   4.021
 1510SOL    HW1 5429   0.230   1.467   4.082
 1510SOL    HW2 5430   0.170   1.487   3.932
 1511SOL     OW 5431   1.970   2.027   0.755
 1511SOL    HW1 5432   1.954   2.101   0.820
 1511SOL    HW2 5433   2.043   2.054   0.692
 1512SOL     OW 5434   6.135   0.436   2.682
 1512SOL    HW1 5435   6.091   0.355   2.643
 1512SOL    HW2 5436   6.130   0.512   2.617
 1513SOL     OW 5437   4.024   1.131   2.353
 1513SOL    HW1 5438   4.026   1.222   2.312
 1513SOL    HW2 5439   4.070   1.133   2.441
 1514SOL     OW 5440   5.097   1.747   5.382
 1514SOL    HW1 5441   5.028   1.693   5.334
 1514SOL    HW2 5442   5.077   1.845   5.371
 1515SOL     OW 5443   6.290   4.588   5.108
 1515SOL    HW1 5444   6.304   4.619   5.202
 1515SOL    HW2 5445   6.332   4.653   5.045
 1516SOL     OW 5446   0.913   1.510   1.174
 1516SOL    HW1 5447   0.958   1.424   1.197
 1516SOL    HW2 5448   0.835   1.524   1.234
 1517SOL     OW 5449   3.512   5.236   3.229
 1517SOL    HW1 5450   3.606   5.271   3.233
 1517SOL    HW2 5451   3.504   5.155   3.288
 1518SOL     OW 5452   0.748   4.825   1.389
 1518SOL    HW1 5453   0.665   4.775   1.412
 1518SOL    HW2 5454   0.774   4.885   1.465
 1519SOL     OW 5455   6.666   4.861   0.907
 1519SOL    HW1 5456   6.676   4.802   0.827
 1519SOL    HW2 5457   6.721   4.943   0.894
 1520SOL     OW 5458   1.309   2.949   3.421
 1520SOL    HW1 5459   1.406   2.960   3.440
 1520SOL    HW2 5460   1.291   2.967   3.324
 1521SOL     OW 5461   2.432   4.203   5.806
 1521SOL    HW1 5462   2.429   4.292   5.852
 1521SOL    HW2 5463   2.355   4.147   5.837
 1522SOL     OW 5464   6.934   2.355   6.689
 1522SOL    HW1 5465   6.846   2.325   6.652
 1522SOL    HW2 5466   6.983   2.276   6.728
 1523SOL     OW 5467   6.635   1.442   0.938
 1523SOL    HW1 5468   6.539   1.464   0.922
 1523SOL    HW2 5469   6.673   1.504   1.006
 1524SOL     OW 5470   6.573   0.993   2.757
 1524SOL    HW1 5471   6.478   0.968   2.773
 1524SOL    HW2 5472   6.616   0.923   2.699
 1525SOL     OW 5473   4.259   1.494   6.034
 1525SOL    HW1 5474   4.165   1.525   6.038
 1525SOL    HW2 5475   4.262   1.403   5.992
 1526SOL     OW 5476   0.017   2.078   1.041
 1526SOL    HW1 5477   0.015   2.005   0.972
 1526SOL    HW2 5478   0.078   2.052   1.115
 1527SOL     OW 5479   3.042   1.812   5.633
 1527SOL    HW1 5480   2.994   1.764   5.707
 1527SOL    HW2 5481   3.011   1.907   5.630
 1528SOL     OW 5482   4.927   6.195   3.454
 1528SOL    HW1 5483   4.974   6.190   3.542
 1528SOL    HW2 5484   4.934   6.107   3.407
 1529SOL     OW 5485   2.992   0.563   5.598
 1529SOL    HW1 5486   3.078   0.581   5.549
 1529SOL    HW2 5487   2.985   0.466   5.619
 1530SOL     OW 5488   3.653   0.039   2.151
 1530SOL    HW1 5489   3.586   0.093   2.201
 1530SOL    HW2 5490   3.675   6.972   2.202
 1531SOL     OW 5491   6.817   0.224   5.119
 1531SOL    HW1 5492   6.768   0.173   5.190
 1531SOL    HW2 5493   6.839   0.315   5.152
 1532SOL     OW 5494   3.041   2.037   5.107
 1532SOL    HW1 5495   3.071   2.126   5.073
 1532SOL    HW2 5496   3.109   1.968   5.083
 1533SOL     OW 5497   5.727   3.113   6.964
 1533SOL    HW1 5498   5.771   3.196   6.931
 1533SOL    HW2 5499   5.770   3.033   6.921
 1534SOL     OW 5500   0.414   6.547   1.348
 1534SOL    HW1 5501   0.500   6.598   1.345
 1534SOL    HW2 5502   0.384   6.539   1.444
 1535SOL     OW 5503   4.932   5.365   4.393
 1535SOL    HW1 5504   4.879   5.449   4.381
 1535SOL    HW2 5505   5.027   5.387   4.415
 1536SOL     OW 5506   2.927   5.431   3.461
 1536SOL    HW1 5507   2.864   5.475   3.526
 1536SOL    HW2 5508   2.922   5.332   3.471
 1537SOL     OW 5509   2.794   5.184   4.510
 1537SOL    HW1 5510   2.814   5.087   4.519
 1537SOL    HW2 5511   2.715   5.207   4.566
 1538SOL     OW 5512   2.268   5.118   6.707
 1538SOL    HW1 5513   2.231   5.182   6.640
 1538SOL    HW2 5514   2.326   5.051   6.660
 1539SOL     OW 5515   3.194   4.807   1.685
 1539SOL    HW1 5516   3.261   4.735   1.670
 1539SOL    HW2 5517   3.103   4.766   1.695
 1540SOL     OW 5518   0.265   6.892   5.153
 1540SOL    HW1 5519   0.250   6.837   5.070
 1540SOL    HW2 5520   0.177   6.903   5.200
 1541SOL     OW 5521   5.248   2.210   1.183
 1541SOL    HW1 5522   5.263   2.280   1.253
 1541SOL    HW2 5523   5.198   2.133   1.223
 1542SOL     OW 5524   0.865   6.457   1.056
 1542SOL    HW1 5525   0.872   6.415   0.965
 1542SOL    HW2 5526   0.776   6.500   1.066
 1543SOL     OW 5527   3.122   4.038   4.196
 1543SOL    HW1 5528   3.087   4.049   4.103
 1543SOL    HW2 5529   3.186   4.112   4.217
 1544SOL     OW 5530   3.829   3.955   3.041
 1544SOL    HW1 5531   3.864   3.966   3.134
 1544SOL    HW2 5532   3.904   3.935   2.979
 1545SOL     OW 5533   6.453   0.913   5.027
 1545SOL    HW1 5534   6.392   0.976   5.073
 1545SOL    HW2 5535   6.434   0.914   4.928
 1546SOL     OW 5536   0.060   6.383   5.969
 1546SOL    HW1 5537   0.024   6.472   5.942
 1546SOL    HW2 5538   0.025   6.359   6.060
 1547SOL     OW 5539   4.101   5.910   6.842
 1547SOL    HW1 5540   4.010   5.934   6.809
 1547SOL    HW2 5541   4.116   5.812   6.828
 1548SOL     OW 5542   6.317   4.512   4.076
 1548SOL    HW1 5543   6.313   4.513   3.976
 1548SOL    HW2 5544   6.255   4.581   4.113
 1549SOL     OW 5545   6.380   1.748   1.568
 1549SOL    HW1 5546   6.404   1.790   1.481
 1549SOL    HW2 5547   6.463   1.737   1.624
 1550SOL     OW 5548   2.646   5.964   3.805
 1550SOL    HW1 5549   2.670   5.917   3.891
 1550SOL    HW2 5550   2.642   5.897   3.731
 1551SOL     OW 5551   1.249   2.834   1.165
 1551SOL    HW1 5552   1.257   2.804   1.070
 1551SOL    HW2 5553   1.303   2.917   1.178
 1552SOL     OW 5554   0.709   0.225   0.438
 1552SOL    HW1 5555   0.804   0.223   0.407
 1552SOL    HW2 5556   0.650   0.192   0.365
 1553SOL     OW 5557   5.731   1.789   6.525
 1553SOL    HW1 5558   5.714   1.842   6.442
 1553SOL    HW2 5559   5.684   1.701   6.519
 1554SOL     OW 5560   3.321   1.348   0.824
 1554SOL    HW1 5561   3.307   1.325   0.920
 1554SOL    HW2 5562   3.240   1.396   0.789
 1555SOL     OW 5563   4.555   0.912   6.028
 1555SOL    HW1 5564   4.608   0.919   5.943
 1555SOL    HW2 5565   4.526   0.818   6.042
 1556SOL     OW 5566   3.515   1.846   0.300
 1556SOL    HW1 5567   3.513   1.937   0.340
 1556SOL    HW2 5568   3.502   1.853   0.201
 1557SOL     OW 5569   1.715   2.661   0.393
 1557SOL    HW1 5570   1.756   2.654   0.484
 1557SOL    HW2 5571   1.787   2.664   0.324
 1558SOL     OW 5572   5.478   2.791   6.617
 1558SOL    HW1 5573   5.394   2.755   6.577
 1558SOL    HW2 5574   5.508   2.872   6.565
 1559SOL     OW 5575   2.205   5.190   3.883
 1559SOL    HW1 5576   2.240   5.250   3.955
 1559SOL    HW2 5577   2.270   5.187   3.807
 1560SOL     OW 5578   3.658   1.815   0.950
 1560SOL    HW1 5579   3.675   1.729   0.998
 1560SOL    HW2 5580   3.605   1.797   0.867
 1561SOL     OW 5581   6.284   5.766   0.802
 1561SOL    HW1 5582   6.349   5.817   0.746
 1561SOL    HW2 5583   6.193   5.805   0.792
 1562SOL     OW 5584   3.914   6.954   2.405
 1562SOL    HW1 5585   3.927   0.030   2.442
 1562SOL    HW2 5586   3.972   6.941   2.325
 1563SOL     OW 5587   3.210   2.131   4.204
 1563SOL    HW1 5588   3.179   2.079   4.284
 1563SOL    HW2 5589   3.279   2.198   4.233
 1564SOL     OW 5590   0.994   1.669   3.440
 1564SOL    HW1 5591   1.074   1.719   3.405
 1564SOL    HW2 5592   1.022   1.579   3.471
 1565SOL     OW 5593   4.068   1.285   4.603
 1565SOL    HW1 5594   4.153   1.301   4.653
 1565SOL    HW2 5595   4.019   1.372   4.591
 1566SOL     OW 5596   5.011   4.729   3.797
 1566SOL    HW1 5597   4.992   4.808   3.740
 1566SOL    HW2 5598   5.097   4.743   3.846
 1567SOL     OW 5599   5.680   0.584   4.608
 1567SOL    HW1 5600   5.628   0.539   4.535
 1567SOL    HW2 5601   5.641   0.559   4.697
 1568SOL     OW 5602   2.836   4.955   1.568
 1568SOL    HW1 5603   2.779   4.920   1.642
 1568SOL    HW2 5604   2.864   5.049   1.587
 1569SOL     OW 5605   3.242   0.861   2.810
 1569SOL    HW1 5606   3.334   0.901   2.801
 1569SOL    HW2 5607   3.233   0.819   2.900
 1570SOL     OW 5608   3.049   5.914   6.311
 1570SOL    HW1 5609   3.023   5.911   6.407
 1570SOL    HW2 5610   3.006   5.838   6.262
 1571SOL     OW 5611   0.443   2.323   4.348
 1571SOL    HW1 5612   0.509   2.256   4.382
 1571SOL    HW2 5613   0.485   2.377   4.275
 1572SOL     OW 5614   2.342   5.401   2.269
 1572SOL    HW1 5615   2.269   5.451   2.222
 1572SOL    HW2 5616   2.382   5.461   2.339
 1573SOL     OW 5617   5.929   6.395   0.398
 1573SOL    HW1 5618   6.000   6.376   0.330
 1573SOL    HW2 5619   5.890   6.309   0.430
 1574SOL     OW 5620   6.560   4.078   3.443
 1574SOL    HW1 5621   6.622   4.001   3.428
 1574SOL    HW2 5622   6.492   4.080   3.369
 1575SOL     OW 5623   6.573   1.523   0.117
 1575SOL    HW1 5624   6.570   1.426   0.092
 1575SOL    HW2 5625   6.661   1.562   0.088
 1576SOL     OW 5626   1.075   0.294   1.669
 1576SOL    HW1 5627   1.144   0.289   1.741
 1576SOL    HW2 5628   1.119   0.284   1.580
 1577SOL     OW 5629   3.987   5.562   5.312
 1577SOL    HW1 5630   4.085   5.572   5.324
 1577SOL    HW2 5631   3.946   5.651   5.291
 1578SOL     OW 5632   4.727   1.297   1.099
 1578SOL    HW1 5633   4.815   1.305   1.147
 1578SOL    HW2 5634   4.709   1.382   1.049
 1579SOL     OW 5635   1.976   2.356   1.200
 1579SOL    HW1 5636   2.062   2.406   1.212
 1579SOL    HW2 5637   1.933   2.342   1.289
 1580SOL     OW 5638   3.262   3.591   2.551
 1580SOL    HW1 5639   3.353   3.633   2.551
 1580SOL    HW2 5640   3.227   3.588   2.457
 1581SOL     OW 5641   6.287   4.601   5.796
 1581SOL    HW1 5642   6.360   4.670   5.801
 1581SOL    HW2 5643   6.328   4.511   5.784
 1582SOL     OW 5644   4.517   6.365   5.428
 1582SOL    HW1 5645   4.564   6.378   5.516
 1582SOL    HW2 5646   4.420   6.387   5.439
 1583SOL     OW 5647   1.041   5.019   4.956
 1583SOL    HW1 5648   1.137   5.036   4.977
 1583SOL    HW2 5649   0.991   5.106   4.956
 1584SOL     OW 5650   0.344   4.603   0.258
 1584SOL    HW1 5651   0.282   4.555   0.196
 1584SOL    HW2 5652   0.370   4.691   0.217
 1585SOL     OW 5653   3.589   6.423   3.227
 1585SOL    HW1 5654   3.611   6.473   3.311
 1585SOL    HW2 5655   3.522   6.352   3.248
 1586SOL     OW 5656   3.525   5.621   3.718
 1586SOL    HW1 5657   3.495   5.600   3.625
 1586SOL    HW2 5658   3.445   5.621   3.779
 1587SOL     OW 5659   2.646   5.987   6.656
 1587SOL    HW1 5660   2.555   5.996   6.696
 1587SOL    HW2 5661   2.656   5.897   6.615
 1588SOL     OW 5662   6.483   1.602   3.293
 1588SOL    HW1 5663   6.503   1.675   3.358
 1588SOL    HW2 5664   6.386   1.604   3.270
 1589SOL     OW 5665   6.034   4.655   4.522
 1589SOL    HW1 5666   6.090   4.616   4.448
 1589SOL    HW2 5667   6.093   4.678   4.600
 1590SOL     OW 5668   6.483   2.719   3.685
 1590SOL    HW1 5669   6.488   2.766   3.597
 1590SOL    HW2 5670   6.479   2.786   3.759
 1591SOL     OW 5671   1.411   6.474   1.592
 1591SOL    HW1 5672   1.463   6.415   1.530
 1591SOL    HW2 5673   1.364   6.545   1.540
 1592SOL     OW 5674   0.224   4.248   6.000
 1592SOL    HW1 5675   0.142   4.218   5.950
 1592SOL    HW2 5676   0.213   4.225   6.096
 1593SOL     OW 5677   3.451   0.268   6.805
 1593SOL    HW1 5678   3.521   0.314   6.751
 1593SOL    HW2 5679   3.448   0.171   6.780
 1594SOL     OW 5680   6.102   0.032   2.889
 1594SOL    HW1 5681   6.004   0.017   2.902
 1594SOL    HW2 5682   6.116   0.103   2.820
 1595SOL     OW 5683   0.463   4.060   0.324
 1595SOL    HW1 5684   0.396   3.987   0.328
 1595SOL    HW2 5685   0.479   4.096   0.416
 1596SOL     OW 5686   4.483   4.853   2.898
 1596SOL    HW1 5687   4.528   4.887   2.816
 1596SOL    HW2 5688   4.394   4.814   2.875
 1597SOL     OW 5689   3.834   6.058   6.805
 1597SOL    HW1 5690   3.825   6.005   6.720
 1597SOL    HW2 5691   3.832   6.156   6.783
 1598SOL     OW 5692   1.448   4.821   0.289
 1598SOL    HW1 5693   1.396   4.746   0.330
 1598SOL    HW2 5694   1.441   4.816   0.189
 1599SOL     OW 5695   4.599   5.480   3.434
 1599SOL    HW1 5696   4.520   5.481   3.372
 1599SOL    HW2 5697   4.567   5.476   3.529
 1600SOL     OW 5698   4.201   6.916   1.995
 1600SOL    HW1 5699   4.133   6.932   1.923
 1600SOL    HW2 5700   4.154   6.909   2.083
 1601SOL     OW 5701   6.881   6.886   4.653
 1601SOL    HW1 5702   6.860   6.967   4.708
 1601SOL    HW2 5703   6.878   6.909   4.556
 1602SOL     OW 5704   3.771   5.627   3.808
 1602SOL    HW1 5705   3.782   5.625   3.907
 1602SOL    HW2 5706   3.674   5.636   3.785
 1603SOL     OW 5707   3.449   5.434   2.805
 1603SOL    HW1 5708   3.408   5.400   2.720
 1603SOL    HW2 5709   3.509   5.364   2.844
 1604SOL     OW 5710   4.160   5.457   1.939
 1604SOL    HW1 5711   4.093   5.421   2.004
 1604SOL    HW2 5712   4.214   5.529   1.984
 1605SOL     OW 5713   4.700   5.679   0.920
 1605SOL    HW1 5714   4.723   5.702   0.825
 1605SOL    HW2 5715   4.618   5.728   0.947
 1606SOL     OW 5716   3.431   5.925   4.949
 1606SOL    HW1 5717   3.423   5.828   4.927
 1606SOL    HW2 5718   3.491   5.969   4.882
 1607SOL     OW 5719   4.567   5.690   2.938
 1607SOL    HW1 5720   4.640   5.654   2.879
 1607SOL    HW2 5721   4.608   5.741   3.013
 1608SOL     OW 5722   5.197   1.121   3.220
 1608SOL    HW1 5723   5.164   1.189   3.286
 1608SOL    HW2 5724   5.278   1.156   3.173
 1609SOL     OW 5725   2.435   6.677   1.010
 1609SOL    HW1 5726   2.377   6.706   0.934
 1609SOL    HW2 5727   2.505   6.614   0.977
 1610SOL     OW 5728   5.390   0.484   0.531
 1610SOL    HW1 5729   5.481   0.470   0.495
 1610SOL    HW2 5730   5.325   0.423   0.486
 1611SOL     OW 5731   1.481   4.068   1.335
 1611SOL    HW1 5732   1.515   4.110   1.418
 1611SOL    HW2 5733   1.383   4.086   1.326
 1612SOL     OW 5734   3.569   0.321   1.846
 1612SOL    HW1 5735   3.500   0.380   1.887
 1612SOL    HW2 5736   3.657   0.335   1.892
 1613SOL     OW 5737   6.644   5.415   2.506
 1613SOL    HW1 5738   6.597   5.454   2.585
 1613SOL    HW2 5739   6.657   5.317   2.519
 1614SOL     OW 5740   6.430   1.626   6.476
 1614SOL    HW1 5741   6.383   1.658   6.557
 1614SOL    HW2 5742   6.485   1.700   6.437
 1615SOL     OW 5743   1.018   4.600   6.496
 1615SOL    HW1 5744   1.004   4.658   6.415
 1615SOL    HW2 5745   1.072   4.650   6.563
 1616SOL     OW 5746   1.997   1.470   4.769
 1616SOL    HW1 5747   2.092   1.489   4.794
 1616SOL    HW2 5748   1.995   1.407   4.691
 1617SOL     OW 5749   5.949   6.146   3.090
 1617SOL    HW1 5750   5.978   6.153   3.185
 1617SOL    HW2 5751   5.935   6.238   3.053
 1618SOL     OW 5752   3.048   5.451   2.912
 1618SOL    HW1 5753   3.000   5.421   2.995
 1618SOL    HW2 5754   3.133   5.497   2.938
 1619SOL     OW 5755   1.145   4.215   6.768
 1619SOL    HW1 5756   1.202   4.268   6.831
 1619SOL    HW2 5757   1.204   4.167   6.703
 1620SOL     OW 5758   3.537   5.149   6.283
 1620SOL    HW1 5759   3.439   5.133   6.278
 1620SOL    HW2 5760   3.554   5.234   6.335
 1621SOL     OW 5761   5.135   5.916   1.214
 1621SOL    HW1 5762   5.155   5.846   1.145
 1621SOL    HW2 5763   5.066   5.979   1.179
 1622SOL     OW 5764   0.157   5.182   4.154
 1622SOL    HW1 5765   0.251   5.152   4.138
 1622SOL    HW2 5766   0.104   5.169   4.070
 1623SOL     OW 5767   0.705   2.108   4.048
 1623SOL    HW1 5768   0.679   2.017   4.015
 1623SOL    HW2 5769   0.642   2.176   4.011
 1624SOL     OW 5770   4.158   1.802   0.737
 1624SOL    HW1 5771   4.073   1.832   0.778
 1624SOL    HW2 5772   4.228   1.873   0.747
 1625SOL     OW 5773   0.834   5.820   0.801
 1625SOL    HW1 5774   0.756   5.816   0.864
 1625SOL    HW2 5775   0.809   5.875   0.722
 1626SOL     OW 5776   2.902   2.235   1.353
 1626SOL    HW1 5777   2.826   2.270   1.408
 1626SOL    HW2 5778   2.977   2.207   1.413
 1627SOL     OW 5779   4.219   1.746   5.151
 1627SOL    HW1 5780   4.148   1.789   5.095
 1627SOL    HW2 5781   4.252   1.663   5.105
 1628SOL     OW 5782   5.753   6.954   0.298
 1628SOL    HW1 5783   5.729   7.013   0.220
 1628SOL    HW2 5784   5.716   6.863   0.283
 1629SOL     OW 5785   2.030   0.191   3.703
 1629SOL    HW1 5786   1.986   0.111   3.744
 1629SOL    HW2 5787   1.972   0.228   3.631
 1630SOL     OW 5788   0.213   3.844   6.901
 1630SOL    HW1 5789   0.311   3.852   6.883
 1630SOL    HW2 5790   0.189   3.900   6.980
 1631SOL     OW 5791   0.058   3.438   0.065
 1631SOL    HW1 5792   0.001   3.489   0.002
 1631SOL    HW2 5793   0.126   3.385   0.014
 1632SOL     OW 5794   6.610   5.126   2.551
 1632SOL    HW1 5795   6.511   5.133   2.563
 1632SOL    HW2 5796   6.655   5.128   2.640
 1633SOL     OW 5797   5.482   3.584   4.233
 1633SOL    HW1 5798   5.570   3.606   4.274
 1633SOL    HW2 5799   5.431   3.522   4.294
 1634SOL     OW 5800   6.381   1.436   4.636
 1634SOL    HW1 5801   6.413   1.367   4.701
 1634SOL    HW2 5802   6.455   1.460   4.573
 1635SOL     OW 5803   3.836   6.318   3.109
 1635SOL    HW1 5804   3.814   6.284   3.017
 1635SOL    HW2 5805   3.751   6.339   3.158
 1636SOL     OW 5806   6.168   6.314   1.818
 1636SOL    HW1 5807   6.268   6.316   1.823
 1636SOL    HW2 5808   6.134   6.228   1.857
 1637SOL     OW 5809   0.678   6.921   1.638
 1637SOL    HW1 5810   0.745   6.976   1.587
 1637SOL    HW2 5811   0.586   6.946   1.608
 1638SOL     OW 5812   6.289   2.989   1.876
 1638SOL    HW1 5813   6.239   3.044   1.810
 1638SOL    HW2 5814   6.309   2.899   1.837
 1639SOL     OW 5815   5.526   2.694   2.631
 1639SOL    HW1 5816   5.599   2.671   2.695
 1639SOL    HW2 5817   5.559   2.764   2.568
 1640SOL     OW 5818   6.803   0.283   6.930
 1640SOL    HW1 5819   6.878   0.267   6.994
 1640SOL    HW2 5820   6.716   0.264   6.977
 1641SOL     OW 5821   6.542   2.570   3.135
 1641SOL    HW1 5822   6.443   2.582   3.125
 1641SOL    HW2 5823   6.569   2.484   3.092
 1642SOL     OW 5824   6.575   2.621   6.130
 1642SOL    HW1 5825   6.569   2.686   6.054
 1642SOL    HW2 5826   6.572   2.671   6.217
 1643SOL     OW 5827   2.264   6.167   3.801
 1643SOL    HW1 5828   2.274   6.092   3.737
 1643SOL    HW2 5829   2.339   6.232   3.788
 1644SOL     OW 5830   6.083   2.639   1.444
 1644SOL    HW1 5831   6.090   2.585   1.527
 1644SOL    HW2 5832   6.002   2.698   1.449
 1645SOL     OW 5833   2.030   0.856   5.322
 1645SOL    HW1 5834   2.035   0.862   5.421
 1645SOL    HW2 5835   2.004   0.763   5.296
 1646SOL     OW 5836   1.281   5.227   0.958
 1646SOL    HW1 5837   1.306   5.276   1.042
 1646SOL    HW2 5838   1.279   5.292   0.882
 1647SOL     OW 5839   5.724   2.694   3.928
 1647SOL    HW1 5840   5.659   2.726   3.859
 1647SOL    HW2 5841   5.724   2.758   4.005
 1648SOL     OW 5842   5.378   6.002   1.268
 1648SOL    HW1 5843   5.288   5.959   1.261
 1648SOL    HW2 5844   5.414   5.989   1.361
 1649SOL     OW 5845   3.526   0.799   3.509
 1649SOL    HW1 5846   3.612   0.774   3.465
 1649SOL    HW2 5847   3.503   0.732   3.580
 1650SOL     OW 5848   3.070   4.120   6.765
 1650SOL    HW1 5849   3.042   4.081   6.677
 1650SOL    HW2 5850   3.168   4.102   6.779
 1651SOL     OW 5851   0.911   2.952   3.425
 1651SOL    HW1 5852   0.918   2.905   3.338
 1651SOL    HW2 5853   0.974   3.030   3.427
 1652SOL     OW 5854   0.344   3.206   1.550
 1652SOL    HW1 5855   0.355   3.110   1.522
 1652SOL    HW2 5856   0.353   3.265   1.469
 1653SOL     OW 5857   0.242   4.555   3.012
 1653SOL    HW1 5858   0.177   4.628   3.034
 1653SOL    HW2 5859   0.236   4.484   3.082
 1654SOL     OW 5860   6.736   3.015   2.323
 1654SOL    HW1 5861   6.654   2.966   2.291
 1654SOL    HW2 5862   6.813   2.991   2.264
 1655SOL     OW 5863   0.275   6.753   4.919
 1655SOL    HW1 5864   0.357   6.733   4.865
 1655SOL    HW2 5865   0.201   6.691   4.893
 1656SOL     OW 5866   2.215   4.617   3.422
 1656SOL    HW1 5867   2.265   4.697   3.454
 1656SOL    HW2 5868   2.276   4.560   3.366
 1657SOL     OW 5869   1.157   6.518   5.525
 1657SOL    HW1 5870   1.112   6.472   5.601
 1657SOL    HW2 5871   1.255   6.523   5.542
 1658SOL     OW 5872   6.321   6.992   6.524
 1658SOL    HW1 5873   6.303   6.938   6.606
 1658SOL    HW2 5874   6.327   0.073   6.548
 1659SOL     OW 5875   4.621   6.528   6.532
 1659SOL    HW1 5876   4.603   6.627   6.530
 1659SOL    HW2 5877   4.615   6.496   6.626
 1660SOL     OW 5878   2.878   0.454   2.143
 1660SOL    HW1 5879   2.781   0.435   2.164
 1660SOL    HW2 5880   2.884   0.512   2.062
 1661SOL     OW 5881   4.193   4.676   2.499
 1661SOL    HW1 5882   4.229   4.663   2.407
 1661SOL    HW2 5883   4.120   4.744   2.497
 1662SOL     OW 5884   0.101   1.582   4.940
 1662SOL    HW1 5885   0.045   1.664   4.942
 1662SOL    HW2 5886   0.042   1.501   4.950
 1663SOL     OW 5887   4.712   4.629   0.384
 1663SOL    HW1 5888   4.638   4.660   0.443
 1663SOL    HW2 5889   4.687   4.541   0.342
 1664SOL     OW 5890   1.210   0.057   5.658
 1664SOL    HW1 5891   1.129   0.070   5.714
 1664SOL    HW2 5892   1.191   0.088   5.565
 1665SOL     OW 5893   2.724   4.113   0.158
 1665SOL    HW1 5894   2.762   4.055   0.086
 1665SOL    HW2 5895   2.668   4.057   0.219
 1666SOL     OW 5896   5.682   6.798   6.446
 1666SOL    HW1 5897   5.681   6.716   6.389
 1666SOL    HW2 5898   5.751   6.862   6.411
 1667SOL     OW 5899   0.374   6.145   1.223
 1667SOL    HW1 5900   0.462   6.148   1.177
 1667SOL    HW2 5901   0.303   6.119   1.158
 1668SOL     OW 5902   5.256   4.379   3.330
 1668SOL    HW1 5903   5.292   4.396   3.238
 1668SOL    HW2 5904   5.156   4.387   3.329
 1669SOL     OW 5905   6.385   3.356   5.004
 1669SOL    HW1 5906   6.414   3.420   4.932
 1669SOL    HW2 5907   6.353   3.271   4.961
 1670SOL     OW 5908   1.573   5.050   6.386
 1670SOL    HW1 5909   1.475   5.045   6.406
 1670SOL    HW2 5910   1.606   4.961   6.355
 1671SOL     OW 5911   5.745   2.205   1.202
 1671SOL    HW1 5912   5.825   2.146   1.192
 1671SOL    HW2 5913   5.678   2.183   1.130
 1672SOL     OW 5914   0.913   3.878   0.257
 1672SOL    HW1 5915   1.007   3.895   0.286
 1672SOL    HW2 5916   0.866   3.823   0.325
 1673SOL     OW 5917   2.075   0.971   4.564
 1673SOL    HW1 5918   2.023   1.011   4.639
 1673SOL    HW2 5919   2.048   1.015   4.478
 1674SOL     OW 5920   4.822   2.023   2.844
 1674SOL    HW1 5921   4.896   1.996   2.782
 1674SOL    HW2 5922   4.775   2.103   2.807
 1675SOL     OW 5923   5.200   0.650   1.300
 1675SOL    HW1 5924   5.203   0.726   1.365
 1675SOL    HW2 5925   5.189   0.564   1.350
 1676SOL     OW 5926   1.247   2.337   2.540
 1676SOL    HW1 5927   1.194   2.421   2.526
 1676SOL    HW2 5928   1.244   2.312   2.637
 1677SOL     OW 5929   4.039   3.581   3.070
 1677SOL    HW1 5930   4.051   3.504   3.134
 1677SOL    HW2 5931   3.998   3.547   2.985
 1678SOL     OW 5932   1.021   0.053   1.355
 1678SOL    HW1 5933   1.030   6.973   1.383
 1678SOL    HW2 5934   1.061   0.064   1.264
 1679SOL     OW 5935   0.893   2.693   6.069
 1679SOL    HW1 5936   0.958   2.650   6.132
 1679SOL    HW2 5937   0.942   2.725   5.988
 1680SOL     OW 5938   5.203   2.379   3.953
 1680SOL    HW1 5939   5.115   2.421   3.932
 1680SOL    HW2 5940   5.203   2.349   4.049
 1681SOL     OW 5941   2.336   6.150   4.139
 1681SOL    HW1 5942   2.264   6.127   4.204
 1681SOL    HW2 5943   2.327   6.093   4.057
 1682SOL     OW 5944   3.169   6.730   4.219
 1682SOL    HW1 5945   3.121   6.712   4.305
 1682SOL    HW2 5946   3.266   6.706   4.230
 1683SOL     OW 5947   5.957   4.557   2.683
 1683SOL    HW1 5948   5.858   4.557   2.700
 1683SOL    HW2 5949   5.991   4.463   2.689
 1684SOL     OW 5950   2.563   4.529   1.828
 1684SOL    HW1 5951   2.555   4.440   1.782
 1684SOL    HW2 5952   2.651   4.534   1.875
 1685SOL     OW 5953   6.927   1.394   4.992
 1685SOL    HW1 5954   6.880   1.319   4.946
 1685SOL    HW2 5955   6.867   1.433   5.062
 1686SOL     OW 5956   4.950   5.859   2.765
 1686SOL    HW1 5957   5.033   5.878   2.817
 1686SOL    HW2 5958   4.912   5.945   2.731
 1687SOL     OW 5959   5.899   3.826   2.228
 1687SOL    HW1 5960   5.847   3.873   2.157
 1687SOL    HW2 5961   5.996   3.845   2.217
 1688SOL     OW 5962   1.638   1.054   2.680
 1688SOL    HW1 5963   1.583   1.113   2.622
 1688SOL    HW2 5964   1.689   1.109   2.746
 1689SOL     OW 5965   4.546   1.140   1.294
 1689SOL    HW1 5966   4.458   1.185   1.306
 1689SOL    HW2 5967   4.607   1.201   1.243
 1690SOL     OW 5968   0.574   4.239   3.825
 1690SOL    HW1 5969   0.651   4.276   3.877
 1690SOL    HW2 5970   0.605   4.211   3.734
 1691SOL     OW 5971   4.531   2.806   5.300
 1691SOL    HW1 5972   4.564   2.888   5.346
 1691SOL    HW2 5973   4.437   2.787   5.329
 1692SOL     OW 5974   5.513   5.187   1.085
 1692SOL    HW1 5975   5.526   5.208   0.988
 1692SOL    HW2 5976   5.415   5.182   1.105
 1693SOL     OW 5977   5.173   6.894   5.393
 1693SOL    HW1 5978   5.224   6.814   5.425
 1693SOL    HW2 5979   5.075   6.875   5.397
 1694SOL     OW 5980   4.985   1.247   5.144
 1694SOL    HW1 5981   5.039   1.330   5.132
 1694SOL    HW2 5982   5.046   1.171   5.168
 1695SOL     OW 5983   4.077   1.343   6.219
 1695SOL    HW1 5984   4.060   1.260   6.166
 1695SOL    HW2 5985   4.155   1.392   6.180
 1696SOL     OW 5986   5.296   6.142   0.590
 1696SOL    HW1 5987   5.343   6.169   0.675
 1696SOL    HW2 5988   5.197   6.138   0.607
 1697SOL     OW 5989   5.594   2.337   2.268
 1697SOL    HW1 5990   5.555   2.391   2.343
 1697SOL    HW2 5991   5.536   2.258   2.251
 1698SOL     OW 5992   4.067   0.942   1.453
 1698SOL    HW1 5993   4.124   0.872   1.410
 1698SOL    HW2 5994   3.995   0.898   1.506
 1699SOL     OW 5995   2.520   6.988   0.674
 1699SOL    HW1 5996   2.478   0.052   0.717
 1699SOL    HW2 5997   2.533   7.006   0.576
 1700SOL     OW 5998   6.377   2.544   2.747
 1700SOL    HW1 5999   6.325   2.605   2.807
 1700SOL    HW2 6000   6.325   2.527   2.663
 1701SOL     OW 6001   0.157   6.106   5.091
 1701SOL    HW1 6002   0.088   6.150   5.034
 1701SOL    HW2 6003   0.148   6.007   5.083
 1702SOL     OW 6004   1.842   2.499   6.132
 1702SOL    HW1 6005   1.846   2.579   6.072
 1702SOL    HW2 6006   1.869   2.417   6.080
 1703SOL     OW 6007   3.041   1.851   0.863
 1703SOL    HW1 6008   3.072   1.835   0.770
 1703SOL    HW2 6009   3.115   1.831   0.927
 1704SOL     OW 6010   3.147   2.399   0.726
 1704SOL    HW1 6011   3.067   2.459   0.721
 1704SOL    HW2 6012   3.135   2.334   0.801
 1705SOL     OW 6013   4.138   2.245   0.126
 1705SOL    HW1 6014   4.217   2.238   0.188
 1705SOL    HW2 6015   4.122   2.156   0.082
 1706SOL     OW 6016   4.684   1.979   6.696
 1706SOL    HW1 6017   4.606   2.037   6.670
 1706SOL    HW2 6018   4.769   2.023   6.666
 1707SOL     OW 6019   4.632   2.166   2.685
 1707SOL    HW1 6020   4.594   2.254   2.714
 1707SOL    HW2 6021   4.576   2.129   2.611
 1708SOL     OW 6022   3.376   5.036   1.627
 1708SOL    HW1 6023   3.306   5.104   1.650
 1708SOL    HW2 6024   3.333   4.947   1.617
 1709SOL     OW 6025   4.578   5.095   0.762
 1709SOL    HW1 6026   4.627   5.181   0.778
 1709SOL    HW2 6027   4.616   5.050   0.682
 1710SOL     OW 6028   4.182   4.962   3.263
 1710SOL    HW1 6029   4.281   4.971   3.275
 1710SOL    HW2 6030   4.144   4.915   3.342
 1711SOL     OW 6031   4.042   4.247   6.403
 1711SOL    HW1 6032   4.112   4.307   6.366
 1711SOL    HW2 6033   4.073   4.207   6.489
 1712SOL     OW 6034   0.472   1.712   3.089
 1712SOL    HW1 6035   0.479   1.723   2.990
 1712SOL    HW2 6036   0.386   1.750   3.121
 1713SOL     OW 6037   3.694   0.467   2.883
 1713SOL    HW1 6038   3.689   0.421   2.971
 1713SOL    HW2 6039   3.642   0.552   2.886
 1714SOL     OW 6040   3.913   3.404   0.577
 1714SOL    HW1 6041   3.927   3.307   0.555
 1714SOL    HW2 6042   3.971   3.460   0.519
 1715SOL     OW 6043   2.131   6.853   2.379
 1715SOL    HW1 6044   2.046   6.874   2.332
 1715SOL    HW2 6045   2.142   6.916   2.457
 1716SOL     OW 6046   5.006   0.861   3.990
 1716SOL    HW1 6047   4.927   0.901   4.037
 1716SOL    HW2 6048   5.002   0.884   3.893
 1717SOL     OW 6049   3.391   6.222   5.220
 1717SOL    HW1 6050   3.294   6.208   5.198
 1717SOL    HW2 6051   3.405   6.314   5.255
 1718SOL     OW 6052   1.672   3.013   1.630
 1718SOL    HW1 6053   1.605   2.971   1.569
 1718SOL    HW2 6054   1.746   3.053   1.576
 1719SOL     OW 6055   1.134   5.622   2.464
 1719SOL    HW1 6056   1.188   5.547   2.502
 1719SOL    HW2 6057   1.080   5.665   2.536
 1720SOL     OW 6058   0.478   3.248   5.772
 1720SOL    HW1 6059   0.503   3.342   5.792
 1720SOL    HW2 6060   0.386   3.229   5.809
 1721SOL     OW 6061   1.207   1.988   0.759
 1721SOL    HW1 6062   1.207   1.939   0.846
 1721SOL    HW2 6063   1.174   2.081   0.774
 1722SOL     OW 6064   2.237   2.590   3.264
 1722SOL    HW1 6065   2.146   2.554   3.243
 1722SOL    HW2 6066   2.291   2.593   3.180
 1723SOL     OW 6067   5.576   3.452   0.737
 1723SOL    HW1 6068   5.545   3.378   0.796
 1723SOL    HW2 6069   5.669   3.432   0.704
 1724SOL     OW 6070   6.278   2.271   1.512
 1724SOL    HW1 6071   6.274   2.243   1.609
 1724SOL    HW2 6072   6.319   2.362   1.505
 1725SOL     OW 6073   1.430   5.827   6.894
 1725SOL    HW1 6074   1.361   5.838   6.823
 1725SOL    HW2 6075   1.446   5.914   6.940
 1726SOL     OW 6076   5.531   4.575   3.035
 1726SOL    HW1 6077   5.439   4.535   3.025
 1726SOL    HW2 6078   5.564   4.605   2.945
 1727SOL     OW 6079   2.934   3.589   3.950
 1727SOL    HW1 6080   2.879   3.649   3.891
 1727SOL    HW2 6081   2.954   3.636   4.036
 1728SOL     OW 6082   5.133   1.882   4.047
 1728SOL    HW1 6083   5.224   1.917   4.028
 1728SOL    HW2 6084   5.132   1.783   4.032
 1729SOL     OW 6085   1.824   3.072   2.628
 1729SOL    HW1 6086   1.749   3.134   2.604
 1729SOL    HW2 6087   1.861   3.031   2.545
 1730SOL     OW 6088   2.422   5.002   4.908
 1730SOL    HW1 6089   2.494   4.999   4.977
 1730SOL    HW2 6090   2.343   5.051   4.944
 1731SOL     OW 6091   6.291   4.582   3.803
 1731SOL    HW1 6092   6.216   4.648   3.807
 1731SOL    HW2 6093   6.310   4.559   3.708
 1732SOL     OW 6094   2.357   3.784   5.701
 1732SOL    HW1 6095   2.392   3.863   5.650
 1732SOL    HW2 6096   2.400   3.700   5.666
 1733SOL     OW 6097   2.512   3.606   6.416
 1733SOL    HW1 6098   2.457   3.687   6.398
 1733SOL    HW2 6099   2.543   3.608   6.511
 1734SOL     OW 6100   6.942   3.107   1.398
 1734SOL    HW1 6101   6.968   3.019   1.437
 1734SOL    HW2 6102   6.915   3.095   1.303
 1735SOL     OW 6103   4.018   4.976   6.284
 1735SOL    HW1 6104   3.941   5.038   6.301
 1735SOL    HW2 6105   3.987   4.881   6.289
 1736SOL     OW 6106   5.359   3.194   0.776
 1736SOL    HW1 6107   5.303   3.114   0.796
 1736SOL    HW2 6108   5.333   3.231   0.687
 1737SOL     OW 6109   4.683   2.216   5.367
 1737SOL    HW1 6110   4.687   2.226   5.466
 1737SOL    HW2 6111   4.588   2.216   5.336
 1738SOL     OW 6112   1.468   3.456   4.115
 1738SOL    HW1 6113   1.411   3.432   4.037
 1738SOL    HW2 6114   1.559   3.483   4.083
 1739SOL     OW 6115   5.842   0.391   3.670
 1739SOL    HW1 6116   5.868   0.295   3.676
 1739SOL    HW2 6117   5.747   0.401   3.700
 1740SOL     OW 6118   6.241   3.204   4.482
 1740SOL    HW1 6119   6.175   3.132   4.461
 1740SOL    HW2 6120   6.265   3.200   4.579
 1741SOL     OW 6121   0.582   1.818   4.363
 1741SOL    HW1 6122   0.583   1.760   4.444
 1741SOL    HW2 6123   0.631   1.772   4.288
 1742SOL     OW 6124   6.065   6.445   6.140
 1742SOL    HW1 6125   6.030   6.424   6.232
 1742SOL    HW2 6126   6.076   6.360   6.089
 1743SOL     OW 6127   1.517   1.302   2.557
 1743SOL    HW1 6128   1.556   1.311   2.649
 1743SOL    HW2 6129   1.444   1.369   2.546
 1744SOL     OW 6130   3.734   1.863   4.675
 1744SOL    HW1 6131   3.732   1.899   4.768
 1744SOL    HW2 6132   3.642   1.831   4.650
 1745SOL     OW 6133   6.261   6.858   1.452
 1745SOL    HW1 6134   6.328   6.900   1.392
 1745SOL    HW2 6135   6.298   6.773   1.489
 1746SOL     OW 6136   2.183   4.106   4.067
 1746SOL    HW1 6137   2.217   4.104   4.161
 1746SOL    HW2 6138   2.123   4.027   4.052
 1747SOL     OW 6139   4.486   0.151   2.545
 1747SOL    HW1 6140   4.476   0.217   2.619
 1747SOL    HW2 6141   4.396   0.120   2.514
 1748SOL     OW 6142   6.734   3.239   5.001
 1748SOL    HW1 6143   6.834   3.241   5.014
 1748SOL    HW2 6144   6.713   3.265   4.907
 1749SOL     OW 6145   1.466   4.597   1.308
 1749SOL    HW1 6146   1.461   4.631   1.402
 1749SOL    HW2 6147   1.458   4.674   1.245
 1750SOL     OW 6148   3.461   6.887   5.754
 1750SOL    HW1 6149   3.441   6.941   5.835
 1750SOL    HW2 6150   3.397   6.809   5.749
 1751SOL     OW 6151   5.303   2.761   5.018
 1751SOL    HW1 6152   5.370   2.740   5.089
 1751SOL    HW2 6153   5.244   2.835   5.049
 1752SOL     OW 6154   6.887   0.597   2.245
 1752SOL    HW1 6155   6.914   0.577   2.339
 1752SOL    HW2 6156   6.883   0.696   2.232
 1753SOL     OW 6157   6.251   1.623   1.954
 1753SOL    HW1 6158   6.210   1.553   1.895
 1753SOL    HW2 6159   6.187   1.698   1.966
 1754SOL     OW 6160   3.028   5.574   4.116
 1754SOL    HW1 6161   3.049   5.651   4.056
 1754SOL    HW2 6162   3.013   5.492   4.062
 1755SOL     OW 6163   6.261   6.622   4.721
 1755SOL    HW1 6164   6.161   6.629   4.718
 1755SOL    HW2 6165   6.287   6.529   4.747
 1756SOL     OW 6166   4.862   6.821   6.419
 1756SOL    HW1 6167   4.865   6.803   6.518
 1756SOL    HW2 6168   4.908   6.907   6.399
 1757SOL     OW 6169   2.003   4.911   5.339
 1757SOL    HW1 6170   1.968   4.888   5.430
 1757SOL    HW2 6171   2.094   4.952   5.348
 1758SOL     OW 6172   2.163   6.120   4.349
 1758SOL    HW1 6173   2.164   6.164   4.438
 1758SOL    HW2 6174   2.133   6.025   4.359
 1759SOL     OW 6175   1.797   6.850   0.396
 1759SOL    HW1 6176   1.859   6.796   0.453
 1759SOL    HW2 6177   1.715   6.871   0.449
 1760SOL     OW 6178   6.802   0.766   4.835
 1760SOL    HW1 6179   6.757   0.696   4.780
 1760SOL    HW2 6180   6.893   0.735   4.861
 1761SOL     OW 6181   5.808   1.482   2.365
 1761SOL    HW1 6182   5.874   1.455   2.435
 1761SOL    HW2 6183   5.719   1.495   2.406
 1762SOL     OW 6184   0.588   1.931   6.097
 1762SOL    HW1 6185   0.654   1.930   6.022
 1762SOL    HW2 6186   0.502   1.889   6.067
 1763SOL     OW 6187   0.686   3.916   3.737
 1763SOL    HW1 6188   0.649   3.965   3.658
 1763SOL    HW2 6189   0.763   3.967   3.774
 1764SOL     OW 6190   1.033   5.467   2.846
 1764SOL    HW1 6191   0.959   5.517   2.891
 1764SOL    HW2 6192   1.120   5.516   2.859
 1765SOL     OW 6193   5.549   3.277   2.236
 1765SOL    HW1 6194   5.571   3.313   2.146
 1765SOL    HW2 6195   5.616   3.208   2.262
 1766SOL     OW 6196   4.288   4.703   3.819
 1766SOL    HW1 6197   4.283   4.604   3.831
 1766SOL    HW2 6198   4.366   4.726   3.760
 1767SOL     OW 6199   1.004   4.635   2.461
 1767SOL    HW1 6200   0.952   4.671   2.383
 1767SOL    HW2 6201   1.101   4.634   2.438
 1768SOL     OW 6202   5.141   6.415   2.350
 1768SOL    HW1 6203   5.225   6.430   2.297
 1768SOL    HW2 6204   5.136   6.319   2.377
 1769SOL     OW 6205   5.922   1.034   0.662
 1769SOL    HW1 6206   5.891   0.969   0.593
 1769SOL    HW2 6207   5.941   0.986   0.748
 1770SOL     OW 6208   1.699   5.233   0.257
 1770SOL    HW1 6209   1.693   5.325   0.219
 1770SOL    HW2 6210   1.791   5.219   0.295
 1771SOL     OW 6211   1.257   3.165   6.005
 1771SOL    HW1 6212   1.297   3.086   6.052
 1771SOL    HW2 6213   1.172   3.191   6.050
 1772SOL     OW 6214   2.101   4.432   2.911
 1772SOL    HW1 6215   2.140   4.352   2.866
 1772SOL    HW2 6216   2.165   4.466   2.980
 1773SOL     OW 6217   1.782   6.439   6.114
 1773SOL    HW1 6218   1.766   6.341   6.123
 1773SOL    HW2 6219   1.814   6.476   6.202
 1774SOL     OW 6220   5.046   5.728   0.977
 1774SOL    HW1 6221   5.081   5.797   0.915
 1774SOL    HW2 6222   5.062   5.637   0.938
 1775SOL     OW 6223   2.075   5.649   6.817
 1775SOL    HW1 6224   1.992   5.594   6.805
 1775SOL    HW2 6225   2.115   5.670   6.728
 1776SOL     OW 6226   4.372   2.303   5.615
 1776SOL    HW1 6227   4.286   2.306   5.666
 1776SOL    HW2 6228   4.358   2.335   5.522
 1777SOL     OW 6229   4.851   6.324   6.721
 1777SOL    HW1 6230   4.874   6.412   6.680
 1777SOL    HW2 6231   4.823   6.338   6.816
 1778SOL     OW 6232   5.682   6.915   3.991
 1778SOL    HW1 6233   5.717   6.953   4.077
 1778SOL    HW2 6234   5.623   6.983   3.947
 1779SOL     OW 6235   5.496   6.436   4.763
 1779SOL    HW1 6236   5.425   6.399   4.703
 1779SOL    HW2 6237   5.480   6.534   4.777
 1780SOL     OW 6238   2.280   5.619   4.921
 1780SOL    HW1 6239   2.273   5.522   4.896
 1780SOL    HW2 6240   2.263   5.676   4.841
 1781SOL     OW 6241   4.308   0.541   4.443
 1781SOL    HW1 6242   4.303   0.469   4.374
 1781SOL    HW2 6243   4.400   0.580   4.443
 1782SOL     OW 6244   6.896   1.590   2.678
 1782SOL    HW1 6245   6.899   1.590   2.578
 1782SOL    HW2 6246   6.882   1.683   2.711
 1783SOL     OW 6247   2.240   3.871   6.597
 1783SOL    HW1 6248   2.190   3.833   6.519
 1783SOL    HW2 6249   2.329   3.905   6.568
 1784SOL     OW 6250   2.558   0.037   1.338
 1784SOL    HW1 6251   2.618   6.980   1.369
 1784SOL    HW2 6252   2.614   0.116   1.312
 1785SOL     OW 6253   1.572   6.328   4.691
 1785SOL    HW1 6254   1.520   6.405   4.728
 1785SOL    HW2 6255   1.513   6.274   4.631
 1786SOL     OW 6256   0.810   6.660   0.834
 1786SOL    HW1 6257   0.735   6.715   0.798
 1786SOL    HW2 6258   0.804   6.567   0.798
 1787SOL     OW 6259   3.053   3.528   6.516
 1787SOL    HW1 6260   3.143   3.483   6.515
 1787SOL    HW2 6261   3.039   3.577   6.430
 1788SOL     OW 6262   4.862   4.125   1.269
 1788SOL    HW1 6263   4.858   4.026   1.254
 1788SOL    HW2 6264   4.776   4.167   1.239
 1789SOL     OW 6265   5.806   4.065   1.770
 1789SOL    HW1 6266   5.860   4.112   1.839
 1789SOL    HW2 6267   5.833   4.095   1.678
 1790SOL     OW 6268   2.487   2.070   4.510
 1790SOL    HW1 6269   2.442   2.089   4.597
 1790SOL    HW2 6270   2.451   2.133   4.440
 1791SOL     OW 6271   4.879   7.001   3.431
 1791SOL    HW1 6272   4.839   0.067   3.469
 1791SOL    HW2 6273   4.875   7.005   3.331
 1792SOL     OW 6274   0.396   1.879   5.885
 1792SOL    HW1 6275   0.446   1.823   5.819
 1792SOL    HW2 6276   0.298   1.858   5.880
 1793SOL     OW 6277   0.073   0.719   5.722
 1793SOL    HW1 6278   0.089   0.765   5.635
 1793SOL    HW2 6279   6.999   0.675   5.720
 1794SOL     OW 6280   1.192   0.151   6.078
 1794SOL    HW1 6281   1.126   0.077   6.091
 1794SOL    HW2 6282   1.283   0.121   6.106
 1795SOL     OW 6283   5.861   4.695   1.053
 1795SOL    HW1 6284   5.786   4.754   1.024
 1795SOL    HW2 6285   5.948   4.737   1.027
 1796SOL     OW 6286   0.602   0.647   6.595
 1796SOL    HW1 6287   0.646   0.722   6.645
 1796SOL    HW2 6288   0.532   0.685   6.534
 1797SOL     OW 6289   1.821   4.951   6.189
 1797SOL    HW1 6290   1.858   4.999   6.110
 1797SOL    HW2 6291   1.885   4.957   6.265
 1798SOL     OW 6292   2.586   3.628   5.408
 1798SOL    HW1 6293   2.515   3.690   5.374
 1798SOL    HW2 6294   2.655   3.682   5.457
 1799SOL     OW 6295   3.504   1.434   0.566
 1799SOL    HW1 6296   3.446   1.414   0.645
 1799SOL    HW2 6297   3.456   1.498   0.505
 1800SOL     OW 6298   5.855   3.207   5.319
 1800SOL    HW1 6299   5.778   3.234   5.262
 1800SOL    HW2 6300   5.939   3.207   5.264
 1801SOL     OW 6301   0.997   0.987   3.007
 1801SOL    HW1 6302   0.976   0.904   3.059
 1801SOL    HW2 6303   1.097   0.999   3.003
 1802SOL     OW 6304   6.899   4.705   3.759
 1802SOL    HW1 6305   6.814   4.676   3.803
 1802SOL    HW2 6306   6.881   4.727   3.663
 1803SOL     OW 6307   0.490   0.219   3.147
 1803SOL    HW1 6308   0.584   0.212   3.182
 1803SOL    HW2 6309   0.493   0.231   3.048
 1804SOL     OW 6310   2.272   3.250   6.064
 1804SOL    HW1 6311   2.339   3.243   6.138
 1804SOL    HW2 6312   2.230   3.160   6.049
 1805SOL     OW 6313   0.150   5.358   0.301
 1805SOL    HW1 6314   0.063   5.325   0.265
 1805SOL    HW2 6315   0.203   5.400   0.227
 1806SOL     OW 6316   0.442   1.956   1.764
 1806SOL    HW1 6317   0.491   1.942   1.850
 1806SOL    HW2 6318   0.378   2.032   1.773
 1807SOL     OW 6319   0.337   2.685   3.002
 1807SOL    HW1 6320   0.392   2.606   3.032
 1807SOL    HW2 6321   0.314   2.741   3.082
 1808SOL     OW 6322   4.976   2.077   6.027
 1808SOL    HW1 6323   4.949   2.133   5.948
 1808SOL    HW2 6324   5.069   2.045   6.015
 1809SOL     OW 6325   4.750   0.513   4.871
 1809SOL    HW1 6326   4.787   0.496   4.962
 1809SOL    HW2 6327   4.710   0.429   4.834
 1810SOL     OW 6328   0.684   0.351   4.166
 1810SOL    HW1 6329   0.698   0.448   4.146
 1810SOL    HW2 6330   0.763   0.316   4.217
 1811SOL     OW 6331   4.064   5.400   1.341
 1811SOL    HW1 6332   4.138   5.455   1.379
 1811SOL    HW2 6333   4.102   5.322   1.291
 1812SOL     OW 6334   4.780   6.345   6.289
 1812SOL    HW1 6335   4.748   6.310   6.377
 1812SOL    HW2 6336   4.780   6.445   6.289
 1813SOL     OW 6337   4.976   4.300   2.218
 1813SOL    HW1 6338   4.927   4.386   2.211
 1813SOL    HW2 6339   4.973   4.268   2.313
 1814SOL     OW 6340   6.636   6.202   0.219
 1814SOL    HW1 6341   6.584   6.180   0.301
 1814SOL    HW2 6342   6.729   6.165   0.228
 1815SOL     OW 6343   5.403   6.373   1.387
 1815SOL    HW1 6344   5.467   6.359   1.311
 1815SOL    HW2 6345   5.321   6.318   1.371
 1816SOL     OW 6346   3.739   4.846   5.540
 1816SOL    HW1 6347   3.820   4.902   5.557
 1816SOL    HW2 6348   3.746   4.803   5.451
 1817SOL     OW 6349   0.101   2.296   4.038
 1817SOL    HW1 6350   0.053   2.374   3.998
 1817SOL    HW2 6351   0.045   2.214   4.029
 1818SOL     OW 6352   2.715   1.154   0.272
 1818SOL    HW1 6353   2.723   1.069   0.324
 1818SOL    HW2 6354   2.632   1.152   0.217
 1819SOL     OW 6355   1.710   4.821   2.826
 1819SOL    HW1 6356   1.717   4.913   2.865
 1819SOL    HW2 6357   1.657   4.825   2.741
 1820SOL     OW 6358   3.230   6.923   5.078
 1820SOL    HW1 6359   3.299   6.951   5.146
 1820SOL    HW2 6360   3.139   6.933   5.118
 1821SOL     OW 6361   3.412   2.038   2.759
 1821SOL    HW1 6362   3.341   2.095   2.718
 1821SOL    HW2 6363   3.496   2.045   2.704
 1822SOL     OW 6364   6.653   3.426   2.859
 1822SOL    HW1 6365   6.620   3.385   2.944
 1822SOL    HW2 6366   6.664   3.524   2.871
 1823SOL     OW 6367   4.632   6.074   2.134
 1823SOL    HW1 6368   4.728   6.050   2.151
 1823SOL    HW2 6369   4.627   6.134   2.054
 1824SOL     OW 6370   4.322   3.044   1.721
 1824SOL    HW1 6371   4.300   3.141   1.718
 1824SOL    HW2 6372   4.406   3.031   1.775
 1825SOL     OW 6373   1.197   2.259   4.696
 1825SOL    HW1 6374   1.178   2.201   4.617
 1825SOL    HW2 6375   1.149   2.346   4.686
 1826SOL     OW 6376   3.639   2.090   1.736
 1826SOL    HW1 6377   3.643   2.012   1.799
 1826SOL    HW2 6378   3.650   2.175   1.788
 1827SOL     OW 6379   5.575   5.761   1.156
 1827SOL    HW1 6380   5.643   5.809   1.100
 1827SOL    HW2 6381   5.609   5.669   1.178
 1828SOL     OW 6382   1.430   3.434   5.426
 1828SOL    HW1 6383   1.346   3.475   5.389
 1828SOL    HW2 6384   1.509   3.487   5.396
 1829SOL     OW 6385   3.694   0.844   2.473
 1829SOL    HW1 6386   3.613   0.842   2.414
 1829SOL    HW2 6387   3.775   0.820   2.419
 1830SOL     OW 6388   5.590   0.386   5.290
 1830SOL    HW1 6389   5.682   0.416   5.269
 1830SOL    HW2 6390   5.547   0.451   5.353
 1831SOL     OW 6391   3.781   4.750   0.594
 1831SOL    HW1 6392   3.754   4.844   0.572
 1831SOL    HW2 6393   3.739   4.687   0.529
 1832SOL     OW 6394   2.560   2.547   0.399
 1832SOL    HW1 6395   2.617   2.559   0.480
 1832SOL    HW2 6396   2.600   2.598   0.322
 1833SOL     OW 6397   5.877   1.166   6.899
 1833SOL    HW1 6398   5.921   1.077   6.891
 1833SOL    HW2 6399   5.901   1.207   6.987
 1834SOL     OW 6400   0.422   2.891   5.384
 1834SOL    HW1 6401   0.459   2.906   5.476
 1834SOL    HW2 6402   0.443   2.798   5.354
 1835SOL     OW 6403   0.053   6.617   1.727
 1835SOL    HW1 6404   6.989   6.631   1.670
 1835SOL    HW2 6405   0.119   6.561   1.678
 1836SOL     OW 6406   5.053   2.675   2.630
 1836SOL    HW1 6407   5.135   2.729   2.612
 1836SOL    HW2 6408   5.020   2.635   2.544
 1837SOL     OW 6409   2.886   2.301   5.991
 1837SOL    HW1 6410   2.788   2.293   6.011
 1837SOL    HW2 6411   2.912   2.398   5.992
 1838SOL     OW 6412   5.414   1.158   0.767
 1838SOL    HW1 6413   5.403   1.058   0.773
 1838SOL    HW2 6414   5.407   1.186   0.672
 1839SOL     OW 6415   0.081   0.598   0.434
 1839SOL    HW1 6416   0.035   0.537   0.498
 1839SOL    HW2 6417   0.174   0.565   0.416
 1840SOL     OW 6418   4.103   6.342   3.613
 1840SOL    HW1 6419   4.025   6.389   3.656
 1840SOL    HW2 6420   4.074   6.252   3.581
 1841SOL     OW 6421   1.520   0.777   2.185
 1841SOL    HW1 6422   1.451   0.746   2.120
 1841SOL    HW2 6423   1.486   0.856   2.236
 1842SOL     OW 6424   1.032   5.601   0.798
 1842SOL    HW1 6425   0.995   5.567   0.884
 1842SOL    HW2 6426   0.959   5.605   0.729
 1843SOL     OW 6427   2.360   0.855   5.361
 1843SOL    HW1 6428   2.417   0.830   5.283
 1843SOL    HW2 6429   2.265   0.829   5.344
 1844SOL     OW 6430   6.081   2.604   6.213
 1844SOL    HW1 6431   6.125   2.533   6.267
 1844SOL    HW2 6432   5.984   2.582   6.203
 1845SOL     OW 6433   1.207   2.386   2.975
 1845SOL    HW1 6434   1.125   2.440   2.957
 1845SOL    HW2 6435   1.223   2.322   2.899
 1846SOL     OW 6436   3.209   0.845   1.745
 1846SOL    HW1 6437   3.307   0.842   1.767
 1846SOL    HW2 6438   3.167   0.923   1.791
 1847SOL     OW 6439   1.782   5.542   5.251
 1847SOL    HW1 6440   1.730   5.549   5.336
 1847SOL    HW2 6441   1.722   5.560   5.173
 1848SOL     OW 6442   3.149   6.558   3.177
 1848SOL    HW1 6443   3.174   6.472   3.132
 1848SOL    HW2 6444   3.219   6.627   3.158
 1849SOL     OW 6445   4.857   2.767   2.243
 1849SOL    HW1 6446   4.897   2.694   2.298
 1849SOL    HW2 6447   4.842   2.847   2.301
 1850SOL     OW 6448   4.329   1.604   0.893
 1850SOL    HW1 6449   4.265   1.530   0.915
 1850SOL    HW2 6450   4.281   1.677   0.844
 1851SOL     OW 6451   0.463   4.606   4.821
 1851SOL    HW1 6452   0.417   4.680   4.771
 1851SOL    HW2 6453   0.447   4.618   4.920
 1852SOL     OW 6454   0.465   0.047   2.507
 1852SOL    HW1 6455   0.474   0.064   2.409
 1852SOL    HW2 6456   0.498   0.126   2.558
 1853SOL     OW 6457   0.146   2.719   5.816
 1853SOL    HW1 6458   0.154   2.803   5.870
 1853SOL    HW2 6459   0.219   2.717   5.747
 1854SOL     OW 6460   1.002   0.012   3.282
 1854SOL    HW1 6461   1.040   6.936   3.267
 1854SOL    HW2 6462   0.929   0.007   3.350
 1855SOL     OW 6463   5.148   3.199   4.775
 1855SOL    HW1 6464   5.189   3.110   4.797
 1855SOL    HW2 6465   5.191   3.270   4.831
 1856SOL     OW 6466   3.763   3.054   0.766
 1856SOL    HW1 6467   3.736   2.978   0.825
 1856SOL    HW2 6468   3.760   3.139   0.818
 1857SOL     OW 6469   3.986   1.474   6.996
 1857SOL    HW1 6470   3.939   1.432   0.057
 1857SOL    HW2 6471   3.919   1.519   6.936
 1858SOL     OW 6472   5.191   2.404   4.357
 1858SOL    HW1 6473   5.150   2.491   4.387
 1858SOL    HW2 6474   5.121   2.346   4.316
 1859SOL     OW 6475   6.870   1.557   4.271
 1859SOL    HW1 6476   6.881   1.646   4.315
 1859SOL    HW2 6477   6.889   1.484   4.337
 1860SOL     OW 6478   2.192   1.115   5.720
 1860SOL    HW1 6479   2.270   1.177   5.710
 1860SOL    HW2 6480   2.137   1.142   5.799
 1861SOL     OW 6481   6.797   6.819   4.011
 1861SOL    HW1 6482   6.883   6.813   3.961
 1861SOL    HW2 6483   6.732   6.752   3.976
 1862SOL     OW 6484   2.850   5.522   5.678
 1862SOL    HW1 6485   2.871   5.554   5.771
 1862SOL    HW2 6486   2.924   5.550   5.617
 1863SOL     OW 6487   0.220   2.635   0.414
 1863SOL    HW1 6488   0.279   2.569   0.459
 1863SOL    HW2 6489   0.157   2.588   0.352
 1864SOL     OW 6490   4.126   5.665   2.291
 1864SOL    HW1 6491   4.212   5.620   2.265
 1864SOL    HW2 6492   4.147   5.755   2.328
 1865SOL     OW 6493   5.934   2.172   5.505
 1865SOL    HW1 6494   5.944   2.165   5.405
 1865SOL    HW2 6495   5.867   2.243   5.526
 1866SOL     OW 6496   0.784   4.924   3.519
 1866SOL    HW1 6497   0.735   4.840   3.542
 1866SOL    HW2 6498   0.874   4.901   3.482
 1867SOL     OW 6499   1.323   2.410   1.338
 1867SOL    HW1 6500   1.244   2.406   1.399
 1867SOL    HW2 6501   1.311   2.343   1.264
 1868SOL     OW 6502   5.926   3.335   6.976
 1868SOL    HW1 6503   5.943   3.374   6.886
 1868SOL    HW2 6504   5.960   3.399   0.030
 1869SOL     OW 6505   4.360   0.913   4.343
 1869SOL    HW1 6506   4.381   1.010   4.358
 1869SOL    HW2 6507   4.279   0.888   4.397
 1870SOL     OW 6508   6.245   6.154   5.026
 1870SOL    HW1 6509   6.274   6.215   4.952
 1870SOL    HW2 6510   6.291   6.065   5.014
 1871SOL     OW 6511   0.232   6.096   0.279
 1871SOL    HW1 6512   0.319   6.126   0.318
 1871SOL    HW2 6513   0.162   6.097   0.351
 1872SOL     OW 6514   2.872   2.722   1.708
 1872SOL    HW1 6515   2.936   2.653   1.677
 1872SOL    HW2 6516   2.779   2.697   1.681
 1873SOL     OW 6517   6.488   1.499   0.698
 1873SOL    HW1 6518   6.397   1.496   0.656
 1873SOL    HW2 6519   6.557   1.486   0.627
 1874SOL     OW 6520   0.405   5.205   0.453
 1874SOL    HW1 6521   0.380   5.193   0.357
 1874SOL    HW2 6522   0.503   5.188   0.464
 1875SOL     OW 6523   6.628   5.254   0.484
 1875SOL    HW1 6524   6.539   5.245   0.528
 1875SOL    HW2 6525   6.669   5.163   0.473
 1876SOL     OW 6526   0.109   5.433   1.035
 1876SOL    HW1 6527   0.190   5.492   1.030
 1876SOL    HW2 6528   0.130   5.345   0.992
 1877SOL     OW 6529   0.776   1.766   2.629
 1877SOL    HW1 6530   0.725   1.682   2.647
 1877SOL    HW2 6531   0.855   1.771   2.690
 1878SOL     OW 6532   5.604   3.827   3.833
 1878SOL    HW1 6533   5.552   3.755   3.879
 1878SOL    HW2 6534   5.549   3.911   3.830
 1879SOL     OW 6535   4.565   5.814   4.381
 1879SOL    HW1 6536   4.577   5.815   4.480
 1879SOL    HW2 6537   4.612   5.894   4.341
 1880SOL     OW 6538   6.941   2.181   4.383
 1880SOL    HW1 6539   0.019   2.213   4.381
 1880SOL    HW2 6540   6.924   2.130   4.467
 1881SOL     OW 6541   1.673   1.696   4.069
 1881SOL    HW1 6542   1.656   1.599   4.053
 1881SOL    HW2 6543   1.696   1.740   3.982
 1882SOL     OW 6544   1.443   5.424   0.545
 1882SOL    HW1 6545   1.537   5.448   0.520
 1882SOL    HW2 6546   1.379   5.478   0.491
 1883SOL     OW 6547   1.486   2.863   2.966
 1883SOL    HW1 6548   1.497   2.823   2.875
 1883SOL    HW2 6549   1.403   2.826   3.008
 1884SOL     OW 6550   4.254   0.898   0.089
 1884SOL    HW1 6551   4.271   0.854   0.001
 1884SOL    HW2 6552   4.332   0.955   0.115
 1885SOL     OW 6553   6.948   1.913   0.830
 1885SOL    HW1 6554   6.974   1.834   0.774
 1885SOL    HW2 6555   6.898   1.881   0.911
 1886SOL     OW 6556   3.230   2.361   5.565
 1886SOL    HW1 6557   3.150   2.380   5.621
 1886SOL    HW2 6558   3.201   2.325   5.476
 1887SOL     OW 6559   0.879   6.446   5.136
 1887SOL    HW1 6560   0.861   6.544   5.141
 1887SOL    HW2 6561   0.949   6.421   5.202
 1888SOL     OW 6562   1.676   2.171   5.494
 1888SOL    HW1 6563   1.624   2.107   5.438
 1888SOL    HW2 6564   1.772   2.141   5.498
 1889SOL     OW 6565   3.103   2.742   6.903
 1889SOL    HW1 6566   3.155   2.822   6.935
 1889SOL    HW2 6567   3.101   2.742   6.803
 1890SOL     OW 6568   6.588   5.725   6.982
 1890SOL    HW1 6569   6.530   5.782   6.924
 1890SOL    HW2 6570   6.548   5.634   6.990
 1891SOL     OW 6571   5.642   3.610   6.091
 1891SOL    HW1 6572   5.619   3.673   6.164
 1891SOL    HW2 6573   5.732   3.634   6.053
 1892SOL     OW 6574   3.988   6.917   1.816
 1892SOL    HW1 6575   3.968   6.910   1.718
 1892SOL    HW2 6576   3.904   6.909   1.868
 1893SOL     OW 6577   3.124   1.756   5.029
 1893SOL    HW1 6578   3.025   1.744   5.016
 1893SOL    HW2 6579   3.149   1.725   5.121
 1894SOL     OW 6580   4.573   3.578   0.969
 1894SOL    HW1 6581   4.491   3.521   0.966
 1894SOL    HW2 6582   4.576   3.627   1.056
 1895SOL     OW 6583   4.512   0.830   3.282
 1895SOL    HW1 6584   4.596   0.813   3.334
 1895SOL    HW2 6585   4.447   0.881   3.339
 1896SOL     OW 6586   5.978   2.184   5.910
 1896SOL    HW1 6587   6.003   2.128   5.831
 1896SOL    HW2 6588   5.894   2.148   5.952
 1897SOL     OW 6589   5.737   5.168   3.608
 1897SOL    HW1 6590   5.790   5.198   3.530
 1897SOL    HW2 6591   5.682   5.244   3.643
 1898SOL     OW 6592   5.688   6.456   6.863
 1898SOL    HW1 6593   5.659   6.506   6.781
 1898SOL    HW2 6594   5.787   6.444   6.862
 1899SOL     OW 6595   1.231   1.847   3.444
 1899SOL    HW1 6596   1.276   1.898   3.370
 1899SOL    HW2 6597   1.181   1.911   3.502
 1900SOL     OW 6598   2.385   5.982   0.948
 1900SOL    HW1 6599   2.458   5.993   1.016
 1900SOL    HW2 6600   2.392   5.892   0.906
 1901SOL     OW 6601   1.307   1.701   6.233
 1901SOL    HW1 6602   1.382   1.739   6.287
 1901SOL    HW2 6603   1.233   1.768   6.228
 1902SOL     OW 6604   1.748   2.427   5.531
 1902SOL    HW1 6605   1.686   2.350   5.518
 1902SOL    HW2 6606   1.804   2.413   5.613
 1903SOL     OW 6607   6.617   4.532   4.152
 1903SOL    HW1 6608   6.639   4.485   4.067
 1903SOL    HW2 6609   6.523   4.566   4.148
 1904SOL     OW 6610   0.781   0.467   4.518
 1904SOL    HW1 6611   0.794   0.566   4.509
 1904SOL    HW2 6612   0.769   0.444   4.615
 1905SOL     OW 6613   6.356   3.074   4.207
 1905SOL    HW1 6614   6.287   3.111   4.268
 1905SOL    HW2 6615   6.325   3.082   4.112
 1906SOL     OW 6616   2.553   0.042   0.391
 1906SOL    HW1 6617   2.483   0.112   0.376
 1906SOL    HW2 6618   2.579   0.002   0.303
 1907SOL     OW 6619   3.469   5.958   3.166
 1907SOL    HW1 6620   3.388   5.903   3.146
 1907SOL    HW2 6621   3.445   6.055   3.161
 1908SOL     OW 6622   4.946   0.968   6.891
 1908SOL    HW1 6623   4.906   0.955   6.800
 1908SOL    HW2 6624   5.027   1.025   6.883
 1909SOL     OW 6625   4.113   5.103   4.669
 1909SOL    HW1 6626   4.117   5.003   4.673
 1909SOL    HW2 6627   4.166   5.141   4.745
 1910SOL     OW 6628   4.908   2.663   4.784
 1910SOL    HW1 6629   4.872   2.614   4.863
 1910SOL    HW2 6630   4.833   2.688   4.723
 1911SOL     OW 6631   6.920   3.831   6.237
 1911SOL    HW1 6632   6.941   3.880   6.322
 1911SOL    HW2 6633   6.923   3.732   6.255
 1912SOL     OW 6634   3.128   6.228   3.165
 1912SOL    HW1 6635   3.060   6.157   3.181
 1912SOL    HW2 6636   3.127   6.253   3.068
 1913SOL     OW 6637   1.542   4.530   5.277
 1913SOL    HW1 6638   1.548   4.629   5.270
 1913SOL    HW2 6639   1.633   4.490   5.264
 1914SOL     OW 6640   4.340   1.451   5.298
 1914SOL    HW1 6641   4.243   1.436   5.280
 1914SOL    HW2 6642   4.384   1.488   5.216
 1915SOL     OW 6643   3.859   0.344   5.266
 1915SOL    HW1 6644   3.955   0.358   5.289
 1915SOL    HW2 6645   3.804   0.344   5.349
 1916SOL     OW 6646   4.049   6.439   1.419
 1916SOL    HW1 6647   3.991   6.492   1.357
 1916SOL    HW2 6648   4.090   6.500   1.486
 1917SOL     OW 6649   3.714   3.197   4.175
 1917SOL    HW1 6650   3.686   3.274   4.232
 1917SOL    HW2 6651   3.752   3.125   4.233
 1918SOL     OW 6652   5.918   6.275   4.354
 1918SOL    HW1 6653   5.970   6.196   4.388
 1918SOL    HW2 6654   5.826   6.273   4.392
 1919SOL     OW 6655   6.404   6.676   2.121
 1919SOL    HW1 6656   6.497   6.709   2.133
 1919SOL    HW2 6657   6.405   6.592   2.066
 1920SOL     OW 6658   6.725   5.988   4.292
 1920SOL    HW1 6659   6.641   6.007   4.242
 1920SOL    HW2 6660   6.800   5.975   4.226
 1921SOL     OW 6661   0.956   0.008   6.105
 1921SOL    HW1 6662   0.918   0.046   6.189
 1921SOL    HW2 6663   0.941   6.926   6.103
 1922SOL     OW 6664   3.437   4.488   0.982
 1922SOL    HW1 6665   3.443   4.559   1.053
 1922SOL    HW2 6666   3.342   4.460   0.970
 1923SOL     OW 6667   2.201   2.039   0.620
 1923SOL    HW1 6668   2.266   2.075   0.687
 1923SOL    HW2 6669   2.248   2.022   0.534
 1924SOL     OW 6670   0.937   3.839   2.190
 1924SOL    HW1 6671   1.009   3.831   2.122
 1924SOL    HW2 6672   0.973   3.815   2.280
 1925SOL     OW 6673   3.436   4.119   0.437
 1925SOL    HW1 6674   3.347   4.139   0.396
 1925SOL    HW2 6675   3.505   4.179   0.397
 1926SOL     OW 6676   0.628   0.466   3.513
 1926SOL    HW1 6677   0.635   0.380   3.563
 1926SOL    HW2 6678   0.567   0.529   3.561
 1927SOL     OW 6679   4.116   3.707   0.227
 1927SOL    HW1 6680   4.144   3.634   0.289
 1927SOL    HW2 6681   4.183   3.781   0.230
 1928SOL     OW 6682   6.482   5.100   5.382
 1928SOL    HW1 6683   6.525   5.064   5.465
 1928SOL    HW2 6684   6.419   5.174   5.406
 1929SOL     OW 6685   1.346   0.123   2.770
 1929SOL    HW1 6686   1.261   0.171   2.746
 1929SOL    HW2 6687   1.332   0.024   2.762
 1930SOL     OW 6688   6.424   4.595   0.036
 1930SOL    HW1 6689   6.523   4.578   0.040
 1930SOL    HW2 6690   6.399   4.625   6.961
 1931SOL     OW 6691   1.194   2.603   5.079
 1931SOL    HW1 6692   1.149   2.683   5.119
 1931SOL    HW2 6693   1.154   2.583   4.989
 1932SOL     OW 6694   5.968   3.096   2.460
 1932SOL    HW1 6695   6.000   3.132   2.372
 1932SOL    HW2 6696   5.937   3.172   2.517
 1933SOL     OW 6697   2.790   4.458   1.332
 1933SOL    HW1 6698   2.694   4.487   1.342
 1933SOL    HW2 6699   2.821   4.417   1.418
 1934SOL     OW 6700   0.517   5.945   4.205
 1934SOL    HW1 6701   0.523   5.899   4.294
 1934SOL    HW2 6702   0.433   5.998   4.201
 1935SOL     OW 6703   2.398   0.695   4.053
 1935SOL    HW1 6704   2.370   0.782   4.012
 1935SOL    HW2 6705   2.435   0.635   3.982
 1936SOL     OW 6706   6.590   5.815   5.771
 1936SOL    HW1 6707   6.508   5.757   5.771
 1936SOL    HW2 6708   6.628   5.818   5.678
 1937SOL     OW 6709   4.284   0.010   2.737
 1937SOL    HW1 6710   4.296   0.036   2.642
 1937SOL    HW2 6711   4.207   6.963   2.745
 1938SOL     OW 6712   5.253   0.453   3.872
 1938SOL    HW1 6713   5.207   0.387   3.812
 1938SOL    HW2 6714   5.286   0.530   3.818
 1939SOL     OW 6715   2.489   0.204   2.942
 1939SOL    HW1 6716   2.430   0.150   2.882
 1939SOL    HW2 6717   2.527   0.146   3.014
 1940SOL     OW 6718   6.962   5.033   6.753
 1940SOL    HW1 6719   6.864   5.029   6.732
 1940SOL    HW2 6720   7.013   5.050   6.669
 1941SOL     OW 6721   4.852   4.915   3.222
 1941SOL    HW1 6722   4.914   4.837   3.229
 1941SOL    HW2 6723   4.906   4.999   3.207
 1942SOL     OW 6724   5.936   5.531   2.879
 1942SOL    HW1 6725   6.025   5.565   2.909
 1942SOL    HW2 6726   5.866   5.601   2.897
 1943SOL     OW 6727   3.237   5.316   2.655
 1943SOL    HW1 6728   3.174   5.393   2.643
 1943SOL    HW2 6729   3.205   5.238   2.601
 1944SOL     OW 6730   6.817   1.094   1.913
 1944SOL    HW1 6731   6.745   1.153   1.949
 1944SOL    HW2 6732   6.780   1.002   1.897
 1945SOL     OW 6733   2.882   5.189   4.202
 1945SOL    HW1 6734   2.834   5.210   4.287
 1945SOL    HW2 6735   2.959   5.129   4.221
 1946SOL     OW 6736   1.784   0.314   6.959
 1946SOL    HW1 6737   1.806   0.401   7.003
 1946SOL    HW2 6738   1.743   0.252   0.010
 1947SOL     OW 6739   5.736   6.554   4.402
 1947SOL    HW1 6740   5.768   6.619   4.471
 1947SOL    HW2 6741   5.760   6.586   4.311
 1948SOL     OW 6742   6.224   4.178   5.653
 1948SOL    HW1 6743   6.168   4.137   5.725
 1948SOL    HW2 6744   6.230   4.115   5.575
 1949SOL     OW 6745   5.387   4.271   6.659
 1949SOL    HW1 6746   5.316   4.336   6.684
 1949SOL    HW2 6747   5.365   4.181   6.698
 1950SOL     OW 6748   3.305   3.351   0.498
 1950SOL    HW1 6749   3.283   3.447   0.482
 1950SOL    HW2 6750   3.228   3.306   0.543
 1951SOL     OW 6751   6.702   1.953   6.929
 1951SOL    HW1 6752   6.708   1.868   6.982
 1951SOL    HW2 6753   6.620   1.952   6.872
 1952SOL     OW 6754   3.598   1.763   5.527
 1952SOL    HW1 6755   3.540   1.821   5.469
 1952SOL    HW2 6756   3.548   1.681   5.554
 1953SOL     OW 6757   0.240   3.590   5.598
 1953SOL    HW1 6758   0.252   3.577   5.696
 1953SOL    HW2 6759   0.285   3.515   5.549
 1954SOL     OW 6760   2.975   2.176   3.824
 1954SOL    HW1 6761   2.973   2.160   3.923
 1954SOL    HW2 6762   2.914   2.111   3.779
 1955SOL     OW 6763   6.481   5.774   2.837
 1955SOL    HW1 6764   6.521   5.803   2.924
 1955SOL    HW2 6765   6.412   5.840   2.808
 1956SOL     OW 6766   5.822   6.005   2.397
 1956SOL    HW1 6767   5.824   5.966   2.489
 1956SOL    HW2 6768   5.773   5.942   2.336
 1957SOL     OW 6769   0.924   6.986   5.023
 1957SOL    HW1 6770   1.024   6.985   5.017
 1957SOL    HW2 6771   0.885   6.972   4.932
 1958SOL     OW 6772   5.441   3.692   5.931
 1958SOL    HW1 6773   5.363   3.712   5.991
 1958SOL    HW2 6774   5.519   3.665   5.987
 1959SOL     OW 6775   1.301   2.321   6.212
 1959SOL    HW1 6776   1.275   2.289   6.303
 1959SOL    HW2 6777   1.244   2.277   6.143
 1960SOL     OW 6778   5.752   6.413   1.295
 1960SOL    HW1 6779   5.666   6.366   1.276
 1960SOL    HW2 6780   5.762   6.425   1.394
 1961SOL     OW 6781   5.882   4.934   3.938
 1961SOL    HW1 6782   5.825   4.872   3.991
 1961SOL    HW2 6783   5.939   4.989   3.999
 1962SOL     OW 6784   6.783   6.423   3.107
 1962SOL    HW1 6785   6.743   6.344   3.060
 1962SOL    HW2 6786   6.728   6.504   3.088
 1963SOL     OW 6787   2.071   0.185   2.787
 1963SOL    HW1 6788   2.012   0.174   2.708
 1963SOL    HW2 6789   2.156   0.230   2.760
 1964SOL     OW 6790   5.843   3.471   2.840
 1964SOL    HW1 6791   5.846   3.515   2.930
 1964SOL    HW2 6792   5.842   3.542   2.769
 1965SOL     OW 6793   1.978   4.847   3.682
 1965SOL    HW1 6794   2.049   4.904   3.642
 1965SOL    HW2 6795   2.010   4.752   3.689
 1966SOL     OW 6796   6.306   5.779   5.867
 1966SOL    HW1 6797   6.297   5.872   5.832
 1966SOL    HW2 6798   6.281   5.777   5.964
 1967SOL     OW 6799   4.808   2.339   4.823
 1967SOL    HW1 6800   4.863   2.362   4.903
 1967SOL    HW2 6801   4.723   2.392   4.824
 1968SOL     OW 6802   3.078   5.387   6.358
 1968SOL    HW1 6803   3.141   5.310   6.371
 1968SOL    HW2 6804   3.105   5.438   6.276
 1969SOL     OW 6805   6.586   2.836   1.180
 1969SOL    HW1 6806   6.636   2.887   1.111
 1969SOL    HW2 6807   6.551   2.899   1.249
 1970SOL     OW 6808   1.695   0.071   3.450
 1970SOL    HW1 6809   1.627   0.139   3.476
 1970SOL    HW2 6810   1.655   6.996   3.456
 1971SOL     OW 6811   0.311   6.201   6.643
 1971SOL    HW1 6812   0.280   6.240   6.730
 1971SOL    HW2 6813   0.290   6.265   6.569
 1972SOL     OW 6814   0.725   5.091   3.767
 1972SOL    HW1 6815   0.729   4.993   3.751
 1972SOL    HW2 6816   0.632   5.117   3.794
 1973SOL     OW 6817   2.902   2.918   0.573
 1973SOL    HW1 6818   2.857   2.853   0.635
 1973SOL    HW2 6819   2.838   2.943   0.500
 1974SOL     OW 6820   5.668   0.349   4.310
 1974SOL    HW1 6821   5.627   0.381   4.395
 1974SOL    HW2 6822   5.614   0.382   4.232
 1975SOL     OW 6823   3.492   0.531   3.262
 1975SOL    HW1 6824   3.413   0.545   3.321
 1975SOL    HW2 6825   3.521   0.618   3.224
 1976SOL     OW 6826   6.906   4.865   6.986
 1976SOL    HW1 6827   6.997   4.824   6.990
 1976SOL    HW2 6828   6.900   4.924   6.906
 1977SOL     OW 6829   1.771   2.735   4.961
 1977SOL    HW1 6830   1.775   2.715   5.059
 1977SOL    HW2 6831   1.779   2.649   4.910
 1978SOL     OW 6832   6.642   1.475   4.813
 1978SOL    HW1 6833   6.568   1.539   4.792
 1978SOL    HW2 6834   6.722   1.499   4.759
 1979SOL     OW 6835   5.497   5.013   3.726
 1979SOL    HW1 6836   5.453   4.949   3.662
 1979SOL    HW2 6837   5.576   5.055   3.681
 1980SOL     OW 6838   4.308   0.247   1.361
 1980SOL    HW1 6839   4.331   0.321   1.424
 1980SOL    HW2 6840   4.219   0.208   1.386
 1981SOL     OW 6841   4.584   3.263   1.675
 1981SOL    HW1 6842   4.615   3.184   1.727
 1981SOL    HW2 6843   4.484   3.262   1.667
 1982SOL     OW 6844   5.683   6.401   5.109
 1982SOL    HW1 6845   5.713   6.496   5.117
 1982SOL    HW2 6846   5.748   6.350   5.054
 1983SOL     OW 6847   0.544   3.661   3.317
 1983SOL    HW1 6848   0.476   3.716   3.365
 1983SOL    HW2 6849   0.604   3.721   3.264
 1984SOL     OW 6850   4.273   0.469   5.737
 1984SOL    HW1 6851   4.353   0.526   5.756
 1984SOL    HW2 6852   4.220   0.509   5.663
 1985SOL     OW 6853   1.425   0.838   1.440
 1985SOL    HW1 6854   1.357   0.874   1.504
 1985SOL    HW2 6855   1.499   0.904   1.431
 1986SOL     OW 6856   1.280   1.470   5.999
 1986SOL    HW1 6857   1.187   1.501   6.018
 1986SOL    HW2 6858   1.291   1.375   6.030
 1987SOL     OW 6859   2.860   2.915   6.920
 1987SOL    HW1 6860   2.910   2.877   6.842
 1987SOL    HW2 6861   2.777   2.960   6.887
 1988SOL     OW 6862   4.359   3.379   1.030
 1988SOL    HW1 6863   4.273   3.393   0.981
 1988SOL    HW2 6864   4.339   3.354   1.125
 1989SOL     OW 6865   2.611   0.170   4.240
 1989SOL    HW1 6866   2.545   0.102   4.271
 1989SOL    HW2 6867   2.570   0.261   4.242
 1990SOL     OW 6868   2.451   0.931   1.919
 1990SOL    HW1 6869   2.377   0.970   1.973
 1990SOL    HW2 6870   2.532   0.919   1.977
 1991SOL     OW 6871   3.414   5.372   4.705
 1991SOL    HW1 6872   3.395   5.363   4.802
 1991SOL    HW2 6873   3.342   5.326   4.652
 1992SOL     OW 6874   2.040   6.572   5.324
 1992SOL    HW1 6875   2.102   6.639   5.283
 1992SOL    HW2 6876   1.955   6.568   5.272
 1993SOL     OW 6877   3.743   3.289   5.217
 1993SOL    HW1 6878   3.722   3.300   5.120
 1993SOL    HW2 6879   3.690   3.354   5.271
 1994SOL     OW 6880   6.352   2.401   2.319
 1994SOL    HW1 6881   6.442   2.362   2.299
 1994SOL    HW2 6882   6.329   2.468   2.248
 1995SOL     OW 6883   5.350   2.419   1.871
 1995SOL    HW1 6884   5.449   2.415   1.857
 1995SOL    HW2 6885   5.328   2.377   1.959
 1996SOL     OW 6886   3.206   4.226   0.287
 1996SOL    HW1 6887   3.171   4.304   0.339
 1996SOL    HW2 6888   3.166   4.227   0.195
 1997SOL     OW 6889   5.407   0.925   3.665
 1997SOL    HW1 6890   5.336   0.938   3.597
 1997SOL    HW2 6891   5.381   0.972   3.750
 1998SOL     OW 6892   2.940   4.852   5.117
 1998SOL    HW1 6893   2.995   4.826   5.197
 1998SOL    HW2 6894   2.892   4.772   5.083
 1999SOL     OW 6895   2.071   1.087   1.944
 1999SOL    HW1 6896   2.005   1.063   2.015
 1999SOL    HW2 6897   2.055   1.030   1.863
 2000SOL     OW 6898   3.855   2.058   5.109
 2000SOL    HW1 6899   3.798   2.131   5.147
 2000SOL    HW2 6900   3.884   2.083   5.017
 2001SOL     OW 6901   2.973   2.189   0.839
 2001SOL    HW1 6902   2.941   2.243   0.917
 2001SOL    HW2 6903   2.993   2.095   0.869
 2002SOL     OW 6904   1.766   4.940   4.932
 2002SOL    HW1 6905   1.763   4.971   5.027
 2002SOL    HW2 6906   1.761   4.840   4.929
 2003SOL     OW 6907   6.310   5.938   3.932
 2003SOL    HW1 6908   6.305   5.968   3.837
 2003SOL    HW2 6909   6.249   5.993   3.988
 2004SOL     OW 6910   2.916   0.807   5.714
 2004SOL    HW1 6911   2.940   0.715   5.684
 2004SOL    HW2 6912   2.819   0.812   5.735
 2005SOL     OW 6913   2.675   6.115   5.940
 2005SOL    HW1 6914   2.590   6.125   5.991
 2005SOL    HW2 6915   2.708   6.021   5.947
 2006SOL     OW 6916   3.831   4.867   3.798
 2006SOL    HW1 6917   3.820   4.965   3.811
 2006SOL    HW2 6918   3.868   4.826   3.882
 2007SOL     OW 6919   5.649   5.942   0.625
 2007SOL    HW1 6920   5.584   6.010   0.594
 2007SOL    HW2 6921   5.724   5.934   0.559
 2008SOL     OW 6922   0.492   5.812   3.958
 2008SOL    HW1 6923   0.588   5.808   3.929
 2008SOL    HW2 6924   0.487   5.853   4.049
 2009SOL     OW 6925   0.381   0.124   1.999
 2009SOL    HW1 6926   0.370   0.223   1.988
 2009SOL    HW2 6927   0.473   0.097   1.971
 2010SOL     OW 6928   1.544   0.448   0.588
 2010SOL    HW1 6929   1.477   0.468   0.517
 2010SOL    HW2 6930   1.580   0.533   0.626
 2011SOL     OW 6931   0.116   2.265   5.162
 2011SOL    HW1 6932   0.085   2.241   5.255
 2011SOL    HW2 6933   0.177   2.194   5.128
 2012SOL     OW 6934   1.092   3.756   1.263
 2012SOL    HW1 6935   1.061   3.688   1.329
 2012SOL    HW2 6936   1.149   3.710   1.194
 2013SOL     OW 6937   4.877   1.428   2.207
 2013SOL    HW1 6938   4.917   1.421   2.298
 2013SOL    HW2 6939   4.933   1.488   2.150
 2014SOL     OW 6940   2.148   5.574   2.206
 2014SOL    HW1 6941   2.209   5.653   2.218
 2014SOL    HW2 6942   2.081   5.572   2.280
 2015SOL     OW 6943   3.465   0.018   6.709
 2015SOL    HW1 6944   3.565   0.019   6.714
 2015SOL    HW2 6945   3.436   6.974   6.634
 2016SOL     OW 6946   0.256   5.312   4.668
 2016SOL    HW1 6947   0.179   5.330   4.608
 2016SOL    HW2 6948   0.277   5.214   4.666
 2017SOL     OW 6949   3.186   5.740   2.721
 2017SOL    HW1 6950   3.149   5.821   2.676
 2017SOL    HW2 6951   3.116   5.668   2.723
 2018SOL     OW 6952   0.869   5.630   5.560
 2018SOL    HW1 6953   0.859   5.705   5.625
 2018SOL    HW2 6954   0.878   5.544   5.610
 2019SOL     OW 6955   6.185   1.752   2.506
 2019SOL    HW1 6956   6.100   1.719   2.465
 2019SOL    HW2 6957   6.258   1.747   2.437
 2020SOL     OW 6958   2.879   6.164   3.060
 2020SOL    HW1 6959   2.842   6.256   3.072
 2020SOL    HW2 6960   2.899   6.148   2.963
 2021SOL     OW 6961   0.988   0.532   2.100
 2021SOL    HW1 6962   0.944   0.575   2.022
 2021SOL    HW2 6963   0.983   0.593   2.179
 2022SOL     OW 6964   2.035   3.722   1.585
 2022SOL    HW1 6965   1.937   3.736   1.575
 2022SOL    HW2 6966   2.058   3.718   1.683
 2023SOL     OW 6967   6.748   1.027   5.679
 2023SOL    HW1 6968   6.723   1.017   5.583
 2023SOL    HW2 6969   6.670   1.003   5.737
 2024SOL     OW 6970   5.948   0.909   3.757
 2024SOL    HW1 6971   5.943   0.809   3.760
 2024SOL    HW2 6972   5.856   0.946   3.773
 2025SOL     OW 6973   7.008   1.349   1.482
 2025SOL    HW1 6974   7.006   1.294   1.565
 2025SOL    HW2 6975   6.939   1.315   1.418
 2026SOL     OW 6976   1.693   1.556   5.406
 2026SOL    HW1 6977   1.646   1.600   5.329
 2026SOL    HW2 6978   1.790   1.545   5.385
 2027SOL     OW 6979   0.842   1.587   3.200
 2027SOL    HW1 6980   0.890   1.598   3.287
 2027SOL    HW2 6981   0.746   1.566   3.217
 2028SOL     OW 6982   4.063   2.953   0.058
 2028SOL    HW1 6983   4.050   3.044   0.018
 2028SOL    HW2 6984   3.977   2.923   0.099
 2029SOL     OW 6985   1.038   0.903   0.149
 2029SOL    HW1 6986   1.023   0.872   0.055
 2029SOL    HW2 6987   1.049   1.002   0.149
 2030SOL     OW 6988   1.927   1.136   3.416
 2030SOL    HW1 6989   1.934   1.037   3.409
 2030SOL    HW2 6990   1.953   1.177   3.328
 2031SOL     OW 6991   5.556   0.215   2.138
 2031SOL    HW1 6992   5.523   0.290   2.080
 2031SOL    HW2 6993   5.525   0.128   2.101
 2032SOL     OW 6994   5.202   6.696   1.565
 2032SOL    HW1 6995   5.104   6.680   1.566
 2032SOL    HW2 6996   5.245   6.638   1.496
 2033SOL     OW 6997   5.634   5.268   6.834
 2033SOL    HW1 6998   5.623   5.362   6.801
 2033SOL    HW2 6999   5.730   5.252   6.857
 2034SOL     OW 7000   2.159   0.068   2.534
 2034SOL    HW1 7001   2.131   7.015   2.601
 2034SOL    HW2 7002   2.088   0.137   2.526
 2035SOL     OW 7003   1.162   2.548   2.270
 2035SOL    HW1 7004   1.187   2.454   2.249
 2035SOL    HW2 7005   1.181   2.606   2.191
 2036SOL     OW 7006   2.142   4.363   0.837
 2036SOL    HW1 7007   2.045   4.369   0.813
 2036SOL    HW2 7008   2.197   4.383   0.756
 2037SOL     OW 7009   0.220   1.372   5.782
 2037SOL    HW1 7010   0.231   1.467   5.812
 2037SOL    HW2 7011   0.308   1.336   5.750
 2038SOL     OW 7012   0.694   0.612   4.091
 2038SOL    HW1 7013   0.637   0.670   4.149
 2038SOL    HW2 7014   0.655   0.608   3.999
 2039SOL     OW 7015   0.515   5.371   2.323
 2039SOL    HW1 7016   0.611   5.398   2.317
 2039SOL    HW2 7017   0.504   5.276   2.293
 2040SOL     OW 7018   4.130   3.360   4.641
 2040SOL    HW1 7019   4.086   3.321   4.722
 2040SOL    HW2 7020   4.214   3.310   4.621
 2041SOL     OW 7021   6.384   4.326   5.800
 2041SOL    HW1 7022   6.441   4.279   5.867
 2041SOL    HW2 7023   6.341   4.259   5.740
 2042SOL     OW 7024   4.272   5.421   6.857
 2042SOL    HW1 7025   4.335   5.440   6.932
 2042SOL    HW2 7026   4.321   5.373   6.783
 2043SOL     OW 7027   5.515   4.601   1.696
 2043SOL    HW1 7028   5.532   4.530   1.765
 2043SOL    HW2 7029   5.451   4.566   1.627
 2044SOL     OW 7030   6.485   0.037   2.158
 2044SOL    HW1 7031   6.406   0.078   2.203
 2044SOL    HW2 7032   6.464   0.023   2.061
 2045SOL     OW 7033   1.910   5.140   5.985
 2045SOL    HW1 7034   1.874   5.137   5.892
 2045SOL    HW2 7035   2.005   5.110   5.985
 2046SOL     OW 7036   6.593   6.995   4.981
 2046SOL    HW1 7037   6.619   0.026   4.897
 2046SOL    HW2 7038   6.579   6.898   4.961
 2047SOL     OW 7039   5.734   2.622   0.322
 2047SOL    HW1 7040   5.685   2.704   0.353
 2047SOL    HW2 7041   5.755   2.630   0.225
 2048SOL     OW 7042   4.853   0.091   5.771
 2048SOL    HW1 7043   4.924   0.028   5.739
 2048SOL    HW2 7044   4.854   0.095   5.871
 2049SOL     OW 7045   4.773   0.602   0.396
 2049SOL    HW1 7046   4.690   0.573   0.349
 2049SOL    HW2 7047   4.852   0.588   0.337
 2050SOL     OW 7048   5.457   2.385   3.841
 2050SOL    HW1 7049   5.370   2.412   3.881
 2050SOL    HW2 7050   5.475   2.439   3.758
 2051SOL     OW 7051   1.782   5.768   0.577
 2051SOL    HW1 7052   1.750   5.770   0.672
 2051SOL    HW2 7053   1.714   5.812   0.518
 2052SOL     OW 7054   0.923   2.703   0.921
 2052SOL    HW1 7055   0.908   2.606   0.938
 2052SOL    HW2 7056   0.878   2.757   0.992
 2053SOL     OW 7057   6.024   0.669   0.346
 2053SOL    HW1 7058   6.051   0.574   0.364
 2053SOL    HW2 7059   6.104   0.728   0.348
 2054SOL     OW 7060   5.828   2.537   0.854
 2054SOL    HW1 7061   5.748   2.572   0.901
 2054SOL    HW2 7062   5.844   2.589   0.771
 2055SOL     OW 7063   5.420   2.675   4.246
 2055SOL    HW1 7064   5.451   2.607   4.179
 2055SOL    HW2 7065   5.343   2.727   4.208
 2056SOL     OW 7066   2.081   0.781   3.500
 2056SOL    HW1 7067   2.055   0.753   3.407
 2056SOL    HW2 7068   2.044   0.715   3.566
 2057SOL     OW 7069   0.099   3.103   3.959
 2057SOL    HW1 7070   0.019   3.143   4.004
 2057SOL    HW2 7071   0.158   3.060   4.027
 2058SOL     OW 7072   6.888   2.282   2.585
 2058SOL    HW1 7073   6.985   2.301   2.599
 2058SOL    HW2 7074   6.834   2.328   2.655
 2059SOL     OW 7075   1.936   1.352   6.852
 2059SOL    HW1 7076   1.942   1.433   6.794
 2059SOL    HW2 7077   2.003   1.284   6.822
 2060SOL     OW 7078   0.577   4.990   2.645
 2060SOL    HW1 7079   0.484   5.026   2.653
 2060SOL    HW2 7080   0.642   5.054   2.685
 2061SOL     OW 7081   6.644   1.794   1.662
 2061SOL    HW1 7082   6.627   1.888   1.635
 2061SOL    HW2 7083   6.692   1.793   1.750
 2062SOL     OW 7084   4.697   0.553   3.166
 2062SOL    HW1 7085   4.689   0.462   3.207
 2062SOL    HW2 7086   4.641   0.557   3.083
 2063SOL     OW 7087   2.134   2.805   6.492
 2063SOL    HW1 7088   2.079   2.764   6.420
 2063SOL    HW2 7089   2.209   2.857   6.451
 2064SOL     OW 7090   1.105   2.687   0.122
 2064SOL    HW1 7091   1.036   2.648   0.184
 2064SOL    HW2 7092   1.188   2.631   0.126
 2065SOL     OW 7093   6.012   4.048   1.348
 2065SOL    HW1 7094   6.108   4.034   1.321
 2065SOL    HW2 7095   5.987   3.980   1.417
 2066SOL     OW 7096   1.114   6.791   4.233
 2066SOL    HW1 7097   1.064   6.863   4.184
 2066SOL    HW2 7098   1.123   6.711   4.173
 2067SOL     OW 7099   6.415   0.084   1.642
 2067SOL    HW1 7100   6.320   0.092   1.672
 2067SOL    HW2 7101   6.437   0.163   1.583
 2068SOL     OW 7102   1.759   1.954   5.238
 2068SOL    HW1 7103   1.673   1.973   5.285
 2068SOL    HW2 7104   1.808   2.040   5.224
 2069SOL     OW 7105   0.587   2.469   2.215
 2069SOL    HW1 7106   0.648   2.543   2.187
 2069SOL    HW2 7107   0.642   2.389   2.241
 2070SOL     OW 7108   1.076   0.799   2.578
 2070SOL    HW1 7109   1.127   0.740   2.516
 2070SOL    HW2 7110   1.057   0.886   2.532
 2071SOL     OW 7111   1.379   6.877   4.206
 2071SOL    HW1 7112   1.300   6.851   4.262
 2071SOL    HW2 7113   1.462   6.875   4.262
 2072SOL     OW 7114   4.984   5.323   1.770
 2072SOL    HW1 7115   5.048   5.395   1.743
 2072SOL    HW2 7116   5.030   5.261   1.834
 2073SOL     OW 7117   2.721   6.777   6.043
 2073SOL    HW1 7118   2.709   6.789   6.142
 2073SOL    HW2 7119   2.756   6.685   6.025
 2074SOL     OW 7120   5.902   1.603   1.986
 2074SOL    HW1 7121   5.845   1.679   1.955
 2074SOL    HW2 7122   5.941   1.556   1.906
 2075SOL     OW 7123   4.528   3.211   0.618
 2075SOL    HW1 7124   4.527   3.191   0.716
 2075SOL    HW2 7125   4.576   3.138   0.569
 2076SOL     OW 7126   5.375   6.925   1.202
 2076SOL    HW1 7127   5.349   7.013   1.163
 2076SOL    HW2 7128   5.317   6.904   1.280
 2077SOL     OW 7129   5.312   1.212   2.761
 2077SOL    HW1 7130   5.283   1.145   2.829
 2077SOL    HW2 7131   5.266   1.299   2.778
 2078SOL     OW 7132   3.241   4.957   5.940
 2078SOL    HW1 7133   3.334   4.963   5.906
 2078SOL    HW2 7134   3.216   4.861   5.954
 2079SOL     OW 7135   5.389   0.971   3.931
 2079SOL    HW1 7136   5.309   0.972   3.992
 2079SOL    HW2 7137   5.445   0.891   3.952
 2080SOL     OW 7138   2.549   2.537   4.419
 2080SOL    HW1 7139   2.602   2.503   4.496
 2080SOL    HW2 7140   2.520   2.631   4.436
 2081SOL     OW 7141   0.501   6.597   5.456
 2081SOL    HW1 7142   0.423   6.559   5.505
 2081SOL    HW2 7143   0.472   6.631   5.367
 2082SOL     OW 7144   5.513   1.040   1.377
 2082SOL    HW1 7145   5.605   1.062   1.410
 2082SOL    HW2 7146   5.469   0.978   1.442
 2083SOL     OW 7147   3.741   4.771   6.378
 2083SOL    HW1 7148   3.650   4.783   6.337
 2083SOL    HW2 7149   3.763   4.674   6.382
 2084SOL     OW 7150   0.056   2.863   3.361
 2084SOL    HW1 7151   0.010   2.938   3.407
 2084SOL    HW2 7152   7.009   2.817   3.299
 2085SOL     OW 7153   5.242   0.597   5.796
 2085SOL    HW1 7154   5.335   0.561   5.789
 2085SOL    HW2 7155   5.177   0.522   5.809
 2086SOL     OW 7156   2.707   4.942   0.736
 2086SOL    HW1 7157   2.711   4.942   0.636
 2086SOL    HW2 7158   2.683   4.851   0.769
 2087SOL     OW 7159   5.177   6.916   3.671
 2087SOL    HW1 7160   5.201   6.852   3.598
 2087SOL    HW2 7161   5.078   6.926   3.676
 2088SOL     OW 7162   3.656   0.241   0.776
 2088SOL    HW1 7163   3.628   0.162   0.721
 2088SOL    HW2 7164   3.616   0.233   0.868
 2089SOL     OW 7165   4.291   0.595   6.721
 2089SOL    HW1 7166   4.362   0.647   6.768
 2089SOL    HW2 7167   4.235   0.657   6.666
 2090SOL     OW 7168   3.529   3.567   4.780
 2090SOL    HW1 7169   3.522   3.630   4.858
 2090SOL    HW2 7170   3.566   3.616   4.701
 2091SOL     OW 7171   1.926   5.039   1.411
 2091SOL    HW1 7172   2.014   5.031   1.457
 2091SOL    HW2 7173   1.881   4.949   1.407
 2092SOL     OW 7174   6.722   6.434   0.954
 2092SOL    HW1 7175   6.744   6.426   1.052
 2092SOL    HW2 7176   6.761   6.519   0.918
 2093SOL     OW 7177   0.968   3.073   1.692
 2093SOL    HW1 7178   1.060   3.042   1.669
 2093SOL    HW2 7179   0.955   3.071   1.791
 2094SOL     OW 7180   5.740   0.176   2.387
 2094SOL    HW1 7181   5.789   0.090   2.374
 2094SOL    HW2 7182   5.657   0.176   2.331
 2095SOL     OW 7183   5.677   5.547   4.874
 2095SOL    HW1 7184   5.722   5.616   4.931
 2095SOL    HW2 7185   5.695   5.456   4.912
 2096SOL     OW 7186   4.914   4.020   2.379
 2096SOL    HW1 7187   4.836   3.988   2.326
 2096SOL    HW2 7188   4.886   4.032   2.474
 2097SOL     OW 7189   0.263   2.412   6.863
 2097SOL    HW1 7190   0.242   2.408   6.765
 2097SOL    HW2 7191   0.253   2.507   6.895
 2098SOL     OW 7192   4.506   0.180   4.157
 2098SOL    HW1 7193   4.567   0.119   4.208
 2098SOL    HW2 7194   4.485   0.140   4.068
 2099SOL     OW 7195   3.429   1.448   4.212
 2099SOL    HW1 7196   3.411   1.404   4.300
 2099SOL    HW2 7197   3.460   1.380   4.147
 2100SOL     OW 7198   4.620   4.066   6.409
 2100SOL    HW1 7199   4.590   3.978   6.445
 2100SOL    HW2 7200   4.642   4.127   6.485
 2101SOL     OW 7201   0.394   6.887   3.421
 2101SOL    HW1 7202   0.313   6.928   3.462
 2101SOL    HW2 7203   0.398   6.911   3.324
 2102SOL     OW 7204   0.021   5.020   3.099
 2102SOL    HW1 7205   7.011   5.098   3.042
 2102SOL    HW2 7206   0.092   4.967   3.053
 2103SOL     OW 7207   3.488   3.685   6.472
 2103SOL    HW1 7208   3.556   3.713   6.540
 2103SOL    HW2 7209   3.424   3.759   6.456
 2104SOL     OW 7210   1.433   3.173   5.477
 2104SOL    HW1 7211   1.426   3.273   5.472
 2104SOL    HW2 7212   1.391   3.133   5.395
 2105SOL     OW 7213   6.172   5.956   1.676
 2105SOL    HW1 7214   6.153   5.920   1.767
 2105SOL    HW2 7215   6.270   5.955   1.659
 2106SOL     OW 7216   4.688   5.482   6.885
 2106SOL    HW1 7217   4.740   5.404   6.852
 2106SOL    HW2 7218   4.623   5.451   6.955
 2107SOL     OW 7219   4.234   4.288   5.989
 2107SOL    HW1 7220   4.248   4.377   5.946
 2107SOL    HW2 7221   4.307   4.271   6.055
 2108SOL     OW 7222   5.747   4.828   5.886
 2108SOL    HW1 7223   5.688   4.766   5.835
 2108SOL    HW2 7224   5.841   4.795   5.882
 2109SOL     OW 7225   5.885   6.439   2.392
 2109SOL    HW1 7226   5.928   6.517   2.345
 2109SOL    HW2 7227   5.812   6.473   2.452
 2110SOL     OW 7228   2.576   4.329   6.358
 2110SOL    HW1 7229   2.508   4.316   6.430
 2110SOL    HW2 7230   2.549   4.406   6.300
 2111SOL     OW 7231   1.491   3.122   0.207
 2111SOL    HW1 7232   1.458   3.080   0.122
 2111SOL    HW2 7233   1.581   3.084   0.229
 2112SOL     OW 7234   4.757   2.946   1.427
 2112SOL    HW1 7235   4.686   2.920   1.492
 2112SOL    HW2 7236   4.745   2.894   1.342
 2113SOL     OW 7237   0.901   0.489   2.873
 2113SOL    HW1 7238   0.825   0.426   2.859
 2113SOL    HW2 7239   0.932   0.485   2.968
 2114SOL     OW 7240   2.239   3.628   6.999
 2114SOL    HW1 7241   2.144   3.643   0.008
 2114SOL    HW2 7242   2.295   3.616   0.064
 2115SOL     OW 7243   2.111   4.790   2.288
 2115SOL    HW1 7244   2.154   4.700   2.293
 2115SOL    HW2 7245   2.091   4.812   2.192
 2116SOL     OW 7246   0.606   4.481   3.293
 2116SOL    HW1 7247   0.697   4.454   3.325
 2116SOL    HW2 7248   0.551   4.511   3.370
 2117SOL     OW 7249   0.470   4.741   1.128
 2117SOL    HW1 7250   0.503   4.717   1.219
 2117SOL    HW2 7251   0.513   4.682   1.060
 2118SOL     OW 7252   0.322   3.910   2.296
 2118SOL    HW1 7253   0.421   3.914   2.285
 2118SOL    HW2 7254   0.283   3.849   2.227
 2119SOL     OW 7255   2.435   6.208   1.373
 2119SOL    HW1 7256   2.494   6.284   1.399
 2119SOL    HW2 7257   2.486   6.122   1.381
 2120SOL     OW 7258   6.731   4.938   1.936
 2120SOL    HW1 7259   6.748   4.885   2.019
 2120SOL    HW2 7260   6.797   5.013   1.929
 2121SOL     OW 7261   0.219   5.470   5.130
 2121SOL    HW1 7262   0.138   5.518   5.164
 2121SOL    HW2 7263   0.285   5.536   5.094
 2122SOL     OW 7264   4.629   4.452   5.087
 2122SOL    HW1 7265   4.715   4.461   5.038
 2122SOL    HW2 7266   4.555   4.495   5.034
 2123SOL     OW 7267   6.513   4.523   2.888
 2123SOL    HW1 7268   6.471   4.509   2.798
 2123SOL    HW2 7269   6.442   4.529   2.957
 2124SOL     OW 7270   2.363   1.724   0.711
 2124SOL    HW1 7271   2.420   1.804   0.694
 2124SOL    HW2 7272   2.373   1.659   0.635
 2125SOL     OW 7273   2.928   0.354   0.523
 2125SOL    HW1 7274   2.907   0.278   0.462
 2125SOL    HW2 7275   2.927   0.439   0.470
 2126SOL     OW 7276   2.730   0.695   6.828
 2126SOL    HW1 7277   2.798   0.623   6.834
 2126SOL    HW2 7278   2.648   0.661   6.782
 2127SOL     OW 7279   5.651   3.306   4.597
 2127SOL    HW1 7280   5.688   3.397   4.615
 2127SOL    HW2 7281   5.722   3.237   4.616
 2128SOL     OW 7282   0.319   4.755   3.970
 2128SOL    HW1 7283   0.386   4.682   3.958
 2128SOL    HW2 7284   0.313   4.807   3.885
 2129SOL     OW 7285   4.047   1.674   5.749
 2129SOL    HW1 7286   4.014   1.637   5.836
 2129SOL    HW2 7287   4.080   1.768   5.762
 2130SOL     OW 7288   4.316   6.699   2.432
 2130SOL    HW1 7289   4.304   6.671   2.527
 2130SOL    HW2 7290   4.404   6.667   2.398
 2131SOL     OW 7291   7.016   1.392   0.102
 2131SOL    HW1 7292   0.015   1.302   0.143
 2131SOL    HW2 7293   0.088   1.431   0.075
 2132SOL     OW 7294   1.883   3.074   0.542
 2132SOL    HW1 7295   1.785   3.054   0.536
 2132SOL    HW2 7296   1.925   3.058   0.453
 2133SOL     OW 7297   2.556   2.602   5.974
 2133SOL    HW1 7298   2.494   2.651   5.912
 2133SOL    HW2 7299   2.571   2.509   5.940
 2134SOL     OW 7300   1.147   0.593   0.444
 2134SOL    HW1 7301   1.197   0.635   0.520
 2134SOL    HW2 7302   1.147   0.656   0.366
 2135SOL     OW 7303   0.546   3.785   3.975
 2135SOL    HW1 7304   0.601   3.821   3.901
 2135SOL    HW2 7305   0.547   3.685   3.972
 2136SOL     OW 7306   2.308   5.736   1.740
 2136SOL    HW1 7307   2.402   5.772   1.737
 2136SOL    HW2 7308   2.250   5.801   1.788
 2137SOL     OW 7309   2.452   5.761   4.196
 2137SOL    HW1 7310   2.387   5.827   4.157
 2137SOL    HW2 7311   2.507   5.721   4.123
 2138SOL     OW 7312   5.368   1.763   2.402
 2138SOL    HW1 7313   5.349   1.666   2.391
 2138SOL    HW2 7314   5.464   1.781   2.385
 2139SOL     OW 7315   2.997   1.184   5.244
 2139SOL    HW1 7316   3.065   1.158   5.312
 2139SOL    HW2 7317   2.973   1.104   5.189
 2140SOL     OW 7318   2.239   1.351   5.339
 2140SOL    HW1 7319   2.266   1.302   5.256
 2140SOL    HW2 7320   2.276   1.444   5.337
 2141SOL     OW 7321   6.449   4.439   2.183
 2141SOL    HW1 7322   6.385   4.412   2.111
 2141SOL    HW2 7323   6.504   4.516   2.151
 2142SOL     OW 7324   2.001   1.623   3.363
 2142SOL    HW1 7325   1.936   1.581   3.301
 2142SOL    HW2 7326   1.967   1.615   3.457
 2143SOL     OW 7327   1.895   4.458   0.806
 2143SOL    HW1 7328   1.861   4.501   0.723
 2143SOL    HW2 7329   1.881   4.519   0.884
 2144SOL     OW 7330   6.380   6.090   4.587
 2144SOL    HW1 7331   6.288   6.079   4.625
 2144SOL    HW2 7332   6.439   6.133   4.655
 2145SOL     OW 7333   4.204   6.796   3.679
 2145SOL    HW1 7334   4.277   6.738   3.717
 2145SOL    HW2 7335   4.238   6.890   3.670
 2146SOL     OW 7336   2.282   2.911   0.861
 2146SOL    HW1 7337   2.267   2.825   0.910
 2146SOL    HW2 7338   2.206   2.928   0.798
 2147SOL     OW 7339   5.571   1.575   5.280
 2147SOL    HW1 7340   5.553   1.531   5.368
 2147SOL    HW2 7341   5.489   1.623   5.249
 2148SOL     OW 7342   0.393   3.036   0.048
 2148SOL    HW1 7343   0.320   3.009   0.111
 2148SOL    HW2 7344   0.479   2.995   0.077
 2149SOL     OW 7345   0.733   0.429   6.777
 2149SOL    HW1 7346   0.697   0.343   6.740
 2149SOL    HW2 7347   0.667   0.502   6.760
 2150SOL     OW 7348   2.238   3.266   1.464
 2150SOL    HW1 7349   2.330   3.305   1.469
 2150SOL    HW2 7350   2.184   3.318   1.398
 2151SOL     OW 7351   1.404   5.477   6.992
 2151SOL    HW1 7352   1.456   5.414   0.033
 2151SOL    HW2 7353   1.445   5.568   6.998
 2152SOL     OW 7354   3.962   6.069   3.511
 2152SOL    HW1 7355   3.982   6.019   3.426
 2152SOL    HW2 7356   3.917   6.007   3.576
 2153SOL     OW 7357   4.782   1.246   3.798
 2153SOL    HW1 7358   4.819   1.197   3.719
 2153SOL    HW2 7359   4.850   1.310   3.832
 2154SOL     OW 7360   3.009   6.993   2.884
 2154SOL    HW1 7361   3.014   0.061   2.936
 2154SOL    HW2 7362   3.077   6.928   2.919
 2155SOL     OW 7363   4.758   6.691   1.340
 2155SOL    HW1 7364   4.689   6.746   1.388
 2155SOL    HW2 7365   4.713   6.615   1.294
 2156SOL     OW 7366   5.654   1.593   3.975
 2156SOL    HW1 7367   5.730   1.647   4.010
 2156SOL    HW2 7368   5.575   1.652   3.959
 2157SOL     OW 7369   3.617   5.262   3.634
 2157SOL    HW1 7370   3.576   5.349   3.664
 2157SOL    HW2 7371   3.664   5.276   3.547
 2158SOL     OW 7372   3.210   0.706   0.148
 2158SOL    HW1 7373   3.255   0.646   0.214
 2158SOL    HW2 7374   3.196   0.796   0.189
 2159SOL     OW 7375   1.344   0.369   5.591
 2159SOL    HW1 7376   1.416   0.338   5.653
 2159SOL    HW2 7377   1.329   0.467   5.604
 2160SOL     OW 7378   5.731   6.374   0.616
 2160SOL    HW1 7379   5.760   6.390   0.521
 2160SOL    HW2 7380   5.751   6.455   0.671
 2161SOL     OW 7381   1.640   2.262   2.507
 2161SOL    HW1 7382   1.585   2.318   2.569
 2161SOL    HW2 7383   1.669   2.317   2.429
 2162SOL     OW 7384   1.404   7.014   2.330
 2162SOL    HW1 7385   1.372   0.021   2.238
 2162SOL    HW2 7386   1.420   0.081   2.382
 2163SOL     OW 7387   1.578   3.344   1.952
 2163SOL    HW1 7388   1.634   3.263   1.937
 2163SOL    HW2 7389   1.530   3.367   1.867
 2164SOL     OW 7390   1.753   2.742   2.523
 2164SOL    HW1 7391   1.836   2.792   2.498
 2164SOL    HW2 7392   1.702   2.719   2.439
 2165SOL     OW 7393   6.828   1.871   4.331
 2165SOL    HW1 7394   6.773   1.930   4.390
 2165SOL    HW2 7395   6.925   1.886   4.350
 2166SOL     OW 7396   0.130   3.865   3.424
 2166SOL    HW1 7397   0.045   3.903   3.459
 2166SOL    HW2 7398   0.135   3.880   3.325
 2167SOL     OW 7399   2.081   1.866   4.183
 2167SOL    HW1 7400   2.094   1.965   4.183
 2167SOL    HW2 7401   1.991   1.843   4.146
 2168SOL     OW 7402   1.837   1.505   3.176
 2168SOL    HW1 7403   1.899   1.506   3.097
 2168SOL    HW2 7404   1.764   1.439   3.160
 2169SOL     OW 7405   0.073   0.765   1.770
 2169SOL    HW1 7406   0.100   0.832   1.840
 2169SOL    HW2 7407   0.021   0.691   1.813
 2170SOL     OW 7408   0.994   4.332   5.425
 2170SOL    HW1 7409   0.905   4.291   5.444
 2170SOL    HW2 7410   0.984   4.403   5.355
 2171SOL     OW 7411   0.565   5.227   0.824
 2171SOL    HW1 7412   0.532   5.194   0.912
 2171SOL    HW2 7413   0.516   5.310   0.798
 2172SOL     OW 7414   0.976   1.733   5.046
 2172SOL    HW1 7415   0.933   1.823   5.040
 2172SOL    HW2 7416   0.976   1.702   5.141
 2173SOL     OW 7417   5.478   0.314   5.031
 2173SOL    HW1 7418   5.517   0.335   5.120
 2173SOL    HW2 7419   5.380   0.331   5.032
 2174SOL     OW 7420   0.203   6.496   5.300
 2174SOL    HW1 7421   0.298   6.466   5.287
 2174SOL    HW2 7422   0.189   6.583   5.252
 2175SOL     OW 7423   2.989   3.608   5.364
 2175SOL    HW1 7424   2.919   3.537   5.358
 2175SOL    HW2 7425   2.946   3.696   5.382
 2176SOL     OW 7426   5.367   2.153   1.673
 2176SOL    HW1 7427   5.308   2.184   1.748
 2176SOL    HW2 7428   5.421   2.230   1.639
 2177SOL     OW 7429   0.216   0.504   3.486
 2177SOL    HW1 7430   0.234   0.462   3.397
 2177SOL    HW2 7431   0.137   0.459   3.528
 2178SOL     OW 7432   0.896   2.271   2.622
 2178SOL    HW1 7433   0.925   2.262   2.717
 2178SOL    HW2 7434   0.797   2.286   2.619
 2179SOL     OW 7435   1.747   4.203   6.559
 2179SOL    HW1 7436   1.693   4.285   6.543
 2179SOL    HW2 7437   1.698   4.143   6.623
 2180SOL     OW 7438   0.859   5.856   1.858
 2180SOL    HW1 7439   0.907   5.770   1.843
 2180SOL    HW2 7440   0.801   5.876   1.778
 2181SOL     OW 7441   4.013   4.883   4.416
 2181SOL    HW1 7442   4.029   4.830   4.499
 2181SOL    HW2 7443   4.085   4.862   4.349
 2182SOL     OW 7444   0.203   5.562   2.642
 2182SOL    HW1 7445   0.190   5.476   2.692
 2182SOL    HW2 7446   0.268   5.547   2.567
 2183SOL     OW 7447   3.811   2.637   0.031
 2183SOL    HW1 7448   3.826   2.701   0.107
 2183SOL    HW2 7449   3.843   2.678   6.962
 2184SOL     OW 7450   6.308   0.865   7.011
 2184SOL    HW1 7451   6.387   0.916   0.031
 2184SOL    HW2 7452   6.340   0.779   6.971
 2185SOL     OW 7453   0.561   1.182   6.883
 2185SOL    HW1 7454   0.565   1.134   6.795
 2185SOL    HW2 7455   0.495   1.136   6.942
 2186SOL     OW 7456   6.738   5.456   4.958
 2186SOL    HW1 7457   6.746   5.407   4.871
 2186SOL    HW2 7458   6.785   5.544   4.950
 2187SOL     OW 7459   0.600   5.511   3.018
 2187SOL    HW1 7460   0.561   5.509   2.926
 2187SOL    HW2 7461   0.578   5.425   3.064
 2188SOL     OW 7462   2.147   0.303   0.761
 2188SOL    HW1 7463   2.173   0.337   0.851
 2188SOL    HW2 7464   2.124   0.380   0.701
 2189SOL     OW 7465   2.774   1.244   1.234
 2189SOL    HW1 7466   2.872   1.227   1.224
 2189SOL    HW2 7467   2.754   1.338   1.206
 2190SOL     OW 7468   6.314   4.258   2.361
 2190SOL    HW1 7469   6.334   4.329   2.293
 2190SOL    HW2 7470   6.362   4.174   2.337
 2191SOL     OW 7471   2.960   0.638   6.627
 2191SOL    HW1 7472   2.903   0.705   6.579
 2191SOL    HW2 7473   2.954   0.550   6.579
 2192SOL     OW 7474   4.362   1.039   1.532
 2192SOL    HW1 7475   4.438   0.982   1.501
 2192SOL    HW2 7476   4.280   0.984   1.541
 2193SOL     OW 7477   0.651   6.909   6.498
 2193SOL    HW1 7478   0.624   6.960   6.580
 2193SOL    HW2 7479   0.652   6.971   6.420
 2194SOL     OW 7480   0.908   4.245   6.151
 2194SOL    HW1 7481   0.839   4.314   6.128
 2194SOL    HW2 7482   0.965   4.278   6.226
 2195SOL     OW 7483   0.560   4.259   6.515
 2195SOL    HW1 7484   0.475   4.242   6.565
 2195SOL    HW2 7485   0.618   4.178   6.518
 2196SOL     OW 7486   2.878   6.320   5.849
 2196SOL    HW1 7487   2.837   6.234   5.880
 2196SOL    HW2 7488   2.924   6.305   5.762
 2197SOL     OW 7489   2.679   5.004   5.628
 2197SOL    HW1 7490   2.645   5.037   5.716
 2197SOL    HW2 7491   2.684   5.081   5.564
 2198SOL     OW 7492   0.473   0.838   6.293
 2198SOL    HW1 7493   0.402   0.838   6.363
 2198SOL    HW2 7494   0.550   0.895   6.323
 2199SOL     OW 7495   4.093   6.905   4.589
 2199SOL    HW1 7496   4.058   6.957   4.511
 2199SOL    HW2 7497   4.128   6.817   4.557
 2200SOL     OW 7498   2.819   1.365   4.240
 2200SOL    HW1 7499   2.783   1.323   4.324
 2200SOL    HW2 7500   2.743   1.395   4.182
 2201SOL     OW 7501   6.323   4.157   3.683
 2201SOL    HW1 7502   6.230   4.192   3.676
 2201SOL    HW2 7503   6.384   4.213   3.627
 2202SOL     OW 7504   4.165   5.875   2.049
 2202SOL    HW1 7505   4.262   5.885   2.073
 2202SOL    HW2 7506   4.115   5.840   2.128
 2203SOL     OW 7507   2.046   3.317   1.224
 2203SOL    HW1 7508   2.024   3.296   1.129
 2203SOL    HW2 7509   2.062   3.416   1.233
 2204SOL     OW 7510   4.573   3.060   1.062
 2204SOL    HW1 7511   4.527   3.112   1.135
 2204SOL    HW2 7512   4.646   3.005   1.102
 2205SOL     OW 7513   1.602   5.018   0.405
 2205SOL    HW1 7514   1.658   5.084   0.355
 2205SOL    HW2 7515   1.539   4.973   0.342
 2206SOL     OW 7516   2.612   2.668   6.238
 2206SOL    HW1 7517   2.574   2.755   6.268
 2206SOL    HW2 7518   2.606   2.661   6.138
 2207SOL     OW 7519   4.830   5.994   0.541
 2207SOL    HW1 7520   4.854   6.086   0.573
 2207SOL    HW2 7521   4.734   5.976   0.563
 2208SOL     OW 7522   0.896   5.898   4.142
 2208SOL    HW1 7523   0.834   5.969   4.110
 2208SOL    HW2 7524   0.914   5.833   4.068
 2209SOL     OW 7525   3.357   5.656   4.918
 2209SOL    HW1 7526   3.304   5.622   4.995
 2209SOL    HW2 7527   3.296   5.670   4.840
 2210SOL     OW 7528   5.149   6.329   1.247
 2210SOL    HW1 7529   5.099   6.415   1.256
 2210SOL    HW2 7530   5.085   6.257   1.221
 2211SOL     OW 7531   6.704   1.046   1.114
 2211SOL    HW1 7532   6.617   1.092   1.135
 2211SOL    HW2 7533   6.747   1.090   1.036
 2212SOL     OW 7534   2.468   6.327   6.820
 2212SOL    HW1 7535   2.562   6.360   6.823
 2212SOL    HW2 7536   2.407   6.398   6.856
 2213SOL     OW 7537   3.478   1.884   4.255
 2213SOL    HW1 7538   3.461   1.882   4.354
 2213SOL    HW2 7539   3.576   1.872   4.239
 2214SOL     OW 7540   4.192   3.185   6.036
 2214SOL    HW1 7541   4.220   3.250   5.965
 2214SOL    HW2 7542   4.149   3.235   6.111
 2215SOL     OW 7543   4.459   0.398   6.643
 2215SOL    HW1 7544   4.401   0.478   6.657
 2215SOL    HW2 7545   4.555   0.427   6.644
 2216SOL     OW 7546   0.611   6.755   6.117
 2216SOL    HW1 7547   0.585   6.794   6.028
 2216SOL    HW2 7548   0.563   6.668   6.130
 2217SOL     OW 7549   3.913   0.546   2.728
 2217SOL    HW1 7550   3.847   0.515   2.797
 2217SOL    HW2 7551   3.913   0.646   2.724
 2218SOL     OW 7552   0.503   5.441   5.586
 2218SOL    HW1 7553   0.512   5.427   5.685
 2218SOL    HW2 7554   0.407   5.457   5.563
 2219SOL     OW 7555   5.290   1.443   0.370
 2219SOL    HW1 7556   5.239   1.393   0.300
 2219SOL    HW2 7557   5.234   1.519   0.404
 2220SOL     OW 7558   0.715   6.275   5.726
 2220SOL    HW1 7559   0.725   6.346   5.796
 2220SOL    HW2 7560   0.793   6.213   5.732
 2221SOL     OW 7561   6.884   1.478   4.696
 2221SOL    HW1 7562   6.920   1.434   4.614
 2221SOL    HW2 7563   6.922   1.434   4.778
 2222SOL     OW 7564   4.836   6.164   1.280
 2222SOL    HW1 7565   4.748   6.121   1.259
 2222SOL    HW2 7566   4.877   6.197   1.195
 2223SOL     OW 7567   6.781   0.035   5.742
 2223SOL    HW1 7568   6.798   6.987   5.817
 2223SOL    HW2 7569   6.687   0.066   5.745
 2224SOL     OW 7570   5.624   3.906   0.964
 2224SOL    HW1 7571   5.574   3.836   1.015
 2224SOL    HW2 7572   5.562   3.949   0.898
 2225SOL     OW 7573   0.432   6.579   3.148
 2225SOL    HW1 7574   0.481   6.525   3.081
 2225SOL    HW2 7575   0.468   6.673   3.149
 2226SOL     OW 7576   2.345   4.933   0.778
 2226SOL    HW1 7577   2.257   4.886   0.770
 2226SOL    HW2 7578   2.397   4.896   0.855
 2227SOL     OW 7579   4.325   2.307   2.286
 2227SOL    HW1 7580   4.292   2.362   2.208
 2227SOL    HW2 7581   4.417   2.336   2.311
 2228SOL     OW 7582   4.828   4.872   0.003
 2228SOL    HW1 7583   4.906   4.933   0.021
 2228SOL    HW2 7584   4.752   4.926   6.984
 2229SOL     OW 7585   3.379   3.375   4.623
 2229SOL    HW1 7586   3.440   3.435   4.676
 2229SOL    HW2 7587   3.289   3.418   4.614
 2230SOL     OW 7588   5.337   6.675   0.496
 2230SOL    HW1 7589   5.383   6.632   0.418
 2230SOL    HW2 7590   5.405   6.703   0.564
 2231SOL     OW 7591   1.025   0.804   6.885
 2231SOL    HW1 7592   1.100   0.789   6.821
 2231SOL    HW2 7593   0.985   0.716   6.912
 2232SOL     OW 7594   1.690   0.327   5.446
 2232SOL    HW1 7595   1.760   0.392   5.477
 2232SOL    HW2 7596   1.614   0.326   5.512
 2233SOL     OW 7597   3.177   2.902   1.381
 2233SOL    HW1 7598   3.081   2.926   1.376
 2233SOL    HW2 7599   3.233   2.984   1.370
 2234SOL     OW 7600   3.932   1.882   0.857
 2234SOL    HW1 7601   3.837   1.856   0.879
 2234SOL    HW2 7602   3.965   1.947   0.926
 2235SOL     OW 7603   2.450   1.126   2.506
 2235SOL    HW1 7604   2.362   1.110   2.551
 2235SOL    HW2 7605   2.465   1.055   2.437
 2236SOL     OW 7606   2.134   4.243   5.552
 2236SOL    HW1 7607   2.035   4.237   5.536
 2236SOL    HW2 7608   2.180   4.167   5.507
 2237SOL     OW 7609   5.697   5.053   5.079
 2237SOL    HW1 7610   5.691   4.956   5.055
 2237SOL    HW2 7611   5.792   5.078   5.092
 2238SOL     OW 7612   5.330   4.339   2.328
 2238SOL    HW1 7613   5.283   4.252   2.316
 2238SOL    HW2 7614   5.417   4.337   2.278
 2239SOL     OW 7615   3.783   0.063   3.572
 2239SOL    HW1 7616   3.735   0.150   3.575
 2239SOL    HW2 7617   3.880   0.079   3.555
 2240SOL     OW 7618   5.003   5.638   3.030
 2240SOL    HW1 7619   4.927   5.703   3.022
 2240SOL    HW2 7620   5.017   5.592   2.942
 2241SOL     OW 7621   0.410   6.648   1.659
 2241SOL    HW1 7622   0.367   6.735   1.635
 2241SOL    HW2 7623   0.379   6.620   1.750
 2242SOL     OW 7624   4.871   3.237   3.023
 2242SOL    HW1 7625   4.897   3.196   2.936
 2242SOL    HW2 7626   4.812   3.173   3.073
 2243SOL     OW 7627   1.905   6.663   0.561
 2243SOL    HW1 7628   1.858   6.656   0.649
 2243SOL    HW2 7629   1.979   6.595   0.557
 2244SOL     OW 7630   2.432   0.256   0.700
 2244SOL    HW1 7631   2.345   0.235   0.746
 2244SOL    HW2 7632   2.473   0.337   0.740
 2245SOL     OW 7633   0.546   0.901   0.446
 2245SOL    HW1 7634   0.460   0.853   0.429
 2245SOL    HW2 7635   0.588   0.926   0.359
 2246SOL     OW 7636   2.431   0.815   4.871
 2246SOL    HW1 7637   2.344   0.860   4.852
 2246SOL    HW2 7638   2.419   0.716   4.867
 2247SOL     OW 7639   3.539   4.115   2.715
 2247SOL    HW1 7640   3.461   4.052   2.714
 2247SOL    HW2 7641   3.558   4.146   2.622
 2248SOL     OW 7642   5.694   4.151   5.210
 2248SOL    HW1 7643   5.618   4.216   5.203
 2248SOL    HW2 7644   5.709   4.108   5.121
 2249SOL     OW 7645   2.645   6.472   3.892
 2249SOL    HW1 7646   2.737   6.499   3.918
 2249SOL    HW2 7647   2.582   6.490   3.967
 2250SOL     OW 7648   4.101   4.080   6.142
 2250SOL    HW1 7649   4.047   4.037   6.069
 2250SOL    HW2 7650   4.126   4.173   6.115
 2251SOL     OW 7651   5.422   6.671   6.153
 2251SOL    HW1 7652   5.445   6.645   6.060
 2251SOL    HW2 7653   5.372   6.757   6.152
 2252SOL     OW 7654   5.013   1.718   2.854
 2252SOL    HW1 7655   5.017   1.732   2.953
 2252SOL    HW2 7656   5.095   1.757   2.812
 2253SOL     OW 7657   0.687   3.533   0.892
 2253SOL    HW1 7658   0.717   3.619   0.933
 2253SOL    HW2 7659   0.767   3.478   0.867
 2254SOL     OW 7660   4.013   3.766   2.662
 2254SOL    HW1 7661   4.010   3.810   2.751
 2254SOL    HW2 7662   3.941   3.697   2.656
 2255SOL     OW 7663   2.886   4.246   5.516
 2255SOL    HW1 7664   2.954   4.174   5.526
 2255SOL    HW2 7665   2.852   4.247   5.422
 2256SOL     OW 7666   5.105   6.001   2.050
 2256SOL    HW1 7667   5.133   5.916   2.007
 2256SOL    HW2 7668   5.059   6.059   1.983
 2257SOL     OW 7669   6.954   1.766   4.675
 2257SOL    HW1 7670   6.952   1.666   4.676
 2257SOL    HW2 7671   6.951   1.800   4.768
 2258SOL     OW 7672   1.966   6.599   4.523
 2258SOL    HW1 7673   1.969   6.662   4.600
 2258SOL    HW2 7674   1.908   6.521   4.546
 2259SOL     OW 7675   6.863   2.752   4.868
 2259SOL    HW1 7676   6.829   2.659   4.881
 2259SOL    HW2 7677   6.819   2.813   4.934
 2260SOL     OW 7678   1.198   4.210   1.483
 2260SOL    HW1 7679   1.199   4.161   1.396
 2260SOL    HW2 7680   1.276   4.181   1.539
 2261SOL     OW 7681   5.490   3.493   0.423
 2261SOL    HW1 7682   5.507   3.581   0.379
 2261SOL    HW2 7683   5.566   3.472   0.485
 2262SOL     OW 7684   6.714   0.380   4.131
 2262SOL    HW1 7685   6.785   0.314   4.154
 2262SOL    HW2 7686   6.625   0.334   4.132
 2263SOL     OW 7687   1.570   4.585   0.417
 2263SOL    HW1 7688   1.596   4.641   0.337
 2263SOL    HW2 7689   1.479   4.611   0.447
 2264SOL     OW 7690   2.122   6.774   6.438
 2264SOL    HW1 7691   2.042   6.806   6.387
 2264SOL    HW2 7692   2.166   6.852   6.483
 2265SOL     OW 7693   0.885   6.558   3.700
 2265SOL    HW1 7694   0.984   6.563   3.714
 2265SOL    HW2 7695   0.847   6.484   3.755
 2266SOL     OW 7696   5.155   1.609   6.392
 2266SOL    HW1 7697   5.221   1.536   6.412
 2266SOL    HW2 7698   5.169   1.685   6.456
 2267SOL     OW 7699   4.659   2.792   4.835
 2267SOL    HW1 7700   4.632   2.872   4.781
 2267SOL    HW2 7701   4.649   2.812   4.932
 2268SOL     OW 7702   6.601   4.438   6.436
 2268SOL    HW1 7703   6.646   4.373   6.375
 2268SOL    HW2 7704   6.505   4.413   6.448
 2269SOL     OW 7705   1.402   3.085   5.149
 2269SOL    HW1 7706   1.442   3.163   5.102
 2269SOL    HW2 7707   1.327   3.048   5.094
 2270SOL     OW 7708   4.311   2.537   5.997
 2270SOL    HW1 7709   4.402   2.536   6.038
 2270SOL    HW2 7710   4.281   2.443   5.980
 2271SOL     OW 7711   6.133   4.516   6.062
 2271SOL    HW1 7712   6.198   4.587   6.088
 2271SOL    HW2 7713   6.180   4.444   6.012
 2272SOL     OW 7714   6.152   1.172   5.958
 2272SOL    HW1 7715   6.055   1.184   5.938
 2272SOL    HW2 7716   6.173   1.211   6.047
 2273SOL     OW 7717   1.942   2.533   2.429
 2273SOL    HW1 7718   1.998   2.456   2.398
 2273SOL    HW2 7719   1.999   2.595   2.484
 2274SOL     OW 7720   0.399   1.110   0.099
 2274SOL    HW1 7721   0.446   1.152   0.177
 2274SOL    HW2 7722   0.355   1.025   0.129
 2275SOL     OW 7723   5.777   4.854   2.223
 2275SOL    HW1 7724   5.744   4.775   2.276
 2275SOL    HW2 7725   5.840   4.907   2.279
 2276SOL     OW 7726   1.502   1.187   1.447
 2276SOL    HW1 7727   1.450   1.152   1.369
 2276SOL    HW2 7728   1.595   1.149   1.445
 2277SOL     OW 7729   3.328   4.127   3.435
 2277SOL    HW1 7730   3.330   4.030   3.458
 2277SOL    HW2 7731   3.389   4.144   3.358
 2278SOL     OW 7732   0.747   2.626   3.739
 2278SOL    HW1 7733   0.764   2.723   3.721
 2278SOL    HW2 7734   0.660   2.616   3.787
 2279SOL     OW 7735   6.765   5.901   6.219
 2279SOL    HW1 7736   6.675   5.943   6.233
 2279SOL    HW2 7737   6.772   5.867   6.125
 2280SOL     OW 7738   4.993   0.887   5.524
 2280SOL    HW1 7739   4.972   0.830   5.603
 2280SOL    HW2 7740   4.927   0.962   5.517
 2281SOL     OW 7741   4.670   6.501   2.550
 2281SOL    HW1 7742   4.670   6.404   2.571
 2281SOL    HW2 7743   4.623   6.517   2.464
 2282SOL     OW 7744   4.590   5.333   5.898
 2282SOL    HW1 7745   4.633   5.316   5.809
 2282SOL    HW2 7746   4.514   5.269   5.911
 2283SOL     OW 7747   1.645   0.390   3.367
 2283SOL    HW1 7748   1.621   0.488   3.366
 2283SOL    HW2 7749   1.561   0.336   3.368
 2284SOL     OW 7750   0.725   3.169   6.213
 2284SOL    HW1 7751   0.767   3.176   6.303
 2284SOL    HW2 7752   0.676   3.254   6.193
 2285SOL     OW 7753   1.222   3.642   0.627
 2285SOL    HW1 7754   1.228   3.619   0.530
 2285SOL    HW2 7755   1.148   3.590   0.669
 2286SOL     OW 7756   4.928   6.721   3.236
 2286SOL    HW1 7757   4.994   6.667   3.184
 2286SOL    HW2 7758   4.963   6.814   3.248
 2287SOL     OW 7759   2.327   0.858   3.398
 2287SOL    HW1 7760   2.375   0.932   3.445
 2287SOL    HW2 7761   2.256   0.821   3.458
 2288SOL     OW 7762   0.545   5.126   3.502
 2288SOL    HW1 7763   0.596   5.042   3.487
 2288SOL    HW2 7764   0.609   5.203   3.505
 2289SOL     OW 7765   0.736   5.321   2.008
 2289SOL    HW1 7766   0.678   5.394   2.045
 2289SOL    HW2 7767   0.831   5.336   2.034
 2290SOL     OW 7768   1.234   4.825   1.378
 2290SOL    HW1 7769   1.211   4.744   1.325
 2290SOL    HW2 7770   1.173   4.900   1.353
 2291SOL     OW 7771   3.200   1.729   5.932
 2291SOL    HW1 7772   3.216   1.713   6.029
 2291SOL    HW2 7773   3.101   1.729   5.915
 2292SOL     OW 7774   1.313   0.922   4.823
 2292SOL    HW1 7775   1.397   0.869   4.825
 2292SOL    HW2 7776   1.234   0.860   4.830
 2293SOL     OW 7777   5.418   5.370   1.666
 2293SOL    HW1 7778   5.505   5.383   1.620
 2293SOL    HW2 7779   5.434   5.357   1.764
 2294SOL     OW 7780   3.954   6.766   6.892
 2294SOL    HW1 7781   3.929   6.822   6.971
 2294SOL    HW2 7782   4.042   6.721   6.910
 2295SOL     OW 7783   0.217   2.126   1.734
 2295SOL    HW1 7784   0.218   2.209   1.678
 2295SOL    HW2 7785   0.127   2.082   1.727
 2296SOL     OW 7786   3.340   0.811   0.473
 2296SOL    HW1 7787   3.419   0.758   0.445
 2296SOL    HW2 7788   3.304   0.861   0.394
 2297SOL     OW 7789   4.352   4.353   5.570
 2297SOL    HW1 7790   4.391   4.265   5.599
 2297SOL    HW2 7791   4.306   4.341   5.482
 2298SOL     OW 7792   3.556   1.892   1.551
 2298SOL    HW1 7793   3.475   1.922   1.502
 2298SOL    HW2 7794   3.583   1.961   1.618
 2299SOL     OW 7795   5.090   6.312   0.184
 2299SOL    HW1 7796   5.173   6.299   0.130
 2299SOL    HW2 7797   5.051   6.223   0.209
 2300SOL     OW 7798   1.785   5.707   1.406
 2300SOL    HW1 7799   1.834   5.664   1.481
 2300SOL    HW2 7800   1.850   5.745   1.341
 2301SOL     OW 7801   2.925   3.592   2.847
 2301SOL    HW1 7802   2.894   3.669   2.902
 2301SOL    HW2 7803   2.869   3.585   2.764
 2302SOL     OW 7804   3.804   6.084   2.645
 2302SOL    HW1 7805   3.736   6.123   2.583
 2302SOL    HW2 7806   3.772   5.994   2.677
 2303SOL     OW 7807   1.049   3.543   4.651
 2303SOL    HW1 7808   1.058   3.633   4.694
 2303SOL    HW2 7809   1.000   3.481   4.712
 2304SOL     OW 7810   2.477   0.472   3.225
 2304SOL    HW1 7811   2.486   0.475   3.324
 2304SOL    HW2 7812   2.405   0.407   3.200
 2305SOL     OW 7813   4.045   5.441   2.416
 2305SOL    HW1 7814   4.089   5.520   2.373
 2305SOL    HW2 7815   4.068   5.438   2.513
 2306SOL     OW 7816   2.446   4.708   2.305
 2306SOL    HW1 7817   2.364   4.664   2.269
 2306SOL    HW2 7818   2.516   4.711   2.233
 2307SOL     OW 7819   1.123   3.253   3.199
 2307SOL    HW1 7820   1.169   3.342   3.200
 2307SOL    HW2 7821   1.120   3.216   3.292
 2308SOL     OW 7822   0.789   0.856   6.600
 2308SOL    HW1 7823   0.866   0.919   6.608
 2308SOL    HW2 7824   0.740   0.874   6.515
 2309SOL     OW 7825   3.201   5.118   0.043
 2309SOL    HW1 7826   3.110   5.105   0.004
 2309SOL    HW2 7827   3.233   5.211   0.022
 2310SOL     OW 7828   5.981   0.559   1.866
 2310SOL    HW1 7829   6.035   0.483   1.904
 2310SOL    HW2 7830   5.893   0.565   1.913
 2311SOL     OW 7831   2.639   0.098   2.261
 2311SOL    HW1 7832   2.575   0.082   2.336
 2311SOL    HW2 7833   2.592   0.085   2.174
 2312SOL     OW 7834   3.981   0.107   3.059
 2312SOL    HW1 7835   3.902   0.047   3.064
 2312SOL    HW2 7836   3.986   0.147   2.967
 2313SOL     OW 7837   4.940   4.142   2.001
 2313SOL    HW1 7838   4.951   4.177   2.094
 2313SOL    HW2 7839   5.029   4.120   1.963
 2314SOL     OW 7840   5.930   0.629   3.817
 2314SOL    HW1 7841   5.895   0.540   3.786
 2314SOL    HW2 7842   6.030   0.624   3.823
 2315SOL     OW 7843   4.814   3.986   5.942
 2315SOL    HW1 7844   4.770   3.929   6.011
 2315SOL    HW2 7845   4.911   3.999   5.966
 2316SOL     OW 7846   2.661   1.091   6.137
 2316SOL    HW1 7847   2.751   1.089   6.094
 2316SOL    HW2 7848   2.630   1.186   6.145
 2317SOL     OW 7849   6.564   6.362   3.813
 2317SOL    HW1 7850   6.603   6.454   3.817
 2317SOL    HW2 7851   6.476   6.361   3.862
 2318SOL     OW 7852   2.125   3.726   4.686
 2318SOL    HW1 7853   2.112   3.762   4.594
 2318SOL    HW2 7854   2.158   3.798   4.747
 2319SOL     OW 7855   2.505   5.204   4.561
 2319SOL    HW1 7856   2.525   5.294   4.524
 2319SOL    HW2 7857   2.408   5.183   4.550
 2320SOL     OW 7858   1.094   3.102   5.305
 2320SOL    HW1 7859   1.142   3.188   5.288
 2320SOL    HW2 7860   1.098   3.081   5.403
 2321SOL     OW 7861   2.491   4.691   6.427
 2321SOL    HW1 7862   2.586   4.661   6.424
 2321SOL    HW2 7863   2.433   4.622   6.384
 2322SOL     OW 7864   2.113   3.619   2.209
 2322SOL    HW1 7865   2.020   3.595   2.237
 2322SOL    HW2 7866   2.136   3.572   2.124
 2323SOL     OW 7867   3.354   5.126   1.944
 2323SOL    HW1 7868   3.341   5.037   1.901
 2323SOL    HW2 7869   3.267   5.174   1.947
 2324SOL     OW 7870   6.582   6.024   1.838
 2324SOL    HW1 7871   6.675   6.061   1.834
 2324SOL    HW2 7872   6.585   5.926   1.817
 2325SOL     OW 7873   6.965   5.101   1.351
 2325SOL    HW1 7874   6.911   5.030   1.395
 2325SOL    HW2 7875   7.001   5.067   1.264
 2326SOL     OW 7876   1.509   6.201   6.658
 2326SOL    HW1 7877   1.475   6.179   6.749
 2326SOL    HW2 7878   1.558   6.288   6.660
 2327SOL     OW 7879   6.811   0.494   2.723
 2327SOL    HW1 7880   6.807   0.490   2.822
 2327SOL    HW2 7881   6.775   0.410   2.684
 2328SOL     OW 7882   1.355   1.883   2.338
 2328SOL    HW1 7883   1.300   1.932   2.405
 2328SOL    HW2 7884   1.451   1.882   2.366
 2329SOL     OW 7885   0.601   4.233   4.219
 2329SOL    HW1 7886   0.589   4.134   4.204
 2329SOL    HW2 7887   0.633   4.248   4.312
 2330SOL     OW 7888   0.268   3.060   0.532
 2330SOL    HW1 7889   0.287   3.091   0.625
 2330SOL    HW2 7890   0.193   3.114   0.494
 2331SOL     OW 7891   3.359   5.603   0.121
 2331SOL    HW1 7892   3.372   5.674   0.053
 2331SOL    HW2 7893   3.411   5.522   0.096
 2332SOL     OW 7894   5.816   0.227   5.802
 2332SOL    HW1 7895   5.777   0.239   5.711
 2332SOL    HW2 7896   5.765   0.284   5.868
 2333SOL     OW 7897   6.669   4.701   2.995
 2333SOL    HW1 7898   6.600   4.638   2.959
 2333SOL    HW2 7899   6.759   4.676   2.960
 2334SOL     OW 7900   1.302   1.117   6.413
 2334SOL    HW1 7901   1.338   1.039   6.362
 2334SOL    HW2 7902   1.240   1.169   6.353
 2335SOL     OW 7903   6.312   1.048   4.114
 2335SOL    HW1 7904   6.383   1.044   4.044
 2335SOL    HW2 7905   6.223   1.034   4.071
 2336SOL     OW 7906   2.881   1.702   3.600
 2336SOL    HW1 7907   2.899   1.703   3.502
 2336SOL    HW2 7908   2.944   1.764   3.647
 2337SOL     OW 7909   4.188   1.440   1.506
 2337SOL    HW1 7910   4.098   1.397   1.495
 2337SOL    HW2 7911   4.259   1.370   1.502
 2338SOL     OW 7912   1.071   4.033   4.206
 2338SOL    HW1 7913   1.139   4.068   4.271
 2338SOL    HW2 7914   0.996   3.991   4.256
 2339SOL     OW 7915   3.014   3.570   3.474
 2339SOL    HW1 7916   2.983   3.480   3.442
 2339SOL    HW2 7917   3.073   3.611   3.405
 2340SOL     OW 7918   0.477   4.882   6.593
 2340SOL    HW1 7919   0.574   4.866   6.575
 2340SOL    HW2 7920   0.422   4.841   6.521
 2341SOL     OW 7921   2.258   4.967   2.412
 2341SOL    HW1 7922   2.320   4.919   2.475
 2341SOL    HW2 7923   2.192   4.901   2.375
 2342SOL     OW 7924   2.444   7.004   4.364
 2342SOL    HW1 7925   2.349   0.008   4.388
 2342SOL    HW2 7926   2.471   6.918   4.408
 2343SOL     OW 7927   2.176   6.205   2.740
 2343SOL    HW1 7928   2.085   6.246   2.733
 2343SOL    HW2 7929   2.242   6.275   2.765
 2344SOL     OW 7930   6.723   5.659   0.240
 2344SOL    HW1 7931   6.633   5.674   0.279
 2344SOL    HW2 7932   6.735   5.716   0.159
 2345SOL     OW 7933   2.757   5.574   4.290
 2345SOL    HW1 7934   2.755   5.663   4.334
 2345SOL    HW2 7935   2.843   5.563   4.240
 2346SOL     OW 7936   3.897   3.145   5.897
 2346SOL    HW1 7937   3.957   3.100   5.963
 2346SOL    HW2 7938   3.923   3.240   5.887
 2347SOL     OW 7939   1.235   1.941   1.518
 2347SOL    HW1 7940   1.239   1.853   1.564
 2347SOL    HW2 7941   1.324   1.987   1.525
 2348SOL     OW 7942   1.924   6.172   3.518
 2348SOL    HW1 7943   1.959   6.118   3.442
 2348SOL    HW2 7944   1.989   6.245   3.540
 2349SOL     OW 7945   0.753   4.563   6.433
 2349SOL    HW1 7946   0.735   4.496   6.362
 2349SOL    HW2 7947   0.850   4.561   6.457
 2350SOL     OW 7948   5.728   4.165   6.234
 2350SOL    HW1 7949   5.799   4.233   6.217
 2350SOL    HW2 7950   5.734   4.134   6.329
 2351SOL     OW 7951   3.528   4.994   3.711
 2351SOL    HW1 7952   3.601   4.942   3.667
 2351SOL    HW2 7953   3.545   5.092   3.699
 2352SOL     OW 7954   6.586   3.104   3.479
 2352SOL    HW1 7955   6.521   3.028   3.473
 2352SOL    HW2 7956   6.579   3.146   3.570
 2353SOL     OW 7957   4.088   4.819   4.706
 2353SOL    HW1 7958   4.178   4.776   4.714
 2353SOL    HW2 7959   4.025   4.779   4.772
 2354SOL     OW 7960   2.303   2.160   4.705
 2354SOL    HW1 7961   2.221   2.144   4.760
 2354SOL    HW2 7962   2.292   2.244   4.652
 2355SOL     OW 7963   2.198   6.027   5.440
 2355SOL    HW1 7964   2.162   6.110   5.397
 2355SOL    HW2 7965   2.262   5.983   5.377
 2356SOL     OW 7966   0.960   3.310   6.728
 2356SOL    HW1 7967   0.874   3.263   6.748
 2356SOL    HW2 7968   0.944   3.408   6.721
 2357SOL     OW 7969   4.093   1.000   1.831
 2357SOL    HW1 7970   4.103   1.021   1.928
 2357SOL    HW2 7971   4.093   1.085   1.778
 2358SOL     OW 7972   2.706   5.220   5.432
 2358SOL    HW1 7973   2.712   5.167   5.348
 2358SOL    HW2 7974   2.625   5.278   5.429
 2359SOL     OW 7975   0.375   0.998   5.610
 2359SOL    HW1 7976   0.447   0.992   5.540
 2359SOL    HW2 7977   0.409   1.051   5.688
 2360SOL     OW 7978   6.040   3.657   0.483
 2360SOL    HW1 7979   6.118   3.692   0.432
 2360SOL    HW2 7980   5.958   3.663   0.426
 2361SOL     OW 7981   3.057   1.199   6.519
 2361SOL    HW1 7982   3.103   1.286   6.538
 2361SOL    HW2 7983   2.975   1.191   6.575
 2362SOL     OW 7984   3.138   6.178   3.676
 2362SOL    HW1 7985   3.132   6.079   3.660
 2362SOL    HW2 7986   3.053   6.222   3.647
 2363SOL     OW 7987   3.842   1.767   3.524
 2363SOL    HW1 7988   3.867   1.777   3.428
 2363SOL    HW2 7989   3.744   1.748   3.532
 2364SOL     OW 7990   1.802   2.372   2.252
 2364SOL    HW1 7991   1.811   2.413   2.161
 2364SOL    HW2 7992   1.834   2.436   2.321
 2365SOL     OW 7993   6.270   1.695   6.687
 2365SOL    HW1 7994   6.332   1.699   6.765
 2365SOL    HW2 7995   6.201   1.767   6.696
 2366SOL     OW 7996   2.755   5.184   0.234
 2366SOL    HW1 7997   2.712   5.247   0.298
 2366SOL    HW2 7998   2.850   5.167   0.263
 2367SOL     OW 7999   2.194   3.283   0.695
 2367SOL    HW1 8000   2.279   3.261   0.743
 2367SOL    HW2 8001   2.183   3.382   0.690
 2368SOL     OW 8002   5.687   6.719   4.714
 2368SOL    HW1 8003   5.587   6.717   4.717
 2368SOL    HW2 8004   5.724   6.640   4.762
 2369SOL     OW 8005   1.981   0.013   4.121
 2369SOL    HW1 8006   2.047   0.084   4.147
 2369SOL    HW2 8007   2.003   6.944   4.168
 2370SOL     OW 8008   5.355   3.202   0.408
 2370SOL    HW1 8009   5.311   3.137   0.346
 2370SOL    HW2 8010   5.444   3.166   0.436
 2371SOL     OW 8011   2.346   6.721   2.258
 2371SOL    HW1 8012   2.275   6.778   2.299
 2371SOL    HW2 8013   2.361   6.749   2.163
 2372SOL     OW 8014   6.505   2.651   2.052
 2372SOL    HW1 8015   6.412   2.617   2.066
 2372SOL    HW2 8016   6.523   2.657   1.953
 2373SOL     OW 8017   1.522   3.695   5.907
 2373SOL    HW1 8018   1.561   3.663   5.820
 2373SOL    HW2 8019   1.481   3.618   5.955
 2374SOL     OW 8020   6.615   2.710   5.111
 2374SOL    HW1 8021   6.624   2.803   5.078
 2374SOL    HW2 8022   6.636   2.707   5.209
 2375SOL     OW 8023   2.972   5.310   5.968
 2375SOL    HW1 8024   3.071   5.313   5.950
 2375SOL    HW2 8025   2.923   5.311   5.881
 2376SOL     OW 8026   6.118   3.577   3.935
 2376SOL    HW1 8027   6.023   3.605   3.950
 2376SOL    HW2 8028   6.135   3.491   3.983
 2377SOL     OW 8029   3.511   3.728   3.635
 2377SOL    HW1 8030   3.488   3.687   3.724
 2377SOL    HW2 8031   3.586   3.676   3.594
 2378SOL     OW 8032   5.115   2.180   0.549
 2378SOL    HW1 8033   5.152   2.256   0.602
 2378SOL    HW2 8034   5.071   2.215   0.466
 2379SOL     OW 8035   6.988   1.056   0.451
 2379SOL    HW1 8036   6.968   0.958   0.443
 2379SOL    HW2 8037   6.944   1.092   0.533
 2380SOL     OW 8038   6.986   2.339   0.078
 2380SOL    HW1 8039   6.991   2.240   0.063
 2380SOL    HW2 8040   6.891   2.367   0.089
 2381SOL     OW 8041   2.339   5.979   2.909
 2381SOL    HW1 8042   2.417   6.042   2.907
 2381SOL    HW2 8043   2.299   5.973   2.818
 2382SOL     OW 8044   1.557   3.779   4.493
 2382SOL    HW1 8045   1.630   3.848   4.494
 2382SOL    HW2 8046   1.585   3.701   4.549
 2383SOL     OW 8047   6.641   0.119   1.124
 2383SOL    HW1 8048   6.581   0.198   1.110
 2383SOL    HW2 8049   6.736   0.150   1.130
 2384SOL     OW 8050   5.257   1.834   2.849
 2384SOL    HW1 8051   5.242   1.882   2.936
 2384SOL    HW2 8052   5.354   1.839   2.825
 2385SOL     OW 8053   6.828   0.567   6.824
 2385SOL    HW1 8054   6.824   0.476   6.865
 2385SOL    HW2 8055   6.881   0.563   6.740
 2386SOL     OW 8056   5.368   5.915   4.066
 2386SOL    HW1 8057   5.467   5.929   4.066
 2386SOL    HW2 8058   5.348   5.823   4.030
 2387SOL     OW 8059   2.030   1.034   4.005
 2387SOL    HW1 8060   1.944   1.012   3.957
 2387SOL    HW2 8061   2.068   1.118   3.967
 2388SOL     OW 8062   0.008   2.533   3.890
 2388SOL    HW1 8063   0.086   2.504   3.835
 2388SOL    HW2 8064   7.013   2.632   3.881
 2389SOL     OW 8065   4.344   4.647   3.402
 2389SOL    HW1 8066   4.247   4.667   3.419
 2389SOL    HW2 8067   4.382   4.599   3.481
 2390SOL     OW 8068   3.491   3.111   3.082
 2390SOL    HW1 8069   3.496   3.204   3.044
 2390SOL    HW2 8070   3.412   3.064   3.043
 2391SOL     OW 8071   5.801   4.578   6.451
 2391SOL    HW1 8072   5.724   4.589   6.514
 2391SOL    HW2 8073   5.766   4.564   6.358
 2392SOL     OW 8074   3.007   6.932   6.131
 2392SOL    HW1 8075   2.988   6.975   6.043
 2392SOL    HW2 8076   2.988   6.996   6.205
 2393SOL     OW 8077   5.545   3.913   6.457
 2393SOL    HW1 8078   5.468   3.975   6.443
 2393SOL    HW2 8079   5.629   3.967   6.468
 2394SOL     OW 8080   0.255   3.626   4.376
 2394SOL    HW1 8081   0.204   3.668   4.451
 2394SOL    HW2 8082   0.234   3.673   4.291
 2395SOL     OW 8083   4.871   0.072   6.037
 2395SOL    HW1 8084   4.819   0.153   6.065
 2395SOL    HW2 8085   4.853   7.014   6.102
 2396SOL     OW 8086   3.585   4.997   1.175
 2396SOL    HW1 8087   3.641   5.077   1.156
 2396SOL    HW2 8088   3.527   5.014   1.255
 2397SOL     OW 8089   0.505   4.390   4.589
 2397SOL    HW1 8090   0.571   4.426   4.655
 2397SOL    HW2 8091   0.553   4.335   4.520
 2398SOL     OW 8092   4.898   3.828   6.690
 2398SOL    HW1 8093   4.880   3.882   6.608
 2398SOL    HW2 8094   4.866   3.734   6.675
 2399SOL     OW 8095   4.629   0.659   1.065
 2399SOL    HW1 8096   4.580   0.647   1.151
 2399SOL    HW2 8097   4.592   0.738   1.016
 2400SOL     OW 8098   2.897   3.374   1.049
 2400SOL    HW1 8099   2.900   3.436   1.127
 2400SOL    HW2 8100   2.816   3.394   0.994
 2401SOL     OW 8101   5.653   6.699   0.354
 2401SOL    HW1 8102   5.709   6.676   0.433
 2401SOL    HW2 8103   5.608   6.616   0.320
 2402SOL     OW 8104   0.943   0.174   4.568
 2402SOL    HW1 8105   1.011   0.182   4.641
 2402SOL    HW2 8106   0.856   0.145   4.607
 2403SOL     OW 8107   1.194   2.602   6.004
 2403SOL    HW1 8108   1.288   2.609   5.971
 2403SOL    HW2 8109   1.193   2.559   6.094
 2404SOL     OW 8110   2.431   0.979   1.360
 2404SOL    HW1 8111   2.343   1.024   1.380
 2404SOL    HW2 8112   2.470   1.018   1.277
 2405SOL     OW 8113   3.506   4.038   2.410
 2405SOL    HW1 8114   3.450   4.042   2.328
 2405SOL    HW2 8115   3.464   3.976   2.476
 2406SOL     OW 8116   3.418   1.067   1.323
 2406SOL    HW1 8117   3.494   1.110   1.274
 2406SOL    HW2 8118   3.352   1.138   1.349
 2407SOL     OW 8119   5.547   2.028   3.436
 2407SOL    HW1 8120   5.554   2.102   3.503
 2407SOL    HW2 8121   5.596   1.947   3.471
 2408SOL     OW 8122   4.696   4.240   2.240
 2408SOL    HW1 8123   4.638   4.226   2.160
 2408SOL    HW2 8124   4.792   4.247   2.211
 2409SOL     OW 8125   2.362   4.271   2.312
 2409SOL    HW1 8126   2.405   4.336   2.250
 2409SOL    HW2 8127   2.322   4.319   2.390
 2410SOL     OW 8128   3.643   3.377   4.409
 2410SOL    HW1 8129   3.581   3.455   4.421
 2410SOL    HW2 8130   3.722   3.388   4.469
 2411SOL     OW 8131   5.221   6.180   4.871
 2411SOL    HW1 8132   5.135   6.182   4.921
 2411SOL    HW2 8133   5.215   6.237   4.790
 2412SOL     OW 8134   5.345   4.532   1.479
 2412SOL    HW1 8135   5.341   4.438   1.445
 2412SOL    HW2 8136   5.392   4.589   1.413
 2413SOL     OW 8137   5.779   0.712   1.596
 2413SOL    HW1 8138   5.691   0.752   1.570
 2413SOL    HW2 8139   5.832   0.692   1.514
 2414SOL     OW 8140   5.045   4.269   3.800
 2414SOL    HW1 8141   4.959   4.312   3.776
 2414SOL    HW2 8142   5.109   4.276   3.723
 2415SOL     OW 8143   6.287   1.391   3.017
 2415SOL    HW1 8144   6.356   1.420   2.950
 2415SOL    HW2 8145   6.310   1.300   3.052
 2416SOL     OW 8146   5.310   2.021   5.602
 2416SOL    HW1 8147   5.370   2.066   5.668
 2416SOL    HW2 8148   5.365   1.970   5.537
 2417SOL     OW 8149   2.959   3.303   4.686
 2417SOL    HW1 8150   3.044   3.353   4.666
 2417SOL    HW2 8151   2.924   3.330   4.775
 2418SOL     OW 8152   3.519   3.181   3.986
 2418SOL    HW1 8153   3.496   3.265   3.935
 2418SOL    HW2 8154   3.565   3.206   4.071
 2419SOL     OW 8155   0.046   6.520   3.467
 2419SOL    HW1 8156   0.074   6.573   3.546
 2419SOL    HW2 8157   0.120   6.460   3.438
 2420SOL     OW 8158   3.418   0.346   2.096
 2420SOL    HW1 8159   3.325   0.377   2.076
 2420SOL    HW2 8160   3.419   0.247   2.104
 2421SOL     OW 8161   2.107   2.698   4.796
 2421SOL    HW1 8162   2.103   2.774   4.861
 2421SOL    HW2 8163   2.092   2.612   4.844
 2422SOL     OW 8164   5.094   1.533   0.725
 2422SOL    HW1 8165   5.081   1.588   0.808
 2422SOL    HW2 8166   5.094   1.436   0.750
 2423SOL     OW 8167   2.403   6.374   2.065
 2423SOL    HW1 8168   2.413   6.286   2.112
 2423SOL    HW2 8169   2.362   6.359   1.975
 2424SOL     OW 8170   6.447   0.908   0.502
 2424SOL    HW1 8171   6.437   1.007   0.506
 2424SOL    HW2 8172   6.500   0.877   0.581
 2425SOL     OW 8173   5.743   0.065   4.196
 2425SOL    HW1 8174   5.724   0.150   4.246
 2425SOL    HW2 8175   5.762   7.008   4.261
 2426SOL     OW 8176   1.785   5.007   5.190
 2426SOL    HW1 8177   1.870   4.997   5.242
 2426SOL    HW2 8178   1.738   5.090   5.220
 2427SOL     OW 8179   5.709   5.849   5.222
 2427SOL    HW1 8180   5.610   5.845   5.237
 2427SOL    HW2 8181   5.738   5.768   5.170
 2428SOL     OW 8182   0.658   0.666   1.621
 2428SOL    HW1 8183   0.661   0.714   1.534
 2428SOL    HW2 8184   0.717   0.585   1.618
 2429SOL     OW 8185   5.391   5.801   1.728
 2429SOL    HW1 8186   5.412   5.734   1.658
 2429SOL    HW2 8187   5.473   5.854   1.751
 2430SOL     OW 8188   5.996   0.975   2.618
 2430SOL    HW1 8189   6.061   0.962   2.692
 2430SOL    HW2 8190   5.912   0.924   2.637
 2431SOL     OW 8191   4.538   1.012   2.335
 2431SOL    HW1 8192   4.628   1.052   2.354
 2431SOL    HW2 8193   4.503   0.967   2.417
 2432SOL     OW 8194   4.391   6.216   2.314
 2432SOL    HW1 8195   4.331   6.193   2.237
 2432SOL    HW2 8196   4.474   6.260   2.280
 2433SOL     OW 8197   4.581   0.718   6.604
 2433SOL    HW1 8198   4.594   0.705   6.702
 2433SOL    HW2 8199   4.522   0.798   6.588
 2434SOL     OW 8200   3.969   0.984   5.617
 2434SOL    HW1 8201   3.972   0.950   5.523
 2434SOL    HW2 8202   3.905   0.928   5.670
 2435SOL     OW 8203   5.731   6.221   5.400
 2435SOL    HW1 8204   5.635   6.246   5.417
 2435SOL    HW2 8205   5.750   6.226   5.302
 2436SOL     OW 8206   1.825   6.068   0.288
 2436SOL    HW1 8207   1.798   6.108   0.375
 2436SOL    HW2 8208   1.820   6.137   0.216
 2437SOL     OW 8209   6.314   6.810   6.054
 2437SOL    HW1 8210   6.393   6.752   6.033
 2437SOL    HW2 8211   6.343   6.885   6.113
 2438SOL     OW 8212   2.872   2.272   0.612
 2438SOL    HW1 8213   2.917   2.243   0.696
 2438SOL    HW2 8214   2.816   2.197   0.577
 2439SOL     OW 8215   6.724   4.506   6.042
 2439SOL    HW1 8216   6.762   4.415   6.060
 2439SOL    HW2 8217   6.734   4.527   5.945
 2440SOL     OW 8218   5.333   5.326   5.929
 2440SOL    HW1 8219   5.414   5.273   5.902
 2440SOL    HW2 8220   5.323   5.405   5.869
 2441SOL     OW 8221   5.997   2.067   1.236
 2441SOL    HW1 8222   5.980   2.016   1.320
 2441SOL    HW2 8223   6.071   2.023   1.184
 2442SOL     OW 8224   0.735   3.998   4.837
 2442SOL    HW1 8225   0.736   3.958   4.928
 2442SOL    HW2 8226   0.742   3.925   4.768
 2443SOL     OW 8227   2.716   4.084   6.467
 2443SOL    HW1 8228   2.733   4.090   6.565
 2443SOL    HW2 8229   2.664   4.163   6.436
 2444SOL     OW 8230   2.200   4.027   5.830
 2444SOL    HW1 8231   2.200   3.927   5.834
 2444SOL    HW2 8232   2.111   4.059   5.801
 2445SOL     OW 8233   0.281   0.630   1.039
 2445SOL    HW1 8234   0.380   0.647   1.046
 2445SOL    HW2 8235   0.252   0.640   0.944
 2446SOL     OW 8236   6.117   4.337   4.820
 2446SOL    HW1 8237   6.025   4.300   4.811
 2446SOL    HW2 8238   6.158   4.305   4.905
 2447SOL     OW 8239   1.013   1.469   0.565
 2447SOL    HW1 8240   0.944   1.397   0.577
 2447SOL    HW2 8241   1.082   1.439   0.500
 2448SOL     OW 8242   1.117   6.949   4.781
 2448SOL    HW1 8243   1.025   6.912   4.766
 2448SOL    HW2 8244   1.153   6.985   4.695
 2449SOL     OW 8245   0.087   3.807   5.856
 2449SOL    HW1 8246   0.055   3.814   5.762
 2449SOL    HW2 8247   0.153   3.733   5.864
 2450SOL     OW 8248   2.487   4.398   2.764
 2450SOL    HW1 8249   2.541   4.316   2.745
 2450SOL    HW2 8250   2.390   4.375   2.764
 2451SOL     OW 8251   2.434   6.141   3.311
 2451SOL    HW1 8252   2.414   6.049   3.345
 2451SOL    HW2 8253   2.489   6.190   3.379
 2452SOL     OW 8254   1.121   2.738   3.980
 2452SOL    HW1 8255   1.203   2.771   3.933
 2452SOL    HW2 8256   1.061   2.815   4.002
 2453SOL     OW 8257   6.706   4.611   1.320
 2453SOL    HW1 8258   6.801   4.608   1.352
 2453SOL    HW2 8259   6.696   4.688   1.257
 2454SOL     OW 8260   3.190   1.276   1.965
 2454SOL    HW1 8261   3.169   1.184   1.933
 2454SOL    HW2 8262   3.106   1.320   1.998
 2455SOL     OW 8263   5.452   5.644   0.307
 2455SOL    HW1 8264   5.358   5.669   0.331
 2455SOL    HW2 8265   5.516   5.700   0.361
 2456SOL     OW 8266   5.177   6.011   1.710
 2456SOL    HW1 8267   5.212   6.069   1.784
 2456SOL    HW2 8268   5.251   5.954   1.674
 2457SOL     OW 8269   5.289   6.602   1.327
 2457SOL    HW1 8270   5.194   6.591   1.298
 2457SOL    HW2 8271   5.328   6.512   1.347
 2458SOL     OW 8272   0.853   5.606   3.090
 2458SOL    HW1 8273   0.828   5.703   3.089
 2458SOL    HW2 8274   0.779   5.552   3.049
 2459SOL     OW 8275   1.891   6.931   1.026
 2459SOL    HW1 8276   1.952   6.953   0.950
 2459SOL    HW2 8277   1.931   6.856   1.080
 2460SOL     OW 8278   3.145   5.781   1.640
 2460SOL    HW1 8279   3.243   5.800   1.636
 2460SOL    HW2 8280   3.128   5.707   1.706
 2461SOL     OW 8281   5.321   0.423   2.399
 2461SOL    HW1 8282   5.289   0.389   2.487
 2461SOL    HW2 8283   5.302   0.355   2.328
 2462SOL     OW 8284   1.791   5.222   6.487
 2462SOL    HW1 8285   1.741   5.153   6.435
 2462SOL    HW2 8286   1.848   5.177   6.556
 2463SOL     OW 8287   6.267   2.096   4.137
 2463SOL    HW1 8288   6.174   2.060   4.139
 2463SOL    HW2 8289   6.316   2.056   4.059
 2464SOL     OW 8290   1.432   3.069   1.226
 2464SOL    HW1 8291   1.382   3.117   1.154
 2464SOL    HW2 8292   1.522   3.042   1.191
 2465SOL     OW 8293   6.657   5.928   3.508
 2465SOL    HW1 8294   6.647   5.886   3.418
 2465SOL    HW2 8295   6.668   6.027   3.497
 2466SOL     OW 8296   3.871   1.586   2.723
 2466SOL    HW1 8297   3.892   1.492   2.750
 2466SOL    HW2 8298   3.877   1.595   2.624
 2467SOL     OW 8299   6.779   0.930   6.412
 2467SOL    HW1 8300   6.747   0.874   6.488
 2467SOL    HW2 8301   6.748   1.024   6.425
 2468SOL     OW 8302   0.018   4.997   1.114
 2468SOL    HW1 8303   0.059   4.928   1.054
 2468SOL    HW2 8304   6.935   4.988   1.111
 2469SOL     OW 8305   2.382   2.713   5.764
 2469SOL    HW1 8306   2.438   2.787   5.730
 2469SOL    HW2 8307   2.346   2.660   5.687
 2470SOL     OW 8308   5.251   2.981   0.224
 2470SOL    HW1 8309   5.265   2.887   0.253
 2470SOL    HW2 8310   5.312   3.002   0.148
 2471SOL     OW 8311   1.525   0.299   2.957
 2471SOL    HW1 8312   1.477   0.362   3.019
 2471SOL    HW2 8313   1.458   0.249   2.903
 2472SOL     OW 8314   6.221   1.578   3.208
 2472SOL    HW1 8315   6.171   1.660   3.180
 2472SOL    HW2 8316   6.238   1.520   3.127
 2473SOL     OW 8317   0.922   6.250   4.929
 2473SOL    HW1 8318   0.854   6.183   4.899
 2473SOL    HW2 8319   0.875   6.334   4.959
 2474SOL     OW 8320   6.390   4.822   4.993
 2474SOL    HW1 8321   6.299   4.861   4.985
 2474SOL    HW2 8322   6.446   4.880   5.053
 2475SOL     OW 8323   4.406   2.189   6.933
 2475SOL    HW1 8324   4.410   2.089   6.931
 2475SOL    HW2 8325   4.339   2.220   6.865
 2476SOL     OW 8326   0.934   1.779   4.167
 2476SOL    HW1 8327   0.907   1.773   4.070
 2476SOL    HW2 8328   1.028   1.812   4.173
 2477SOL     OW 8329   4.218   4.755   1.073
 2477SOL    HW1 8330   4.159   4.755   1.153
 2477SOL    HW2 8331   4.257   4.846   1.060
 2478SOL     OW 8332   6.634   7.011   3.501
 2478SOL    HW1 8333   6.578   0.064   3.546
 2478SOL    HW2 8334   6.622   0.001   3.402
 2479SOL     OW 8335   0.413   3.154   0.741
 2479SOL    HW1 8336   0.415   3.236   0.798
 2479SOL    HW2 8337   0.485   3.160   0.672
 2480SOL     OW 8338   0.346   3.555   1.128
 2480SOL    HW1 8339   0.319   3.634   1.073
 2480SOL    HW2 8340   0.440   3.566   1.159
 2481SOL     OW 8341   4.566   4.974   2.209
 2481SOL    HW1 8342   4.609   4.954   2.297
 2481SOL    HW2 8343   4.624   5.035   2.156
 2482SOL     OW 8344   5.265   2.211   4.522
 2482SOL    HW1 8345   5.184   2.191   4.576
 2482SOL    HW2 8346   5.249   2.294   4.467
 2483SOL     OW 8347   1.078   2.031   6.813
 2483SOL    HW1 8348   1.038   1.964   6.875
 2483SOL    HW2 8349   1.148   2.084   6.862
 2484SOL     OW 8350   3.174   2.283   5.975
 2484SOL    HW1 8351   3.076   2.284   5.960
 2484SOL    HW2 8352   3.196   2.334   6.058
 2485SOL     OW 8353   0.017   6.189   2.281
 2485SOL    HW1 8354   0.057   6.098   2.271
 2485SOL    HW2 8355   6.937   6.180   2.309
 2486SOL     OW 8356   0.980   5.504   3.323
 2486SOL    HW1 8357   0.934   5.525   3.237
 2486SOL    HW2 8358   1.034   5.584   3.352
 2487SOL     OW 8359   3.572   1.129   0.885
 2487SOL    HW1 8360   3.660   1.092   0.914
 2487SOL    HW2 8361   3.569   1.227   0.903
 2488SOL     OW 8362   3.019   6.333   6.701
 2488SOL    HW1 8363   3.091   6.302   6.639
 2488SOL    HW2 8364   3.055   6.338   6.794
 2489SOL     OW 8365   0.154   5.891   4.379
 2489SOL    HW1 8366   0.197   5.950   4.312
 2489SOL    HW2 8367   0.116   5.810   4.334
 2490SOL     OW 8368   4.919   3.441   1.777
 2490SOL    HW1 8369   4.898   3.498   1.856
 2490SOL    HW2 8370   4.879   3.350   1.790
 2491SOL     OW 8371   1.290   4.432   2.270
 2491SOL    HW1 8372   1.225   4.362   2.299
 2491SOL    HW2 8373   1.291   4.506   2.337
 2492SOL     OW 8374   4.112   3.149   6.492
 2492SOL    HW1 8375   4.158   3.174   6.407
 2492SOL    HW2 8376   4.132   3.218   6.562
 2493SOL     OW 8377   6.804   2.160   3.812
 2493SOL    HW1 8378   6.738   2.117   3.750
 2493SOL    HW2 8379   6.855   2.090   3.861
 2494SOL     OW 8380   5.138   3.463   1.602
 2494SOL    HW1 8381   5.060   3.466   1.665
 2494SOL    HW2 8382   5.215   3.419   1.647
 2495SOL     OW 8383   6.300   1.320   4.236
 2495SOL    HW1 8384   6.314   1.308   4.334
 2495SOL    HW2 8385   6.324   1.235   4.188
 2496SOL     OW 8386   0.773   6.545   0.189
 2496SOL    HW1 8387   0.828   6.582   0.264
 2496SOL    HW2 8388   0.745   6.619   0.128
 2497SOL     OW 8389   5.164   1.876   6.226
 2497SOL    HW1 8390   5.077   1.831   6.205
 2497SOL    HW2 8391   5.226   1.866   6.148
 2498SOL     OW 8392   1.503   4.063   4.825
 2498SOL    HW1 8393   1.448   4.080   4.743
 2498SOL    HW2 8394   1.591   4.025   4.799
 2499SOL     OW 8395   5.947   0.464   5.484
 2499SOL    HW1 8396   5.897   0.484   5.400
 2499SOL    HW2 8397   5.893   0.494   5.563
 2500SOL     OW 8398   4.708   2.902   6.321
 2500SOL    HW1 8399   4.776   2.975   6.321
 2500SOL    HW2 8400   4.631   2.928   6.378
 2501SOL     OW 8401   6.292   4.262   0.159
 2501SOL    HW1 8402   6.377   4.286   0.206
 2501SOL    HW2 8403   6.214   4.290   0.214
 2502SOL     OW 8404   1.904   6.749   2.851
 2502SOL    HW1 8405   1.819   6.697   2.841
 2502SOL    HW2 8406   1.908   6.789   2.943
 2503SOL     OW 8407   4.787   5.436   4.873
 2503SOL    HW1 8408   4.759   5.487   4.954
 2503SOL    HW2 8409   4.715   5.442   4.803
 2504SOL     OW 8410   2.050   4.321   3.995
 2504SOL    HW1 8411   2.105   4.241   4.020
 2504SOL    HW2 8412   2.084   4.402   4.042
 2505SOL     OW 8413   4.358   5.589   3.939
 2505SOL    HW1 8414   4.409   5.522   3.993
 2505SOL    HW2 8415   4.311   5.652   4.001
 2506SOL     OW 8416   0.125   2.169   6.731
 2506SOL    HW1 8417   0.132   2.081   6.778
 2506SOL    HW2 8418   0.167   2.163   6.640
 2507SOL     OW 8419   0.101   5.814   0.895
 2507SOL    HW1 8420   0.149   5.769   0.820
 2507SOL    HW2 8421   0.042   5.887   0.859
 2508SOL     OW 8422   2.390   2.655   2.413
 2508SOL    HW1 8423   2.399   2.664   2.513
 2508SOL    HW2 8424   2.343   2.735   2.377
 2509SOL     OW 8425   5.241   1.821   3.645
 2509SOL    HW1 8426   5.260   1.825   3.547
 2509SOL    HW2 8427   5.246   1.912   3.684
 2510SOL     OW 8428   3.653   5.963   0.898
 2510SOL    HW1 8429   3.670   6.047   0.949
 2510SOL    HW2 8430   3.666   5.884   0.958
 2511SOL     OW 8431   1.391   0.115   4.069
 2511SOL    HW1 8432   1.382   0.181   4.144
 2511SOL    HW2 8433   1.404   0.024   4.107
 2512SOL     OW 8434   4.650   2.719   4.368
 2512SOL    HW1 8435   4.573   2.657   4.352
 2512SOL    HW2 8436   4.684   2.752   4.280
 2513SOL     OW 8437   0.181   4.318   0.972
 2513SOL    HW1 8438   0.154   4.237   1.024
 2513SOL    HW2 8439   0.100   4.364   0.936
 2514SOL     OW 8440   1.049   1.411   3.818
 2514SOL    HW1 8441   1.091   1.502   3.820
 2514SOL    HW2 8442   0.977   1.409   3.749
 2515SOL     OW 8443   1.111   4.946   0.002
 2515SOL    HW1 8444   1.089   4.921   0.096
 2515SOL    HW2 8445   1.119   4.864   6.962
 2516SOL     OW 8446   4.996   6.597   3.799
 2516SOL    HW1 8447   4.964   6.650   3.878
 2516SOL    HW2 8448   5.021   6.505   3.828
 2517SOL     OW 8449   2.320   4.775   0.492
 2517SOL    HW1 8450   2.293   4.797   0.585
 2517SOL    HW2 8451   2.388   4.702   0.493
 2518SOL     OW 8452   2.196   2.222   6.146
 2518SOL    HW1 8453   2.261   2.159   6.189
 2518SOL    HW2 8454   2.167   2.291   6.213
 2519SOL     OW 8455   5.105   4.202   4.895
 2519SOL    HW1 8456   5.172   4.191   4.821
 2519SOL    HW2 8457   5.015   4.171   4.863
 2520SOL     OW 8458   1.807   4.838   2.049
 2520SOL    HW1 8459   1.788   4.745   2.018
 2520SOL    HW2 8460   1.884   4.876   1.997
 2521SOL     OW 8461   5.569   6.909   5.486
 2521SOL    HW1 8462   5.553   6.996   5.439
 2521SOL    HW2 8463   5.667   6.893   5.494
 2522SOL     OW 8464   1.279   3.167   4.839
 2522SOL    HW1 8465   1.377   3.188   4.838
 2522SOL    HW2 8466   1.263   3.080   4.885
 2523SOL     OW 8467   0.296   2.896   6.836
 2523SOL    HW1 8468   0.341   2.926   6.752
 2523SOL    HW2 8469   0.317   2.960   6.910
 2524SOL     OW 8470   1.322   6.547   5.043
 2524SOL    HW1 8471   1.300   6.455   5.011
 2524SOL    HW2 8472   1.275   6.615   4.985
 2525SOL     OW 8473   1.925   4.368   3.217
 2525SOL    HW1 8474   1.922   4.448   3.276
 2525SOL    HW2 8475   1.891   4.392   3.126
 2526SOL     OW 8476   6.861   1.719   5.375
 2526SOL    HW1 8477   6.912   1.635   5.355
 2526SOL    HW2 8478   6.850   1.773   5.292
 2527SOL     OW 8479   6.290   6.346   3.886
 2527SOL    HW1 8480   6.239   6.293   3.818
 2527SOL    HW2 8481   6.242   6.344   3.974
 2528SOL     OW 8482   6.086   5.759   0.457
 2528SOL    HW1 8483   6.004   5.706   0.434
 2528SOL    HW2 8484   6.080   5.788   0.552
 2529SOL     OW 8485   5.218   3.857   4.895
 2529SOL    HW1 8486   5.291   3.794   4.866
 2529SOL    HW2 8487   5.240   3.950   4.863
 2530SOL     OW 8488   0.997   6.890   4.480
 2530SOL    HW1 8489   1.026   6.881   4.385
 2530SOL    HW2 8490   0.995   6.986   4.506
 2531SOL     OW 8491   4.523   1.346   6.574
 2531SOL    HW1 8492   4.492   1.415   6.640
 2531SOL    HW2 8493   4.469   1.354   6.490
 2532SOL     OW 8494   1.579   4.396   6.054
 2532SOL    HW1 8495   1.679   4.389   6.063
 2532SOL    HW2 8496   1.555   4.479   6.005
 2533SOL     OW 8497   5.575   0.088   5.261
 2533SOL    HW1 8498   5.665   0.133   5.263
 2533SOL    HW2 8499   5.560   0.048   5.171
 2534SOL     OW 8500   7.008   1.731   4.069
 2534SOL    HW1 8501   0.041   1.699   4.150
 2534SOL    HW2 8502   6.953   1.657   4.031
 2535SOL     OW 8503   2.506   1.363   2.380
 2535SOL    HW1 8504   2.486   1.281   2.434
 2535SOL    HW2 8505   2.559   1.427   2.434
 2536SOL     OW 8506   6.659   0.463   3.826
 2536SOL    HW1 8507   6.698   0.413   3.904
 2536SOL    HW2 8508   6.639   0.557   3.854
 2537SOL     OW 8509   3.804   5.201   1.172
 2537SOL    HW1 8510   3.785   5.219   1.269
 2537SOL    HW2 8511   3.834   5.285   1.128
 2538SOL     OW 8512   1.799   4.418   5.283
 2538SOL    HW1 8513   1.854   4.494   5.250
 2538SOL    HW2 8514   1.846   4.372   5.358
 2539SOL     OW 8515   2.638   0.521   5.713
 2539SOL    HW1 8516   2.548   0.498   5.751
 2539SOL    HW2 8517   2.705   0.526   5.787
 2540SOL     OW 8518   5.668   1.780   2.398
 2540SOL    HW1 8519   5.665   1.879   2.384
 2540SOL    HW2 8520   5.762   1.751   2.414
 2541SOL     OW 8521   0.949   6.707   5.528
 2541SOL    HW1 8522   1.033   6.653   5.526
 2541SOL    HW2 8523   0.869   6.646   5.531
 2542SOL     OW 8524   3.376   1.602   4.459
 2542SOL    HW1 8525   3.396   1.560   4.370
 2542SOL    HW2 8526   3.306   1.548   4.506
 2543SOL     OW 8527   0.369   2.430   4.612
 2543SOL    HW1 8528   0.302   2.487   4.565
 2543SOL    HW2 8529   0.418   2.374   4.545
 2544SOL     OW 8530   6.200   5.689   2.465
 2544SOL    HW1 8531   6.291   5.647   2.466
 2544SOL    HW2 8532   6.162   5.683   2.373
 2545SOL     OW 8533   6.190   1.951   1.075
 2545SOL    HW1 8534   6.230   1.859   1.077
 2545SOL    HW2 8535   6.250   2.012   1.023
 2546SOL     OW 8536   6.486   4.132   2.657
 2546SOL    HW1 8537   6.570   4.170   2.695
 2546SOL    HW2 8538   6.429   4.205   2.620
 2547SOL     OW 8539   5.808   3.305   0.848
 2547SOL    HW1 8540   5.780   3.260   0.933
 2547SOL    HW2 8541   5.907   3.300   0.838
 2548SOL     OW 8542   6.960   6.724   5.520
 2548SOL    HW1 8543   0.010   6.775   5.574
 2548SOL    HW2 8544   6.962   6.628   5.547
 2549SOL     OW 8545   2.701   2.533   0.046
 2549SOL    HW1 8546   2.780   2.516   7.004
 2549SOL    HW2 8547   2.685   2.454   0.105
 2550SOL     OW 8548   3.862   5.905   6.573
 2550SOL    HW1 8549   3.891   5.942   6.485
 2550SOL    HW2 8550   3.786   5.841   6.559
 2551SOL     OW 8551   3.420   5.571   0.698
 2551SOL    HW1 8552   3.362   5.494   0.673
 2551SOL    HW2 8553   3.382   5.618   0.778
 2552SOL     OW 8554   2.305   5.911   1.525
 2552SOL    HW1 8555   2.402   5.924   1.507
 2552SOL    HW2 8556   2.294   5.851   1.605
 2553SOL     OW 8557   4.679   1.189   6.724
 2553SOL    HW1 8558   4.636   1.102   6.703
 2553SOL    HW2 8559   4.626   1.264   6.685
 2554SOL     OW 8560   1.503   5.827   1.414
 2554SOL    HW1 8561   1.596   5.792   1.429
 2554SOL    HW2 8562   1.480   5.818   1.317
 2555SOL     OW 8563   5.400   6.844   5.026
 2555SOL    HW1 8564   5.420   6.813   5.119
 2555SOL    HW2 8565   5.447   6.930   5.009
 2556SOL     OW 8566   3.782   0.481   0.253
 2556SOL    HW1 8567   3.801   0.567   0.301
 2556SOL    HW2 8568   3.722   0.425   0.309
 2557SOL     OW 8569   3.104   0.385   6.202
 2557SOL    HW1 8570   3.127   0.418   6.293
 2557SOL    HW2 8571   3.062   0.458   6.149
 2558SOL     OW 8572   5.219   3.425   0.450
 2558SOL    HW1 8573   5.242   3.335   0.413
 2558SOL    HW2 8574   5.299   3.485   0.447
 2559SOL     OW 8575   0.847   4.733   4.319
 2559SOL    HW1 8576   0.900   4.818   4.322
 2559SOL    HW2 8577   0.766   4.742   4.376
 2560SOL     OW 8578   4.706   2.004   3.752
 2560SOL    HW1 8579   4.712   1.908   3.778
 2560SOL    HW2 8580   4.782   2.055   3.793
 2561SOL     OW 8581   3.711   0.556   5.146
 2561SOL    HW1 8582   3.786   0.622   5.148
 2561SOL    HW2 8583   3.746   0.465   5.167
 2562SOL     OW 8584   3.034   6.542   3.609
 2562SOL    HW1 8585   2.968   6.612   3.637
 2562SOL    HW2 8586   2.986   6.456   3.589
 2563SOL     OW 8587   3.517   2.268   6.380
 2563SOL    HW1 8588   3.519   2.183   6.328
 2563SOL    HW2 8589   3.601   2.275   6.435
 2564SOL     OW 8590   1.730   1.632   6.931
 2564SOL    HW1 8591   1.800   1.618   6.861
 2564SOL    HW2 8592   1.748   1.717   6.980
 2565SOL     OW 8593   0.596   1.306   0.543
 2565SOL    HW1 8594   0.681   1.280   0.589
 2565SOL    HW2 8595   0.563   1.393   0.581
 2566SOL     OW 8596   2.514   0.820   0.664
 2566SOL    HW1 8597   2.468   0.762   0.596
 2566SOL    HW2 8598   2.477   0.912   0.660
 2567SOL     OW 8599   2.164   0.851   0.146
 2567SOL    HW1 8600   2.134   0.912   0.219
 2567SOL    HW2 8601   2.146   0.756   0.172
 2568SOL     OW 8602   3.204   6.053   0.247
 2568SOL    HW1 8603   3.209   6.147   0.282
 2568SOL    HW2 8604   3.201   5.990   0.324
 2569SOL     OW 8605   1.916   0.382   0.982
 2569SOL    HW1 8606   2.002   0.333   0.967
 2569SOL    HW2 8607   1.839   0.320   0.966
 2570SOL     OW 8608   6.800   6.502   5.613
 2570SOL    HW1 8609   6.763   6.440   5.683
 2570SOL    HW2 8610   6.777   6.596   5.638
 2571SOL     OW 8611   3.518   2.907   3.655
 2571SOL    HW1 8612   3.576   2.898   3.736
 2571SOL    HW2 8613   3.422   2.906   3.684
 2572SOL     OW 8614   1.806   5.670   1.786
 2572SOL    HW1 8615   1.857   5.636   1.707
 2572SOL    HW2 8616   1.855   5.647   1.870
 2573SOL     OW 8617   6.802   2.497   4.962
 2573SOL    HW1 8618   6.794   2.550   5.046
 2573SOL    HW2 8619   6.846   2.410   4.982
 2574SOL     OW 8620   0.610   3.746   2.414
 2574SOL    HW1 8621   0.707   3.725   2.404
 2574SOL    HW2 8622   0.595   3.806   2.492
 2575SOL     OW 8623   5.598   3.747   0.373
 2575SOL    HW1 8624   5.575   3.811   0.299
 2575SOL    HW2 8625   5.667   3.788   0.432
 2576SOL     OW 8626   2.124   6.796   3.810
 2576SOL    HW1 8627   2.129   6.743   3.725
 2576SOL    HW2 8628   2.144   6.735   3.887
 2577SOL     OW 8629   2.774   5.972   1.618
 2577SOL    HW1 8630   2.785   6.023   1.704
 2577SOL    HW2 8631   2.854   5.987   1.560
 2578SOL     OW 8632   4.968   2.097   4.118
 2578SOL    HW1 8633   5.028   2.020   4.097
 2578SOL    HW2 8634   4.978   2.167   4.048
 2579SOL     OW 8635   6.715   1.616   6.272
 2579SOL    HW1 8636   6.759   1.613   6.183
 2579SOL    HW2 8637   6.682   1.709   6.290
 2580SOL     OW 8638   1.222   2.543   6.463
 2580SOL    HW1 8639   1.269   2.456   6.480
 2580SOL    HW2 8640   1.178   2.539   6.373
 2581SOL     OW 8641   6.645   6.569   3.987
 2581SOL    HW1 8642   6.596   6.636   4.043
 2581SOL    HW2 8643   6.651   6.482   4.036
 2582SOL     OW 8644   0.503   5.517   2.769
 2582SOL    HW1 8645   0.440   5.440   2.773
 2582SOL    HW2 8646   0.490   5.565   2.682
 2583SOL     OW 8647   2.173   0.593   0.245
 2583SOL    HW1 8648   2.238   0.579   0.319
 2583SOL    HW2 8649   2.080   0.587   0.280
 2584SOL     OW 8650   5.190   6.727   1.913
 2584SOL    HW1 8651   5.200   6.770   2.003
 2584SOL    HW2 8652   5.279   6.699   1.879
 2585SOL     OW 8653   3.917   1.395   1.505
 2585SOL    HW1 8654   3.957   1.367   1.592
 2585SOL    HW2 8655   3.874   1.484   1.514
 2586SOL     OW 8656   6.584   2.672   4.501
 2586SOL    HW1 8657   6.677   2.636   4.508
 2586SOL    HW2 8658   6.533   2.620   4.433
 2587SOL     OW 8659   5.905   6.324   2.645
 2587SOL    HW1 8660   5.903   6.355   2.550
 2587SOL    HW2 8661   5.817   6.285   2.669
 2588SOL     OW 8662   5.467   0.640   1.785
 2588SOL    HW1 8663   5.439   0.673   1.875
 2588SOL    HW2 8664   5.400   0.575   1.750
 2589SOL     OW 8665   6.177   6.618   0.854
 2589SOL    HW1 8666   6.122   6.604   0.771
 2589SOL    HW2 8667   6.119   6.611   0.935
 2590SOL     OW 8668   4.186   6.175   2.484
 2590SOL    HW1 8669   4.264   6.195   2.424
 2590SOL    HW2 8670   4.188   6.236   2.563
 2591SOL     OW 8671   5.822   0.434   1.658
 2591SOL    HW1 8672   5.880   0.466   1.733
 2591SOL    HW2 8673   5.766   0.510   1.625
 2592SOL     OW 8674   3.492   5.646   1.268
 2592SOL    HW1 8675   3.513   5.588   1.346
 2592SOL    HW2 8676   3.529   5.737   1.283
 2593SOL     OW 8677   3.218   6.304   2.602
 2593SOL    HW1 8678   3.192   6.397   2.574
 2593SOL    HW2 8679   3.317   6.300   2.617
 2594SOL     OW 8680   1.340   5.917   6.298
 2594SOL    HW1 8681   1.325   6.004   6.251
 2594SOL    HW2 8682   1.253   5.867   6.305
 2595SOL     OW 8683   6.348   3.687   4.220
 2595SOL    HW1 8684   6.296   3.766   4.189
 2595SOL    HW2 8685   6.394   3.645   4.141
 2596SOL     OW 8686   3.903   2.041   2.167
 2596SOL    HW1 8687   3.840   2.113   2.138
 2596SOL    HW2 8688   3.992   2.081   2.190
 2597SOL     OW 8689   2.081   2.889   6.751
 2597SOL    HW1 8690   1.992   2.928   6.775
 2597SOL    HW2 8691   2.083   2.868   6.653
 2598SOL     OW 8692   6.469   2.917   3.007
 2598SOL    HW1 8693   6.565   2.934   3.027
 2598SOL    HW2 8694   6.461   2.883   2.913
 2599SOL     OW 8695   4.728   4.777   6.602
 2599SOL    HW1 8696   4.678   4.691   6.611
 2599SOL    HW2 8697   4.797   4.769   6.530
 2600SOL     OW 8698   6.687   3.824   3.400
 2600SOL    HW1 8699   6.697   3.770   3.317
 2600SOL    HW2 8700   6.614   3.786   3.457
 2601SOL     OW 8701   3.622   2.825   5.650
 2601SOL    HW1 8702   3.625   2.904   5.589
 2601SOL    HW2 8703   3.713   2.784   5.656
 2602SOL     OW 8704   6.168   5.999   4.774
 2602SOL    HW1 8705   6.200   5.919   4.725
 2602SOL    HW2 8706   6.082   5.976   4.821
 2603SOL     OW 8707   2.984   2.654   0.387
 2603SOL    HW1 8708   3.075   2.690   0.364
 2603SOL    HW2 8709   2.918   2.688   0.320
 2604SOL     OW 8710   6.102   0.912   1.924
 2604SOL    HW1 8711   6.029   0.971   1.959
 2604SOL    HW2 8712   6.088   0.895   1.827
 2605SOL     OW 8713   4.614   4.711   4.307
 2605SOL    HW1 8714   4.544   4.764   4.259
 2605SOL    HW2 8715   4.576   4.676   4.393
 2606SOL     OW 8716   0.045   4.472   1.844
 2606SOL    HW1 8717   0.062   4.415   1.924
 2606SOL    HW2 8718   6.994   4.542   1.866
 2607SOL     OW 8719   0.581   1.616   4.545
 2607SOL    HW1 8720   0.573   1.618   4.645
 2607SOL    HW2 8721   0.585   1.520   4.514
 2608SOL     OW 8722   5.347   0.876   0.758
 2608SOL    HW1 8723   5.354   0.777   0.769
 2608SOL    HW2 8724   5.252   0.904   0.769
 2609SOL     OW 8725   0.303   2.016   4.536
 2609SOL    HW1 8726   0.390   2.053   4.504
 2609SOL    HW2 8727   0.252   2.088   4.582
 2610SOL     OW 8728   6.183   5.610   4.441
 2610SOL    HW1 8729   6.196   5.512   4.425
 2610SOL    HW2 8730   6.163   5.656   4.355
 2611SOL     OW 8731   3.663   6.315   1.481
 2611SOL    HW1 8732   3.569   6.299   1.512
 2611SOL    HW2 8733   3.685   6.412   1.490
 2612SOL     OW 8734   6.176   6.344   4.144
 2612SOL    HW1 8735   6.215   6.361   4.235
 2612SOL    HW2 8736   6.081   6.376   4.142
 2613SOL     OW 8737   4.130   0.484   1.649
 2613SOL    HW1 8738   4.037   0.490   1.614
 2613SOL    HW2 8739   4.132   0.423   1.729
 2614SOL     OW 8740   6.832   6.326   6.559
 2614SOL    HW1 8741   6.826   6.327   6.459
 2614SOL    HW2 8742   6.774   6.254   6.596
 2615SOL     OW 8743   5.898   4.934   1.957
 2615SOL    HW1 8744   5.830   4.913   2.027
 2615SOL    HW2 8745   5.853   4.975   1.878
 2616SOL     OW 8746   3.579   2.936   2.659
 2616SOL    HW1 8747   3.552   2.893   2.745
 2616SOL    HW2 8748   3.519   2.905   2.586
 2617SOL     OW 8749   3.878   0.501   1.550
 2617SOL    HW1 8750   3.842   0.594   1.538
 2617SOL    HW2 8751   3.945   0.482   1.478
 2618SOL     OW 8752   0.903   0.445   1.127
 2618SOL    HW1 8753   0.824   0.384   1.123
 2618SOL    HW2 8754   0.873   0.540   1.119
 2619SOL     OW 8755   4.662   1.789   1.594
 2619SOL    HW1 8756   4.719   1.796   1.512
 2619SOL    HW2 8757   4.570   1.760   1.569
 2620SOL     OW 8758   1.588   4.130   4.167
 2620SOL    HW1 8759   1.543   4.199   4.224
 2620SOL    HW2 8760   1.657   4.174   4.110
 2621SOL     OW 8761   0.869   4.764   3.866
 2621SOL    HW1 8762   0.806   4.832   3.904
 2621SOL    HW2 8763   0.823   4.713   3.794
 2622SOL     OW 8764   2.882   3.344   6.227
 2622SOL    HW1 8765   2.794   3.390   6.242
 2622SOL    HW2 8766   2.870   3.273   6.157
 2623SOL     OW 8767   3.078   0.847   5.406
 2623SOL    HW1 8768   3.076   0.787   5.486
 2623SOL    HW2 8769   2.993   0.837   5.355
 2624SOL     OW 8770   6.744   2.376   3.990
 2624SOL    HW1 8771   6.648   2.392   4.010
 2624SOL    HW2 8772   6.757   2.283   3.955
 2625SOL     OW 8773   3.960   0.909   5.340
 2625SOL    HW1 8774   4.019   0.984   5.310
 2625SOL    HW2 8775   3.880   0.903   5.280
 2626SOL     OW 8776   2.150   6.611   2.571
 2626SOL    HW1 8777   2.117   6.676   2.640
 2626SOL    HW2 8778   2.157   6.656   2.482
 2627SOL     OW 8779   0.143   6.990   4.468
 2627SOL    HW1 8780   0.045   6.970   4.475
 2627SOL    HW2 8781   0.168   7.002   4.372
 2628SOL     OW 8782   4.203   5.149   5.859
 2628SOL    HW1 8783   4.130   5.084   5.878
 2628SOL    HW2 8784   4.252   5.171   5.944
 2629SOL     OW 8785   3.679   4.054   1.193
 2629SOL    HW1 8786   3.775   4.030   1.179
 2629SOL    HW2 8787   3.664   4.080   1.288
 2630SOL     OW 8788   2.538   2.482   2.265
 2630SOL    HW1 8789   2.629   2.522   2.276
 2630SOL    HW2 8790   2.472   2.537   2.317
 2631SOL     OW 8791   4.864   6.264   4.434
 2631SOL    HW1 8792   4.793   6.334   4.436
 2631SOL    HW2 8793   4.939   6.295   4.375
 2632SOL     OW 8794   5.052   1.918   0.484
 2632SOL    HW1 8795   5.078   2.012   0.504
 2632SOL    HW2 8796   4.999   1.880   0.560
 2633SOL     OW 8797   6.035   2.386   6.608
 2633SOL    HW1 8798   6.001   2.470   6.650
 2633SOL    HW2 8799   6.110   2.350   6.664
 2634SOL     OW 8800   2.580   5.207   1.275
 2634SOL    HW1 8801   2.500   5.218   1.334
 2634SOL    HW2 8802   2.554   5.223   1.179
 2635SOL     OW 8803   5.070   4.440   4.353
 2635SOL    HW1 8804   5.043   4.348   4.381
 2635SOL    HW2 8805   5.106   4.437   4.259
 2636SOL     OW 8806   6.167   0.440   4.918
 2636SOL    HW1 8807   6.190   0.380   4.995
 2636SOL    HW2 8808   6.125   0.524   4.954
 2637SOL     OW 8809   5.036   6.559   2.608
 2637SOL    HW1 8810   4.972   6.631   2.582
 2637SOL    HW2 8811   5.080   6.523   2.525
 2638SOL     OW 8812   5.687   6.295   0.890
 2638SOL    HW1 8813   5.754   6.225   0.914
 2638SOL    HW2 8814   5.716   6.342   0.806
 2639SOL     OW 8815   6.468   6.199   0.453
 2639SOL    HW1 8816   6.542   6.174   0.515
 2639SOL    HW2 8817   6.456   6.299   0.455
 2640SOL     OW 8818   0.037   6.614   5.839
 2640SOL    HW1 8819   0.082   6.704   5.841
 2640SOL    HW2 8820   0.081   6.557   5.770
 2641SOL     OW 8821   5.743   5.091   0.338
 2641SOL    HW1 8822   5.653   5.124   0.311
 2641SOL    HW2 8823   5.800   5.079   0.257
 2642SOL     OW 8824   6.044   6.736   3.910
 2642SOL    HW1 8825   6.120   6.724   3.846
 2642SOL    HW2 8826   6.052   6.826   3.953
 2643SOL     OW 8827   0.706   0.471   2.159
 2643SOL    HW1 8828   0.766   0.392   2.146
 2643SOL    HW2 8829   0.726   0.539   2.088
 2644SOL     OW 8830   0.217   4.793   6.119
 2644SOL    HW1 8831   0.257   4.855   6.187
 2644SOL    HW2 8832   0.143   4.741   6.162
 2645SOL     OW 8833   5.465   5.881   5.674
 2645SOL    HW1 8834   5.553   5.925   5.657
 2645SOL    HW2 8835   5.438   5.829   5.593
 2646SOL     OW 8836   6.362   6.716   0.242
 2646SOL    HW1 8837   6.406   6.626   0.250
 2646SOL    HW2 8838   6.269   6.711   0.280
 2647SOL     OW 8839   4.130   1.417   0.895
 2647SOL    HW1 8840   4.046   1.429   0.843
 2647SOL    HW2 8841   4.160   1.321   0.889
 2648SOL     OW 8842   4.598   0.495   2.590
 2648SOL    HW1 8843   4.607   0.449   2.502
 2648SOL    HW2 8844   4.558   0.431   2.657
 2649SOL     OW 8845   3.354   1.891   5.747
 2649SOL    HW1 8846   3.300   1.831   5.806
 2649SOL    HW2 8847   3.344   1.861   5.652
 2650SOL     OW 8848   0.327   5.901   2.057
 2650SOL    HW1 8849   0.420   5.884   2.025
 2650SOL    HW2 8850   0.271   5.819   2.042
 2651SOL     OW 8851   6.825   0.851   3.375
 2651SOL    HW1 8852   6.840   0.762   3.420
 2651SOL    HW2 8853   6.909   0.904   3.379
 2652SOL     OW 8854   2.913   3.650   2.448
 2652SOL    HW1 8855   2.850   3.663   2.372
 2652SOL    HW2 8856   2.999   3.612   2.413
 2653SOL     OW 8857   6.606   6.701   6.566
 2653SOL    HW1 8858   6.678   6.641   6.532
 2653SOL    HW2 8859   6.619   6.793   6.529
 2654SOL     OW 8860   5.660   2.724   6.063
 2654SOL    HW1 8861   5.732   2.793   6.076
 2654SOL    HW2 8862   5.637   2.719   5.966
 2655SOL     OW 8863   4.980   6.393   5.083
 2655SOL    HW1 8864   4.989   6.308   5.032
 2655SOL    HW2 8865   5.070   6.436   5.091
 2656SOL     OW 8866   5.826   3.504   4.004
 2656SOL    HW1 8867   5.803   3.464   4.092
 2656SOL    HW2 8868   5.839   3.431   3.936
 2657SOL     OW 8869   2.371   3.144   6.588
 2657SOL    HW1 8870   2.357   3.230   6.539
 2657SOL    HW2 8871   2.308   3.139   6.666
 2658SOL     OW 8872   6.083   4.054   6.159
 2658SOL    HW1 8873   6.087   3.982   6.229
 2658SOL    HW2 8874   6.017   4.028   6.089
 2659SOL     OW 8875   6.732   3.094   3.838
 2659SOL    HW1 8876   6.813   3.136   3.879
 2659SOL    HW2 8877   6.761   3.018   3.779
 2660SOL     OW 8878   6.895   2.670   3.224
 2660SOL    HW1 8879   6.865   2.682   3.130
 2660SOL    HW2 8880   6.845   2.595   3.266
 2661SOL     OW 8881   4.535   6.028   0.590
 2661SOL    HW1 8882   4.534   6.027   0.690
 2661SOL    HW2 8883   4.544   6.122   0.558
 2662SOL     OW 8884   3.218   6.861   3.953
 2662SOL    HW1 8885   3.310   6.900   3.955
 2662SOL    HW2 8886   3.198   6.817   4.041
 2663SOL     OW 8887   1.340   4.214   2.609
 2663SOL    HW1 8888   1.241   4.227   2.601
 2663SOL    HW2 8889   1.359   4.152   2.686
 2664SOL     OW 8890   4.131   3.751   2.039
 2664SOL    HW1 8891   4.084   3.689   2.102
 2664SOL    HW2 8892   4.132   3.843   2.076
 2665SOL     OW 8893   3.905   1.066   4.571
 2665SOL    HW1 8894   3.959   1.146   4.600
 2665SOL    HW2 8895   3.872   1.018   4.652
 2666SOL     OW 8896   5.227   5.684   1.410
 2666SOL    HW1 8897   5.273   5.753   1.466
 2666SOL    HW2 8898   5.262   5.689   1.317
 2667SOL     OW 8899   1.647   5.311   3.798
 2667SOL    HW1 8900   1.678   5.245   3.867
 2667SOL    HW2 8901   1.547   5.311   3.795
 2668SOL     OW 8902   0.197   3.033   5.812
 2668SOL    HW1 8903   0.103   3.045   5.844
 2668SOL    HW2 8904   0.208   3.081   5.724
 2669SOL     OW 8905   4.448   4.933   4.952
 2669SOL    HW1 8906   4.413   4.895   5.037
 2669SOL    HW2 8907   4.541   4.966   4.965
 2670SOL     OW 8908   1.517   1.172   6.609
 2670SOL    HW1 8909   1.587   1.213   6.551
 2670SOL    HW2 8910   1.430   1.171   6.560
 2671SOL     OW 8911   2.118   3.471   6.029
 2671SOL    HW1 8912   2.174   3.539   5.982
 2671SOL    HW2 8913   2.165   3.383   6.029
 2672SOL     OW 8914   1.439   5.305   1.166
 2672SOL    HW1 8915   1.511   5.372   1.187
 2672SOL    HW2 8916   1.376   5.299   1.244
 2673SOL     OW 8917   4.011   2.067   2.881
 2673SOL    HW1 8918   4.005   1.967   2.870
 2673SOL    HW2 8919   3.990   2.091   2.976
 2674SOL     OW 8920   5.234   5.367   5.562
 2674SOL    HW1 8921   5.284   5.341   5.479
 2674SOL    HW2 8922   5.213   5.285   5.615
 2675SOL     OW 8923   0.292   5.198   5.482
 2675SOL    HW1 8924   0.310   5.162   5.390
 2675SOL    HW2 8925   0.331   5.136   5.549
 2676SOL     OW 8926   4.420   1.143   1.891
 2676SOL    HW1 8927   4.420   1.045   1.906
 2676SOL    HW2 8928   4.391   1.163   1.797
 2677SOL     OW 8929   2.560   5.151   1.991
 2677SOL    HW1 8930   2.502   5.093   1.933
 2677SOL    HW2 8931   2.518   5.158   2.082
 2678SOL     OW 8932   0.428   5.065   5.691
 2678SOL    HW1 8933   0.423   5.023   5.782
 2678SOL    HW2 8934   0.523   5.081   5.667
 2679SOL     OW 8935   3.084   4.359   0.965
 2679SOL    HW1 8936   3.066   4.430   1.034
 2679SOL    HW2 8937   3.170   4.313   0.986
 2680SOL     OW 8938   1.169   1.997   1.946
 2680SOL    HW1 8939   1.115   1.938   1.885
 2680SOL    HW2 8940   1.205   2.074   1.893
 2681SOL     OW 8941   1.536   2.334   2.864
 2681SOL    HW1 8942   1.529   2.414   2.805
 2681SOL    HW2 8943   1.631   2.300   2.863
 2682SOL     OW 8944   5.647   2.542   3.119
 2682SOL    HW1 8945   5.740   2.573   3.099
 2682SOL    HW2 8946   5.582   2.595   3.065
 2683SOL     OW 8947   1.088   6.345   1.503
 2683SOL    HW1 8948   1.168   6.314   1.451
 2683SOL    HW2 8949   1.034   6.266   1.531
 2684SOL     OW 8950   2.522   6.622   2.768
 2684SOL    HW1 8951   2.613   6.622   2.726
 2684SOL    HW2 8952   2.522   6.682   2.848
 2685SOL     OW 8953   5.412   5.729   5.434
 2685SOL    HW1 8954   5.405   5.798   5.361
 2685SOL    HW2 8955   5.488   5.667   5.414
 2686SOL     OW 8956   2.096   2.822   4.188
 2686SOL    HW1 8957   2.009   2.837   4.236
 2686SOL    HW2 8958   2.128   2.908   4.149
 2687SOL     OW 8959   4.457   5.532   2.583
 2687SOL    HW1 8960   4.482   5.472   2.507
 2687SOL    HW2 8961   4.519   5.515   2.660
 2688SOL     OW 8962   3.504   4.465   6.048
 2688SOL    HW1 8963   3.555   4.454   5.963
 2688SOL    HW2 8964   3.568   4.486   6.122
 2689SOL     OW 8965   6.850   3.444   3.919
 2689SOL    HW1 8966   6.789   3.478   3.848
 2689SOL    HW2 8967   6.942   3.432   3.880
 2690SOL     OW 8968   3.955   3.656   3.491
 2690SOL    HW1 8969   3.986   3.636   3.398
 2690SOL    HW2 8970   3.917   3.574   3.532
 2691SOL     OW 8971   1.646   6.187   1.858
 2691SOL    HW1 8972   1.721   6.224   1.804
 2691SOL    HW2 8973   1.599   6.116   1.805
 2692SOL     OW 8974   0.163   6.615   3.679
 2692SOL    HW1 8975   0.188   6.544   3.745
 2692SOL    HW2 8976   0.245   6.665   3.651
 2693SOL     OW 8977   1.756   4.090   3.010
 2693SOL    HW1 8978   1.753   4.181   2.970
 2693SOL    HW2 8979   1.833   4.084   3.074
 2694SOL     OW 8980   1.757   6.771   3.093
 2694SOL    HW1 8981   1.787   6.681   3.123
 2694SOL    HW2 8982   1.804   6.841   3.147
 2695SOL     OW 8983   4.305   1.950   3.500
 2695SOL    HW1 8984   4.372   1.897   3.551
 2695SOL    HW2 8985   4.226   1.970   3.558
 2696SOL     OW 8986   3.908   3.799   5.489
 2696SOL    HW1 8987   3.998   3.843   5.495
 2696SOL    HW2 8988   3.911   3.710   5.534
 2697SOL     OW 8989   2.592   1.522   4.088
 2697SOL    HW1 8990   2.547   1.584   4.151
 2697SOL    HW2 8991   2.523   1.480   4.028
 2698SOL     OW 8992   2.681   3.640   0.573
 2698SOL    HW1 8993   2.730   3.582   0.508
 2698SOL    HW2 8994   2.733   3.724   0.590
 2699SOL     OW 8995   3.542   6.002   1.892
 2699SOL    HW1 8996   3.587   5.912   1.885
 2699SOL    HW2 8997   3.597   6.070   1.845
 2700SOL     OW 8998   1.861   3.562   2.715
 2700SOL    HW1 8999   1.911   3.489   2.761
 2700SOL    HW2 9000   1.891   3.651   2.750
 2701SOL     OW 9001   4.026   6.958   6.714
 2701SOL    HW1 9002   3.994   6.965   6.620
 2701SOL    HW2 9003   3.992   6.874   6.756
 2702SOL     OW 9004   6.880   0.124   3.638
 2702SOL    HW1 9005   6.954   0.075   3.684
 2702SOL    HW2 9006   6.793   0.102   3.682
 2703SOL     OW 9007   1.903   1.882   2.317
 2703SOL    HW1 9008   1.865   1.804   2.267
 2703SOL    HW2 9009   1.963   1.848   2.389
 2704SOL     OW 9010   2.387   4.872   1.229
 2704SOL    HW1 9011   2.471   4.868   1.282
 2704SOL    HW2 9012   2.309   4.857   1.289
 2705SOL     OW 9013   6.592   5.218   3.415
 2705SOL    HW1 9014   6.677   5.240   3.366
 2705SOL    HW2 9015   6.541   5.150   3.363
 2706SOL     OW 9016   0.023   1.211   2.032
 2706SOL    HW1 9017   6.946   1.177   2.026
 2706SOL    HW2 9018   0.048   1.223   2.128
 2707SOL     OW 9019   2.213   1.500   5.867
 2707SOL    HW1 9020   2.260   1.413   5.886
 2707SOL    HW2 9021   2.280   1.574   5.866
 2708SOL     OW 9022   1.698   2.275   1.617
 2708SOL    HW1 9023   1.674   2.273   1.520
 2708SOL    HW2 9024   1.791   2.311   1.627
 2709SOL     OW 9025   4.496   6.277   0.447
 2709SOL    HW1 9026   4.430   6.236   0.385
 2709SOL    HW2 9027   4.454   6.354   0.494
 2710SOL     OW 9028   6.548   3.930   2.898
 2710SOL    HW1 9029   6.616   3.935   2.971
 2710SOL    HW2 9030   6.545   4.017   2.849
 2711SOL     OW 9031   1.206   0.652   2.385
 2711SOL    HW1 9032   1.112   0.645   2.352
 2711SOL    HW2 9033   1.266   0.684   2.311
 2712SOL     OW 9034   2.935   3.874   0.194
 2712SOL    HW1 9035   2.966   3.920   0.111
 2712SOL    HW2 9036   2.991   3.905   0.271
 2713SOL     OW 9037   2.222   3.171   5.193
 2713SOL    HW1 9038   2.311   3.127   5.182
 2713SOL    HW2 9039   2.162   3.113   5.248
 2714SOL     OW 9040   5.034   6.940   5.627
 2714SOL    HW1 9041   5.105   6.888   5.674
 2714SOL    HW2 9042   5.027   6.911   5.532
 2715SOL     OW 9043   6.008   1.224   6.518
 2715SOL    HW1 9044   6.054   1.299   6.565
 2715SOL    HW2 9045   5.909   1.239   6.519
 2716SOL     OW 9046   0.229   6.830   2.409
 2716SOL    HW1 9047   0.274   6.911   2.444
 2716SOL    HW2 9048   0.275   6.800   2.325
 2717SOL     OW 9049   0.679   0.695   2.576
 2717SOL    HW1 9050   0.643   0.760   2.510
 2717SOL    HW2 9051   0.731   0.744   2.646
 2718SOL     OW 9052   1.868   4.866   3.915
 2718SOL    HW1 9053   1.903   4.856   3.822
 2718SOL    HW2 9054   1.794   4.800   3.930
 2719SOL     OW 9055   4.121   5.392   1.692
 2719SOL    HW1 9056   4.209   5.385   1.646
 2719SOL    HW2 9057   4.134   5.421   1.786
 2720SOL     OW 9058   1.342   6.124   3.680
 2720SOL    HW1 9059   1.385   6.073   3.755
 2720SOL    HW2 9060   1.353   6.222   3.696
 2721SOL     OW 9061   3.884   0.039   3.857
 2721SOL    HW1 9062   3.936   6.970   3.851
 2721SOL    HW2 9063   3.822   0.045   3.778
 2722SOL     OW 9064   1.078   6.027   2.314
 2722SOL    HW1 9065   1.131   6.098   2.269
 2722SOL    HW2 9066   1.140   5.954   2.344
 2723SOL     OW 9067   1.557   1.561   5.912
 2723SOL    HW1 9068   1.475   1.518   5.950
 2723SOL    HW2 9069   1.531   1.629   5.844
 2724SOL     OW 9070   4.008   5.457   6.463
 2724SOL    HW1 9071   3.992   5.522   6.389
 2724SOL    HW2 9072   4.078   5.493   6.525
 2725SOL     OW 9073   3.224   4.953   3.792
 2725SOL    HW1 9074   3.285   4.972   3.868
 2725SOL    HW2 9075   3.276   4.913   3.716
 2726SOL     OW 9076   4.670   5.205   2.036
 2726SOL    HW1 9077   4.646   5.302   2.026
 2726SOL    HW2 9078   4.636   5.155   1.957
 2727SOL     OW 9079   1.919   5.630   2.419
 2727SOL    HW1 9080   1.877   5.539   2.417
 2727SOL    HW2 9081   1.910   5.669   2.511
 2728SOL     OW 9082   3.244   6.678   5.672
 2728SOL    HW1 9083   3.168   6.669   5.735
 2728SOL    HW2 9084   3.229   6.757   5.612
 2729SOL     OW 9085   5.546   5.217   2.946
 2729SOL    HW1 9086   5.543   5.317   2.943
 2729SOL    HW2 9087   5.582   5.183   2.859
 2730SOL     OW 9088   1.967   6.009   1.263
 2730SOL    HW1 9089   1.959   5.918   1.221
 2730SOL    HW2 9090   2.020   6.002   1.347
 2731SOL     OW 9091   3.259   3.826   1.581
 2731SOL    HW1 9092   3.316   3.902   1.610
 2731SOL    HW2 9093   3.247   3.829   1.481
 2732SOL     OW 9094   5.916   2.102   2.316
 2732SOL    HW1 9095   5.988   2.119   2.383
 2732SOL    HW2 9096   5.938   2.020   2.263
 2733SOL     OW 9097   1.318   6.642   6.125
 2733SOL    HW1 9098   1.331   6.716   6.191
 2733SOL    HW2 9099   1.265   6.676   6.047
 2734SOL     OW 9100   1.919   5.393   3.881
 2734SOL    HW1 9101   2.016   5.387   3.856
 2734SOL    HW2 9102   1.864   5.370   3.801
 2735SOL     OW 9103   1.638   4.977   2.483
 2735SOL    HW1 9104   1.597   5.006   2.397
 2735SOL    HW2 9105   1.736   4.998   2.482
 2736SOL     OW 9106   4.598   0.528   5.306
 2736SOL    HW1 9107   4.643   0.468   5.240
 2736SOL    HW2 9108   4.621   0.623   5.287
 2737SOL     OW 9109   4.689   3.593   6.485
 2737SOL    HW1 9110   4.739   3.537   6.550
 2737SOL    HW2 9111   4.753   3.648   6.432
 2738SOL     OW 9112   5.482   5.231   4.279
 2738SOL    HW1 9113   5.535   5.307   4.318
 2738SOL    HW2 9114   5.530   5.194   4.200
 2739SOL     OW 9115   5.998   3.018   0.562
 2739SOL    HW1 9116   5.919   3.079   0.557
 2739SOL    HW2 9117   5.978   2.944   0.627
 2740SOL     OW 9118   5.807   2.217   3.356
 2740SOL    HW1 9119   5.726   2.251   3.307
 2740SOL    HW2 9120   5.837   2.131   3.316
 2741SOL     OW 9121   0.320   2.416   6.323
 2741SOL    HW1 9122   0.286   2.381   6.236
 2741SOL    HW2 9123   0.419   2.408   6.325
 2742SOL     OW 9124   1.879   6.598   6.545
 2742SOL    HW1 9125   1.817   6.583   6.467
 2742SOL    HW2 9126   1.971   6.617   6.511
 2743SOL     OW 9127   5.138   5.051   0.951
 2743SOL    HW1 9128   5.165   5.060   1.047
 2743SOL    HW2 9129   5.187   5.119   0.897
 2744SOL     OW 9130   4.189   1.628   6.493
 2744SOL    HW1 9131   4.124   1.692   6.534
 2744SOL    HW2 9132   4.257   1.602   6.562
 2745SOL     OW 9133   2.547   6.239   0.667
 2745SOL    HW1 9134   2.450   6.259   0.660
 2745SOL    HW2 9135   2.562   6.141   0.655
 2746SOL     OW 9136   1.502   2.494   6.149
 2746SOL    HW1 9137   1.584   2.508   6.204
 2746SOL    HW2 9138   1.446   2.422   6.189
 2747SOL     OW 9139   3.953   6.135   4.345
 2747SOL    HW1 9140   3.966   6.037   4.331
 2747SOL    HW2 9141   3.902   6.174   4.269
 2748SOL     OW 9142   3.709   0.993   3.877
 2748SOL    HW1 9143   3.734   1.088   3.894
 2748SOL    HW2 9144   3.675   0.984   3.783
 2749SOL     OW 9145   4.569   5.461   3.710
 2749SOL    HW1 9146   4.558   5.375   3.761
 2749SOL    HW2 9147   4.527   5.536   3.761
 2750SOL     OW 9148   0.433   5.905   2.613
 2750SOL    HW1 9149   0.524   5.865   2.620
 2750SOL    HW2 9150   0.411   5.923   2.517
 2751SOL     OW 9151   1.657   0.253   6.252
 2751SOL    HW1 9152   1.646   0.324   6.322
 2751SOL    HW2 9153   1.688   0.168   6.296
 2752SOL     OW 9154   5.841   6.450   5.537
 2752SOL    HW1 9155   5.823   6.385   5.464
 2752SOL    HW2 9156   5.846   6.401   5.625
 2753SOL     OW 9157   2.437   5.308   5.456
 2753SOL    HW1 9158   2.369   5.256   5.508
 2753SOL    HW2 9159   2.398   5.336   5.368
 2754SOL     OW 9160   1.269   6.809   3.959
 2754SOL    HW1 9161   1.306   6.833   4.049
 2754SOL    HW2 9162   1.224   6.719   3.964
 2755SOL     OW 9163   3.389   6.058   2.109
 2755SOL    HW1 9164   3.380   6.157   2.123
 2755SOL    HW2 9165   3.450   6.041   2.032
 2756SOL     OW 9166   0.651   2.931   6.081
 2756SOL    HW1 9167   0.687   3.018   6.113
 2756SOL    HW2 9168   0.727   2.868   6.062
 2757SOL     OW 9169   4.140   3.369   6.654
 2757SOL    HW1 9170   4.227   3.330   6.683
 2757SOL    HW2 9171   4.142   3.468   6.665
 2758SOL     OW 9172   6.648   5.972   2.417
 2758SOL    HW1 9173   6.722   5.906   2.430
 2758SOL    HW2 9174   6.579   5.934   2.354
 2759SOL     OW 9175   3.000   3.858   5.907
 2759SOL    HW1 9176   3.002   3.956   5.928
 2759SOL    HW2 9177   3.093   3.826   5.889
 2760SOL     OW 9178   5.295   6.335   2.981
 2760SOL    HW1 9179   5.229   6.401   3.017
 2760SOL    HW2 9180   5.303   6.347   2.882
 2761SOL     OW 9181   1.253   2.687   3.527
 2761SOL    HW1 9182   1.281   2.780   3.502
 2761SOL    HW2 9183   1.313   2.621   3.483
 2762SOL     OW 9184   2.355   2.359   0.427
 2762SOL    HW1 9185   2.416   2.436   0.407
 2762SOL    HW2 9186   2.395   2.303   0.499
 2763SOL     OW 9187   6.025   1.893   4.395
 2763SOL    HW1 9188   6.096   1.880   4.326
 2763SOL    HW2 9189   6.054   1.964   4.459
 2764SOL     OW 9190   0.848   3.603   2.368
 2764SOL    HW1 9191   0.863   3.571   2.275
 2764SOL    HW2 9192   0.884   3.536   2.433
 2765SOL     OW 9193   6.743   6.961   0.079
 2765SOL    HW1 9194   6.841   6.939   0.078
 2765SOL    HW2 9195   6.696   6.908   0.008
 2766SOL     OW 9196   5.140   0.943   6.625
 2766SOL    HW1 9197   5.138   1.031   6.671
 2766SOL    HW2 9198   5.061   0.889   6.652
 2767SOL     OW 9199   6.302   5.333   6.559
 2767SOL    HW1 9200   6.380   5.386   6.525
 2767SOL    HW2 9201   6.262   5.282   6.483
 2768SOL     OW 9202   4.125   6.955   1.236
 2768SOL    HW1 9203   4.063   6.920   1.166
 2768SOL    HW2 9204   4.117   0.038   1.240
 2769SOL     OW 9205   0.490   4.569   5.849
 2769SOL    HW1 9206   0.404   4.524   5.871
 2769SOL    HW2 9207   0.556   4.502   5.815
 2770SOL     OW 9208   3.258   6.542   0.478
 2770SOL    HW1 9209   3.209   6.603   0.415
 2770SOL    HW2 9210   3.256   6.580   0.570
 2771SOL     OW 9211   4.304   6.792   4.995
 2771SOL    HW1 9212   4.337   6.764   5.085
 2771SOL    HW2 9213   4.343   6.882   4.972
 2772SOL     OW 9214   4.647   0.292   3.273
 2772SOL    HW1 9215   4.549   0.294   3.291
 2772SOL    HW2 9216   4.696   0.271   3.357
 2773SOL     OW 9217   5.680   2.855   5.199
 2773SOL    HW1 9218   5.663   2.922   5.127
 2773SOL    HW2 9219   5.594   2.822   5.236
 2774SOL     OW 9220   6.337   1.979   4.392
 2774SOL    HW1 9221   6.318   2.065   4.346
 2774SOL    HW2 9222   6.373   1.998   4.484
 2775SOL     OW 9223   0.249   3.516   3.999
 2775SOL    HW1 9224   0.346   3.493   3.994
 2775SOL    HW2 9225   0.238   3.605   4.042
 2776SOL     OW 9226   4.960   4.385   6.284
 2776SOL    HW1 9227   4.868   4.417   6.308
 2776SOL    HW2 9228   4.961   4.354   6.189
 2777SOL     OW 9229   2.765   2.187   6.369
 2777SOL    HW1 9230   2.854   2.232   6.367
 2777SOL    HW2 9231   2.694   2.253   6.342
 2778SOL     OW 9232   2.826   0.260   5.866
 2778SOL    HW1 9233   2.908   0.246   5.810
 2778SOL    HW2 9234   2.804   0.174   5.913
 2779SOL     OW 9235   5.275   0.494   1.633
 2779SOL    HW1 9236   5.281   0.495   1.533
 2779SOL    HW2 9237   5.187   0.531   1.662
 2780SOL     OW 9238   0.004   2.229   4.835
 2780SOL    HW1 9239   7.011   2.165   4.759
 2780SOL    HW2 9240   6.949   2.210   4.903
 2781SOL     OW 9241   5.795   1.416   3.291
 2781SOL    HW1 9242   5.827   1.351   3.360
 2781SOL    HW2 9243   5.825   1.387   3.201
 2782SOL     OW 9244   5.139   0.343   5.988
 2782SOL    HW1 9245   5.229   0.379   5.964
 2782SOL    HW2 9246   5.136   0.245   5.967
 2783SOL     OW 9247   5.744   4.209   1.532
 2783SOL    HW1 9248   5.778   4.296   1.568
 2783SOL    HW2 9249   5.688   4.227   1.451
 2784SOL     OW 9250   1.005   2.003   1.625
 2784SOL    HW1 9251   1.093   1.991   1.580
 2784SOL    HW2 9252   0.939   1.937   1.588
 2785SOL     OW 9253   6.216   2.945   1.480
 2785SOL    HW1 9254   6.180   3.000   1.555
 2785SOL    HW2 9255   6.156   2.953   1.401
 2786SOL     OW 9256   6.948   6.028   6.889
 2786SOL    HW1 9257   0.022   6.007   6.926
 2786SOL    HW2 9258   6.947   6.008   6.791
 2787SOL     OW 9259   6.591   5.472   6.756
 2787SOL    HW1 9260   6.544   5.449   6.841
 2787SOL    HW2 9261   6.690   5.473   6.772
 2788SOL     OW 9262   3.155   6.187   6.145
 2788SOL    HW1 9263   3.242   6.214   6.186
 2788SOL    HW2 9264   3.121   6.105   6.190
 2789SOL     OW 9265   1.115   2.142   5.143
 2789SOL    HW1 9266   1.202   2.094   5.140
 2789SOL    HW2 9267   1.086   2.167   5.050
 2790SOL     OW 9268   1.107   5.641   2.199
 2790SOL    HW1 9269   1.091   5.631   2.297
 2790SOL    HW2 9270   1.045   5.710   2.162
 2791SOL     OW 9271   0.416   3.933   3.087
 2791SOL    HW1 9272   0.339   3.869   3.089
 2791SOL    HW2 9273   0.392   4.013   3.033
 2792SOL     OW 9274   3.229   1.128   6.108
 2792SOL    HW1 9275   3.268   1.220   6.114
 2792SOL    HW2 9276   3.237   1.095   6.014
 2793SOL     OW 9277   3.721   3.824   0.161
 2793SOL    HW1 9278   3.684   3.731   0.163
 2793SOL    HW2 9279   3.761   3.841   0.070
 2794SOL     OW 9280   0.845   2.581   0.281
 2794SOL    HW1 9281   0.804   2.501   0.324
 2794SOL    HW2 9282   0.815   2.586   0.185
 2795SOL     OW 9283   0.936   5.502   1.449
 2795SOL    HW1 9284   0.892   5.465   1.530
 2795SOL    HW2 9285   1.035   5.486   1.454
 2796SOL     OW 9286   2.135   5.426   6.155
 2796SOL    HW1 9287   2.219   5.473   6.182
 2796SOL    HW2 9288   2.057   5.488   6.165
 2797SOL     OW 9289   4.956   5.923   3.362
 2797SOL    HW1 9290   5.010   5.865   3.302
 2797SOL    HW2 9291   4.869   5.879   3.383
 2798SOL     OW 9292   4.567   0.512   1.724
 2798SOL    HW1 9293   4.575   0.610   1.744
 2798SOL    HW2 9294   4.544   0.463   1.808
 2799SOL     OW 9295   3.725   6.100   5.198
 2799SOL    HW1 9296   3.783   6.112   5.117
 2799SOL    HW2 9297   3.685   6.008   5.196
 2800SOL     OW 9298   5.890   0.142   6.461
 2800SOL    HW1 9299   5.954   0.215   6.484
 2800SOL    HW2 9300   5.936   0.071   6.408
 2801SOL     OW 9301   0.713   4.822   4.679
 2801SOL    HW1 9302   0.771   4.899   4.704
 2801SOL    HW2 9303   0.770   4.743   4.658
 2802SOL     OW 9304   1.577   5.218   5.234
 2802SOL    HW1 9305   1.544   5.166   5.313
 2802SOL    HW2 9306   1.613   5.306   5.264
 2803SOL     OW 9307   3.638   2.220   5.878
 2803SOL    HW1 9308   3.548   2.179   5.887
 2803SOL    HW2 9309   3.650   2.292   5.947
 2804SOL     OW 9310   0.204   2.516   4.176
 2804SOL    HW1 9311   0.195   2.427   4.132
 2804SOL    HW2 9312   0.168   2.587   4.115
 2805SOL     OW 9313   3.718   3.377   1.151
 2805SOL    HW1 9314   3.639   3.364   1.211
 2805SOL    HW2 9315   3.791   3.424   1.201
 2806SOL     OW 9316   0.504   4.311   6.258
 2806SOL    HW1 9317   0.531   4.301   6.354
 2806SOL    HW2 9318   0.505   4.408   6.233
 2807SOL     OW 9319   3.892   0.421   3.759
 2807SOL    HW1 9320   3.942   0.505   3.739
 2807SOL    HW2 9321   3.952   0.343   3.749
 2808SOL     OW 9322   0.233   5.480   5.511
 2808SOL    HW1 9323   0.232   5.390   5.466
 2808SOL    HW2 9324   0.176   5.544   5.459
 2809SOL     OW 9325   0.142   5.305   2.010
 2809SOL    HW1 9326   0.236   5.322   1.979
 2809SOL    HW2 9327   0.088   5.389   2.000
 2810SOL     OW 9328   2.466   6.676   3.051
 2810SOL    HW1 9329   2.556   6.635   3.068
 2810SOL    HW2 9330   2.441   6.734   3.129
 2811SOL     OW 9331   1.077   1.288   1.201
 2811SOL    HW1 9332   1.104   1.222   1.130
 2811SOL    HW2 9333   1.119   1.262   1.288
 2812SOL     OW 9334   0.745   1.583   0.767
 2812SOL    HW1 9335   0.833   1.603   0.723
 2812SOL    HW2 9336   0.745   1.619   0.860
 2813SOL     OW 9337   1.056   2.806   1.376
 2813SOL    HW1 9338   1.107   2.802   1.462
 2813SOL    HW2 9339   1.120   2.808   1.299
 2814SOL     OW 9340   2.485   4.552   0.488
 2814SOL    HW1 9341   2.554   4.485   0.516
 2814SOL    HW2 9342   2.499   4.575   0.391
 2815SOL     OW 9343   0.537   5.143   4.907
 2815SOL    HW1 9344   0.536   5.078   4.984
 2815SOL    HW2 9345   0.503   5.231   4.938
 2816SOL     OW 9346   0.934   6.110   5.661
 2816SOL    HW1 9347   0.946   6.059   5.576
 2816SOL    HW2 9348   0.962   6.205   5.646
 2817SOL     OW 9349   4.161   0.811   2.436
 2817SOL    HW1 9350   4.106   0.733   2.404
 2817SOL    HW2 9351   4.200   0.858   2.357
 2818SOL     OW 9352   1.764   0.342   0.449
 2818SOL    HW1 9353   1.762   0.276   0.525
 2818SOL    HW2 9354   1.687   0.405   0.459
 2819SOL     OW 9355   0.540   0.236   6.896
 2819SOL    HW1 9356   0.557   0.293   6.977
 2819SOL    HW2 9357   0.444   0.207   6.896
 2820SOL     OW 9358   1.605   2.539   0.093
 2820SOL    HW1 9359   1.653   2.603   0.034
 2820SOL    HW2 9360   1.614   2.569   0.188
 2821SOL     OW 9361   3.174   3.342   6.230
 2821SOL    HW1 9362   3.220   3.375   6.312
 2821SOL    HW2 9363   3.075   3.352   6.242
 2822SOL     OW 9364   4.429   2.562   0.636
 2822SOL    HW1 9365   4.394   2.650   0.669
 2822SOL    HW2 9366   4.524   2.552   0.665
 2823SOL     OW 9367   5.003   2.246   1.672
 2823SOL    HW1 9368   4.952   2.164   1.646
 2823SOL    HW2 9369   5.054   2.227   1.757
 2824SOL     OW 9370   1.399   3.606   4.657
 2824SOL    HW1 9371   1.361   3.644   4.573
 2824SOL    HW2 9372   1.359   3.515   4.674
 2825SOL     OW 9373   5.379   2.131   5.993
 2825SOL    HW1 9374   5.344   2.037   5.990
 2825SOL    HW2 9375   5.392   2.159   6.088
 2826SOL     OW 9376   2.442   2.404   6.567
 2826SOL    HW1 9377   2.415   2.492   6.606
 2826SOL    HW2 9378   2.513   2.363   6.624
 2827SOL     OW 9379   6.060   1.102   6.287
 2827SOL    HW1 9380   6.129   1.142   6.226
 2827SOL    HW2 9381   6.047   1.161   6.367
 2828SOL     OW 9382   2.025   4.040   0.838
 2828SOL    HW1 9383   1.931   4.074   0.833
 2828SOL    HW2 9384   2.026   3.943   0.814
 2829SOL     OW 9385   3.192   3.866   2.306
 2829SOL    HW1 9386   3.169   3.858   2.403
 2829SOL    HW2 9387   3.242   3.951   2.290
 2830SOL     OW 9388   3.408   5.697   5.298
 2830SOL    HW1 9389   3.339   5.650   5.242
 2830SOL    HW2 9390   3.414   5.793   5.269
 2831SOL     OW 9391   5.740   1.870   1.903
 2831SOL    HW1 9392   5.780   1.953   1.942
 2831SOL    HW2 9393   5.645   1.863   1.933
 2832SOL     OW 9394   0.743   3.846   1.996
 2832SOL    HW1 9395   0.781   3.886   1.912
 2832SOL    HW2 9396   0.817   3.833   2.062
 2833SOL     OW 9397   1.734   2.719   2.070
 2833SOL    HW1 9398   1.737   2.620   2.066
 2833SOL    HW2 9399   1.726   2.756   1.977
 2834SOL     OW 9400   3.475   5.959   5.210
 2834SOL    HW1 9401   3.476   6.058   5.224
 2834SOL    HW2 9402   3.462   5.940   5.113
 2835SOL     OW 9403   6.929   0.802   0.476
 2835SOL    HW1 9404   7.001   0.743   0.440
 2835SOL    HW2 9405   6.902   0.770   0.567
 2836SOL     OW 9406   3.772   5.735   2.387
 2836SOL    HW1 9407   3.863   5.698   2.407
 2836SOL    HW2 9408   3.733   5.774   2.470
 2837SOL     OW 9409   5.241   4.259   1.764
 2837SOL    HW1 9410   5.260   4.214   1.677
 2837SOL    HW2 9411   5.181   4.337   1.749
 2838SOL     OW 9412   5.958   4.825   6.554
 2838SOL    HW1 9413   5.930   4.851   6.646
 2838SOL    HW2 9414   5.886   4.770   6.512
 2839SOL     OW 9415   6.384   3.196   4.720
 2839SOL    HW1 9416   6.424   3.287   4.729
 2839SOL    HW2 9417   6.457   3.129   4.702
 2840SOL     OW 9418   0.062   6.478   4.066
 2840SOL    HW1 9419   0.076   6.393   4.116
 2840SOL    HW2 9420   0.086   6.464   3.969
 2841SOL     OW 9421   6.154   3.931   2.214
 2841SOL    HW1 9422   6.170   3.904   2.309
 2841SOL    HW2 9423   6.234   3.910   2.158
 2842SOL     OW 9424   1.466   0.268   3.562
 2842SOL    HW1 9425   1.459   0.366   3.546
 2842SOL    HW2 9426   1.466   0.250   3.660
 2843SOL     OW 9427   2.182   2.694   3.881
 2843SOL    HW1 9428   2.146   2.606   3.909
 2843SOL    HW2 9429   2.108   2.761   3.877
 2844SOL     OW 9430   5.031   3.796   6.962
 2844SOL    HW1 9431   4.964   3.858   6.921
 2844SOL    HW2 9432   5.103   3.776   6.896
 2845SOL     OW 9433   3.272   1.766   2.946
 2845SOL    HW1 9434   3.179   1.728   2.942
 2845SOL    HW2 9435   3.269   1.863   2.922
 2846SOL     OW 9436   6.415   0.074   6.814
 2846SOL    HW1 9437   6.394   0.098   6.909
 2846SOL    HW2 9438   6.403   6.992   6.802
 2847SOL     OW 9439   4.535   4.482   1.823
 2847SOL    HW1 9440   4.534   4.383   1.834
 2847SOL    HW2 9441   4.465   4.509   1.757
 2848SOL     OW 9442   0.396   4.257   5.316
 2848SOL    HW1 9443   0.441   4.309   5.389
 2848SOL    HW2 9444   0.457   4.184   5.285
 2849SOL     OW 9445   4.844   0.424   1.698
 2849SOL    HW1 9446   4.761   0.472   1.669
 2849SOL    HW2 9447   4.824   0.327   1.711
 2850SOL     OW 9448   1.918   0.576   2.068
 2850SOL    HW1 9449   1.990   0.524   2.113
 2850SOL    HW2 9450   1.852   0.607   2.136
 2851SOL     OW 9451   3.570   3.040   1.583
 2851SOL    HW1 9452   3.509   3.008   1.656
 2851SOL    HW2 9453   3.544   2.997   1.497
 2852SOL     OW 9454   6.393   4.701   6.810
 2852SOL    HW1 9455   6.406   4.653   6.723
 2852SOL    HW2 9456   6.330   4.778   6.797
 2853SOL     OW 9457   0.027   4.190   5.754
 2853SOL    HW1 9458   7.004   4.113   5.703
 2853SOL    HW2 9459   0.106   4.226   5.703
 2854SOL     OW 9460   4.232   0.609   5.506
 2854SOL    HW1 9461   4.265   0.699   5.535
 2854SOL    HW2 9462   4.170   0.620   5.428
 2855SOL     OW 9463   2.272   2.134   5.395
 2855SOL    HW1 9464   2.278   2.174   5.487
 2855SOL    HW2 9465   2.198   2.067   5.393
 2856SOL     OW 9466   0.962   5.047   3.996
 2856SOL    HW1 9467   1.061   5.047   4.010
 2856SOL    HW2 9468   0.943   5.038   3.898
 2857SOL     OW 9469   6.711   4.436   1.100
 2857SOL    HW1 9470   6.651   4.356   1.098
 2857SOL    HW2 9471   6.698   4.486   1.185
 2858SOL     OW 9472   4.625   4.590   2.304
 2858SOL    HW1 9473   4.549   4.581   2.240
 2858SOL    HW2 9474   4.663   4.500   2.325
 2859SOL     OW 9475   4.955   4.763   0.770
 2859SOL    HW1 9476   5.013   4.818   0.830
 2859SOL    HW2 9477   4.978   4.666   0.781
 2860SOL     OW 9478   0.800   0.183   2.231
 2860SOL    HW1 9479   0.703   0.207   2.236
 2860SOL    HW2 9480   0.829   0.146   2.319
 2861SOL     OW 9481   4.745   4.940   5.789
 2861SOL    HW1 9482   4.811   4.867   5.806
 2861SOL    HW2 9483   4.666   4.903   5.740
 2862SOL     OW 9484   4.204   2.808   0.441
 2862SOL    HW1 9485   4.128   2.743   0.438
 2862SOL    HW2 9486   4.290   2.758   0.426
 2863SOL     OW 9487   6.038   0.672   5.011
 2863SOL    HW1 9488   5.943   0.640   5.001
 2863SOL    HW2 9489   6.046   0.763   4.971
 2864SOL     OW 9490   3.722   4.840   0.203
 2864SOL    HW1 9491   3.646   4.851   0.139
 2864SOL    HW2 9492   3.809   4.849   0.154
 2865SOL     OW 9493   5.638   5.171   4.691
 2865SOL    HW1 9494   5.560   5.135   4.741
 2865SOL    HW2 9495   5.675   5.251   4.739
 2866SOL     OW 9496   4.436   4.200   0.663
 2866SOL    HW1 9497   4.521   4.183   0.614
 2866SOL    HW2 9498   4.395   4.113   0.691
 2867SOL     OW 9499   5.190   6.283   1.906
 2867SOL    HW1 9500   5.221   6.273   2.001
 2867SOL    HW2 9501   5.090   6.293   1.904
 2868SOL     OW 9502   1.294   0.672   5.175
 2868SOL    HW1 9503   1.224   0.638   5.237
 2868SOL    HW2 9504   1.357   0.598   5.152
 2869SOL     OW 9505   6.297   5.392   4.351
 2869SOL    HW1 9506   6.342   5.305   4.372
 2869SOL    HW2 9507   6.284   5.400   4.252
 2870SOL     OW 9508   6.840   2.132   2.337
 2870SOL    HW1 9509   6.920   2.106   2.283
 2870SOL    HW2 9510   6.868   2.157   2.429
 2871SOL     OW 9511   5.195   1.857   2.570
 2871SOL    HW1 9512   5.267   1.846   2.501
 2871SOL    HW2 9513   5.234   1.841   2.660
 2872SOL     OW 9514   2.933   2.242   2.386
 2872SOL    HW1 9515   2.934   2.278   2.292
 2872SOL    HW2 9516   2.841   2.213   2.409
 2873SOL     OW 9517   0.957   6.838   0.996
 2873SOL    HW1 9518   0.937   6.787   0.912
 2873SOL    HW2 9519   0.988   6.774   1.067
 2874SOL     OW 9520   2.617   1.243   2.902
 2874SOL    HW1 9521   2.527   1.286   2.898
 2874SOL    HW2 9522   2.618   1.175   2.975
 2875SOL     OW 9523   2.094   6.884   2.710
 2875SOL    HW1 9524   2.168   6.850   2.768
 2875SOL    HW2 9525   2.006   6.864   2.753
 2876SOL     OW 9526   1.507   0.266   2.155
 2876SOL    HW1 9527   1.460   0.184   2.125
 2876SOL    HW2 9528   1.507   0.334   2.082
 2877SOL     OW 9529   1.321   2.408   6.786
 2877SOL    HW1 9530   1.319   2.344   6.709
 2877SOL    HW2 9531   1.384   2.375   6.855
 2878SOL     OW 9532   3.867   3.015   3.981
 2878SOL    HW1 9533   3.958   2.975   3.971
 2878SOL    HW2 9534   3.821   2.974   4.059
 2879SOL     OW 9535   4.696   4.087   0.262
 2879SOL    HW1 9536   4.617   4.033   0.233
 2879SOL    HW2 9537   4.705   4.167   0.203
 2880SOL     OW 9538   2.402   1.072   3.518
 2880SOL    HW1 9539   2.411   1.171   3.526
 2880SOL    HW2 9540   2.334   1.039   3.582
 2881SOL     OW 9541   4.775   5.903   6.815
 2881SOL    HW1 9542   4.769   5.828   6.880
 2881SOL    HW2 9543   4.867   5.906   6.776
 2882SOL     OW 9544   4.855   6.143   0.223
 2882SOL    HW1 9545   4.836   6.072   0.290
 2882SOL    HW2 9546   4.827   6.232   0.260
 2883SOL     OW 9547   5.644   5.961   3.966
 2883SOL    HW1 9548   5.613   5.866   3.964
 2883SOL    HW2 9549   5.608   6.010   3.887
 2884SOL     OW 9550   6.459   5.102   4.432
 2884SOL    HW1 9551   6.500   5.154   4.356
 2884SOL    HW2 9552   6.522   5.103   4.510
 2885SOL     OW 9553   1.184   2.251   3.541
 2885SOL    HW1 9554   1.177   2.321   3.611
 2885SOL    HW2 9555   1.276   2.211   3.542
 2886SOL     OW 9556   2.380   4.507   5.844
 2886SOL    HW1 9557   2.332   4.518   5.757
 2886SOL    HW2 9558   2.477   4.527   5.831
 2887SOL     OW 9559   0.402   5.962   3.036
 2887SOL    HW1 9560   0.358   5.889   3.090
 2887SOL    HW2 9561   0.335   6.002   2.974
 2888SOL     OW 9562   6.040   6.806   6.656
 2888SOL    HW1 9563   6.042   6.749   6.574
 2888SOL    HW2 9564   5.972   6.879   6.645
 2889SOL     OW 9565   3.549   6.427   2.382
 2889SOL    HW1 9566   3.494   6.505   2.410
 2889SOL    HW2 9567   3.556   6.362   2.458
 2890SOL     OW 9568   1.243   1.399   1.614
 2890SOL    HW1 9569   1.247   1.498   1.600
 2890SOL    HW2 9570   1.330   1.368   1.653
 2891SOL     OW 9571   0.257   2.641   4.422
 2891SOL    HW1 9572   0.178   2.679   4.469
 2891SOL    HW2 9573   0.225   2.579   4.349
 2892SOL     OW 9574   6.057   4.013   2.611
 2892SOL    HW1 9575   6.033   3.974   2.700
 2892SOL    HW2 9576   6.080   3.939   2.548
 2893SOL     OW 9577   6.525   5.623   4.838
 2893SOL    HW1 9578   6.473   5.553   4.790
 2893SOL    HW2 9579   6.565   5.584   4.921
 2894SOL     OW 9580   2.020   5.965   2.405
 2894SOL    HW1 9581   2.066   6.054   2.397
 2894SOL    HW2 9582   1.939   5.975   2.463
 2895SOL     OW 9583   4.488   6.994   6.198
 2895SOL    HW1 9584   4.452   0.056   6.248
 2895SOL    HW2 9585   4.455   6.998   6.104
 2896SOL     OW 9586   5.777   6.428   4.760
 2896SOL    HW1 9587   5.683   6.397   4.746
 2896SOL    HW2 9588   5.804   6.411   4.854
 2897SOL     OW 9589   3.972   4.888   3.113
 2897SOL    HW1 9590   3.962   4.933   3.024
 2897SOL    HW2 9591   4.063   4.909   3.151
 2898SOL     OW 9592   5.276   2.786   2.527
 2898SOL    HW1 9593   5.338   2.740   2.590
 2898SOL    HW2 9594   5.317   2.789   2.436
 2899SOL     OW 9595   6.933   4.083   0.819
 2899SOL    HW1 9596   6.967   4.157   0.877
 2899SOL    HW2 9597   6.920   4.001   0.874
 2900SOL     OW 9598   2.415   2.961   6.095
 2900SOL    HW1 9599   2.408   3.011   6.009
 2900SOL    HW2 9600   2.510   2.960   6.126
 2901SOL     OW 9601   1.048   4.205   3.370
 2901SOL    HW1 9602   0.970   4.145   3.356
 2901SOL    HW2 9603   1.131   4.149   3.380
 2902SOL     OW 9604   6.985   6.083   3.718
 2902SOL    HW1 9605   0.054   6.033   3.730
 2902SOL    HW2 9606   6.990   6.139   3.636
 2903SOL     OW 9607   4.649   4.949   0.294
 2903SOL    HW1 9608   4.591   5.009   0.238
 2903SOL    HW2 9609   4.636   4.970   0.391
 2904SOL     OW 9610   2.511   4.139   5.341
 2904SOL    HW1 9611   2.594   4.175   5.299
 2904SOL    HW2 9612   2.471   4.070   5.280
 2905SOL     OW 9613   0.964   6.092   1.536
 2905SOL    HW1 9614   0.868   6.118   1.539
 2905SOL    HW2 9615   0.973   6.000   1.498
 2906SOL     OW 9616   6.609   6.265   4.124
 2906SOL    HW1 9617   6.537   6.200   4.146
 2906SOL    HW2 9618   6.646   6.245   4.033
 2907SOL     OW 9619   0.858   1.015   4.261
 2907SOL    HW1 9620   0.784   0.951   4.283
 2907SOL    HW2 9621   0.826   1.081   4.193
 2908SOL     OW 9622   4.250   6.685   2.956
 2908SOL    HW1 9623   4.196   6.684   2.872
 2908SOL    HW2 9624   4.268   6.591   2.985
 2909SOL     OW 9625   0.582   6.454   1.617
 2909SOL    HW1 9626   0.545   6.396   1.545
 2909SOL    HW2 9627   0.510   6.515   1.651
 2910SOL     OW 9628   0.033   0.755   4.118
 2910SOL    HW1 9629   0.110   0.760   4.054
 2910SOL    HW2 9630   7.003   0.843   4.121
 2911SOL     OW 9631   6.843   4.846   5.290
 2911SOL    HW1 9632   6.888   4.848   5.380
 2911SOL    HW2 9633   6.795   4.760   5.278
 2912SOL     OW 9634   0.752   1.167   1.704
 2912SOL    HW1 9635   0.752   1.220   1.620
 2912SOL    HW2 9636   0.756   1.070   1.683
 2913SOL     OW 9637   2.821   0.128   1.606
 2913SOL    HW1 9638   2.745   0.074   1.641
 2913SOL    HW2 9639   2.799   0.225   1.613
 2914SOL     OW 9640   4.065   5.487   0.832
 2914SOL    HW1 9641   4.135   5.421   0.859
 2914SOL    HW2 9642   4.026   5.461   0.744
 2915SOL     OW 9643   2.135   0.436   2.495
 2915SOL    HW1 9644   2.056   0.473   2.544
 2915SOL    HW2 9645   2.199   0.396   2.560
 2916SOL     OW 9646   1.431   6.378   0.205
 2916SOL    HW1 9647   1.468   6.289   0.178
 2916SOL    HW2 9648   1.500   6.429   0.255
 2917SOL     OW 9649   2.745   6.204   3.828
 2917SOL    HW1 9650   2.676   6.256   3.878
 2917SOL    HW2 9651   2.720   6.107   3.828
 2918SOL     OW 9652   4.988   2.552   1.815
 2918SOL    HW1 9653   5.052   2.496   1.763
 2918SOL    HW2 9654   4.987   2.645   1.778
 2919SOL     OW 9655   1.050   5.715   4.807
 2919SOL    HW1 9656   1.117   5.693   4.736
 2919SOL    HW2 9657   1.097   5.731   4.893
 2920SOL     OW 9658   1.483   2.515   2.661
 2920SOL    HW1 9659   1.415   2.513   2.587
 2920SOL    HW2 9660   1.529   2.603   2.662
 2921SOL     OW 9661   1.159   6.512   3.730
 2921SOL    HW1 9662   1.236   6.467   3.685
 2921SOL    HW2 9663   1.143   6.469   3.819
 2922SOL     OW 9664   3.582   6.507   3.664
 2922SOL    HW1 9665   3.566   6.561   3.746
 2922SOL    HW2 9666   3.513   6.434   3.658
 2923SOL     OW 9667   6.346   5.896   5.034
 2923SOL    HW1 9668   6.404   5.893   4.953
 2923SOL    HW2 9669   6.366   5.818   5.093
 2924SOL     OW 9670   6.057   2.039   4.801
 2924SOL    HW1 9671   6.023   2.068   4.712
 2924SOL    HW2 9672   6.061   2.118   4.862
 2925SOL     OW 9673   4.888   6.375   5.979
 2925SOL    HW1 9674   4.959   6.401   6.044
 2925SOL    HW2 9675   4.802   6.421   6.002
 2926SOL     OW 9676   6.661   3.157   4.214
 2926SOL    HW1 9677   6.582   3.195   4.262
 2926SOL    HW2 9678   6.647   3.060   4.197
 2927SOL     OW 9679   0.741   1.910   2.046
 2927SOL    HW1 9680   0.684   1.992   2.035
 2927SOL    HW2 9681   0.823   1.933   2.098
 2928SOL     OW 9682   6.763   3.068   0.192
 2928SOL    HW1 9683   6.824   3.139   0.155
 2928SOL    HW2 9684   6.817   3.000   0.241
 2929SOL     OW 9685   2.373   2.291   4.353
 2929SOL    HW1 9686   2.339   2.347   4.429
 2929SOL    HW2 9687   2.470   2.309   4.340
 2930SOL     OW 9688   0.314   4.176   4.341
 2930SOL    HW1 9689   0.251   4.244   4.305
 2930SOL    HW2 9690   0.326   4.102   4.274
 2931SOL     OW 9691   4.827   3.925   5.669
 2931SOL    HW1 9692   4.909   3.967   5.633
 2931SOL    HW2 9693   4.809   3.959   5.761
 2932SOL     OW 9694   6.415   5.266   0.673
 2932SOL    HW1 9695   6.391   5.361   0.689
 2932SOL    HW2 9696   6.469   5.231   0.750
 2933SOL     OW 9697   0.960   0.264   0.320
 2933SOL    HW1 9698   1.002   0.244   0.408
 2933SOL    HW2 9699   1.010   0.337   0.274
 2934SOL     OW 9700   3.630   4.568   0.337
 2934SOL    HW1 9701   3.651   4.640   0.271
 2934SOL    HW2 9702   3.533   4.568   0.358
 2935SOL     OW 9703   0.209   2.218   6.479
 2935SOL    HW1 9704   0.114   2.203   6.453
 2935SOL    HW2 9705   0.249   2.290   6.421
 2936SOL     OW 9706   4.782   6.223   0.798
 2936SOL    HW1 9707   4.702   6.274   0.828
 2936SOL    HW2 9708   4.821   6.266   0.717
 2937SOL     OW 9709   5.057   4.643   2.750
 2937SOL    HW1 9710   5.141   4.598   2.718
 2937SOL    HW2 9711   4.985   4.629   2.683
 2938SOL     OW 9712   6.920   5.537   6.326
 2938SOL    HW1 9713   6.868   5.585   6.396
 2938SOL    HW2 9714   7.015   5.570   6.326
 2939SOL     OW 9715   0.160   6.431   1.539
 2939SOL    HW1 9716   0.192   6.345   1.579
 2939SOL    HW2 9717   0.102   6.412   1.460
 2940SOL     OW 9718   3.996   6.701   3.530
 2940SOL    HW1 9719   3.969   6.605   3.532
 2940SOL    HW2 9720   4.095   6.708   3.542
 2941SOL     OW 9721   1.951   4.475   3.713
 2941SOL    HW1 9722   2.036   4.481   3.766
 2941SOL    HW2 9723   1.873   4.474   3.776
 2942SOL     OW 9724   3.595   1.382   1.007
 2942SOL    HW1 9725   3.647   1.442   1.068
 2942SOL    HW2 9726   3.510   1.427   0.980
 2943SOL     OW 9727   5.754   3.956   2.845
 2943SOL    HW1 9728   5.723   4.022   2.777
 2943SOL    HW2 9729   5.721   3.865   2.820
 2944SOL     OW 9730   2.153   6.208   2.469
 2944SOL    HW1 9731   2.169   6.187   2.566
 2944SOL    HW2 9732   2.106   6.296   2.461
 2945SOL     OW 9733   5.062   4.215   1.090
 2945SOL    HW1 9734   5.017   4.261   1.014
 2945SOL    HW2 9735   4.993   4.188   1.158
 2946SOL     OW 9736   3.873   3.667   5.238
 2946SOL    HW1 9737   3.804   3.678   5.167
 2946SOL    HW2 9738   3.835   3.694   5.326
 2947SOL     OW 9739   6.421   6.680   0.614
 2947SOL    HW1 9740   6.461   6.664   0.704
 2947SOL    HW2 9741   6.345   6.745   0.623
 2948SOL     OW 9742   6.683   3.774   1.977
 2948SOL    HW1 9743   6.765   3.803   2.028
 2948SOL    HW2 9744   6.674   3.828   1.894
 2949SOL     OW 9745   1.076   6.588   0.855
 2949SOL    HW1 9746   1.104   6.652   0.783
 2949SOL    HW2 9747   0.976   6.581   0.856
 2950SOL     OW 9748   5.971   4.930   3.288
 2950SOL    HW1 9749   6.054   4.968   3.329
 2950SOL    HW2 9750   5.932   4.996   3.224
 2951SOL     OW 9751   6.613   1.459   1.682
 2951SOL    HW1 9752   6.687   1.393   1.664
 2951SOL    HW2 9753   6.628   1.541   1.626
 2952SOL     OW 9754   6.439   1.835   4.853
 2952SOL    HW1 9755   6.342   1.828   4.828
 2952SOL    HW2 9756   6.449   1.828   4.952
 2953SOL     OW 9757   1.327   5.320   4.262
 2953SOL    HW1 9758   1.282   5.273   4.338
 2953SOL    HW2 9759   1.287   5.290   4.175
 2954SOL     OW 9760   0.057   4.548   6.074
 2954SOL    HW1 9761   0.046   4.587   5.983
 2954SOL    HW2 9762   0.077   4.450   6.065
 2955SOL     OW 9763   1.763   3.901   5.989
 2955SOL    HW1 9764   1.775   3.802   5.986
 2955SOL    HW2 9765   1.668   3.924   5.967
 2956SOL     OW 9766   5.545   4.924   3.974
 2956SOL    HW1 9767   5.591   4.987   4.037
 2956SOL    HW2 9768   5.510   4.975   3.896
 2957SOL     OW 9769   2.161   4.768   1.035
 2957SOL    HW1 9770   2.182   4.859   1.071
 2957SOL    HW2 9771   2.133   4.708   1.110
 2958SOL     OW 9772   1.549   5.354   2.535
 2958SOL    HW1 9773   1.461   5.374   2.491
 2958SOL    HW2 9774   1.540   5.273   2.593
 2959SOL     OW 9775   6.810   3.681   2.862
 2959SOL    HW1 9776   6.781   3.678   2.766
 2959SOL    HW2 9777   6.808   3.776   2.894
 2960SOL     OW 9778   5.500   0.199   0.664
 2960SOL    HW1 9779   5.479   0.297   0.654
 2960SOL    HW2 9780   5.464   0.167   0.752
 2961SOL     OW 9781   5.631   3.374   2.007
 2961SOL    HW1 9782   5.706   3.439   2.019
 2961SOL    HW2 9783   5.569   3.408   1.936
 2962SOL     OW 9784   6.873   0.412   3.302
 2962SOL    HW1 9785   6.774   0.426   3.294
 2962SOL    HW2 9786   6.915   0.419   3.212
 2963SOL     OW 9787   1.931   1.107   5.253
 2963SOL    HW1 9788   1.926   1.009   5.275
 2963SOL    HW2 9789   1.977   1.155   5.328
 2964SOL     OW 9790   1.202   1.330   6.694
 2964SOL    HW1 9791   1.206   1.231   6.703
 2964SOL    HW2 9792   1.144   1.368   6.766
 2965SOL     OW 9793   6.878   6.750   5.104
 2965SOL    HW1 9794   6.902   6.830   5.159
 2965SOL    HW2 9795   6.799   6.772   5.046
 2966SOL     OW 9796   3.112   5.651   2.373
 2966SOL    HW1 9797   3.112   5.733   2.315
 2966SOL    HW2 9798   3.207   5.626   2.394
 2967SOL     OW 9799   5.238   0.563   4.473
 2967SOL    HW1 9800   5.166   0.632   4.479
 2967SOL    HW2 9801   5.196   0.473   4.460
 2968SOL     OW 9802   1.788   3.736   1.502
 2968SOL    HW1 9803   1.760   3.758   1.408
 2968SOL    HW2 9804   1.752   3.646   1.527
 2969SOL     OW 9805   4.843   3.303   5.061
 2969SOL    HW1 9806   4.756   3.254   5.047
 2969SOL    HW2 9807   4.826   3.401   5.059
 2970SOL     OW 9808   2.758   1.731   4.448
 2970SOL    HW1 9809   2.717   1.662   4.507
 2970SOL    HW2 9810   2.858   1.726   4.455
 2971SOL     OW 9811   5.395   2.781   6.201
 2971SOL    HW1 9812   5.443   2.829   6.128
 2971SOL    HW2 9813   5.438   2.692   6.216
 2972SOL     OW 9814   5.788   5.709   0.233
 2972SOL    HW1 9815   5.822   5.619   0.203
 2972SOL    HW2 9816   5.700   5.728   0.188
 2973SOL     OW 9817   4.271   1.190   3.532
 2973SOL    HW1 9818   4.257   1.174   3.434
 2973SOL    HW2 9819   4.348   1.252   3.544
 2974SOL     OW 9820   4.654   6.837   2.184
 2974SOL    HW1 9821   4.579   6.882   2.136
 2974SOL    HW2 9822   4.729   6.820   2.120
 2975SOL     OW 9823   4.777   4.152   4.129
 2975SOL    HW1 9824   4.746   4.109   4.214
 2975SOL    HW2 9825   4.846   4.094   4.087
 2976SOL     OW 9826   4.405   1.254   2.274
 2976SOL    HW1 9827   4.336   1.248   2.202
 2976SOL    HW2 9828   4.464   1.174   2.271
 2977SOL     OW 9829   1.451   0.668   1.245
 2977SOL    HW1 9830   1.368   0.655   1.190
 2977SOL    HW2 9831   1.443   0.753   1.297
 2978SOL     OW 9832   4.503   5.285   6.648
 2978SOL    HW1 9833   4.558   5.331   6.578
 2978SOL    HW2 9834   4.553   5.284   6.734
 2979SOL     OW 9835   3.067   0.910   3.880
 2979SOL    HW1 9836   2.994   0.861   3.926
 2979SOL    HW2 9837   3.156   0.872   3.908
 2980SOL     OW 9838   3.727   3.786   5.024
 2980SOL    HW1 9839   3.784   3.849   4.971
 2980SOL    HW2 9840   3.633   3.819   5.023
 2981SOL     OW 9841   1.956   1.085   1.527
 2981SOL    HW1 9842   1.870   1.126   1.559
 2981SOL    HW2 9843   1.998   1.034   1.602
 2982SOL     OW 9844   1.484   0.150   0.975
 2982SOL    HW1 9845   1.574   0.134   1.017
 2982SOL    HW2 9846   1.459   0.246   0.986
 2983SOL     OW 9847   6.311   3.525   5.599
 2983SOL    HW1 9848   6.350   3.601   5.650
 2983SOL    HW2 9849   6.212   3.535   5.594
 2984SOL     OW 9850   0.607   5.225   1.478
 2984SOL    HW1 9851   0.681   5.248   1.415
 2984SOL    HW2 9852   0.519   5.239   1.433
 2985SOL     OW 9853   0.150   6.891   5.605
 2985SOL    HW1 9854   0.133   6.990   5.597
 2985SOL    HW2 9855   0.246   6.875   5.624
 2986SOL     OW 9856   3.286   3.693   2.108
 2986SOL    HW1 9857   3.364   3.647   2.150
 2986SOL    HW2 9858   3.242   3.753   2.174
 2987SOL     OW 9859   1.861   6.313   5.208
 2987SOL    HW1 9860   1.797   6.250   5.252
 2987SOL    HW2 9861   1.843   6.406   5.240
 2988SOL     OW 9862   0.123   1.497   6.329
 2988SOL    HW1 9863   0.123   1.551   6.245
 2988SOL    HW2 9864   0.149   1.403   6.307
 2989SOL     OW 9865   4.842   3.025   4.639
 2989SOL    HW1 9866   4.836   3.009   4.540
 2989SOL    HW2 9867   4.781   3.099   4.665
 2990SOL     OW 9868   5.449   1.467   4.395
 2990SOL    HW1 9869   5.359   1.436   4.428
 2990SOL    HW2 9870   5.519   1.401   4.423
 2991SOL     OW 9871   0.728   4.047   0.850
 2991SOL    HW1 9872   0.724   4.027   0.752
 2991SOL    HW2 9873   0.819   4.083   0.872
 2992SOL     OW 9874   0.270   3.993   5.617
 2992SOL    HW1 9875   0.345   3.931   5.594
 2992SOL    HW2 9876   0.188   3.966   5.568
 2993SOL     OW 9877   2.347   3.263   1.167
 2993SOL    HW1 9878   2.250   3.257   1.191
 2993SOL    HW2 9879   2.370   3.359   1.149
 2994SOL     OW 9880   3.772   5.569   5.843
 2994SOL    HW1 9881   3.747   5.502   5.912
 2994SOL    HW2 9882   3.821   5.645   5.885
 2995SOL     OW 9883   4.886   1.139   0.707
 2995SOL    HW1 9884   4.850   1.232   0.701
 2995SOL    HW2 9885   4.880   1.095   0.617
 2996SOL     OW 9886   0.033   0.523   4.415
 2996SOL    HW1 9887   6.964   0.556   4.376
 2996SOL    HW2 9888   0.081   0.599   4.460
 2997SOL     OW 9889   5.292   6.271   4.433
 2997SOL    HW1 9890   5.386   6.295   4.410
 2997SOL    HW2 9891   5.231   6.310   4.364
 2998SOL     OW 9892   2.599   1.562   2.650
 2998SOL    HW1 9893   2.634   1.469   2.661
 2998SOL    HW2 9894   2.670   1.620   2.609
 2999SOL     OW 9895   3.246   3.809   1.006
 2999SOL    HW1 9896   3.280   3.716   0.987
 2999SOL    HW2 9897   3.319   3.875   0.988
 3000SOL     OW 9898   3.161   4.064   5.227
 3000SOL    HW1 9899   3.146   4.151   5.273
 3000SOL    HW2 9900   3.073   4.016   5.217
 3001SOL     OW 9901   5.680   0.689   5.704
 3001SOL    HW1 9902   5.607   0.660   5.765
 3001SOL    HW2 9903   5.765   0.699   5.755
 3002SOL     OW 9904   1.673   1.954   1.930
 3002SOL    HW1 9905   1.673   2.047   1.964
 3002SOL    HW2 9906   1.582   1.914   1.940
 3003SOL     OW 9907   1.809   6.262   0.095
 3003SOL    HW1 9908   1.874   6.305   0.157
 3003SOL    HW2 9909   1.770   6.332   0.035
 3004SOL     OW 9910   2.461   6.377   3.661
 3004SOL    HW1 9911   2.424   6.459   3.616
 3004SOL    HW2 9912   2.536   6.403   3.722
 3005SOL     OW 9913   0.977   1.834   7.006
 3005SOL    HW1 9914   1.046   1.785   0.044
 3005SOL    HW2 9915   0.947   1.915   0.039
 3006SOL     OW 9916   4.747   1.512   5.820
 3006SOL    HW1 9917   4.769   1.569   5.900
 3006SOL    HW2 9918   4.669   1.454   5.841
 3007SOL     OW 9919   5.285   5.472   0.071
 3007SOL    HW1 9920   5.264   5.399   0.006
 3007SOL    HW2 9921   5.302   5.433   0.162
 3008SOL     OW 9922   5.029   3.590   5.726
 3008SOL    HW1 9923   5.056   3.518   5.790
 3008SOL    HW2 9924   4.949   3.638   5.763
 3009SOL     OW 9925   0.381   3.400   1.728
 3009SOL    HW1 9926   0.358   3.338   1.652
 3009SOL    HW2 9927   0.302   3.410   1.788
 3010SOL     OW 9928   4.137   5.843   0.625
 3010SOL    HW1 9929   4.043   5.817   0.605
 3010SOL    HW2 9930   4.152   5.938   0.597
 3011SOL     OW 9931   6.561   0.469   1.286
 3011SOL    HW1 9932   6.661   0.471   1.283
 3011SOL    HW2 9933   6.526   0.449   1.194
 3012SOL     OW 9934   2.034   2.394   5.526
 3012SOL    HW1 9935   2.005   2.437   5.440
 3012SOL    HW2 9936   2.134   2.388   5.528
 3013SOL     OW 9937   1.064   4.489   5.099
 3013SOL    HW1 9938   1.058   4.390   5.111
 3013SOL    HW2 9939   1.142   4.510   5.039
 3014SOL     OW 9940   5.349   6.933   6.145
 3014SOL    HW1 9941   5.286   6.946   6.221
 3014SOL    HW2 9942   5.299   6.940   6.059
 3015SOL     OW 9943   1.184   1.058   6.764
 3015SOL    HW1 9944   1.166   0.991   6.836
 3015SOL    HW2 9945   1.242   1.016   6.694
 3016SOL     OW 9946   1.913   5.840   4.031
 3016SOL    HW1 9947   1.875   5.858   4.122
 3016SOL    HW2 9948   1.990   5.902   4.014
 3017SOL     OW 9949   1.082   4.793   0.518
 3017SOL    HW1 9950   0.995   4.744   0.528
 3017SOL    HW2 9951   1.095   4.855   0.595
 3018SOL     OW 9952   3.743   0.062   1.154
 3018SOL    HW1 9953   3.756   0.074   1.252
 3018SOL    HW2 9954   3.660   0.111   1.126
 3019SOL     OW 9955   2.022   0.960   6.064
 3019SOL    HW1 9956   2.079   1.023   6.011
 3019SOL    HW2 9957   1.971   1.012   6.133
 3020SOL     OW 9958   6.593   4.014   6.801
 3020SOL    HW1 9959   6.648   3.991   6.721
 3020SOL    HW2 9960   6.505   4.052   6.771
 3021SOL     OW 9961   4.226   0.526   5.071
 3021SOL    HW1 9962   4.314   0.478   5.070
 3021SOL    HW2 9963   4.203   0.555   4.978
 3022SOL     OW 9964   3.669   5.881   3.412
 3022SOL    HW1 9965   3.674   5.955   3.480
 3022SOL    HW2 9966   3.594   5.899   3.349
 3023SOL     OW 9967   5.069   5.694   4.366
 3023SOL    HW1 9968   5.046   5.685   4.269
 3023SOL    HW2 9969   5.152   5.748   4.376
 3024SOL     OW 9970   0.545   6.789   0.368
 3024SOL    HW1 9971   0.503   6.722   0.307
 3024SOL    HW2 9972   0.473   6.834   0.422
 3025SOL     OW 9973   3.893   5.252   0.524
 3025SOL    HW1 9974   3.993   5.248   0.527
 3025SOL    HW2 9975   3.863   5.347   0.525
 3026SOL     OW 9976   6.791   0.911   2.338
 3026SOL    HW1 9977   6.710   0.944   2.290
 3026SOL    HW2 9978   6.868   0.909   2.275
 3027SOL     OW 9979   4.297   0.604   0.563
 3027SOL    HW1 9980   4.270   0.672   0.631
 3027SOL    HW2 9981   4.376   0.553   0.596
 3028SOL     OW 9982   3.085   3.126   5.527
 3028SOL    HW1 9983   3.173   3.078   5.537
 3028SOL    HW2 9984   3.031   3.082   5.456
 3029SOL     OW 9985   0.170   3.239   4.423
 3029SOL    HW1 9986   0.252   3.183   4.436
 3029SOL    HW2 9987   0.089   3.180   4.423
 3030SOL     OW 9988   2.207   3.004   6.976
 3030SOL    HW1 9989   2.169   3.093   7.003
 3030SOL    HW2 9990   2.160   2.972   6.893
 3031SOL     OW 9991   0.954   6.056   0.433
 3031SOL    HW1 9992   0.901   6.020   0.356
 3031SOL    HW2 9993   1.016   6.127   0.400
 3032SOL     OW 9994   2.605   0.461   2.829
 3032SOL    HW1 9995   2.687   0.404   2.826
 3032SOL    HW2 9996   2.530   0.410   2.871
 3033SOL     OW 9997   0.524   1.361   5.169
 3033SOL    HW1 9998   0.611   1.391   5.207
 3033SOL    HW2 9999   0.479   1.438   5.123
 3034SOL     OW10000   6.332   4.603   3.089
 3034SOL    HW110001   6.254   4.630   3.145
 3034SOL    HW210002   6.407   4.574   3.148
 3035SOL     OW10003   0.686   2.898   0.710
 3035SOL    HW110004   0.614   2.950   0.666
 3035SOL    HW210005   0.771   2.906   0.658
 3036SOL     OW10006   3.053   2.216   5.368
 3036SOL    HW110007   3.122   2.236   5.298
 3036SOL    HW210008   2.997   2.139   5.339
 3037SOL     OW10009   0.807   5.675   6.902
 3037SOL    HW110010   0.779   5.680   6.806
 3037SOL    HW210011   0.889   5.732   6.915
 3038SOL     OW10012   5.964   4.315   6.168
 3038SOL    HW110013   5.970   4.412   6.142
 3038SOL    HW210014   6.021   4.260   6.106
 3039SOL     OW10015   6.874   3.478   6.310
 3039SOL    HW110016   6.785   3.433   6.313
 3039SOL    HW210017   6.901   3.492   6.215
 3040SOL     OW10018   5.381   4.563   6.053
 3040SOL    HW110019   5.353   4.568   6.149
 3040SOL    HW210020   5.343   4.480   6.012
 3041SOL     OW10021   1.434   4.635   5.644
 3041SOL    HW110022   1.369   4.709   5.657
 3041SOL    HW210023   1.385   4.549   5.627
 3042SOL     OW10024   6.968   4.853   3.993
 3042SOL    HW110025   7.004   4.942   3.967
 3042SOL    HW210026   6.960   4.794   3.912
 3043SOL     OW10027   2.464   5.187   0.711
 3043SOL    HW110028   2.562   5.205   0.715
 3043SOL    HW210029   2.449   5.088   0.710
 3044SOL     OW10030   3.754   3.701   4.277
 3044SOL    HW110031   3.697   3.660   4.206
 3044SOL    HW210032   3.850   3.685   4.256
 3045SOL     OW10033   4.048   1.932   2.499
 3045SOL    HW110034   4.082   2.005   2.440
 3045SOL    HW210035   3.951   1.948   2.519
 3046SOL     OW10036   5.292   6.416   0.987
 3046SOL    HW110037   5.323   6.338   0.932
 3046SOL    HW210038   5.283   6.387   1.082
 3047SOL     OW10039   5.970   1.450   5.199
 3047SOL    HW110040   5.875   1.425   5.180
 3047SOL    HW210041   5.974   1.546   5.228
 3048SOL     OW10042   3.731   4.595   0.828
 3048SOL    HW110043   3.801   4.620   0.895
 3048SOL    HW210044   3.751   4.641   0.741
 3049SOL     OW10045   0.828   1.395   2.822
 3049SOL    HW110046   0.797   1.310   2.864
 3049SOL    HW210047   0.749   1.451   2.797
 3050SOL     OW10048   3.630   2.158   0.591
 3050SOL    HW110049   3.685   2.237   0.563
 3050SOL    HW210050   3.679   2.074   0.570
 3051SOL     OW10051   2.230   5.045   5.419
 3051SOL    HW110052   2.306   4.983   5.437
 3051SOL    HW210053   2.225   5.113   5.492
 3052SOL     OW10054   6.919   6.956   2.281
 3052SOL    HW110055   6.887   6.862   2.294
 3052SOL    HW210056   0.003   6.955   2.270
 3053SOL     OW10057   1.268   4.162   0.764
 3053SOL    HW110058   1.257   4.223   0.685
 3053SOL    HW210059   1.300   4.072   0.732
 3054SOL     OW10060   5.532   0.581   2.468
 3054SOL    HW110061   5.451   0.523   2.455
 3054SOL    HW210062   5.539   0.645   2.392
 3055SOL     OW10063   5.782   6.236   6.537
 3055SOL    HW110064   5.688   6.270   6.546
 3055SOL    HW210065   5.787   6.173   6.460
 3056SOL     OW10066   4.975   1.101   5.843
 3056SOL    HW110067   4.917   1.069   5.918
 3056SOL    HW210068   4.922   1.158   5.781
 3057SOL     OW10069   5.247   3.830   2.879
 3057SOL    HW110070   5.277   3.758   2.941
 3057SOL    HW210071   5.256   3.919   2.924
 3058SOL     OW10072   0.022   4.230   6.327
 3058SOL    HW110073   0.106   4.186   6.295
 3058SOL    HW210074   0.044   4.319   6.367
 3059SOL     OW10075   1.716   1.742   3.249
 3059SOL    HW110076   1.677   1.722   3.339
 3059SOL    HW210077   1.761   1.660   3.213
 3060SOL     OW10078   5.838   5.012   4.755
 3060SOL    HW110079   5.877   5.052   4.672
 3060SOL    HW210080   5.743   5.040   4.764
 3061SOL     OW10081   5.999   6.839   4.532
 3061SOL    HW110082   5.926   6.872   4.473
 3061SOL    HW210083   5.983   6.743   4.554
 3062SOL     OW10084   4.118   4.343   0.963
 3062SOL    HW110085   4.070   4.347   1.050
 3062SOL    HW210086   4.140   4.436   0.932
 3063SOL     OW10087   0.800   4.806   2.686
 3063SOL    HW110088   0.714   4.857   2.685
 3063SOL    HW210089   0.869   4.856   2.633
 3064SOL     OW10090   4.507   2.165   6.591
 3064SOL    HW110091   4.458   2.233   6.646
 3064SOL    HW210092   4.595   2.203   6.562
 3065SOL     OW10093   6.090   1.441   0.304
 3065SOL    HW110094   6.168   1.392   0.343
 3065SOL    HW210095   6.025   1.463   0.377
 3066SOL     OW10096   5.068   6.967   5.039
 3066SOL    HW110097   5.126   0.018   4.993
 3066SOL    HW210098   5.126   6.902   5.090
 3067SOL     OW10099   1.179   2.733   5.513
 3067SOL    HW110100   1.248   2.750   5.583
 3067SOL    HW210101   1.223   2.698   5.430
 3068SOL     OW10102   0.182   0.527   0.757
 3068SOL    HW110103   0.270   0.482   0.739
 3068SOL    HW210104   0.191   0.625   0.741
 3069SOL     OW10105   5.406   6.694   3.165
 3069SOL    HW110106   5.461   6.625   3.210
 3069SOL    HW210107   5.431   6.785   3.199
 3070SOL     OW10108   2.192   0.769   0.508
 3070SOL    HW110109   2.144   0.801   0.590
 3070SOL    HW210110   2.213   0.846   0.449
 3071SOL     OW10111   5.704   4.446   5.336
 3071SOL    HW110112   5.797   4.414   5.353
 3071SOL    HW210113   5.706   4.542   5.309
 3072SOL     OW10114   1.964   6.777   6.211
 3072SOL    HW110115   2.010   6.691   6.187
 3072SOL    HW210116   1.978   6.844   6.139
 3073SOL     OW10117   0.166   4.811   1.818
 3073SOL    HW110118   0.134   4.764   1.900
 3073SOL    HW210119   0.103   4.794   1.743
 3074SOL     OW10120   3.234   2.781   1.606
 3074SOL    HW110121   3.254   2.684   1.593
 3074SOL    HW210122   3.217   2.824   1.517
 3075SOL     OW10123   3.595   5.404   1.880
 3075SOL    HW110124   3.603   5.344   1.960
 3075SOL    HW210125   3.623   5.496   1.904
 3076SOL     OW10126   0.916   0.573   4.967
 3076SOL    HW110127   0.869   0.660   4.981
 3076SOL    HW210128   1.015   0.587   4.977
 3077SOL     OW10129   0.071   4.176   2.556
 3077SOL    HW110130   0.113   4.085   2.561
 3077SOL    HW210131   6.989   4.169   2.571
 3078SOL     OW10132   0.143   3.452   1.877
 3078SOL    HW110133   0.197   3.462   1.961
 3078SOL    HW210134   0.046   3.453   1.900
 3079SOL     OW10135   2.087   3.756   5.626
 3079SOL    HW110136   2.089   3.758   5.526
 3079SOL    HW210137   2.180   3.747   5.661
 3080SOL     OW10138   3.565   4.323   0.666
 3080SOL    HW110139   3.614   4.267   0.600
 3080SOL    HW210140   3.472   4.288   0.677
 3081SOL     OW10141   1.347   3.494   0.869
 3081SOL    HW110142   1.367   3.521   0.775
 3081SOL    HW210143   1.381   3.401   0.885
 3082SOL     OW10144   4.487   5.414   4.409
 3082SOL    HW110145   4.521   5.336   4.461
 3082SOL    HW210146   4.387   5.408   4.401
 3083SOL     OW10147   3.814   5.866   1.545
 3083SOL    HW110148   3.891   5.842   1.604
 3083SOL    HW210149   3.815   5.810   1.462
 3084SOL     OW10150   6.884   4.360   4.640
 3084SOL    HW110151   6.936   4.419   4.578
 3084SOL    HW210152   6.936   4.346   4.724
 3085SOL     OW10153   5.947   5.340   0.401
 3085SOL    HW110154   5.904   5.429   0.414
 3085SOL    HW210155   6.044   5.353   0.379
 3086SOL     OW10156   6.203   6.824   6.330
 3086SOL    HW110157   6.263   6.866   6.397
 3086SOL    HW210158   6.256   6.797   6.250
 3087SOL     OW10159   3.413   6.824   2.095
 3087SOL    HW110160   3.503   6.809   2.136
 3087SOL    HW210161   3.360   6.739   2.100
 3088SOL     OW10162   2.065   2.975   5.755
 3088SOL    HW110163   2.112   2.962   5.843
 3088SOL    HW210164   2.130   3.012   5.689
 3089SOL     OW10165   4.396   5.516   5.809
 3089SOL    HW110166   4.369   5.495   5.715
 3089SOL    HW210167   4.452   5.442   5.846
 3090SOL     OW10168   0.403   2.951   2.295
 3090SOL    HW110169   0.324   2.897   2.268
 3090SOL    HW210170   0.474   2.944   2.224
 3091SOL     OW10171   0.770   2.638   1.588
 3091SOL    HW110172   0.696   2.683   1.638
 3091SOL    HW210173   0.820   2.578   1.649
 3092SOL     OW10174   6.023   1.419   2.518
 3092SOL    HW110175   6.108   1.467   2.494
 3092SOL    HW210176   6.028   1.388   2.613
 3093SOL     OW10177   5.820   5.911   0.388
 3093SOL    HW110178   5.822   5.827   0.334
 3093SOL    HW210179   5.816   5.990   0.327
 3094SOL     OW10180   2.326   1.926   6.655
 3094SOL    HW110181   2.249   1.974   6.695
 3094SOL    HW210182   2.363   1.979   6.578
 3095SOL     OW10183   1.785   3.749   5.395
 3095SOL    HW110184   1.754   3.743   5.490
 3095SOL    HW210185   1.732   3.684   5.340
 3096SOL     OW10186   0.604   3.304   3.839
 3096SOL    HW110187   0.569   3.343   3.754
 3096SOL    HW210188   0.699   3.276   3.826
 3097SOL     OW10189   5.787   2.579   5.348
 3097SOL    HW110190   5.793   2.519   5.268
 3097SOL    HW210191   5.783   2.674   5.319
 3098SOL     OW10192   1.724   3.160   2.886
 3098SOL    HW110193   1.625   3.144   2.896
 3098SOL    HW210194   1.761   3.097   2.818
 3099SOL     OW10195   0.452   6.168   4.941
 3099SOL    HW110196   0.360   6.140   4.967
 3099SOL    HW210197   0.519   6.118   4.996
 3100SOL     OW10198   5.635   5.046   1.559
 3100SOL    HW110199   5.541   5.013   1.548
 3100SOL    HW210200   5.649   5.126   1.501
 3101SOL     OW10201   4.225   0.153   5.621
 3101SOL    HW110202   4.134   0.156   5.664
 3101SOL    HW210203   4.290   0.204   5.677
 3102SOL     OW10204   7.007   4.746   1.625
 3102SOL    HW110205   6.971   4.667   1.576
 3102SOL    HW210206   6.938   4.818   1.628
 3103SOL     OW10207   3.192   1.436   1.687
 3103SOL    HW110208   3.235   1.525   1.669
 3103SOL    HW210209   3.181   1.424   1.786
 3104SOL     OW10210   4.645   1.730   5.209
 3104SOL    HW110211   4.663   1.754   5.304
 3104SOL    HW210212   4.721   1.759   5.152
 3105SOL     OW10213   5.887   3.522   0.219
 3105SOL    HW110214   5.804   3.569   0.247
 3105SOL    HW210215   5.904   3.444   0.280
 3106SOL     OW10216   5.847   0.905   5.927
 3106SOL    HW110217   5.863   0.901   6.025
 3106SOL    HW210218   5.887   0.988   5.889
 3107SOL     OW10219   3.416   1.957   5.327
 3107SOL    HW110220   3.363   1.902   5.391
 3107SOL    HW210221   3.415   1.915   5.237
 3108SOL     OW10222   2.329   4.256   3.889
 3108SOL    HW110223   2.283   4.230   3.973
 3108SOL    HW210224   2.406   4.316   3.910
 3109SOL     OW10225   6.890   6.284   4.220
 3109SOL    HW110226   6.864   6.380   4.209
 3109SOL    HW210227   6.807   6.227   4.214
 3110SOL     OW10228   0.950   4.649   2.838
 3110SOL    HW110229   0.892   4.574   2.869
 3110SOL    HW210230   0.893   4.718   2.793
 3111SOL     OW10231   5.696   4.770   3.820
 3111SOL    HW110232   5.617   4.830   3.833
 3111SOL    HW210233   5.771   4.821   3.780
 3112SOL     OW10234   3.546   1.573   5.896
 3112SOL    HW110235   3.519   1.571   5.800
 3112SOL    HW210236   3.549   1.668   5.927
 3113SOL     OW10237   1.882   6.272   3.210
 3113SOL    HW110238   1.968   6.239   3.248
 3113SOL    HW210239   1.819   6.195   3.197
 3114SOL     OW10240   4.779   1.135   5.637
 3114SOL    HW110241   4.692   1.179   5.662
 3114SOL    HW210242   4.797   1.151   5.540
 3115SOL     OW10243   4.707   5.661   5.334
 3115SOL    HW110244   4.795   5.693   5.370
 3115SOL    HW210245   4.644   5.644   5.409
 3116SOL     OW10246   0.261   0.840   0.270
 3116SOL    HW110247   0.302   0.749   0.270
 3116SOL    HW210248   0.248   0.871   0.364
 3117SOL     OW10249   4.840   0.878   6.364
 3117SOL    HW110250   4.877   0.809   6.426
 3117SOL    HW210251   4.861   0.854   6.269
 3118SOL     OW10252   1.261   1.173   3.576
 3118SOL    HW110253   1.264   1.254   3.518
 3118SOL    HW210254   1.330   1.107   3.545
 3119SOL     OW10255   4.465   5.384   4.996
 3119SOL    HW110256   4.481   5.459   4.932
 3119SOL    HW210257   4.382   5.401   5.048
 3120SOL     OW10258   2.073   5.532   5.652
 3120SOL    HW110259   2.059   5.441   5.612
 3120SOL    HW210260   2.031   5.601   5.594
 3121SOL     OW10261   3.836   1.740   4.416
 3121SOL    HW110262   3.787   1.783   4.340
 3121SOL    HW210263   3.787   1.757   4.501
 3122SOL     OW10264   4.819   5.086   4.436
 3122SOL    HW110265   4.727   5.100   4.401
 3122SOL    HW210266   4.865   5.174   4.444
 3123SOL     OW10267   2.450   1.335   3.599
 3123SOL    HW110268   2.437   1.309   3.695
 3123SOL    HW210269   2.453   1.435   3.591
 3124SOL     OW10270   4.897   0.097   4.334
 3124SOL    HW110271   4.814   0.041   4.331
 3124SOL    HW210272   4.878   0.182   4.383
 3125SOL     OW10273   1.489   1.048   4.972
 3125SOL    HW110274   1.409   1.020   4.918
 3125SOL    HW210275   1.489   0.999   5.059
 3126SOL     OW10276   5.558   5.482   5.384
 3126SOL    HW110277   5.649   5.507   5.415
 3126SOL    HW210278   5.562   5.399   5.329
 3127SOL     OW10279   0.320   1.172   5.197
 3127SOL    HW110280   0.393   1.238   5.179
 3127SOL    HW210281   0.233   1.208   5.161
 3128SOL     OW10282   4.054   0.372   0.527
 3128SOL    HW110283   4.026   0.315   0.450
 3128SOL    HW210284   4.033   0.467   0.507
 3129SOL     OW10285   4.413   3.548   0.260
 3129SOL    HW110286   4.389   3.492   0.339
 3129SOL    HW210287   4.512   3.559   0.256
 3130SOL     OW10288   0.029   4.688   2.441
 3130SOL    HW110289   0.008   4.594   2.465
 3130SOL    HW210290   0.008   4.704   2.344
 3131SOL     OW10291   6.052   4.308   2.852
 3131SOL    HW110292   6.066   4.232   2.915
 3131SOL    HW210293   6.080   4.282   2.760
 3132SOL     OW10294   4.285   4.562   7.013
 3132SOL    HW110295   4.251   4.595   6.925
 3132SOL    HW210296   4.274   4.463   0.002
 3133SOL     OW10297   4.017   6.982   4.311
 3133SOL    HW110298   3.997   6.885   4.300
 3133SOL    HW210299   3.957   0.020   4.252
 3134SOL     OW10300   4.960   4.740   2.312
 3134SOL    HW110301   5.038   4.801   2.296
 3134SOL    HW210302   4.932   4.699   2.225
 3135SOL     OW10303   4.508   5.590   6.699
 3135SOL    HW110304   4.545   5.599   6.606
 3135SOL    HW210305   4.574   5.543   6.757
 3136SOL     OW10306   6.793   1.557   2.998
 3136SOL    HW110307   6.796   1.547   3.098
 3136SOL    HW210308   6.867   1.617   2.969
 3137SOL     OW10309   6.150   6.583   6.483
 3137SOL    HW110310   6.143   6.656   6.415
 3137SOL    HW210311   6.246   6.565   6.503
 3138SOL     OW10312   6.136   6.088   4.097
 3138SOL    HW110313   6.149   6.186   4.110
 3138SOL    HW210314   6.104   6.047   4.183
 3139SOL     OW10315   2.655   4.908   1.337
 3139SOL    HW110316   2.717   4.927   1.413
 3139SOL    HW210317   2.645   4.990   1.281
 3140SOL     OW10318   6.583   6.937   6.437
 3140SOL    HW110319   6.485   6.955   6.449
 3140SOL    HW210320   6.629   0.004   6.407
 3141SOL     OW10321   6.882   1.645   6.061
 3141SOL    HW110322   6.821   1.696   6.000
 3141SOL    HW210323   6.961   1.702   6.084
 3142SOL     OW10324   4.354   0.700   3.833
 3142SOL    HW110325   4.343   0.627   3.900
 3142SOL    HW210326   4.307   0.782   3.864
 3143SOL     OW10327   6.370   1.167   0.710
 3143SOL    HW110328   6.464   1.194   0.692
 3143SOL    HW210329   6.365   1.121   0.799
 3144SOL     OW10330   3.924   3.839   0.603
 3144SOL    HW110331   3.910   3.887   0.689
 3144SOL    HW210332   3.847   3.857   0.542
 3145SOL     OW10333   0.140   6.483   0.522
 3145SOL    HW110334   0.060   6.435   0.559
 3145SOL    HW210335   0.218   6.471   0.584
 3146SOL     OW10336   0.292   0.453   4.964
 3146SOL    HW110337   0.341   0.500   5.037
 3146SOL    HW210338   0.220   0.396   5.003
 3147SOL     OW10339   3.851   5.490   0.609
 3147SOL    HW110340   3.772   5.469   0.668
 3147SOL    HW210341   3.822   5.551   0.536
 3148SOL     OW10342   6.984   5.360   2.243
 3148SOL    HW110343   6.978   5.350   2.144
 3148SOL    HW210344   0.008   5.277   2.282
 3149SOL     OW10345   3.132   1.885   6.560
 3149SOL    HW110346   3.167   1.972   6.524
 3149SOL    HW210347   3.209   1.822   6.574
 3150SOL     OW10348   6.412   5.662   5.279
 3150SOL    HW110349   6.345   5.592   5.305
 3150SOL    HW210350   6.504   5.625   5.289
 3151SOL     OW10351   6.781   0.603   5.812
 3151SOL    HW110352   6.826   0.624   5.899
 3151SOL    HW210353   6.702   0.663   5.800
 3152SOL     OW10354   1.314   3.551   6.193
 3152SOL    HW110355   1.379   3.487   6.151
 3152SOL    HW210356   1.352   3.644   6.187
 3153SOL     OW10357   6.419   4.657   0.716
 3153SOL    HW110358   6.470   4.738   0.686
 3153SOL    HW210359   6.450   4.629   0.807
 3154SOL     OW10360   4.439   1.013   6.884
 3154SOL    HW110361   4.522   1.052   6.924
 3154SOL    HW210362   4.362   1.073   6.903
 3155SOL     OW10363   1.487   4.767   0.716
 3155SOL    HW110364   1.476   4.834   0.790
 3155SOL    HW210365   1.578   4.776   0.677
 3156SOL     OW10366   3.642   4.165   1.767
 3156SOL    HW110367   3.655   4.252   1.720
 3156SOL    HW210368   3.702   4.160   1.847
 3157SOL     OW10369   0.460   1.223   5.756
 3157SOL    HW110370   0.518   1.281   5.699
 3157SOL    HW210371   0.510   1.199   5.840
 3158SOL     OW10372   1.829   1.226   5.886
 3158SOL    HW110373   1.795   1.259   5.798
 3158SOL    HW210374   1.832   1.303   5.951
 3159SOL     OW10375   5.903   0.269   0.203
 3159SOL    HW110376   5.931   0.187   0.153
 3159SOL    HW210377   5.812   0.255   0.243
 3160SOL     OW10378   1.727   0.035   6.448
 3160SOL    HW110379   1.707   7.014   6.539
 3160SOL    HW210380   1.802   0.100   6.454
 3161SOL     OW10381   2.296   2.320   2.135
 3161SOL    HW110382   2.366   2.388   2.116
 3161SOL    HW210383   2.339   2.240   2.177
 3162SOL     OW10384   2.279   5.488   1.026
 3162SOL    HW110385   2.210   5.458   1.092
 3162SOL    HW210386   2.289   5.587   1.030
 3163SOL     OW10387   4.250   4.295   0.055
 3163SOL    HW110388   4.197   4.274   6.989
 3163SOL    HW210389   4.204   4.257   0.135
 3164SOL     OW10390   2.744   6.634   3.034
 3164SOL    HW110391   2.817   6.574   3.001
 3164SOL    HW210392   2.745   6.719   2.983
 3165SOL     OW10393   0.858   6.634   6.795
 3165SOL    HW110394   0.862   6.571   6.873
 3165SOL    HW210395   0.858   6.728   6.828
 3166SOL     OW10396   4.960   0.584   4.564
 3166SOL    HW110397   4.923   0.506   4.513
 3166SOL    HW210398   4.937   0.573   4.661
 3167SOL     OW10399   5.733   3.155   0.648
 3167SOL    HW110400   5.719   3.059   0.670
 3167SOL    HW210401   5.761   3.205   0.730
 3168SOL     OW10402   5.367   2.050   0.474
 3168SOL    HW110403   5.422   1.996   0.537
 3168SOL    HW210404   5.303   2.106   0.526
 3169SOL     OW10405   2.228   4.542   2.251
 3169SOL    HW110406   2.270   4.487   2.178
 3169SOL    HW210407   2.137   4.505   2.272
 3170SOL     OW10408   2.581   4.533   3.411
 3170SOL    HW110409   2.540   4.622   3.389
 3170SOL    HW210410   2.509   4.465   3.423
 3171SOL     OW10411   4.929   2.365   3.896
 3171SOL    HW110412   4.854   2.306   3.926
 3171SOL    HW210413   4.893   2.440   3.841
 3172SOL     OW10414   6.274   4.524   1.730
 3172SOL    HW110415   6.273   4.616   1.769
 3172SOL    HW210416   6.184   4.482   1.739
 3173SOL     OW10417   4.275   2.665   0.931
 3173SOL    HW110418   4.295   2.762   0.926
 3173SOL    HW210419   4.187   2.652   0.976
 3174SOL     OW10420   2.850   3.686   6.349
 3174SOL    HW110421   2.803   3.597   6.349
 3174SOL    HW210422   2.921   3.686   6.279
 3175SOL     OW10423   5.455   0.722   4.104
 3175SOL    HW110424   5.540   0.750   4.149
 3175SOL    HW210425   5.469   0.634   4.059
 3176SOL     OW10426   0.802   4.886   5.047
 3176SOL    HW110427   0.759   4.813   4.995
 3176SOL    HW210428   0.884   4.917   4.999
 3177SOL     OW10429   5.351   3.677   3.553
 3177SOL    HW110430   5.436   3.730   3.560
 3177SOL    HW210431   5.335   3.628   3.638
 3178SOL     OW10432   6.744   0.832   1.579
 3178SOL    HW110433   6.713   0.745   1.540
 3178SOL    HW210434   6.666   0.892   1.593
 3179SOL     OW10435   1.041   1.693   2.209
 3179SOL    HW110436   0.957   1.650   2.175
 3179SOL    HW210437   1.045   1.788   2.178
 3180SOL     OW10438   6.921   6.222   0.300
 3180SOL    HW110439   6.979   6.192   0.375
 3180SOL    HW210440   6.978   6.258   0.226
 3181SOL     OW10441   1.959   6.786   4.735
 3181SOL    HW110442   1.966   6.779   4.834
 3181SOL    HW210443   1.863   6.794   4.709
 3182SOL     OW10444   2.794   1.316   0.671
 3182SOL    HW110445   2.843   1.393   0.711
 3182SOL    HW210446   2.720   1.351   0.613
 3183SOL     OW10447   4.287   3.860   1.181
 3183SOL    HW110448   4.381   3.829   1.196
 3183SOL    HW210449   4.231   3.838   1.261
 3184SOL     OW10450   0.772   2.642   5.018
 3184SOL    HW110451   0.808   2.631   5.111
 3184SOL    HW210452   0.745   2.554   4.981
 3185SOL     OW10453   0.522   5.443   5.842
 3185SOL    HW110454   0.512   5.387   5.924
 3185SOL    HW210455   0.587   5.517   5.859
 3186SOL     OW10456   0.571   1.829   6.363
 3186SOL    HW110457   0.570   1.861   6.268
 3186SOL    HW210458   0.477   1.817   6.395
 3187SOL     OW10459   4.257   5.895   2.411
 3187SOL    HW110460   4.261   5.899   2.510
 3187SOL    HW210461   4.212   5.977   2.375
 3188SOL     OW10462   2.142   5.004   5.904
 3188SOL    HW110463   2.192   4.970   5.824
 3188SOL    HW210464   2.159   4.943   5.982
 3189SOL     OW10465   3.266   1.785   5.484
 3189SOL    HW110466   3.186   1.806   5.539
 3189SOL    HW210467   3.245   1.710   5.422
 3190SOL     OW10468   5.699   6.033   5.020
 3190SOL    HW110469   5.609   6.072   4.999
 3190SOL    HW210470   5.690   5.967   5.094
 3191SOL     OW10471   4.353   5.448   1.508
 3191SOL    HW110472   4.407   5.394   1.444
 3191SOL    HW210473   4.414   5.507   1.561
 3192SOL     OW10474   5.598   2.113   2.657
 3192SOL    HW110475   5.689   2.132   2.694
 3192SOL    HW210476   5.529   2.151   2.718
 3193SOL     OW10477   3.521   6.908   5.110
 3193SOL    HW110478   3.492   6.863   5.194
 3193SOL    HW210479   3.621   6.903   5.102
 3194SOL     OW10480   1.630   0.575   6.327
 3194SOL    HW110481   1.658   0.671   6.340
 3194SOL    HW210482   1.691   0.532   6.261
 3195SOL     OW10483   0.171   1.997   1.233
 3195SOL    HW110484   0.226   1.914   1.230
 3195SOL    HW210485   0.114   1.997   1.315
 3196SOL     OW10486   6.238   0.362   4.295
 3196SOL    HW110487   6.337   0.361   4.283
 3196SOL    HW210488   6.214   0.308   4.376
 3197SOL     OW10489   1.681   0.941   6.624
 3197SOL    HW110490   1.752   0.936   6.694
 3197SOL    HW210491   1.620   1.018   6.645
 3198SOL     OW10492   5.648   2.949   3.027
 3198SOL    HW110493   5.747   2.957   3.038
 3198SOL    HW210494   5.615   3.024   2.969
 3199SOL     OW10495   5.473   4.196   3.391
 3199SOL    HW110496   5.475   4.107   3.345
 3199SOL    HW210497   5.383   4.237   3.379
 3200SOL     OW10498   5.647   3.158   3.944
 3200SOL    HW110499   5.594   3.236   3.912
 3200SOL    HW210500   5.627   3.141   4.041
 3201SOL     OW10501   5.829   4.266   2.683
 3201SOL    HW110502   5.745   4.216   2.702
 3201SOL    HW210503   5.883   4.273   2.767
 3202SOL     OW10504   1.842   4.029   6.875
 3202SOL    HW110505   1.927   4.073   6.904
 3202SOL    HW210506   1.860   3.968   6.799
 3203SOL     OW10507   3.460   0.024   1.435
 3203SOL    HW110508   3.429   0.083   1.509
 3203SOL    HW210509   3.384   6.982   1.405
 3204SOL     OW10510   2.621   1.700   3.046
 3204SOL    HW110511   2.625   1.602   3.065
 3204SOL    HW210512   2.527   1.727   3.026
 3205SOL     OW10513   5.163   3.303   5.394
 3205SOL    HW110514   5.121   3.241   5.461
 3205SOL    HW210515   5.154   3.397   5.425
 3206SOL     OW10516   3.228   3.256   1.279
 3206SOL    HW110517   3.208   3.324   1.350
 3206SOL    HW210518   3.142   3.227   1.236
 3207SOL     OW10519   1.662   5.545   5.494
 3207SOL    HW110520   1.564   5.563   5.503
 3207SOL    HW210521   1.696   5.503   5.578
 3208SOL     OW10522   6.002   5.209   6.383
 3208SOL    HW110523   5.950   5.222   6.468
 3208SOL    HW210524   5.995   5.291   6.327
 3209SOL     OW10525   5.037   6.027   6.798
 3209SOL    HW110526   5.050   6.011   6.896
 3209SOL    HW210527   5.023   6.124   6.782
 3210SOL     OW10528   6.299   5.084   1.561
 3210SOL    HW110529   6.233   5.111   1.632
 3210SOL    HW210530   6.274   4.994   1.525
 3211SOL     OW10531   0.830   5.278   6.421
 3211SOL    HW110532   0.864   5.349   6.483
 3211SOL    HW210533   0.907   5.239   6.370
 3212SOL     OW10534   2.288   0.282   3.228
 3212SOL    HW110535   2.267   0.228   3.310
 3212SOL    HW210536   2.235   0.248   3.151
 3213SOL     OW10537   1.358   0.615   6.340
 3213SOL    HW110538   1.450   0.574   6.337
 3213SOL    HW210539   1.289   0.542   6.345
 3214SOL     OW10540   3.169   1.101   2.933
 3214SOL    HW110541   3.077   1.110   2.972
 3214SOL    HW210542   3.166   1.035   2.857
 3215SOL     OW10543   1.865   2.779   0.826
 3215SOL    HW110544   1.906   2.743   0.910
 3215SOL    HW210545   1.933   2.833   0.776
 3216SOL     OW10546   5.745   4.397   0.319
 3216SOL    HW110547   5.753   4.442   0.407
 3216SOL    HW210548   5.748   4.298   0.332
 3217SOL     OW10549   0.494   6.155   2.412
 3217SOL    HW110550   0.416   6.202   2.454
 3217SOL    HW210551   0.570   6.151   2.477
 3218SOL     OW10552   5.676   0.853   3.105
 3218SOL    HW110553   5.701   0.783   3.038
 3218SOL    HW210554   5.752   0.916   3.118
 3219SOL     OW10555   5.944   0.993   5.587
 3219SOL    HW110556   5.855   0.975   5.630
 3219SOL    HW210557   6.015   0.990   5.657
 3220SOL     OW10558   0.011   4.500   6.519
 3220SOL    HW110559   6.972   4.467   6.595
 3220SOL    HW210560   0.107   4.477   6.535
 3221SOL     OW10561   3.537   0.682   1.553
 3221SOL    HW110562   3.466   0.746   1.525
 3221SOL    HW210563   3.551   0.689   1.652
 3222SOL     OW10564   3.492   1.670   3.046
 3222SOL    HW110565   3.417   1.708   2.990
 3222SOL    HW210566   3.578   1.683   2.998
 3223SOL     OW10567   1.234   6.391   1.055
 3223SOL    HW110568   1.174   6.448   1.000
 3223SOL    HW210569   1.202   6.390   1.150
 3224SOL     OW10570   3.871   1.983   4.028
 3224SOL    HW110571   3.836   2.061   4.079
 3224SOL    HW210572   3.868   2.004   3.930
 3225SOL     OW10573   4.004   0.665   3.712
 3225SOL    HW110574   4.086   0.697   3.665
 3225SOL    HW210575   3.996   0.712   3.800
 3226SOL     OW10576   0.115   0.145   1.289
 3226SOL    HW110577   0.144   0.229   1.335
 3226SOL    HW210578   0.042   0.101   1.341
 3227SOL     OW10579   5.021   3.787   5.331
 3227SOL    HW110580   5.055   3.859   5.392
 3227SOL    HW210581   5.016   3.823   5.238
 3228SOL     OW10582   2.406   3.925   0.277
 3228SOL    HW110583   2.337   3.863   0.315
 3228SOL    HW210584   2.495   3.902   0.315
 3229SOL     OW10585   1.623   1.438   0.935
 3229SOL    HW110586   1.665   1.520   0.972
 3229SOL    HW210587   1.655   1.358   0.986
 3230SOL     OW10588   2.652   5.999   5.613
 3230SOL    HW110589   2.667   5.904   5.584
 3230SOL    HW210590   2.694   6.014   5.702
 3231SOL     OW10591   2.321   2.019   1.870
 3231SOL    HW110592   2.244   2.081   1.881
 3231SOL    HW210593   2.398   2.067   1.828
 3232SOL     OW10594   3.938   5.408   3.899
 3232SOL    HW110595   4.006   5.347   3.857
 3232SOL    HW210596   3.877   5.443   3.829
 3233SOL     OW10597   0.202   2.012   0.592
 3233SOL    HW110598   0.171   2.077   0.661
 3233SOL    HW210599   0.178   2.046   0.501
 3234SOL     OW10600   2.246   2.756   0.530
 3234SOL    HW110601   2.331   2.766   0.582
 3234SOL    HW210602   2.261   2.786   0.436
 3235SOL     OW10603   1.023   6.992   2.371
 3235SOL    HW110604   1.095   0.044   2.378
 3235SOL    HW210605   0.946   0.001   2.429
 3236SOL     OW10606   3.514   2.588   0.049
 3236SOL    HW110607   3.606   2.628   0.051
 3236SOL    HW210608   3.498   2.537   0.134
 3237SOL     OW10609   5.990   1.298   4.871
 3237SOL    HW110610   5.946   1.262   4.788
 3237SOL    HW210611   6.015   1.223   4.931
 3238SOL     OW10612   6.752   5.319   1.286
 3238SOL    HW110613   6.766   5.398   1.346
 3238SOL    HW210614   6.839   5.272   1.273
 3239SOL     OW10615   6.673   6.949   4.270
 3239SOL    HW110616   6.688   6.873   4.206
 3239SOL    HW210617   6.620   6.917   4.348
 3240SOL     OW10618   0.444   1.086   6.642
 3240SOL    HW110619   0.370   1.151   6.657
 3240SOL    HW210620   0.411   1.009   6.588
 3241SOL     OW10621   6.041   1.841   5.867
 3241SOL    HW110622   6.045   1.878   5.774
 3241SOL    HW210623   6.121   1.872   5.919
 3242SOL     OW10624   5.525   4.272   4.742
 3242SOL    HW110625   5.540   4.240   4.648
 3242SOL    HW210626   5.596   4.338   4.767
 3243SOL     OW10627   5.552   5.247   5.251
 3243SOL    HW110628   5.462   5.230   5.292
 3243SOL    HW210629   5.558   5.197   5.165
 3244SOL     OW10630   4.952   6.968   6.810
 3244SOL    HW110631   4.927   6.891   6.752
 3244SOL    HW210632   4.982   6.935   6.900
 3245SOL     OW10633   4.054   0.978   5.049
 3245SOL    HW110634   4.117   1.035   5.102
 3245SOL    HW210635   4.084   0.976   4.953
 3246SOL     OW10636   6.689   0.487   3.041
 3246SOL    HW110637   6.718   0.583   3.038
 3246SOL    HW210638   6.640   0.470   3.126
 3247SOL     OW10639   0.491   4.279   2.813
 3247SOL    HW110640   0.511   4.314   2.905
 3247SOL    HW210641   0.458   4.354   2.756
 3248SOL     OW10642   5.295   2.117   3.740
 3248SOL    HW110643   5.285   2.143   3.836
 3248SOL    HW210644   5.242   2.180   3.683
 3249SOL     OW10645   3.051   3.994   3.938
 3249SOL    HW110646   3.006   4.012   3.851
 3249SOL    HW210647   3.098   3.906   3.934
 3250SOL     OW10648   5.161   5.295   2.106
 3250SOL    HW110649   5.095   5.224   2.079
 3250SOL    HW210650   5.243   5.251   2.143
 3251SOL     OW10651   2.376   1.360   2.878
 3251SOL    HW110652   2.293   1.317   2.913
 3251SOL    HW210653   2.357   1.456   2.857
 3252SOL     OW10654   2.172   1.420   3.270
 3252SOL    HW110655   2.265   1.450   3.293
 3252SOL    HW210656   2.107   1.491   3.295
 3253SOL     OW10657   6.601   3.462   0.417
 3253SOL    HW110658   6.700   3.477   0.409
 3253SOL    HW210659   6.579   3.370   0.385
 3254SOL     OW10660   6.117   0.436   1.018
 3254SOL    HW110661   6.047   0.373   1.051
 3254SOL    HW210662   6.159   0.484   1.095
 3255SOL     OW10663   4.996   5.541   1.355
 3255SOL    HW110664   5.072   5.604   1.374
 3255SOL    HW210665   4.939   5.580   1.283
 3256SOL     OW10666   5.082   1.615   1.286
 3256SOL    HW110667   5.011   1.614   1.217
 3256SOL    HW210668   5.148   1.688   1.265
 3257SOL     OW10669   2.727   2.043   3.031
 3257SOL    HW110670   2.787   2.122   3.043
 3257SOL    HW210671   2.747   1.976   3.102
 3258SOL     OW10672   1.961   5.983   3.299
 3258SOL    HW110673   2.012   5.985   3.213
 3258SOL    HW210674   1.948   5.888   3.327
 3259SOL     OW10675   4.783   4.390   3.726
 3259SOL    HW110676   4.773   4.466   3.662
 3259SOL    HW210677   4.708   4.393   3.792
 3260SOL     OW10678   1.292   4.625   2.469
 3260SOL    HW110679   1.313   4.716   2.434
 3260SOL    HW210680   1.262   4.632   2.564
 3261SOL     OW10681   5.319   6.801   3.867
 3261SOL    HW110682   5.271   6.824   3.782
 3261SOL    HW210683   5.317   6.879   3.929
 3262SOL     OW10684   3.178   2.099   2.495
 3262SOL    HW110685   3.106   2.167   2.483
 3262SOL    HW210686   3.144   2.009   2.466
 3263SOL     OW10687   0.502   1.570   2.378
 3263SOL    HW110688   0.468   1.649   2.430
 3263SOL    HW210689   0.501   1.592   2.280
 3264SOL     OW10690   1.652   5.758   0.825
 3264SOL    HW110691   1.601   5.689   0.876
 3264SOL    HW210692   1.634   5.849   0.864
 3265SOL     OW10693   5.594   4.777   6.241
 3265SOL    HW110694   5.614   4.680   6.248
 3265SOL    HW210695   5.671   4.824   6.197
 3266SOL     OW10696   3.121   4.986   6.531
 3266SOL    HW110697   3.128   5.050   6.607
 3266SOL    HW210698   3.041   5.009   6.475
 3267SOL     OW10699   4.259   6.922   1.002
 3267SOL    HW110700   4.284   7.010   0.960
 3267SOL    HW210701   4.327   6.898   1.071
 3268SOL     OW10702   6.758   5.346   1.804
 3268SOL    HW110703   6.831   5.279   1.795
 3268SOL    HW210704   6.723   5.370   1.714
 3269SOL     OW10705   1.659   4.667   2.342
 3269SOL    HW110706   1.714   4.665   2.259
 3269SOL    HW210707   1.716   4.695   2.419
 3270SOL     OW10708   0.652   2.873   5.011
 3270SOL    HW110709   0.700   2.786   5.014
 3270SOL    HW210710   0.707   2.939   4.958
 3271SOL     OW10711   0.320   3.260   2.950
 3271SOL    HW110712   0.235   3.300   2.915
 3271SOL    HW210713   0.298   3.177   3.001
 3272SOL     OW10714   4.252   6.227   0.721
 3272SOL    HW110715   4.206   6.275   0.646
 3272SOL    HW210716   4.183   6.179   0.777
 3273SOL     OW10717   4.772   2.488   6.628
 3273SOL    HW110718   4.802   2.568   6.576
 3273SOL    HW210719   4.839   2.469   6.700
 3274SOL     OW10720   5.642   0.431   0.453
 3274SOL    HW110721   5.623   0.355   0.391
 3274SOL    HW210722   5.682   0.507   0.401
 3275SOL     OW10723   4.776   0.281   1.335
 3275SOL    HW110724   4.855   0.245   1.385
 3275SOL    HW210725   4.694   0.231   1.362
 3276SOL     OW10726   5.168   7.009   0.621
 3276SOL    HW110727   5.198   0.011   0.528
 3276SOL    HW210728   5.166   0.078   0.673
 3277SOL     OW10729   4.136   1.894   1.835
 3277SOL    HW110730   4.212   1.866   1.776
 3277SOL    HW210731   4.133   1.834   1.915
 3278SOL     OW10732   7.003   0.204   0.118
 3278SOL    HW110733   7.007   0.133   0.190
 3278SOL    HW210734   0.077   0.247   0.110
 3279SOL     OW10735   3.721   0.132   1.458
 3279SOL    HW110736   3.627   0.097   1.455
 3279SOL    HW210737   3.723   0.220   1.504
 3280SOL     OW10738   5.683   3.949   4.141
 3280SOL    HW110739   5.725   3.930   4.230
 3280SOL    HW210740   5.586   3.925   4.144
 3281SOL     OW10741   6.091   3.450   1.434
 3281SOL    HW110742   6.144   3.425   1.353
 3281SOL    HW210743   6.110   3.384   1.507
 3282SOL     OW10744   0.414   5.050   4.144
 3282SOL    HW110745   0.394   5.038   4.241
 3282SOL    HW210746   0.374   4.975   4.092
 3283SOL     OW10747   3.730   1.878   0.527
 3283SOL    HW110748   3.673   1.862   0.446
 3283SOL    HW210749   3.825   1.891   0.500
 3284SOL     OW10750   1.666   5.963   4.579
 3284SOL    HW110751   1.712   5.933   4.495
 3284SOL    HW210752   1.684   6.060   4.593
 3285SOL     OW10753   4.674   1.742   4.638
 3285SOL    HW110754   4.634   1.816   4.585
 3285SOL    HW210755   4.709   1.778   4.725
 3286SOL     OW10756   3.095   1.530   1.138
 3286SOL    HW110757   3.162   1.459   1.116
 3286SOL    HW210758   3.143   1.612   1.171
 3287SOL     OW10759   1.965   0.202   6.503
 3287SOL    HW110760   1.920   0.288   6.479
 3287SOL    HW210761   1.938   0.176   6.596
 3288SOL     OW10762   1.927   6.624   1.695
 3288SOL    HW110763   1.989   6.582   1.628
 3288SOL    HW210764   1.976   6.642   1.780
 3289SOL     OW10765   4.138   1.513   6.789
 3289SOL    HW110766   4.117   1.505   6.887
 3289SOL    HW210767   4.237   1.515   6.777
 3290SOL     OW10768   0.179   5.029   0.462
 3290SOL    HW110769   0.128   5.065   0.541
 3290SOL    HW210770   0.156   5.082   0.381
 3291SOL     OW10771   4.850   6.583   5.293
 3291SOL    HW110772   4.915   6.560   5.366
 3291SOL    HW210773   4.862   6.519   5.217
 3292SOL     OW10774   6.755   2.183   1.426
 3292SOL    HW110775   6.786   2.273   1.457
 3292SOL    HW210776   6.699   2.195   1.344
 3293SOL     OW10777   5.815   5.106   3.128
 3293SOL    HW110778   5.866   5.146   3.051
 3293SOL    HW210779   5.722   5.143   3.128
 3294SOL     OW10780   5.225   2.103   5.080
 3294SOL    HW110781   5.323   2.118   5.068
 3294SOL    HW210782   5.184   2.183   5.123
 3295SOL     OW10783   1.357   3.195   2.461
 3295SOL    HW110784   1.364   3.243   2.373
 3295SOL    HW210785   1.324   3.102   2.446
 3296SOL     OW10786   1.475   0.111   5.799
 3296SOL    HW110787   1.407   0.088   5.729
 3296SOL    HW210788   1.565   0.115   5.757
 3297SOL     OW10789   3.158   1.395   4.851
 3297SOL    HW110790   3.132   1.373   4.757
 3297SOL    HW210791   3.258   1.404   4.857
 3298SOL     OW10792   5.869   4.255   5.700
 3298SOL    HW110793   5.865   4.231   5.797
 3298SOL    HW210794   5.953   4.218   5.660
 3299SOL     OW10795   2.982   4.877   4.518
 3299SOL    HW110796   2.950   4.859   4.425
 3299SOL    HW210797   2.918   4.836   4.583
 3300SOL     OW10798   1.683   0.017   4.089
 3300SOL    HW110799   1.655   6.966   4.158
 3300SOL    HW210800   1.767   7.003   4.045
 3301SOL     OW10801   1.898   1.340   2.710
 3301SOL    HW110802   1.993   1.342   2.681
 3301SOL    HW210803   1.838   1.351   2.630
 3302SOL     OW10804   2.378   4.948   6.351
 3302SOL    HW110805   2.384   4.851   6.372
 3302SOL    HW210806   2.464   4.993   6.374
 3303SOL     OW10807   3.831   2.871   0.184
 3303SOL    HW110808   3.757   2.920   0.138
 3303SOL    HW210809   3.801   2.842   0.275
 3304SOL     OW10810   2.690   4.983   6.480
 3304SOL    HW110811   2.713   4.997   6.576
 3304SOL    HW210812   2.723   4.893   6.451
 3305SOL     OW10813   3.279   1.787   1.000
 3305SOL    HW110814   3.323   1.869   1.036
 3305SOL    HW210815   3.274   1.717   1.072
 3306SOL     OW10816   1.954   0.510   6.724
 3306SOL    HW110817   2.007   0.461   6.793
 3306SOL    HW210818   1.916   0.594   6.764
 3307SOL     OW10819   1.865   6.810   5.021
 3307SOL    HW110820   1.933   6.866   5.069
 3307SOL    HW210821   1.851   6.725   5.071
 3308SOL     OW10822   3.720   4.313   1.091
 3308SOL    HW110823   3.699   4.215   1.090
 3308SOL    HW210824   3.811   4.327   1.130
 3309SOL     OW10825   5.806   3.518   3.711
 3309SOL    HW110826   5.732   3.565   3.758
 3309SOL    HW210827   5.823   3.562   3.623
 3310SOL     OW10828   6.343   5.489   5.829
 3310SOL    HW110829   6.349   5.588   5.822
 3310SOL    HW210830   6.358   5.460   5.924
 3311SOL     OW10831   3.474   3.187   0.305
 3311SOL    HW110832   3.563   3.232   0.314
 3311SOL    HW210833   3.421   3.199   0.389
 3312SOL     OW10834   4.382   2.794   5.868
 3312SOL    HW110835   4.333   2.709   5.888
 3312SOL    HW210836   4.350   2.831   5.781
 3313SOL     OW10837   0.784   1.169   2.978
 3313SOL    HW110838   0.834   1.083   2.985
 3313SOL    HW210839   0.730   1.170   2.894
 3314SOL     OW10840   2.661   5.401   2.657
 3314SOL    HW110841   2.704   5.437   2.574
 3314SOL    HW210842   2.732   5.361   2.716
 3315SOL     OW10843   0.220   5.185   5.076
 3315SOL    HW110844   0.199   5.279   5.103
 3315SOL    HW210845   0.287   5.146   5.139
 3316SOL     OW10846   3.382   2.113   5.942
 3316SOL    HW110847   3.304   2.176   5.943
 3316SOL    HW210848   3.363   2.038   5.879
 3317SOL     OW10849   4.932   2.637   3.160
 3317SOL    HW110850   4.846   2.598   3.127
 3317SOL    HW210851   4.975   2.692   3.088
 3318SOL     OW10852   3.240   2.209   0.541
 3318SOL    HW110853   3.217   2.296   0.584
 3318SOL    HW210854   3.175   2.191   0.466
 3319SOL     OW10855   6.951   6.211   3.468
 3319SOL    HW110856   6.909   6.301   3.481
 3319SOL    HW210857   0.032   6.222   3.452
 3320SOL     OW10858   6.087   0.175   1.440
 3320SOL    HW110859   6.062   0.262   1.399
 3320SOL    HW210860   6.127   0.116   1.370
 3321SOL     OW10861   4.926   1.305   0.213
 3321SOL    HW110862   4.988   1.382   0.198
 3321SOL    HW210863   4.889   1.274   0.125
 3322SOL     OW10864   6.542   3.824   1.035
 3322SOL    HW110865   6.606   3.843   1.110
 3322SOL    HW210866   6.591   3.828   0.948
 3323SOL     OW10867   1.395   1.848   2.062
 3323SOL    HW110868   1.313   1.895   2.029
 3323SOL    HW210869   1.403   1.862   2.161
 3324SOL     OW10870   5.099   5.693   5.863
 3324SOL    HW110871   5.177   5.640   5.833
 3324SOL    HW210872   5.111   5.789   5.836
 3325SOL     OW10873   1.824   3.592   6.735
 3325SOL    HW110874   1.734   3.553   6.717
 3325SOL    HW210875   1.880   3.586   6.653
 3326SOL     OW10876   4.795   0.724   2.874
 3326SOL    HW110877   4.772   0.729   2.777
 3326SOL    HW210878   4.741   0.790   2.925
 3327SOL     OW10879   1.586   5.532   0.967
 3327SOL    HW110880   1.615   5.442   0.935
 3327SOL    HW210881   1.489   5.545   0.947
 3328SOL     OW10882   4.757   2.277   0.115
 3328SOL    HW110883   4.777   2.181   0.136
 3328SOL    HW210884   4.695   2.281   0.036
 3329SOL     OW10885   6.156   5.266   5.757
 3329SOL    HW110886   6.238   5.319   5.780
 3329SOL    HW210887   6.075   5.321   5.777
 3330SOL     OW10888   6.488   3.541   2.395
 3330SOL    HW110889   6.447   3.494   2.473
 3330SOL    HW210890   6.534   3.475   2.336
 3331SOL     OW10891   2.284   2.694   0.991
 3331SOL    HW110892   2.374   2.658   1.014
 3331SOL    HW210893   2.226   2.621   0.955
 3332SOL     OW10894   6.190   4.757   0.594
 3332SOL    HW110895   6.267   4.711   0.639
 3332SOL    HW210896   6.209   4.855   0.588
 3333SOL     OW10897   4.336   4.662   6.035
 3333SOL    HW110898   4.340   4.628   5.942
 3333SOL    HW210899   4.247   4.641   6.075
 3334SOL     OW10900   2.534   4.311   1.677
 3334SOL    HW110901   2.478   4.303   1.594
 3334SOL    HW210902   2.522   4.230   1.733
 3335SOL     OW10903   4.925   4.482   5.345
 3335SOL    HW110904   4.852   4.468   5.412
 3335SOL    HW210905   4.917   4.416   5.271
 3336SOL     OW10906   3.265   5.027   6.196
 3336SOL    HW110907   3.238   4.993   6.106
 3336SOL    HW210908   3.211   5.108   6.218
 3337SOL     OW10909   3.440   2.067   1.008
 3337SOL    HW110910   3.444   2.074   0.909
 3337SOL    HW210911   3.533   2.065   1.046
 3338SOL     OW10912   6.953   4.493   0.981
 3338SOL    HW110913   6.941   4.474   0.884
 3338SOL    HW210914   6.876   4.454   1.033
 3339SOL     OW10915   6.944   5.689   6.600
 3339SOL    HW110916   6.920   5.602   6.644
 3339SOL    HW210917   6.862   5.730   6.559
 3340SOL     OW10918   3.313   6.502   1.733
 3340SOL    HW110919   3.222   6.477   1.699
 3340SOL    HW210920   3.339   6.590   1.695
 3341SOL     OW10921   0.590   0.902   2.404
 3341SOL    HW110922   0.589   0.896   2.304
 3341SOL    HW210923   0.507   0.948   2.435
 3342SOL     OW10924   2.237   6.531   4.421
 3342SOL    HW110925   2.271   6.477   4.498
 3342SOL    HW210926   2.141   6.554   4.436
 3343SOL     OW10927   5.316   2.703   0.736
 3343SOL    HW110928   5.259   2.775   0.696
 3343SOL    HW210929   5.287   2.685   0.829
 3344SOL     OW10930   6.880   3.553   5.766
 3344SOL    HW110931   6.841   3.532   5.676
 3344SOL    HW210932   6.869   3.474   5.827
 3345SOL     OW10933   3.083   3.080   5.807
 3345SOL    HW110934   3.116   3.106   5.716
 3345SOL    HW210935   3.122   3.141   5.875
 3346SOL     OW10936   0.815   0.455   1.659
 3346SOL    HW110937   0.903   0.407   1.653
 3346SOL    HW210938   0.748   0.394   1.701
 3347SOL     OW10939   5.926   3.903   5.272
 3347SOL    HW110940   5.842   3.943   5.236
 3347SOL    HW210941   5.939   3.812   5.232
 3348SOL     OW10942   3.770   2.919   4.217
 3348SOL    HW110943   3.782   2.917   4.317
 3348SOL    HW210944   3.684   2.872   4.193
 3349SOL     OW10945   5.951   3.716   4.790
 3349SOL    HW110946   6.032   3.697   4.845
 3349SOL    HW210947   5.883   3.763   4.845
 3350SOL     OW10948   1.320   1.417   0.959
 3350SOL    HW110949   1.330   1.332   0.906
 3350SOL    HW210950   1.405   1.469   0.955
 3351SOL     OW10951   5.223   1.591   1.547
 3351SOL    HW110952   5.133   1.603   1.505
 3351SOL    HW210953   5.261   1.681   1.570
 3352SOL     OW10954   0.297   3.736   1.361
 3352SOL    HW110955   0.267   3.789   1.282
 3352SOL    HW210956   0.339   3.797   1.428
 3353SOL     OW10957   2.181   0.039   5.674
 3353SOL    HW110958   2.114   6.981   5.672
 3353SOL    HW210959   2.203   0.062   5.769
 3354SOL     OW10960   0.993   2.196   3.011
 3354SOL    HW110961   1.087   2.230   3.018
 3354SOL    HW210962   0.960   2.173   3.102
 3355SOL     OW10963   6.781   1.191   2.679
 3355SOL    HW110964   6.711   1.248   2.722
 3355SOL    HW210965   6.751   1.095   2.679
 3356SOL     OW10966   2.650   3.248   0.128
 3356SOL    HW110967   2.642   3.297   0.215
 3356SOL    HW210968   2.727   3.284   0.076
 3357SOL     OW10969   2.793   5.243   1.870
 3357SOL    HW110970   2.883   5.245   1.913
 3357SOL    HW210971   2.732   5.185   1.924
 3358SOL     OW10972   5.083   4.974   2.253
 3358SOL    HW110973   5.016   5.022   2.196
 3358SOL    HW210974   5.104   5.030   2.334
 3359SOL     OW10975   2.141   1.354   2.610
 3359SOL    HW110976   2.179   1.394   2.527
 3359SOL    HW210977   2.197   1.277   2.640
 3360SOL     OW10978   1.102   0.459   0.166
 3360SOL    HW110979   1.050   0.477   0.082
 3360SOL    HW210980   1.134   0.546   0.203
 3361SOL     OW10981   5.757   6.707   2.931
 3361SOL    HW110982   5.757   6.646   3.010
 3361SOL    HW210983   5.663   6.737   2.913
 3362SOL     OW10984   1.650   1.004   5.864
 3362SOL    HW110985   1.711   1.079   5.890
 3362SOL    HW210986   1.589   1.035   5.791
 3363SOL     OW10987   0.546   1.375   6.580
 3363SOL    HW110988   0.539   1.456   6.639
 3363SOL    HW210989   0.523   1.294   6.633
 3364SOL     OW10990   1.725   4.674   6.219
 3364SOL    HW110991   1.780   4.745   6.176
 3364SOL    HW210992   1.748   4.585   6.181
 3365SOL     OW10993   6.312   1.953   5.302
 3365SOL    HW110994   6.305   1.976   5.399
 3365SOL    HW210995   6.226   1.914   5.270
 3366SOL     OW10996   5.510   1.015   5.854
 3366SOL    HW110997   5.554   1.038   5.767
 3366SOL    HW210998   5.556   1.060   5.929
 3367SOL     OW10999   0.976   1.009   1.978
 3367SOL    HW111000   0.928   0.944   1.918
 3367SOL    HW211001   0.929   1.097   1.977
 3368SOL     OW11002   6.498   6.089   5.838
 3368SOL    HW111003   6.541   6.000   5.852
 3368SOL    HW211004   6.438   6.085   5.759
 3369SOL     OW11005   4.042   0.330   6.724
 3369SOL    HW111006   4.076   0.388   6.798
 3369SOL    HW211007   4.118   0.279   6.684
 3370SOL     OW11008   6.021   6.758   5.792
 3370SOL    HW111009   6.066   6.759   5.881
 3370SOL    HW211010   5.944   6.822   5.793
 3371SOL     OW11011   0.737   5.566   1.736
 3371SOL    HW111012   0.756   5.468   1.744
 3371SOL    HW211013   0.820   5.618   1.755
 3372SOL     OW11014   0.604   1.140   2.800
 3372SOL    HW111015   0.523   1.110   2.849
 3372SOL    HW211016   0.577   1.197   2.723
 3373SOL     OW11017   6.329   2.201   5.128
 3373SOL    HW111018   6.357   2.115   5.172
 3373SOL    HW211019   6.357   2.278   5.185
 3374SOL     OW11020   2.854   4.890   5.462
 3374SOL    HW111021   2.909   4.973   5.449
 3374SOL    HW211022   2.779   4.910   5.525
 3375SOL     OW11023   4.326   4.855   5.217
 3375SOL    HW111024   4.237   4.809   5.218
 3375SOL    HW211025   4.320   4.942   5.266
 3376SOL     OW11026   3.298   3.893   1.888
 3376SOL    HW111027   3.281   3.827   1.960
 3376SOL    HW211028   3.313   3.845   1.801
 3377SOL     OW11029   1.653   6.217   5.368
 3377SOL    HW111030   1.596   6.208   5.286
 3377SOL    HW211031   1.636   6.306   5.411
 3378SOL     OW11032   6.544   2.179   1.185
 3378SOL    HW111033   6.608   2.121   1.135
 3378SOL    HW211034   6.470   2.207   1.124
 3379SOL     OW11035   0.555   4.614   5.436
 3379SOL    HW111036   0.596   4.687   5.490
 3379SOL    HW211037   0.458   4.604   5.461
 3380SOL     OW11038   6.958   4.003   6.479
 3380SOL    HW111039   7.000   3.994   6.570
 3380SOL    HW211040   6.974   4.095   6.443
 3381SOL     OW11041   3.316   2.221   0.175
 3381SOL    HW111042   3.397   2.221   0.233
 3381SOL    HW211043   3.285   2.127   0.160
 3382SOL     OW11044   6.937   1.444   1.115
 3382SOL    HW111045   6.870   1.518   1.121
 3382SOL    HW211046   6.902   1.362   1.160
 3383SOL     OW11047   6.009   4.764   2.847
 3383SOL    HW111048   5.997   4.693   2.777
 3383SOL    HW211049   5.926   4.819   2.853
 3384SOL     OW11050   3.998   3.185   4.195
 3384SOL    HW111051   4.004   3.105   4.255
 3384SOL    HW211052   3.902   3.205   4.175
 3385SOL     OW11053   6.176   3.763   3.221
 3385SOL    HW111054   6.254   3.771   3.160
 3385SOL    HW211055   6.201   3.795   3.313
 3386SOL     OW11056   5.979   4.365   5.372
 3386SOL    HW111057   6.020   4.344   5.462
 3386SOL    HW211058   6.035   4.324   5.300
 3387SOL     OW11059   2.337   2.185   3.203
 3387SOL    HW111060   2.397   2.262   3.178
 3387SOL    HW211061   2.242   2.213   3.193
 3388SOL     OW11062   5.675   2.199   1.781
 3388SOL    HW111063   5.674   2.299   1.791
 3388SOL    HW211064   5.733   2.159   1.851
 3389SOL     OW11065   5.717   4.231   3.492
 3389SOL    HW111066   5.626   4.259   3.460
 3389SOL    HW211067   5.727   4.256   3.589
 3390SOL     OW11068   4.945   2.714   5.404
 3390SOL    HW111069   4.915   2.804   5.372
 3390SOL    HW211070   4.866   2.653   5.410
 3391SOL     OW11071   3.965   2.091   4.862
 3391SOL    HW111072   4.031   2.023   4.831
 3391SOL    HW211073   3.972   2.173   4.804
 3392SOL     OW11074   3.782   0.427   4.038
 3392SOL    HW111075   3.763   0.525   4.037
 3392SOL    HW211076   3.858   0.407   3.975
 3393SOL     OW11077   6.630   6.931   0.354
 3393SOL    HW111078   6.636   6.839   0.392
 3393SOL    HW211079   6.677   6.933   0.265
 3394SOL     OW11080   6.240   2.907   1.088
 3394SOL    HW111081   6.235   2.933   0.992
 3394SOL    HW211082   6.289   2.821   1.097
 3395SOL     OW11083   1.247   3.598   5.272
 3395SOL    HW111084   1.152   3.609   5.301
 3395SOL    HW211085   1.271   3.672   5.209
 3396SOL     OW11086   0.144   4.103   3.845
 3396SOL    HW111087   0.225   4.137   3.893
 3396SOL    HW211088   0.080   4.064   3.911
 3397SOL     OW11089   3.659   6.591   6.096
 3397SOL    HW111090   3.719   6.578   6.175
 3397SOL    HW211091   3.570   6.627   6.127
 3398SOL     OW11092   1.243   6.536   4.346
 3398SOL    HW111093   1.246   6.436   4.345
 3398SOL    HW211094   1.204   6.569   4.260
 3399SOL     OW11095   5.309   4.760   3.886
 3399SOL    HW111096   5.386   4.811   3.925
 3399SOL    HW211097   5.331   4.733   3.792
 3400SOL     OW11098   4.994   2.281   0.323
 3400SOL    HW111099   5.039   2.240   0.244
 3400SOL    HW211100   4.898   2.256   0.324
 3401SOL     OW11101   5.951   3.963   0.383
 3401SOL    HW111102   5.899   3.899   0.440
 3401SOL    HW211103   6.016   4.014   0.440
 3402SOL     OW11104   5.966   5.574   1.447
 3402SOL    HW111105   5.943   5.671   1.443
 3402SOL    HW211106   6.044   5.561   1.508
 3403SOL     OW11107   3.494   0.565   5.328
 3403SOL    HW111108   3.502   0.664   5.344
 3403SOL    HW211109   3.553   0.538   5.253
 3404SOL     OW11110   4.445   1.120   0.478
 3404SOL    HW111111   4.381   1.150   0.407
 3404SOL    HW211112   4.463   1.022   0.468
 3405SOL     OW11113   6.666   3.649   6.487
 3405SOL    HW111114   6.652   3.740   6.525
 3405SOL    HW211115   6.763   3.638   6.463
 3406SOL     OW11116   1.884   3.977   2.787
 3406SOL    HW111117   1.812   3.940   2.728
 3406SOL    HW211118   1.842   4.019   2.868
 3407SOL     OW11119   0.768   5.715   2.377
 3407SOL    HW111120   0.811   5.762   2.300
 3407SOL    HW211121   0.799   5.620   2.381
 3408SOL     OW11122   5.308   3.803   2.380
 3408SOL    HW111123   5.223   3.785   2.332
 3408SOL    HW211124   5.367   3.722   2.374
 3409SOL     OW11125   3.550   0.451   5.753
 3409SOL    HW111126   3.460   0.491   5.735
 3409SOL    HW211127   3.540   0.354   5.774
 3410SOL     OW11128   6.711   6.865   0.698
 3410SOL    HW111129   6.724   6.769   0.672
 3410SOL    HW211130   6.672   6.869   0.790
 3411SOL     OW11131   4.944   2.082   3.088
 3411SOL    HW111132   4.871   2.094   3.155
 3411SOL    HW211133   4.906   2.047   3.003
 3412SOL     OW11134   3.956   4.430   7.007
 3412SOL    HW111135   3.867   4.468   6.983
 3412SOL    HW211136   3.963   4.424   0.090
 3413SOL     OW11137   3.556   1.734   3.487
 3413SOL    HW111138   3.535   1.806   3.420
 3413SOL    HW211139   3.562   1.646   3.440
 3414SOL     OW11140   2.884   2.455   5.309
 3414SOL    HW111141   2.926   2.509   5.382
 3414SOL    HW211142   2.939   2.373   5.292
 3415SOL     OW11143   0.549   4.613   3.894
 3415SOL    HW111144   0.591   4.538   3.946
 3415SOL    HW211145   0.474   4.578   3.838
 3416SOL     OW11146   1.020   5.510   5.102
 3416SOL    HW111147   1.019   5.606   5.075
 3416SOL    HW211148   0.950   5.460   5.051
 3417SOL     OW11149   6.822   6.855   2.655
 3417SOL    HW111150   6.848   6.759   2.647
 3417SOL    HW211151   6.892   6.913   2.614
 3418SOL     OW11152   3.064   1.543   5.539
 3418SOL    HW111153   3.075   1.627   5.592
 3418SOL    HW211154   2.969   1.512   5.545
 3419SOL     OW11155   4.191   4.592   6.739
 3419SOL    HW111156   4.115   4.530   6.719
 3419SOL    HW211157   4.176   4.679   6.691
 3420SOL     OW11158   4.091   2.181   3.949
 3420SOL    HW111159   4.078   2.103   3.888
 3420SOL    HW211160   4.028   2.173   4.027
 3421SOL     OW11161   0.179   5.844   5.383
 3421SOL    HW111162   0.216   5.936   5.377
 3421SOL    HW211163   0.235   5.790   5.446
 3422SOL     OW11164   3.347   0.846   1.482
 3422SOL    HW111165   3.275   0.866   1.549
 3422SOL    HW211166   3.387   0.932   1.449
 3423SOL     OW11167   2.548   0.452   0.839
 3423SOL    HW111168   2.605   0.519   0.790
 3423SOL    HW211169   2.466   0.497   0.873
 3424SOL     OW11170   4.313   0.758   2.858
 3424SOL    HW111171   4.231   0.815   2.865
 3424SOL    HW211172   4.315   0.713   2.769
 3425SOL     OW11173   4.808   4.487   1.834
 3425SOL    HW111174   4.790   4.403   1.783
 3425SOL    HW211175   4.727   4.545   1.831
 3426SOL     OW11176   4.136   3.500   0.428
 3426SOL    HW111177   4.137   3.583   0.484
 3426SOL    HW211178   4.217   3.445   0.449
 3427SOL     OW11179   0.234   0.964   0.529
 3427SOL    HW111180   0.139   0.987   0.508
 3427SOL    HW211181   0.285   1.047   0.550
 3428SOL     OW11182   4.306   4.651   2.266
 3428SOL    HW111183   4.338   4.596   2.189
 3428SOL    HW211184   4.292   4.745   2.237
 3429SOL     OW11185   1.517   3.271   0.839
 3429SOL    HW111186   1.479   3.208   0.771
 3429SOL    HW211187   1.617   3.269   0.834
 3430SOL     OW11188   1.266   0.076   0.204
 3430SOL    HW111189   1.281   0.155   0.145
 3430SOL    HW211190   1.168   0.056   0.208
 3431SOL     OW11191   0.988   5.672   0.473
 3431SOL    HW111192   0.953   5.578   0.475
 3431SOL    HW211193   0.934   5.728   0.536
 3432SOL     OW11194   3.332   1.353   5.812
 3432SOL    HW111195   3.339   1.412   5.732
 3432SOL    HW211196   3.352   1.407   5.894
 3433SOL     OW11197   3.328   0.473   5.061
 3433SOL    HW111198   3.241   0.494   5.106
 3433SOL    HW211199   3.386   0.421   5.123
 3434SOL     OW11200   4.801   2.778   1.958
 3434SOL    HW111201   4.773   2.873   1.963
 3434SOL    HW211202   4.834   2.748   2.048
 3435SOL     OW11203   6.913   1.853   2.187
 3435SOL    HW111204   6.891   1.854   2.285
 3435SOL    HW211205   6.978   1.927   2.167
 3436SOL     OW11206   4.081   6.618   4.523
 3436SOL    HW111207   4.043   6.566   4.599
 3436SOL    HW211208   4.180   6.627   4.535
 3437SOL     OW11209   4.122   0.047   5.162
 3437SOL    HW111210   4.117   0.147   5.164
 3437SOL    HW211211   4.142   0.016   5.070
 3438SOL     OW11212   0.877   2.533   6.613
 3438SOL    HW111213   0.867   2.438   6.640
 3438SOL    HW211214   0.956   2.573   6.658
 3439SOL     OW11215   2.733   6.609   4.376
 3439SOL    HW111216   2.682   6.545   4.434
 3439SOL    HW211217   2.703   6.599   4.282
 3440SOL     OW11218   4.808   3.373   1.077
 3440SOL    HW111219   4.715   3.381   1.041
 3440SOL    HW211220   4.865   3.323   1.012
 3441SOL     OW11221   2.788   0.269   3.814
 3441SOL    HW111222   2.837   0.333   3.755
 3441SOL    HW211223   2.819   0.176   3.797
 3442SOL     OW11224   1.803   5.078   3.668
 3442SOL    HW111225   1.802   5.104   3.765
 3442SOL    HW211226   1.852   4.992   3.657
 3443SOL     OW11227   6.154   1.865   2.916
 3443SOL    HW111228   6.075   1.865   2.854
 3443SOL    HW211229   6.125   1.835   3.007
 3444SOL     OW11230   4.729   5.399   0.364
 3444SOL    HW111231   4.784   5.454   0.426
 3444SOL    HW211232   4.673   5.459   0.307
 3445SOL     OW11233   6.744   4.732   4.268
 3445SOL    HW111234   6.700   4.659   4.215
 3445SOL    HW211235   6.843   4.719   4.266
 3446SOL     OW11236   4.036   0.196   2.823
 3446SOL    HW111237   4.019   0.195   2.725
 3446SOL    HW211238   4.101   0.269   2.845
 3447SOL     OW11239   5.458   6.522   0.305
 3447SOL    HW111240   5.454   6.528   0.205
 3447SOL    HW211241   5.451   6.426   0.333
 3448SOL     OW11242   3.632   1.065   1.800
 3448SOL    HW111243   3.598   1.012   1.878
 3448SOL    HW211244   3.563   1.133   1.773
 3449SOL     OW11245   6.611   0.028   2.665
 3449SOL    HW111246   6.578   0.008   2.757
 3449SOL    HW211247   6.685   6.980   2.642
 3450SOL     OW11248   0.817   1.696   1.856
 3450SOL    HW111249   0.816   1.793   1.882
 3450SOL    HW211250   0.723   1.662   1.849
 3451SOL     OW11251   1.261   5.786   3.827
 3451SOL    HW111252   1.283   5.852   3.899
 3451SOL    HW211253   1.333   5.790   3.756
 3452SOL     OW11254   6.098   1.278   0.684
 3452SOL    HW111255   6.190   1.240   0.689
 3452SOL    HW211256   6.031   1.206   0.703
 3453SOL     OW11257   5.754   5.558   4.572
 3453SOL    HW111258   5.718   5.523   4.659
 3453SOL    HW211259   5.738   5.656   4.566
 3454SOL     OW11260   1.336   1.182   0.827
 3454SOL    HW111261   1.418   1.125   0.831
 3454SOL    HW211262   1.281   1.156   0.747
 3455SOL     OW11263   1.704   2.694   4.543
 3455SOL    HW111264   1.710   2.699   4.443
 3455SOL    HW211265   1.621   2.643   4.568
 3456SOL     OW11266   5.660   6.821   1.600
 3456SOL    HW111267   5.750   6.779   1.598
 3456SOL    HW211268   5.614   6.808   1.513
 3457SOL     OW11269   2.678   4.836   3.587
 3457SOL    HW111270   2.776   4.822   3.574
 3457SOL    HW211271   2.648   4.912   3.529
 3458SOL     OW11272   5.782   6.911   0.877
 3458SOL    HW111273   5.856   6.882   0.816
 3458SOL    HW211274   5.813   6.904   0.972
 3459SOL     OW11275   0.270   4.874   3.710
 3459SOL    HW111276   0.346   4.936   3.690
 3459SOL    HW211277   0.190   4.900   3.657
 3460SOL     OW11278   4.499   2.678   6.974
 3460SOL    HW111279   4.478   2.603   0.022
 3460SOL    HW211280   4.536   2.756   0.009
 3461SOL     OW11281   3.734   5.882   4.199
 3461SOL    HW111282   3.663   5.825   4.158
 3461SOL    HW211283   3.805   5.899   4.131
 3462SOL     OW11284   4.942   3.702   2.935
 3462SOL    HW111285   4.891   3.786   2.950
 3462SOL    HW211286   4.979   3.701   2.842
 3463SOL     OW11287   2.290   2.897   1.213
 3463SOL    HW111288   2.253   2.858   1.128
 3463SOL    HW211289   2.373   2.949   1.192
 3464SOL     OW11290   4.972   3.093   6.334
 3464SOL    HW111291   5.024   3.012   6.305
 3464SOL    HW211292   5.010   3.129   6.419
 3465SOL     OW11293   2.070   3.669   1.855
 3465SOL    HW111294   2.102   3.578   1.881
 3465SOL    HW211295   2.116   3.738   1.911
 3466SOL     OW11296   5.485   4.695   5.276
 3466SOL    HW111297   5.388   4.671   5.276
 3466SOL    HW211298   5.515   4.711   5.182
 3467SOL     OW11299   2.646   2.399   1.008
 3467SOL    HW111300   2.736   2.420   0.969
 3467SOL    HW211301   2.653   2.319   1.068
 3468SOL     OW11302   4.552   1.431   1.455
 3468SOL    HW111303   4.648   1.408   1.472
 3468SOL    HW211304   4.535   1.436   1.357
 3469SOL     OW11305   4.458   6.776   5.842
 3469SOL    HW111306   4.440   6.682   5.869
 3469SOL    HW211307   4.481   6.780   5.745
 3470SOL     OW11308   6.995   2.516   2.193
 3470SOL    HW111309   6.975   2.606   2.154
 3470SOL    HW211310   0.077   2.504   2.200
 3471SOL     OW11311   4.693   4.128   3.136
 3471SOL    HW111312   4.682   4.173   3.224
 3471SOL    HW211313   4.684   4.195   3.062
 3472SOL     OW11314   4.553   2.036   3.406
 3472SOL    HW111315   4.463   2.028   3.449
 3472SOL    HW211316   4.618   1.975   3.452
 3473SOL     OW11317   6.892   3.961   3.542
 3473SOL    HW111318   6.898   3.911   3.628
 3473SOL    HW211319   6.829   3.913   3.480
 3474SOL     OW11320   6.360   5.189   4.762
 3474SOL    HW111321   6.455   5.178   4.733
 3474SOL    HW211322   6.302   5.126   4.709
 3475SOL     OW11323   0.088   4.554   3.978
 3475SOL    HW111324   0.079   4.524   4.073
 3475SOL    HW211325   0.120   4.649   3.975
 3476SOL     OW11326   1.348   1.627   3.276
 3476SOL    HW111327   1.310   1.704   3.327
 3476SOL    HW211328   1.387   1.660   3.190
 3477SOL     OW11329   0.388   3.934   1.505
 3477SOL    HW111330   0.428   3.996   1.438
 3477SOL    HW211331   0.445   3.930   1.586
 3478SOL     OW11332   2.237   0.062   7.012
 3478SOL    HW111333   2.154   0.107   0.030
 3478SOL    HW211334   2.212   7.007   6.948
 3479SOL     OW11335   0.771   3.347   3.573
 3479SOL    HW111336   0.700   3.412   3.600
 3479SOL    HW211337   0.840   3.341   3.645
 3480SOL     OW11338   1.024   5.856   6.969
 3480SOL    HW111339   1.001   5.850   0.050
 3480SOL    HW211340   1.047   5.950   6.946
 3481SOL     OW11341   6.213   0.441   6.625
 3481SOL    HW111342   6.230   0.533   6.591
 3481SOL    HW211343   6.230   0.437   6.723
 3482SOL     OW11344   5.745   3.570   4.409
 3482SOL    HW111345   5.721   3.573   4.506
 3482SOL    HW211346   5.784   3.658   4.381
 3483SOL     OW11347   4.448   2.150   3.741
 3483SOL    HW111348   4.541   2.113   3.743
 3483SOL    HW211349   4.383   2.076   3.754
 3484SOL     OW11350   1.916   3.580   6.479
 3484SOL    HW111351   1.843   3.611   6.418
 3484SOL    HW211352   1.988   3.537   6.425
 3485SOL     OW11353   0.157   1.629   5.358
 3485SOL    HW111354   0.177   1.713   5.410
 3485SOL    HW211355   0.063   1.600   5.375
 3486SOL     OW11356   2.266   0.325   4.726
 3486SOL    HW111357   2.278   0.247   4.788
 3486SOL    HW211358   2.353   0.345   4.681
 3487SOL     OW11359   5.979   1.752   6.639
 3487SOL    HW111360   5.995   1.656   6.665
 3487SOL    HW211361   5.888   1.760   6.597
 3488SOL     OW11362   5.912   0.431   4.299
 3488SOL    HW111363   5.945   0.412   4.207
 3488SOL    HW211364   5.817   0.403   4.308
 3489SOL     OW11365   3.218   0.282   0.680
 3489SOL    HW111366   3.255   0.374   0.670
 3489SOL    HW211367   3.120   0.283   0.661
 3490SOL     OW11368   4.333   5.011   0.685
 3490SOL    HW111369   4.405   5.072   0.717
 3490SOL    HW211370   4.372   4.941   0.626
 3491SOL     OW11371   5.277   3.945   0.150
 3491SOL    HW111372   5.330   3.973   0.230
 3491SOL    HW211373   5.179   3.955   0.170
 3492SOL     OW11374   5.715   4.299   2.423
 3492SOL    HW111375   5.711   4.200   2.405
 3492SOL    HW211376   5.769   4.315   2.506
 3493SOL     OW11377   6.136   3.610   4.388
 3493SOL    HW111378   6.098   3.519   4.400
 3493SOL    HW211379   6.208   3.608   4.319
 3494SOL     OW11380   3.442   1.788   2.455
 3494SOL    HW111381   3.401   1.876   2.478
 3494SOL    HW211382   3.530   1.802   2.410
 3495SOL     OW11383   1.171   3.489   2.068
 3495SOL    HW111384   1.213   3.457   2.152
 3495SOL    HW211385   1.226   3.459   1.990
 3496SOL     OW11386   6.821   5.040   0.485
 3496SOL    HW111387   6.889   5.102   0.523
 3496SOL    HW211388   6.839   5.025   0.388
 3497SOL     OW11389   4.180   0.516   2.749
 3497SOL    HW111390   4.182   0.497   2.847
 3497SOL    HW211391   4.097   0.567   2.726
 3498SOL     OW11392   2.254   1.830   1.460
 3498SOL    HW111393   2.329   1.791   1.514
 3498SOL    HW211394   2.199   1.889   1.518
 3499SOL     OW11395   5.871   5.563   5.497
 3499SOL    HW111396   5.971   5.565   5.499
 3499SOL    HW211397   5.835   5.649   5.533
 3500SOL     OW11398   1.364   1.568   3.686
 3500SOL    HW111399   1.287   1.589   3.747
 3500SOL    HW211400   1.410   1.653   3.661
 3501SOL     OW11401   2.122   0.129   6.275
 3501SOL    HW111402   2.069   0.142   6.359
 3501SOL    HW211403   2.122   0.213   6.222
 3502SOL     OW11404   5.369   3.288   1.634
 3502SOL    HW111405   5.380   3.258   1.539
 3502SOL    HW211406   5.400   3.215   1.695
 3503SOL     OW11407   6.537   6.032   6.243
 3503SOL    HW111408   6.446   6.020   6.203
 3503SOL    HW211409   6.539   6.116   6.297
 3504SOL     OW11410   1.210   1.033   2.105
 3504SOL    HW111411   1.167   1.087   2.177
 3504SOL    HW211412   1.146   1.020   2.029
 3505SOL     OW11413   5.704   5.093   5.576
 3505SOL    HW111414   5.798   5.073   5.549
 3505SOL    HW211415   5.641   5.054   5.510
 3506SOL     OW11416   5.388   4.669   4.678
 3506SOL    HW111417   5.466   4.614   4.646
 3506SOL    HW211418   5.326   4.684   4.601
 3507SOL     OW11419   2.369   0.248   0.343
 3507SOL    HW111420   2.270   0.231   0.344
 3507SOL    HW211421   2.397   0.287   0.431
 3508SOL     OW11422   3.218   2.584   5.302
 3508SOL    HW111423   3.218   2.497   5.252
 3508SOL    HW211424   3.124   2.618   5.308
 3509SOL     OW11425   4.412   5.931   0.248
 3509SOL    HW111426   4.394   5.908   0.152
 3509SOL    HW211427   4.384   6.025   0.265
 3510SOL     OW11428   1.951   0.596   1.134
 3510SOL    HW111429   2.042   0.626   1.160
 3510SOL    HW211430   1.958   0.513   1.079
 3511SOL     OW11431   2.163   4.543   1.542
 3511SOL    HW111432   2.117   4.470   1.492
 3511SOL    HW211433   2.143   4.535   1.639
 3512SOL     OW11434   1.186   4.147   0.089
 3512SOL    HW111435   1.114   4.207   0.056
 3512SOL    HW211436   1.219   4.180   0.177
 3513SOL     OW11437   6.184   2.262   0.571
 3513SOL    HW111438   6.193   2.255   0.671
 3513SOL    HW211439   6.210   2.175   0.529
 3514SOL     OW11440   5.360   0.680   2.674
 3514SOL    HW111441   5.277   0.678   2.618
 3514SOL    HW211442   5.436   0.644   2.620
 3515SOL     OW11443   5.724   5.874   4.546
 3515SOL    HW111444   5.651   5.917   4.601
 3515SOL    HW211445   5.690   5.856   4.454
 3516SOL     OW11446   5.328   0.367   1.071
 3516SOL    HW111447   5.344   0.464   1.057
 3516SOL    HW211448   5.337   0.319   0.984
 3517SOL     OW11449   6.836   1.512   0.439
 3517SOL    HW111450   6.749   1.543   0.401
 3517SOL    HW211451   6.906   1.514   0.368
 3518SOL     OW11452   6.179   1.789   4.835
 3518SOL    HW111453   6.173   1.715   4.768
 3518SOL    HW211454   6.118   1.863   4.807
 3519SOL     OW11455   3.173   0.937   0.288
 3519SOL    HW111456   3.195   1.034   0.280
 3519SOL    HW211457   3.074   0.927   0.300
 3520SOL     OW11458   2.935   5.395   5.362
 3520SOL    HW111459   2.994   5.468   5.397
 3520SOL    HW211460   2.848   5.396   5.412
 3521SOL     OW11461   3.069   3.323   6.794
 3521SOL    HW111462   2.983   3.371   6.809
 3521SOL    HW211463   3.111   3.302   6.882
 3522SOL     OW11464   6.404   5.614   6.553
 3522SOL    HW111465   6.490   5.611   6.605
 3522SOL    HW211466   6.329   5.634   6.615
 3523SOL     OW11467   1.670   4.768   5.559
 3523SOL    HW111468   1.641   4.776   5.464
 3523SOL    HW211469   1.598   4.725   5.613
 3524SOL     OW11470   6.191   2.024   3.477
 3524SOL    HW111471   6.123   2.014   3.404
 3524SOL    HW211472   6.239   2.110   3.466
 3525SOL     OW11473   6.238   4.795   4.211
 3525SOL    HW111474   6.183   4.878   4.204
 3525SOL    HW211475   6.324   4.814   4.257
 3526SOL     OW11476   1.155   5.954   3.218
 3526SOL    HW111477   1.111   5.865   3.205
 3526SOL    HW211478   1.252   5.939   3.240
 3527SOL     OW11479   6.292   2.589   5.894
 3527SOL    HW111480   6.375   2.548   5.857
 3527SOL    HW211481   6.232   2.518   5.930
 3528SOL     OW11482   2.614   6.550   5.558
 3528SOL    HW111483   2.618   6.625   5.492
 3528SOL    HW211484   2.681   6.481   5.533
 3529SOL     OW11485   5.047   5.670   0.143
 3529SOL    HW111486   5.048   5.692   0.240
 3529SOL    HW211487   5.123   5.609   0.122
 3530SOL     OW11488   0.036   5.922   2.255
 3530SOL    HW111489   7.010   5.881   2.335
 3530SOL    HW211490   7.011   5.883   2.172
 3531SOL     OW11491   4.674   1.706   1.857
 3531SOL    HW111492   4.656   1.716   1.759
 3531SOL    HW211493   4.649   1.790   1.905
 3532SOL     OW11494   1.913   1.032   2.183
 3532SOL    HW111495   1.869   1.112   2.222
 3532SOL    HW211496   1.958   0.979   2.255
 3533SOL     OW11497   6.534   1.648   2.626
 3533SOL    HW111498   6.613   1.626   2.684
 3533SOL    HW211499   6.450   1.626   2.676
 3534SOL     OW11500   0.344   2.153   2.329
 3534SOL    HW111501   0.439   2.179   2.315
 3534SOL    HW211502   0.287   2.235   2.326
 3535SOL     OW11503   2.757   5.030   5.233
 3535SOL    HW111504   2.815   4.949   5.219
 3535SOL    HW211505   2.667   5.014   5.195
 3536SOL     OW11506   3.426   1.884   3.273
 3536SOL    HW111507   3.439   1.976   3.237
 3536SOL    HW211508   3.446   1.817   3.201
 3537SOL     OW11509   1.282   5.720   3.072
 3537SOL    HW111510   1.232   5.652   3.125
 3537SOL    HW211511   1.333   5.780   3.133
 3538SOL     OW11512   3.223   5.545   5.169
 3538SOL    HW111513   3.128   5.556   5.142
 3538SOL    HW211514   3.239   5.451   5.200
 3539SOL     OW11515   3.269   4.053   4.529
 3539SOL    HW111516   3.325   4.080   4.451
 3539SOL    HW211517   3.287   3.957   4.551
 3540SOL     OW11518   1.808   1.917   4.131
 3540SOL    HW111519   1.769   1.829   4.104
 3540SOL    HW211520   1.746   1.991   4.102
 3541SOL     OW11521   3.185   3.356   5.070
 3541SOL    HW111522   3.210   3.336   4.976
 3541SOL    HW211523   3.159   3.452   5.079
 3542SOL     OW11524   1.511   4.635   2.891
 3542SOL    HW111525   1.608   4.656   2.878
 3542SOL    HW211526   1.485   4.659   2.985
 3543SOL     OW11527   5.418   2.309   4.236
 3543SOL    HW111528   5.342   2.338   4.294
 3543SOL    HW211529   5.471   2.389   4.208
 3544SOL     OW11530   2.222   4.081   6.779
 3544SOL    HW111531   2.219   3.990   6.738
 3544SOL    HW211532   2.183   4.147   6.715
 3545SOL     OW11533   4.532   5.440   6.196
 3545SOL    HW111534   4.455   5.503   6.206
 3545SOL    HW211535   4.498   5.350   6.166
 3546SOL     OW11536   0.097   5.607   3.430
 3546SOL    HW111537   0.087   5.697   3.473
 3546SOL    HW211538   0.066   5.611   3.335
 3547SOL     OW11539   3.838   5.158   3.775
 3547SOL    HW111540   3.900   5.140   3.699
 3547SOL    HW211541   3.751   5.194   3.739
 3548SOL     OW11542   4.941   2.254   5.808
 3548SOL    HW111543   4.959   2.299   5.721
 3548SOL    HW211544   4.897   2.318   5.871
 3549SOL     OW11545   6.361   4.712   3.419
 3549SOL    HW111546   6.299   4.638   3.442
 3549SOL    HW211547   6.373   4.772   3.498
 3550SOL     OW11548   5.146   2.169   3.367
 3550SOL    HW111549   5.213   2.122   3.425
 3550SOL    HW211550   5.064   2.189   3.420
 3551SOL     OW11551   3.608   6.160   2.457
 3551SOL    HW111552   3.602   6.092   2.383
 3551SOL    HW211553   3.547   6.133   2.532
 3552SOL     OW11554   5.158   5.947   2.913
 3552SOL    HW111555   5.107   5.987   2.990
 3552SOL    HW211556   5.223   5.879   2.948
 3553SOL     OW11557   5.466   2.469   2.455
 3553SOL    HW111558   5.461   2.549   2.515
 3553SOL    HW211559   5.418   2.392   2.497
 3554SOL     OW11560   4.366   4.185   6.562
 3554SOL    HW111561   4.330   4.145   6.478
 3554SOL    HW211562   4.293   4.234   6.610
 3555SOL     OW11563   0.907   3.592   3.012
 3555SOL    HW111564   1.007   3.593   3.006
 3555SOL    HW211565   0.880   3.571   3.105
 3556SOL     OW11566   3.001   0.326   5.354
 3556SOL    HW111567   3.022   0.418   5.324
 3556SOL    HW211568   2.909   0.301   5.325
 3557SOL     OW11569   1.824   0.216   4.499
 3557SOL    HW111570   1.912   0.262   4.514
 3557SOL    HW211571   1.775   0.262   4.426
 3558SOL     OW11572   0.026   5.957   1.776
 3558SOL    HW111573   0.060   6.007   1.855
 3558SOL    HW211574   6.974   6.012   1.728
 3559SOL     OW11575   0.826   0.765   4.556
 3559SOL    HW111576   0.864   0.857   4.544
 3559SOL    HW211577   0.764   0.764   4.635
 3560SOL     OW11578   0.946   5.774   1.050
 3560SOL    HW111579   0.946   5.852   1.113
 3560SOL    HW211580   0.926   5.805   0.958
 3561SOL     OW11581   4.861   4.239   5.761
 3561SOL    HW111582   4.890   4.147   5.788
 3561SOL    HW211583   4.879   4.303   5.836
 3562SOL     OW11584   5.567   0.225   3.599
 3562SOL    HW111585   5.646   0.198   3.543
 3562SOL    HW211586   5.539   0.148   3.656
 3563SOL     OW11587   5.113   1.116   1.085
 3563SOL    HW111588   5.127   1.034   1.030
 3563SOL    HW211589   5.162   1.108   1.171
 3564SOL     OW11590   0.263   4.444   4.676
 3564SOL    HW111591   0.278   4.496   4.760
 3564SOL    HW211592   0.351   4.414   4.639
 3565SOL     OW11593   2.553   0.849   4.212
 3565SOL    HW111594   2.592   0.769   4.258
 3565SOL    HW211595   2.502   0.819   4.131
 3566SOL     OW11596   6.874   3.296   5.889
 3566SOL    HW111597   6.908   3.315   5.981
 3566SOL    HW211598   6.779   3.266   5.894
 3567SOL     OW11599   0.319   3.329   0.938
 3567SOL    HW111600   0.252   3.262   0.969
 3567SOL    HW211601   0.329   3.401   1.007
 3568SOL     OW11602   4.443   4.448   2.967
 3568SOL    HW111603   4.454   4.447   3.066
 3568SOL    HW211604   4.350   4.477   2.944
 3569SOL     OW11605   2.891   3.619   4.359
 3569SOL    HW111606   2.797   3.640   4.333
 3569SOL    HW211607   2.914   3.526   4.331
 3570SOL     OW11608   6.613   1.818   5.802
 3570SOL    HW111609   6.672   1.857   5.873
 3570SOL    HW211610   6.668   1.785   5.726
 3571SOL     OW11611   1.803   6.571   5.177
 3571SOL    HW111612   1.749   6.586   5.095
 3571SOL    HW211613   1.756   6.610   5.256
 3572SOL     OW11614   5.218   4.398   1.274
 3572SOL    HW111615   5.282   4.344   1.219
 3572SOL    HW211616   5.132   4.409   1.225
 3573SOL     OW11617   6.402   3.817   1.829
 3573SOL    HW111618   6.489   3.866   1.833
 3573SOL    HW211619   6.326   3.882   1.830
 3574SOL     OW11620   2.766   3.218   6.004
 3574SOL    HW111621   2.724   3.162   5.933
 3574SOL    HW211622   2.711   3.299   6.020
 3575SOL     OW11623   4.942   6.610   0.614
 3575SOL    HW111624   4.990   6.572   0.535
 3575SOL    HW211625   5.006   6.668   0.666
 3576SOL     OW11626   0.577   3.235   0.286
 3576SOL    HW111627   0.490   3.280   0.269
 3576SOL    HW211628   0.651   3.302   0.283
 3577SOL     OW11629   2.216   2.653   5.463
 3577SOL    HW111630   2.116   2.663   5.469
 3577SOL    HW211631   2.255   2.735   5.422
 3578SOL     OW11632   3.172   2.797   6.615
 3578SOL    HW111633   3.171   2.722   6.548
 3578SOL    HW211634   3.263   2.803   6.656
 3579SOL     OW11635   0.240   3.643   2.506
 3579SOL    HW111636   0.295   3.604   2.431
 3579SOL    HW211637   0.275   3.733   2.530
 3580SOL     OW11638   0.449   3.720   1.682
 3580SOL    HW111639   0.548   3.710   1.673
 3580SOL    HW211640   0.405   3.633   1.663
 3581SOL     OW11641   0.498   0.197   2.257
 3581SOL    HW111642   0.466   0.289   2.278
 3581SOL    HW211643   0.463   0.169   2.167
 3582SOL     OW11644   3.738   3.949   5.831
 3582SOL    HW111645   3.747   3.996   5.743
 3582SOL    HW211646   3.642   3.943   5.856
 3583SOL     OW11647   0.251   4.669   1.405
 3583SOL    HW111648   0.196   4.631   1.330
 3583SOL    HW211649   0.233   4.617   1.488
 3584SOL     OW11650   5.210   4.536   5.293
 3584SOL    HW111651   5.123   4.508   5.334
 3584SOL    HW211652   5.205   4.524   5.194
 3585SOL     OW11653   2.722   1.879   4.042
 3585SOL    HW111654   2.740   1.817   4.119
 3585SOL    HW211655   2.808   1.904   3.998
 3586SOL     OW11656   6.373   3.128   3.905
 3586SOL    HW111657   6.278   3.102   3.891
 3586SOL    HW211658   6.432   3.051   3.882
 3587SOL     OW11659   3.813   6.816   6.585
 3587SOL    HW111660   3.792   6.890   6.521
 3587SOL    HW211661   3.728   6.777   6.619
 3588SOL     OW11662   6.817   4.369   4.337
 3588SOL    HW111663   6.744   4.375   4.269
 3588SOL    HW211664   6.779   4.338   4.424
 3589SOL     OW11665   0.300   0.001   6.268
 3589SOL    HW111666   0.261   0.032   6.354
 3589SOL    HW211667   0.297   0.076   6.201
 3590SOL     OW11668   0.078   4.683   0.693
 3590SOL    HW111669   0.066   4.715   0.599
 3590SOL    HW211670   0.031   4.595   0.704
 3591SOL     OW11671   5.468   2.081   6.447
 3591SOL    HW111672   5.537   2.026   6.400
 3591SOL    HW211673   5.455   2.167   6.398
 3592SOL     OW11674   1.631   6.967   1.730
 3592SOL    HW111675   1.689   0.018   1.683
 3592SOL    HW211676   1.643   6.877   1.688
 3593SOL     OW11677   5.372   3.088   6.169
 3593SOL    HW111678   5.472   3.078   6.162
 3593SOL    HW211679   5.328   3.006   6.132
 3594SOL     OW11680   3.990   5.080   4.055
 3594SOL    HW111681   3.955   5.081   3.961
 3594SOL    HW211682   4.064   5.013   4.062
 3595SOL     OW11683   5.635   5.947   6.130
 3595SOL    HW111684   5.626   6.043   6.105
 3595SOL    HW211685   5.587   5.890   6.063
 3596SOL     OW11686   3.365   1.256   3.463
 3596SOL    HW111687   3.460   1.286   3.467
 3596SOL    HW211688   3.316   1.293   3.542
 3597SOL     OW11689   2.341   3.397   5.306
 3597SOL    HW111690   2.282   3.320   5.283
 3597SOL    HW211691   2.293   3.482   5.289
 3598SOL     OW11692   1.796   5.546   4.538
 3598SOL    HW111693   1.782   5.523   4.442
 3598SOL    HW211694   1.708   5.550   4.585
 3599SOL     OW11695   4.910   1.821   5.123
 3599SOL    HW111696   4.861   1.899   5.161
 3599SOL    HW211697   4.978   1.854   5.057
 3600SOL     OW11698   3.539   3.399   0.665
 3600SOL    HW111699   3.449   3.441   0.650
 3600SOL    HW211700   3.611   3.463   0.639
 3601SOL     OW11701   4.927   0.893   5.040
 3601SOL    HW111702   4.967   0.923   5.127
 3601SOL    HW211703   4.999   0.856   4.981
 3602SOL     OW11704   2.513   2.173   1.281
 3602SOL    HW111705   2.497   2.192   1.378
 3602SOL    HW211706   2.429   2.140   1.238
 3603SOL     OW11707   3.136   1.189   5.709
 3603SOL    HW111708   3.205   1.246   5.755
 3603SOL    HW211709   3.066   1.249   5.669
 3604SOL     OW11710   6.441   0.443   3.663
 3604SOL    HW111711   6.453   0.504   3.585
 3604SOL    HW211712   6.526   0.441   3.717
 3605SOL     OW11713   1.067   5.758   3.551
 3605SOL    HW111714   0.981   5.792   3.587
 3605SOL    HW211715   1.142   5.785   3.611
 3606SOL     OW11716   2.400   6.794   1.525
 3606SOL    HW111717   2.370   6.747   1.607
 3606SOL    HW211718   2.320   6.824   1.472
 3607SOL     OW11719   5.003   2.443   2.778
 3607SOL    HW111720   4.914   2.471   2.814
 3607SOL    HW211721   5.036   2.512   2.714
 3608SOL     OW11722   3.367   2.119   4.631
 3608SOL    HW111723   3.403   2.092   4.720
 3608SOL    HW211724   3.395   2.212   4.610
 3609SOL     OW11725   2.321   6.742   4.669
 3609SOL    HW111726   2.401   6.735   4.610
 3609SOL    HW211727   2.242   6.771   4.615
 3610SOL     OW11728   2.318   6.389   4.934
 3610SOL    HW111729   2.297   6.404   4.838
 3610SOL    HW211730   2.235   6.395   4.988
 3611SOL     OW11731   5.292   4.633   3.384
 3611SOL    HW111732   5.376   4.662   3.338
 3611SOL    HW211733   5.287   4.533   3.384
 3612SOL     OW11734   5.726   1.334   6.722
 3612SOL    HW111735   5.771   1.280   6.793
 3612SOL    HW211736   5.766   1.426   6.720
 3613SOL     OW11737   3.339   5.283   0.958
 3613SOL    HW111738   3.369   5.325   1.044
 3613SOL    HW211739   3.405   5.214   0.930
 3614SOL     OW11740   3.766   4.185   6.366
 3614SOL    HW111741   3.861   4.192   6.396
 3614SOL    HW211742   3.763   4.172   6.267
 3615SOL     OW11743   6.169   2.545   5.622
 3615SOL    HW111744   6.269   2.546   5.619
 3615SOL    HW211745   6.133   2.610   5.555
 3616SOL     OW11746   1.518   1.777   6.718
 3616SOL    HW111747   1.497   1.820   6.630
 3616SOL    HW211748   1.543   1.681   6.703
 3617SOL     OW11749   3.818   6.281   6.303
 3617SOL    HW111750   3.780   6.249   6.390
 3617SOL    HW211751   3.810   6.380   6.298
 3618SOL     OW11752   1.796   4.007   4.750
 3618SOL    HW111753   1.804   3.987   4.848
 3618SOL    HW211754   1.882   4.047   4.717
 3619SOL     OW11755   6.045   2.939   1.266
 3619SOL    HW111756   6.107   2.908   1.195
 3619SOL    HW211757   5.991   3.016   1.232
 3620SOL     OW11758   6.012   6.492   5.162
 3620SOL    HW111759   6.032   6.394   5.154
 3620SOL    HW211760   6.093   6.544   5.134
 3621SOL     OW11761   3.000   3.224   3.724
 3621SOL    HW111762   3.035   3.168   3.648
 3621SOL    HW211763   2.906   3.199   3.744
 3622SOL     OW11764   0.865   6.830   0.101
 3622SOL    HW111765   0.948   6.779   0.078
 3622SOL    HW211766   0.864   6.849   0.199
 3623SOL     OW11767   0.909   4.839   5.888
 3623SOL    HW111768   0.826   4.876   5.929
 3623SOL    HW211769   0.989   4.881   5.931
 3624SOL     OW11770   3.216   0.985   2.448
 3624SOL    HW111771   3.278   0.917   2.487
 3624SOL    HW211772   3.154   1.017   2.518
 3625SOL     OW11773   0.226   2.270   0.745
 3625SOL    HW111774   0.293   2.258   0.819
 3625SOL    HW211775   0.153   2.331   0.777
 3626SOL     OW11776   0.997   2.198   4.889
 3626SOL    HW111777   0.963   2.289   4.913
 3626SOL    HW211778   1.063   2.206   4.814
 3627SOL     OW11779   3.977   2.269   1.599
 3627SOL    HW111780   3.957   2.301   1.506
 3627SOL    HW211781   4.067   2.225   1.600
 3628SOL     OW11782   6.756   1.877   1.905
 3628SOL    HW111783   6.746   1.976   1.910
 3628SOL    HW211784   6.811   1.845   1.982
 3629SOL     OW11785   1.633   1.385   4.459
 3629SOL    HW111786   1.704   1.432   4.406
 3629SOL    HW211787   1.566   1.345   4.397
 3630SOL     OW11788   6.677   2.398   3.698
 3630SOL    HW111789   6.705   2.332   3.768
 3630SOL    HW211790   6.577   2.399   3.693
 3631SOL     OW11791   1.587   6.689   2.066
 3631SOL    HW111792   1.632   6.611   2.025
 3631SOL    HW211793   1.519   6.658   2.132
 3632SOL     OW11794   5.093   3.860   1.145
 3632SOL    HW111795   5.122   3.949   1.180
 3632SOL    HW211796   5.174   3.802   1.133
 3633SOL     OW11797   3.803   3.131   6.170
 3633SOL    HW111798   3.766   3.111   6.080
 3633SOL    HW211799   3.800   3.048   6.226
 3634SOL     OW11800   3.102   5.177   6.704
 3634SOL    HW111801   3.167   5.235   6.754
 3634SOL    HW211802   3.024   5.233   6.674
 3635SOL     OW11803   2.745   0.243   1.322
 3635SOL    HW111804   2.679   0.285   1.260
 3635SOL    HW211805   2.785   0.313   1.381
 3636SOL     OW11806   1.129   4.704   6.910
 3636SOL    HW111807   1.133   4.606   6.932
 3636SOL    HW211808   1.151   4.717   6.814
 3637SOL     OW11809   6.857   2.894   6.563
 3637SOL    HW111810   6.944   2.930   6.597
 3637SOL    HW211811   6.782   2.927   6.620
 3638SOL     OW11812   5.667   4.589   2.720
 3638SOL    HW111813   5.622   4.667   2.677
 3638SOL    HW211814   5.635   4.504   2.678
 3639SOL     OW11815   3.370   3.785   4.530
 3639SOL    HW111816   3.469   3.770   4.529
 3639SOL    HW211817   3.334   3.760   4.620
 3640SOL     OW11818   5.654   1.843   0.815
 3640SOL    HW111819   5.564   1.874   0.785
 3640SOL    HW211820   5.688   1.774   0.751
 3641SOL     OW11821   6.247   3.546   2.199
 3641SOL    HW111822   6.330   3.562   2.252
 3641SOL    HW211823   6.168   3.578   2.250
 3642SOL     OW11824   6.398   3.137   6.182
 3642SOL    HW111825   6.351   3.095   6.105
 3642SOL    HW211826   6.342   3.127   6.265
 3643SOL     OW11827   4.060   5.290   5.300
 3643SOL    HW111828   4.018   5.381   5.302
 3643SOL    HW211829   4.082   5.261   5.393
 3644SOL     OW11830   2.711   0.851   2.031
 3644SOL    HW111831   2.788   0.861   2.094
 3644SOL    HW211832   2.744   0.857   1.937
 3645SOL     OW11833   1.790   4.253   4.028
 3645SOL    HW111834   1.744   4.304   3.955
 3645SOL    HW211835   1.888   4.254   4.012
 3646SOL     OW11836   2.222   4.302   4.872
 3646SOL    HW111837   2.148   4.345   4.924
 3646SOL    HW211838   2.236   4.209   4.905
 3647SOL     OW11839   3.287   6.995   0.282
 3647SOL    HW111840   3.288   0.068   0.237
 3647SOL    HW211841   3.193   6.968   0.302
 3648SOL     OW11842   4.155   5.417   3.522
 3648SOL    HW111843   4.171   5.465   3.435
 3648SOL    HW211844   4.189   5.323   3.515
 3649SOL     OW11845   5.731   2.722   6.844
 3649SOL    HW111846   5.686   2.633   6.834
 3649SOL    HW211847   5.723   2.753   6.938
 3650SOL     OW11848   5.876   5.395   0.130
 3650SOL    HW111849   5.792   5.441   0.102
 3650SOL    HW211850   5.868   5.366   0.225
 3651SOL     OW11851   0.719   2.482   6.052
 3651SOL    HW111852   0.794   2.547   6.067
 3651SOL    HW211853   0.633   2.524   6.081
 3652SOL     OW11854   4.505   1.500   2.286
 3652SOL    HW111855   4.537   1.512   2.192
 3652SOL    HW211856   4.468   1.407   2.297
 3653SOL     OW11857   0.688   1.534   1.371
 3653SOL    HW111858   0.634   1.545   1.288
 3653SOL    HW211859   0.681   1.616   1.427
 3654SOL     OW11860   5.236   0.588   0.744
 3654SOL    HW111861   5.136   0.587   0.736
 3654SOL    HW211862   5.276   0.546   0.663
 3655SOL     OW11863   1.609   2.420   4.231
 3655SOL    HW111864   1.624   2.398   4.327
 3655SOL    HW211865   1.641   2.512   4.212
 3656SOL     OW11866   7.016   6.812   1.908
 3656SOL    HW111867   0.022   6.748   1.835
 3656SOL    HW211868   0.084   6.853   1.944
 3657SOL     OW11869   4.932   6.177   4.937
 3657SOL    HW111870   4.867   6.120   4.989
 3657SOL    HW211871   4.894   6.194   4.846
 3658SOL     OW11872   1.414   4.706   6.222
 3658SOL    HW111873   1.489   4.672   6.279
 3658SOL    HW211874   1.452   4.764   6.149
 3659SOL     OW11875   6.739   1.353   6.355
 3659SOL    HW111876   6.655   1.350   6.410
 3659SOL    HW211877   6.749   1.444   6.315
 3660SOL     OW11878   5.662   5.275   6.129
 3660SOL    HW111879   5.687   5.194   6.077
 3660SOL    HW211880   5.563   5.276   6.144
 3661SOL     OW11881   0.267   2.267   4.815
 3661SOL    HW111882   0.170   2.258   4.833
 3661SOL    HW211883   0.281   2.319   4.730
 3662SOL     OW11884   2.858   1.164   5.629
 3662SOL    HW111885   2.859   1.082   5.572
 3662SOL    HW211886   2.841   1.244   5.572
 3663SOL     OW11887   2.357   2.166   6.477
 3663SOL    HW111888   2.385   2.257   6.507
 3663SOL    HW211889   2.284   2.174   6.409
 3664SOL     OW11890   4.102   1.079   2.097
 3664SOL    HW111891   4.065   1.081   2.189
 3664SOL    HW211892   4.150   1.165   2.078
 3665SOL     OW11893   0.916   6.111   6.087
 3665SOL    HW111894   0.991   6.140   6.027
 3665SOL    HW211895   0.879   6.191   6.135
 3666SOL     OW11896   2.201   2.415   4.974
 3666SOL    HW111897   2.286   2.445   4.932
 3666SOL    HW211898   2.169   2.484   5.039
 3667SOL     OW11899   1.341   0.638   2.659
 3667SOL    HW111900   1.301   0.659   2.571
 3667SOL    HW211901   1.274   0.653   2.732
 3668SOL     OW11902   0.323   1.021   1.675
 3668SOL    HW111903   0.328   1.058   1.582
 3668SOL    HW211904   0.373   1.081   1.737
 3669SOL     OW11905   0.312   1.277   3.870
 3669SOL    HW111906   0.243   1.348   3.882
 3669SOL    HW211907   0.267   1.190   3.849
 3670SOL     OW11908   3.150   5.523   1.781
 3670SOL    HW111909   3.249   5.509   1.783
 3670SOL    HW211910   3.104   5.434   1.777
 3671SOL     OW11911   6.488   0.180   3.650
 3671SOL    HW111912   6.466   0.278   3.656
 3671SOL    HW211913   6.499   0.143   3.743
 3672SOL     OW11914   4.040   6.927   2.807
 3672SOL    HW111915   3.965   6.869   2.839
 3672SOL    HW211916   4.030   0.002   2.848
 3673SOL     OW11917   4.123   5.887   1.129
 3673SOL    HW111918   4.099   5.979   1.101
 3673SOL    HW211919   4.096   5.822   1.058
 3674SOL     OW11920   1.146   4.883   6.012
 3674SOL    HW111921   1.158   4.794   6.055
 3674SOL    HW211922   1.225   4.941   6.034
 3675SOL     OW11923   1.029   0.910   3.961
 3675SOL    HW111924   1.026   0.979   3.888
 3675SOL    HW211925   1.017   0.955   4.049
 3676SOL     OW11926   3.966   1.715   4.011
 3676SOL    HW111927   3.923   1.696   3.922
 3676SOL    HW211928   3.969   1.814   4.025
 3677SOL     OW11929   2.424   0.411   4.183
 3677SOL    HW111930   2.420   0.403   4.282
 3677SOL    HW211931   2.403   0.505   4.156
 3678SOL     OW11932   1.446   0.563   3.675
 3678SOL    HW111933   1.377   0.620   3.629
 3678SOL    HW211934   1.402   0.510   3.748
 3679SOL     OW11935   4.662   0.754   2.600
 3679SOL    HW111936   4.588   0.821   2.613
 3679SOL    HW211937   4.623   0.662   2.594
 3680SOL     OW11938   4.025   1.583   4.560
 3680SOL    HW111939   4.064   1.549   4.474
 3680SOL    HW211940   3.946   1.640   4.540
 3681SOL     OW11941   1.969   6.145   4.587
 3681SOL    HW111942   2.013   6.118   4.673
 3681SOL    HW211943   1.974   6.070   4.522
 3682SOL     OW11944   5.533   1.620   1.523
 3682SOL    HW111945   5.477   1.588   1.600
 3682SOL    HW211946   5.585   1.701   1.552
 3683SOL     OW11947   5.662   1.308   5.768
 3683SOL    HW111948   5.667   1.403   5.738
 3683SOL    HW211949   5.572   1.290   5.807
 3684SOL     OW11950   2.292   6.663   5.662
 3684SOL    HW111951   2.299   6.733   5.591
 3684SOL    HW211952   2.343   6.692   5.743
 3685SOL     OW11953   2.067   6.545   5.614
 3685SOL    HW111954   2.154   6.580   5.649
 3685SOL    HW211955   2.062   6.563   5.516
 3686SOL     OW11956   1.134   4.083   3.720
 3686SOL    HW111957   1.190   4.059   3.641
 3686SOL    HW211958   1.193   4.112   3.795
 3687SOL     OW11959   5.617   5.470   4.350
 3687SOL    HW111960   5.664   5.515   4.426
 3687SOL    HW211961   5.521   5.498   4.349
 3688SOL     OW11962   5.924   2.823   0.729
 3688SOL    HW111963   5.873   2.753   0.679
 3688SOL    HW211964   6.009   2.783   0.765
 3689SOL     OW11965   1.809   6.418   5.658
 3689SOL    HW111966   1.900   6.440   5.621
 3689SOL    HW211967   1.771   6.498   5.704
 3690SOL     OW11968   5.146   5.322   1.380
 3690SOL    HW111969   5.089   5.404   1.385
 3690SOL    HW211970   5.113   5.254   1.445
 3691SOL     OW11971   1.928   2.361   0.446
 3691SOL    HW111972   1.998   2.349   0.516
 3691SOL    HW211973   1.861   2.428   0.476
 3692SOL     OW11974   0.569   3.470   5.883
 3692SOL    HW111975   0.562   3.425   5.972
 3692SOL    HW211976   0.538   3.565   5.891
 3693SOL     OW11977   6.685   1.353   2.227
 3693SOL    HW111978   6.737   1.318   2.304
 3693SOL    HW211979   6.733   1.430   2.186
 3694SOL     OW11980   6.410   0.903   1.870
 3694SOL    HW111981   6.395   0.946   1.959
 3694SOL    HW211982   6.330   0.848   1.845
 3695SOL     OW11983   6.268   3.139   2.422
 3695SOL    HW111984   6.229   3.167   2.334
 3695SOL    HW211985   6.368   3.139   2.415
 3696SOL     OW11986   4.128   0.792   4.451
 3696SOL    HW111987   4.140   0.695   4.426
 3696SOL    HW211988   4.057   0.800   4.521
 3697SOL     OW11989   0.187   6.151   3.319
 3697SOL    HW111990   0.273   6.146   3.268
 3697SOL    HW211991   0.113   6.176   3.257
 3698SOL     OW11992   1.672   0.505   2.900
 3698SOL    HW111993   1.611   0.427   2.914
 3698SOL    HW211994   1.766   0.473   2.895
 3699SOL     OW11995   2.511   2.493   3.668
 3699SOL    HW111996   2.463   2.569   3.713
 3699SOL    HW211997   2.573   2.449   3.734
 3700SOL     OW11998   1.093   4.814   4.085
 3700SOL    HW111999   1.011   4.851   4.041
 3700SOL    HW212000   1.071   4.728   4.132
 3701SOL     OW12001   1.816   0.811   2.536
 3701SOL    HW112002   1.763   0.894   2.553
 3701SOL    HW212003   1.770   0.733   2.579
 3702SOL     OW12004   5.216   4.288   3.599
 3702SOL    HW112005   5.228   4.319   3.504
 3702SOL    HW212006   5.187   4.192   3.598
 3703SOL     OW12007   1.214   1.365   4.243
 3703SOL    HW112008   1.180   1.273   4.225
 3703SOL    HW212009   1.145   1.415   4.296
 3704SOL     OW12010   6.605   2.290   0.827
 3704SOL    HW112011   6.556   2.364   0.873
 3704SOL    HW212012   6.591   2.297   0.728
 3705SOL     OW12013   5.180   4.920   2.782
 3705SOL    HW112014   5.125   4.836   2.783
 3705SOL    HW212015   5.257   4.910   2.845
 3706SOL     OW12016   0.748   3.731   0.387
 3706SOL    HW112017   0.704   3.704   0.301
 3706SOL    HW212018   0.704   3.683   0.463
 3707SOL     OW12019   1.200   5.145   3.791
 3707SOL    HW112020   1.177   5.049   3.777
 3707SOL    HW212021   1.228   5.186   3.704
 3708SOL     OW12022   3.285   6.634   0.965
 3708SOL    HW112023   3.325   6.697   1.032
 3708SOL    HW212024   3.343   6.554   0.956
 3709SOL     OW12025   1.345   1.527   2.541
 3709SOL    HW112026   1.315   1.577   2.460
 3709SOL    HW212027   1.294   1.558   2.621
 3710SOL     OW12028   6.902   4.800   5.575
 3710SOL    HW112029   6.864   4.784   5.666
 3710SOL    HW212030   6.967   4.876   5.578
 3711SOL     OW12031   1.756   5.853   4.273
 3711SOL    HW112032   1.694   5.921   4.233
 3711SOL    HW212033   1.704   5.775   4.307
 3712SOL     OW12034   1.994   5.138   4.657
 3712SOL    HW112035   1.895   5.140   4.640
 3712SOL    HW212036   2.016   5.063   4.719
 3713SOL     OW12037   5.772   6.852   4.353
 3713SOL    HW112038   5.767   6.783   4.280
 3713SOL    HW212039   5.697   6.837   4.417
 3714SOL     OW12040   0.542   4.610   0.881
 3714SOL    HW112041   0.496   4.555   0.951
 3714SOL    HW212042   0.477   4.632   0.808
 3715SOL     OW12043   5.691   5.464   3.410
 3715SOL    HW112044   5.771   5.406   3.397
 3715SOL    HW212045   5.644   5.476   3.323
 3716SOL     OW12046   4.964   5.764   4.102
 3716SOL    HW112047   4.913   5.848   4.085
 3716SOL    HW212048   5.042   5.759   4.038
 3717SOL     OW12049   4.318   1.203   0.967
 3717SOL    HW112050   4.360   1.293   0.972
 3717SOL    HW212051   4.382   1.138   0.926
 3718SOL     OW12052   6.843   0.170   5.490
 3718SOL    HW112053   6.860   0.265   5.517
 3718SOL    HW212054   6.801   0.121   5.567
 3719SOL     OW12055   3.617   4.014   6.551
 3719SOL    HW112056   3.631   4.013   6.650
 3719SOL    HW212057   3.697   4.056   6.507
 3720SOL     OW12058   0.326   2.961   1.344
 3720SOL    HW112059   0.340   3.020   1.265
 3720SOL    HW212060   0.299   2.869   1.313
 3721SOL     OW12061   6.307   5.381   6.076
 3721SOL    HW112062   6.316   5.408   6.172
 3721SOL    HW212063   6.210   5.367   6.054
 3722SOL     OW12064   4.691   6.347   3.445
 3722SOL    HW112065   4.720   6.400   3.365
 3722SOL    HW212066   4.769   6.297   3.481
 3723SOL     OW12067   4.812   3.676   0.189
 3723SOL    HW112068   4.856   3.762   0.164
 3723SOL    HW212069   4.881   3.603   0.189
 3724SOL     OW12070   1.250   4.670   4.944
 3724SOL    HW112071   1.223   4.767   4.948
 3724SOL    HW212072   1.348   4.661   4.961
 3725SOL     OW12073   0.707   5.435   0.120
 3725SOL    HW112074   0.609   5.445   0.135
 3725SOL    HW212075   0.737   5.496   0.047
 3726SOL     OW12076   6.110   3.818   4.552
 3726SOL    HW112077   6.056   3.777   4.625
 3726SOL    HW212078   6.108   3.758   4.472
 3727SOL     OW12079   6.323   3.848   3.726
 3727SOL    HW112080   6.338   3.946   3.714
 3727SOL    HW212081   6.255   3.833   3.799
 3728SOL     OW12082   3.244   2.647   0.271
 3728SOL    HW112083   3.203   2.574   0.217
 3728SOL    HW212084   3.344   2.645   0.259
 3729SOL     OW12085   0.624   0.425   5.441
 3729SOL    HW112086   0.578   0.351   5.393
 3729SOL    HW212087   0.681   0.387   5.514
 3730SOL     OW12088   3.609   6.160   4.288
 3730SOL    HW112089   3.642   6.109   4.367
 3730SOL    HW212090   3.646   6.253   4.290
 3731SOL     OW12091   0.469   2.218   6.859
 3731SOL    HW112092   0.471   2.131   6.908
 3731SOL    HW212093   0.388   2.270   6.887
 3732SOL     OW12094   3.173   2.137   6.419
 3732SOL    HW112095   3.257   2.192   6.421
 3732SOL    HW212096   3.097   2.191   6.453
 3733SOL     OW12097   1.924   1.576   3.623
 3733SOL    HW112098   1.830   1.549   3.640
 3733SOL    HW212099   1.985   1.501   3.647
 3734SOL     OW12100   4.346   6.806   0.704
 3734SOL    HW112101   4.328   6.825   0.801
 3734SOL    HW212102   4.442   6.825   0.684
 3735SOL     OW12103   4.254   0.065   2.448
 3735SOL    HW112104   4.178   0.130   2.442
 3735SOL    HW212105   4.233   7.000   2.393
 3736SOL     OW12106   6.867   1.240   1.282
 3736SOL    HW112107   6.771   1.215   1.290
 3736SOL    HW212108   6.920   1.161   1.253
 3737SOL     OW12109   7.012   2.799   2.775
 3737SOL    HW112110   0.007   2.895   2.799
 3737SOL    HW212111   0.084   2.762   2.745
 3738SOL     OW12112   6.996   6.658   1.314
 3738SOL    HW112113   0.068   6.705   1.316
 3738SOL    HW212114   6.936   6.697   1.384
 3739SOL     OW12115   3.005   3.723   0.604
 3739SOL    HW112116   3.019   3.625   0.612
 3739SOL    HW212117   3.023   3.766   0.693
 3740SOL     OW12118   5.114   5.380   6.546
 3740SOL    HW112119   5.076   5.290   6.565
 3740SOL    HW212120   5.093   5.407   6.452
 3741SOL     OW12121   5.030   3.575   0.083
 3741SOL    HW112122   5.107   3.528   0.040
 3741SOL    HW212123   5.018   3.665   0.041
 3742SOL     OW12124   3.868   5.379   0.011
 3742SOL    HW112125   3.931   5.349   6.956
 3742SOL    HW212126   3.836   5.300   0.062
 3743SOL     OW12127   4.240   3.313   1.703
 3743SOL    HW112128   4.151   3.348   1.735
 3743SOL    HW212129   4.289   3.386   1.655
 3744SOL     OW12130   0.659   0.318   1.837
 3744SOL    HW112131   0.677   0.226   1.872
 3744SOL    HW212132   0.560   0.335   1.838
 3745SOL     OW12133   5.125   3.712   2.235
 3745SOL    HW112134   5.137   3.753   2.145
 3745SOL    HW212135   5.171   3.623   2.238
 3746SOL     OW12136   6.463   0.548   4.589
 3746SOL    HW112137   6.400   0.487   4.637
 3746SOL    HW212138   6.425   0.641   4.588
 3747SOL     OW12139   3.156   6.367   5.736
 3747SOL    HW112140   3.124   6.366   5.641
 3747SOL    HW212141   3.132   6.455   5.778
 3748SOL     OW12142   5.409   1.488   2.963
 3748SOL    HW112143   5.460   1.403   2.975
 3748SOL    HW212144   5.346   1.499   3.040
 3749SOL     OW12145   6.976   6.577   2.695
 3749SOL    HW112146   0.039   6.589   2.636
 3749SOL    HW212147   6.995   6.617   2.785
 3750SOL     OW12148   5.744   4.162   0.472
 3750SOL    HW112149   5.805   4.088   0.442
 3750SOL    HW212150   5.747   4.168   0.572
 3751SOL     OW12151   2.156   3.753   2.464
 3751SOL    HW112152   2.182   3.831   2.407
 3751SOL    HW212153   2.119   3.681   2.406
 3752SOL     OW12154   0.783   6.209   6.852
 3752SOL    HW112155   0.734   6.226   6.766
 3752SOL    HW212156   0.743   6.131   6.899
 3753SOL     OW12157   6.404   6.565   4.367
 3753SOL    HW112158   6.374   6.472   4.390
 3753SOL    HW212159   6.350   6.631   4.418
 3754SOL     OW12160   6.640   6.156   1.220
 3754SOL    HW112161   6.679   6.102   1.295
 3754SOL    HW212162   6.604   6.242   1.256
 3755SOL     OW12163   5.296   3.902   3.328
 3755SOL    HW112164   5.370   3.840   3.302
 3755SOL    HW212165   5.208   3.858   3.310
 3756SOL     OW12166   3.032   0.590   6.962
 3756SOL    HW112167   3.068   0.626   0.032
 3756SOL    HW212168   3.094   0.520   6.926
 3757SOL     OW12169   2.895   5.370   6.692
 3757SOL    HW112170   2.896   5.382   6.791
 3757SOL    HW212171   2.843   5.444   6.650
 3758SOL     OW12172   2.299   1.515   4.175
 3758SOL    HW112173   2.336   1.513   4.268
 3758SOL    HW212174   2.200   1.501   4.178
 3759SOL     OW12175   4.814   4.786   6.289
 3759SOL    HW112176   4.871   4.811   6.211
 3759SOL    HW212177   4.732   4.842   6.290
 3760SOL     OW12178   1.359   2.596   4.833
 3760SOL    HW112179   1.358   2.611   4.931
 3760SOL    HW212180   1.370   2.683   4.786
 3761SOL     OW12181   0.270   6.146   4.248
 3761SOL    HW112182   0.222   6.111   4.167
 3761SOL    HW212183   0.207   6.201   4.303
 3762SOL     OW12184   0.330   4.105   0.583
 3762SOL    HW112185   0.383   4.138   0.661
 3762SOL    HW212186   0.312   4.007   0.594
 3763SOL     OW12187   6.945   3.415   6.615
 3763SOL    HW112188   6.907   3.364   6.538
 3763SOL    HW212189   6.932   3.513   6.600
 3764SOL     OW12190   2.559   6.661   3.542
 3764SOL    HW112191   2.527   6.754   3.562
 3764SOL    HW212192   2.637   6.664   3.481
 3765SOL     OW12193   5.926   0.716   4.603
 3765SOL    HW112194   6.006   0.657   4.611
 3765SOL    HW212195   5.843   0.660   4.610
 3766SOL     OW12196   1.528   0.775   4.746
 3766SOL    HW112197   1.574   0.847   4.694
 3766SOL    HW212198   1.583   0.750   4.825
 3767SOL     OW12199   1.599   5.089   1.047
 3767SOL    HW112200   1.615   5.134   0.960
 3767SOL    HW212201   1.526   5.136   1.097
 3768SOL     OW12202   4.752   6.862   0.320
 3768SOL    HW112203   4.846   6.834   0.342
 3768SOL    HW212204   4.688   6.810   0.376
 3769SOL     OW12205   4.588   6.645   5.341
 3769SOL    HW112206   4.658   6.574   5.348
 3769SOL    HW212207   4.608   6.717   5.407
 3770SOL     OW12208   1.935   1.589   6.706
 3770SOL    HW112209   1.840   1.597   6.674
 3770SOL    HW212210   1.992   1.654   6.658
 3771SOL     OW12211   5.477   2.486   6.169
 3771SOL    HW112212   5.380   2.490   6.145
 3771SOL    HW212213   5.532   2.510   6.089
 3772SOL     OW12214   5.586   1.159   1.958
 3772SOL    HW112215   5.562   1.222   1.885
 3772SOL    HW212216   5.648   1.205   2.023
 3773SOL     OW12217   6.602   2.763   6.363
 3773SOL    HW112218   6.701   2.753   6.352
 3773SOL    HW212219   6.581   2.789   6.457
 3774SOL     OW12220   0.154   0.932   1.306
 3774SOL    HW112221   0.226   1.001   1.300
 3774SOL    HW212222   0.101   0.947   1.389
 3775SOL     OW12223   5.877   4.084   3.965
 3775SOL    HW112224   5.802   4.043   4.017
 3775SOL    HW212225   5.840   4.147   3.897
 3776SOL     OW12226   2.435   3.520   1.033
 3776SOL    HW112227   2.391   3.598   0.989
 3776SOL    HW212228   2.517   3.495   0.983
 3777SOL     OW12229   2.256   4.361   4.445
 3777SOL    HW112230   2.291   4.415   4.521
 3777SOL    HW212231   2.309   4.382   4.363
 3778SOL     OW12232   2.981   5.938   1.999
 3778SOL    HW112233   3.075   5.907   1.985
 3778SOL    HW212234   2.918   5.864   1.976
 3779SOL     OW12235   2.670   5.140   6.254
 3779SOL    HW112236   2.745   5.106   6.197
 3779SOL    HW212237   2.678   5.103   6.346
 3780SOL     OW12238   3.105   6.399   5.390
 3780SOL    HW112239   3.084   6.339   5.312
 3780SOL    HW212240   3.189   6.449   5.371
 3781SOL     OW12241   2.998   5.870   4.894
 3781SOL    HW112242   3.052   5.787   4.881
 3781SOL    HW212243   3.058   5.950   4.887
 3782SOL     OW12244   2.165   1.698   3.685
 3782SOL    HW112245   2.066   1.695   3.671
 3782SOL    HW212246   2.192   1.635   3.757
 3783SOL     OW12247   5.260   6.189   5.493
 3783SOL    HW112248   5.175   6.176   5.442
 3783SOL    HW212249   5.261   6.128   5.572
 3784SOL     OW12250   5.116   1.301   3.386
 3784SOL    HW112251   5.148   1.395   3.375
 3784SOL    HW212252   5.128   1.274   3.482
 3785SOL     OW12253   2.098   1.779   1.252
 3785SOL    HW112254   2.172   1.791   1.317
 3785SOL    HW212255   2.133   1.790   1.159
 3786SOL     OW12256   3.242   5.170   2.891
 3786SOL    HW112257   3.169   5.102   2.891
 3786SOL    HW212258   3.243   5.218   2.803
 3787SOL     OW12259   3.911   1.390   3.916
 3787SOL    HW112260   3.823   1.342   3.905
 3787SOL    HW212261   3.907   1.477   3.867
 3788SOL     OW12262   5.729   3.066   2.313
 3788SOL    HW112263   5.826   3.058   2.334
 3788SOL    HW212264   5.677   2.999   2.367
 3789SOL     OW12265   1.763   5.227   3.415
 3789SOL    HW112266   1.785   5.189   3.505
 3789SOL    HW212267   1.762   5.153   3.347
 3790SOL     OW12268   2.035   3.280   3.808
 3790SOL    HW112269   2.071   3.354   3.865
 3790SOL    HW212270   1.940   3.300   3.784
 3791SOL     OW12271   4.526   6.883   1.415
 3791SOL    HW112272   4.557   6.855   1.506
 3791SOL    HW212273   4.428   6.865   1.405
 3792SOL     OW12274   6.276   6.774   5.447
 3792SOL    HW112275   6.232   6.709   5.509
 3792SOL    HW212276   6.373   6.782   5.471
 3793SOL     OW12277   1.789   0.864   2.896
 3793SOL    HW112278   1.809   0.960   2.915
 3793SOL    HW212279   1.708   0.859   2.837
 3794SOL     OW12280   4.533   5.994   1.702
 3794SOL    HW112281   4.442   5.967   1.734
 3794SOL    HW212282   4.542   5.974   1.605
 3795SOL     OW12283   5.513   0.019   6.479
 3795SOL    HW112284   5.577   6.960   6.467
 3795SOL    HW212285   5.561   0.099   6.513
 3796SOL     OW12286   1.772   2.802   1.781
 3796SOL    HW112287   1.724   2.856   1.712
 3796SOL    HW212288   1.868   2.792   1.755
 3797SOL     OW12289   0.315   4.959   3.134
 3797SOL    HW112290   0.382   4.958   3.060
 3797SOL    HW212291   0.307   4.867   3.172
 3798SOL     OW12292   1.913   5.033   2.583
 3798SOL    HW112293   1.999   5.054   2.535
 3798SOL    HW212294   1.919   5.066   2.677
 3799SOL     OW12295   1.930   0.554   5.329
 3799SOL    HW112296   2.025   0.548   5.361
 3799SOL    HW212297   1.875   0.601   5.398
 3800SOL     OW12298   4.741   2.600   4.596
 3800SOL    HW112299   4.676   2.647   4.536
 3800SOL    HW212300   4.691   2.540   4.659
 3801SOL     OW12301   0.261   6.712   6.221
 3801SOL    HW112302   0.292   6.803   6.195
 3801SOL    HW212303   0.336   6.647   6.211
 3802SOL     OW12304   1.353   1.534   5.396
 3802SOL    HW112305   1.355   1.434   5.390
 3802SOL    HW212306   1.417   1.572   5.329
 3803SOL     OW12307   3.434   1.204   1.694
 3803SOL    HW112308   3.487   1.245   1.620
 3803SOL    HW212309   3.370   1.271   1.731
 3804SOL     OW12310   4.945   2.244   4.345
 3804SOL    HW112311   4.967   2.196   4.259
 3804SOL    HW212312   4.889   2.185   4.403
 3805SOL     OW12313   2.782   4.377   1.594
 3805SOL    HW112314   2.837   4.423   1.663
 3805SOL    HW212315   2.687   4.371   1.625
 3806SOL     OW12316   2.634   1.972   0.144
 3806SOL    HW112317   2.568   2.029   0.192
 3806SOL    HW212318   2.586   1.893   0.104
 3807SOL     OW12319   1.488   6.449   3.465
 3807SOL    HW112320   1.490   6.502   3.381
 3807SOL    HW212321   1.550   6.371   3.457
 3808SOL     OW12322   3.164   0.301   1.625
 3808SOL    HW112323   3.241   0.236   1.628
 3808SOL    HW212324   3.196   0.388   1.589
 3809SOL     OW12325   5.539   1.129   6.653
 3809SOL    HW112326   5.606   1.201   6.670
 3809SOL    HW212327   5.580   1.040   6.675
 3810SOL     OW12328   3.265   2.996   5.016
 3810SOL    HW112329   3.176   3.030   5.046
 3810SOL    HW212330   3.300   3.052   4.942
 3811SOL     OW12331   0.668   5.416   5.127
 3811SOL    HW112332   0.642   5.348   5.195
 3811SOL    HW212333   0.611   5.404   5.045
 3812SOL     OW12334   5.804   1.707   5.337
 3812SOL    HW112335   5.733   1.637   5.332
 3812SOL    HW212336   5.837   1.713   5.431
 3813SOL     OW12337   3.200   5.216   0.426
 3813SOL    HW112338   3.211   5.240   0.523
 3813SOL    HW212339   3.287   5.227   0.379
 3814SOL     OW12340   0.286   5.935   2.361
 3814SOL    HW112341   0.200   5.932   2.311
 3814SOL    HW212342   0.322   6.028   2.359
 3815SOL     OW12343   5.140   2.091   1.855
 3815SOL    HW112344   5.181   2.053   1.938
 3815SOL    HW212345   5.072   2.027   1.819
 3816SOL     OW12346   1.403   0.162   1.261
 3816SOL    HW112347   1.387   0.179   1.164
 3816SOL    HW212348   1.486   0.208   1.290
 3817SOL     OW12349   5.306   2.219   5.393
 3817SOL    HW112350   5.311   2.161   5.474
 3817SOL    HW212351   5.211   2.233   5.367
 3818SOL     OW12352   4.759   5.474   1.795
 3818SOL    HW112353   4.684   5.410   1.812
 3818SOL    HW212354   4.843   5.423   1.776
 3819SOL     OW12355   5.446   4.891   0.360
 3819SOL    HW112356   5.429   4.792   0.358
 3819SOL    HW212357   5.496   4.914   0.443
 3820SOL     OW12358   5.173   6.379   4.668
 3820SOL    HW112359   5.082   6.339   4.673
 3820SOL    HW212360   5.198   6.392   4.572
 3821SOL     OW12361   1.378   3.901   2.111
 3821SOL    HW112362   1.340   3.877   2.201
 3821SOL    HW212363   1.324   3.858   2.039
 3822SOL     OW12364   2.707   5.797   1.259
 3822SOL    HW112365   2.746   5.716   1.303
 3822SOL    HW212366   2.775   5.840   1.199
 3823SOL     OW12367   3.335   2.942   5.466
 3823SOL    HW112368   3.372   2.928   5.374
 3823SOL    HW212369   3.319   2.853   5.510
 3824SOL     OW12370   6.942   2.350   5.923
 3824SOL    HW112371   0.017   2.388   5.914
 3824SOL    HW212372   6.893   2.399   5.996
 3825SOL     OW12373   6.965   6.783   6.806
 3825SOL    HW112374   6.942   6.718   6.734
 3825SOL    HW212375   6.965   6.876   6.769
 3826SOL     OW12376   6.587   2.984   1.705
 3826SOL    HW112377   6.565   2.896   1.746
 3826SOL    HW212378   6.637   3.040   1.771
 3827SOL     OW12379   4.108   3.220   1.230
 3827SOL    HW112380   4.028   3.201   1.287
 3827SOL    HW212381   4.165   3.138   1.224
 3828SOL     OW12382   4.829   1.125   2.893
 3828SOL    HW112383   4.809   1.114   2.796
 3828SOL    HW212384   4.822   1.037   2.939
 3829SOL     OW12385   2.155   4.930   4.257
 3829SOL    HW112386   2.244   4.893   4.282
 3829SOL    HW212387   2.150   4.941   4.158
 3830SOL     OW12388   2.842   0.833   5.246
 3830SOL    HW112389   2.792   0.751   5.216
 3830SOL    HW212390   2.856   0.894   5.168
 3831SOL     OW12391   3.839   1.239   1.830
 3831SOL    HW112392   3.768   1.170   1.814
 3831SOL    HW212393   3.808   1.304   1.899
 3832SOL     OW12394   6.642   0.488   2.148
 3832SOL    HW112395   6.615   0.535   2.064
 3832SOL    HW212396   6.738   0.509   2.168
 3833SOL     OW12397   1.597   4.620   0.131
 3833SOL    HW112398   1.521   4.663   0.080
 3833SOL    HW212399   1.603   4.523   0.106
 3834SOL     OW12400   2.710   1.886   6.889
 3834SOL    HW112401   2.703   1.955   6.961
 3834SOL    HW212402   2.716   1.931   6.800
 3835SOL     OW12403   3.635   5.164   5.273
 3835SOL    HW112404   3.731   5.175   5.248
 3835SOL    HW212405   3.604   5.073   5.245
 3836SOL     OW12406   0.958   3.984   6.069
 3836SOL    HW112407   0.986   3.986   5.974
 3836SOL    HW212408   0.937   4.077   6.100
 3837SOL     OW12409   3.346   3.017   0.530
 3837SOL    HW112410   3.314   3.041   0.622
 3837SOL    HW212411   3.443   3.041   0.522
 3838SOL     OW12412   6.033   2.884   5.252
 3838SOL    HW112413   6.053   2.970   5.206
 3838SOL    HW212414   6.010   2.815   5.184
 3839SOL     OW12415   6.064   6.723   6.085
 3839SOL    HW112416   6.158   6.750   6.064
 3839SOL    HW212417   6.059   6.623   6.090
 3840SOL     OW12418   1.717   1.157   4.076
 3840SOL    HW112419   1.805   1.158   4.124
 3840SOL    HW212420   1.666   1.075   4.104
 3841SOL     OW12421   0.539   3.655   4.693
 3841SOL    HW112422   0.608   3.715   4.651
 3841SOL    HW212423   0.517   3.582   4.629
 3842SOL     OW12424   0.671   5.132   6.718
 3842SOL    HW112425   0.598   5.166   6.777
 3842SOL    HW212426   0.750   5.105   6.773
 3843SOL     OW12427   5.700   3.117   1.022
 3843SOL    HW112428   5.737   3.024   1.025
 3843SOL    HW212429   5.600   3.114   1.028
 3844SOL     OW12430   2.181   4.673   6.362
 3844SOL    HW112431   2.248   4.600   6.371
 3844SOL    HW212432   2.132   4.662   6.276
 3845SOL     OW12433   3.355   4.142   3.991
 3845SOL    HW112434   3.407   4.056   3.990
 3845SOL    HW212435   3.315   4.158   3.901
 3846SOL     OW12436   0.330   4.780   4.663
 3846SOL    HW112437   0.246   4.834   4.654
 3846SOL    HW212438   0.325   4.701   4.603
 3847SOL     OW12439   0.648   0.151   0.696
 3847SOL    HW112440   0.682   0.185   0.609
 3847SOL    HW212441   0.702   0.190   0.771
 3848SOL     OW12442   2.901   5.402   0.998
 3848SOL    HW112443   2.808   5.439   0.994
 3848SOL    HW212444   2.913   5.353   1.084
 3849SOL     OW12445   1.007   2.344   5.811
 3849SOL    HW112446   0.970   2.436   5.796
 3849SOL    HW212447   1.074   2.323   5.740
 3850SOL     OW12448   2.706   3.850   1.649
 3850SOL    HW112449   2.776   3.805   1.703
 3850SOL    HW212450   2.748   3.925   1.597
 3851SOL     OW12451   2.289   2.606   1.915
 3851SOL    HW112452   2.288   2.706   1.919
 3851SOL    HW212453   2.372   2.571   1.957
 3852SOL     OW12454   3.788   0.927   4.773
 3852SOL    HW112455   3.732   0.998   4.816
 3852SOL    HW212456   3.762   0.838   4.809
 3853SOL     OW12457   1.470   3.061   2.030
 3853SOL    HW112458   1.564   3.071   1.999
 3853SOL    HW212459   1.430   2.979   1.989
 3854SOL     OW12460   1.259   3.371   3.888
 3854SOL    HW112461   1.213   3.456   3.914
 3854SOL    HW212462   1.240   3.301   3.957
 3855SOL     OW12463   6.745   2.220   5.654
 3855SOL    HW112464   6.737   2.311   5.695
 3855SOL    HW212465   6.668   2.204   5.591
 3856SOL     OW12466   0.693   6.494   5.934
 3856SOL    HW112467   0.783   6.535   5.948
 3856SOL    HW212468   0.622   6.556   5.969
 3857SOL     OW12469   0.444   6.865   5.592
 3857SOL    HW112470   0.486   6.907   5.512
 3857SOL    HW212471   0.445   6.765   5.582
 3858SOL     OW12472   2.416   5.688   7.012
 3858SOL    HW112473   2.448   5.648   0.082
 3858SOL    HW212474   2.476   5.659   6.938
 3859SOL     OW12475   0.031   2.296   2.038
 3859SOL    HW112476   0.087   2.354   1.978
 3859SOL    HW212477   6.989   2.354   2.094
 3860SOL     OW12478   2.338   6.410   5.404
 3860SOL    HW112479   2.321   6.502   5.371
 3860SOL    HW212480   2.275   6.346   5.360
 3861SOL     OW12481   4.213   4.512   0.531
 3861SOL    HW112482   4.191   4.579   0.602
 3861SOL    HW212483   4.287   4.548   0.474
 3862SOL     OW12484   1.288   5.889   6.003
 3862SOL    HW112485   1.359   5.895   5.933
 3862SOL    HW212486   1.329   5.902   6.093
 3863SOL     OW12487   3.432   2.821   1.187
 3863SOL    HW112488   3.524   2.853   1.162
 3863SOL    HW212489   3.440   2.738   1.242
 3864SOL     OW12490   3.775   2.008   0.249
 3864SOL    HW112491   3.810   2.083   0.306
 3864SOL    HW212492   3.742   2.045   0.162
 3865SOL     OW12493   4.802   0.261   2.764
 3865SOL    HW112494   4.715   0.286   2.807
 3865SOL    HW212495   4.794   0.169   2.725
 3866SOL     OW12496   4.195   6.526   6.497
 3866SOL    HW112497   4.209   6.505   6.594
 3866SOL    HW212498   4.259   6.472   6.443
 3867SOL     OW12499   1.828   2.991   3.681
 3867SOL    HW112500   1.775   2.910   3.705
 3867SOL    HW212501   1.889   2.969   3.604
 3868SOL     OW12502   1.470   5.965   2.515
 3868SOL    HW112503   1.412   5.916   2.449
 3868SOL    HW212504   1.475   5.913   2.600
 3869SOL     OW12505   1.428   2.226   3.471
 3869SOL    HW112506   1.385   2.228   3.381
 3869SOL    HW212507   1.475   2.313   3.487
 3870SOL     OW12508   2.984   5.083   0.296
 3870SOL    HW112509   3.017   4.988   0.301
 3870SOL    HW212510   3.051   5.143   0.339
 3871SOL     OW12511   2.364   0.944   3.944
 3871SOL    HW112512   2.444   0.989   3.905
 3871SOL    HW212513   2.293   1.012   3.962
 3872SOL     OW12514   4.268   3.251   0.053
 3872SOL    HW112515   4.330   3.246   6.991
 3872SOL    HW212516   4.320   3.235   0.137
 3873SOL     OW12517   5.255   4.947   2.043
 3873SOL    HW112518   5.192   4.969   1.969
 3873SOL    HW212519   5.226   4.993   2.127
 3874SOL     OW12520   4.181   6.586   6.102
 3874SOL    HW112521   4.231   6.639   6.033
 3874SOL    HW212522   4.147   6.502   6.061
 3875SOL     OW12523   2.291   4.420   0.613
 3875SOL    HW112524   2.350   4.488   0.569
 3875SOL    HW212525   2.225   4.384   0.547
 3876SOL     OW12526   5.043   3.811   2.674
 3876SOL    HW112527   5.122   3.824   2.734
 3876SOL    HW212528   4.990   3.895   2.671
 3877SOL     OW12529   5.239   1.215   2.303
 3877SOL    HW112530   5.252   1.250   2.210
 3877SOL    HW212531   5.155   1.253   2.341
 3878SOL     OW12532   3.212   5.898   5.127
 3878SOL    HW112533   3.274   5.895   5.048
 3878SOL    HW212534   3.233   5.978   5.182
 3879SOL     OW12535   3.726   6.195   1.021
 3879SOL    HW112536   3.729   6.281   0.970
 3879SOL    HW212537   3.788   6.200   1.099
 3880SOL     OW12538   5.325   2.744   3.988
 3880SOL    HW112539   5.328   2.656   3.940
 3880SOL    HW212540   5.238   2.789   3.971
 3881SOL     OW12541   0.724   4.786   0.788
 3881SOL    HW112542   0.647   4.726   0.810
 3881SOL    HW212543   0.766   4.819   0.872
 3882SOL     OW12544   0.185   6.993   6.549
 3882SOL    HW112545   0.273   6.946   6.535
 3882SOL    HW212546   0.200   0.075   6.551
 3883SOL     OW12547   3.160   0.935   5.788
 3883SOL    HW112548   3.158   1.028   5.752
 3883SOL    HW212549   3.076   0.887   5.762
 3884SOL     OW12550   1.618   4.618   5.871
 3884SOL    HW112551   1.575   4.630   5.782
 3884SOL    HW212552   1.716   4.603   5.859
 3885SOL     OW12553   0.453   1.913   4.723
 3885SOL    HW112554   0.380   1.935   4.658
 3885SOL    HW212555   0.483   1.819   4.708
 3886SOL     OW12556   6.896   6.267   5.098
 3886SOL    HW112557   6.896   6.357   5.142
 3886SOL    HW212558   6.815   6.258   5.039
 3887SOL     OW12559   5.145   2.371   5.157
 3887SOL    HW112560   5.182   2.416   5.076
 3887SOL    HW212561   5.183   2.412   5.240
 3888SOL     OW12562   5.682   1.837   1.626
 3888SOL    HW112563   5.700   1.853   1.723
 3888SOL    HW212564   5.677   1.925   1.579
 3889SOL     OW12565   0.177   5.429   6.806
 3889SOL    HW112566   0.206   5.514   6.761
 3889SOL    HW212567   0.186   5.438   6.905
 3890SOL     OW12568   6.184   3.681   1.196
 3890SOL    HW112569   6.088   3.706   1.183
 3890SOL    HW212570   6.232   3.684   1.108
 3891SOL     OW12571   5.544   5.170   5.845
 3891SOL    HW112572   5.487   5.089   5.835
 3891SOL    HW212573   5.625   5.161   5.786
 3892SOL     OW12574   5.326   6.541   3.903
 3892SOL    HW112575   5.305   6.639   3.903
 3892SOL    HW212576   5.293   6.500   3.818
 3893SOL     OW12577   3.016   6.140   4.085
 3893SOL    HW112578   3.103   6.177   4.054
 3893SOL    HW212579   2.945   6.159   4.017
 3894SOL     OW12580   5.140   5.064   6.817
 3894SOL    HW112581   5.159   4.987   6.757
 3894SOL    HW212582   5.214   5.131   6.810
 3895SOL     OW12583   1.719   1.786   5.817
 3895SOL    HW112584   1.787   1.713   5.828
 3895SOL    HW212585   1.640   1.750   5.768
 3896SOL     OW12586   6.758   2.472   5.757
 3896SOL    HW112587   6.779   2.552   5.701
 3896SOL    HW212588   6.842   2.439   5.800
 3897SOL     OW12589   3.516   6.645   2.604
 3897SOL    HW112590   3.440   6.710   2.602
 3897SOL    HW212591   3.602   6.695   2.617
 3898SOL     OW12592   3.425   4.149   4.726
 3898SOL    HW112593   3.410   4.232   4.780
 3898SOL    HW212594   3.353   4.141   4.657
 3899SOL     OW12595   5.286   1.583   5.257
 3899SOL    HW112596   5.263   1.487   5.267
 3899SOL    HW212597   5.222   1.639   5.310
 3900SOL     OW12598   6.862   2.603   4.147
 3900SOL    HW112599   6.901   2.547   4.073
 3900SOL    HW212600   6.770   2.571   4.168
 3901SOL     OW12601   2.545   5.684   4.842
 3901SOL    HW112602   2.453   5.646   4.856
 3901SOL    HW212603   2.607   5.610   4.815
 3902SOL     OW12604   3.852   4.760   1.733
 3902SOL    HW112605   3.755   4.745   1.717
 3902SOL    HW212606   3.905   4.716   1.661
 3903SOL     OW12607   4.108   2.591   6.191
 3903SOL    HW112608   4.186   2.580   6.130
 3903SOL    HW212609   4.131   2.654   6.265
 3904SOL     OW12610   2.559   5.938   0.622
 3904SOL    HW112611   2.478   5.888   0.654
 3904SOL    HW212612   2.642   5.893   0.656
 3905SOL     OW12613   0.343   0.312   5.759
 3905SOL    HW112614   0.339   0.272   5.667
 3905SOL    HW212615   0.256   0.354   5.781
 3906SOL     OW12616   1.038   5.816   5.119
 3906SOL    HW112617   1.135   5.839   5.117
 3906SOL    HW212618   1.009   5.802   5.214
 3907SOL     OW12619   1.177   1.165   4.890
 3907SOL    HW112620   1.237   1.244   4.876
 3907SOL    HW212621   1.224   1.082   4.862
 3908SOL     OW12622   2.617   1.113   4.255
 3908SOL    HW112623   2.547   1.162   4.203
 3908SOL    HW212624   2.599   1.015   4.251
 3909SOL     OW12625   5.238   2.547   1.627
 3909SOL    HW112626   5.261   2.499   1.711
 3909SOL    HW212627   5.317   2.601   1.596
 3910SOL     OW12628   3.550   2.346   1.248
 3910SOL    HW112629   3.606   2.329   1.167
 3910SOL    HW212630   3.464   2.295   1.241
 3911SOL     OW12631   6.473   0.958   1.287
 3911SOL    HW112632   6.444   1.003   1.202
 3911SOL    HW212633   6.424   0.871   1.296
 3912SOL     OW12634   4.060   3.203   6.903
 3912SOL    HW112635   4.045   3.267   6.827
 3912SOL    HW212636   4.133   3.237   6.962
 3913SOL     OW12637   4.082   5.685   1.656
 3913SOL    HW112638   4.131   5.763   1.618
 3913SOL    HW212639   4.123   5.600   1.623
 3914SOL     OW12640   6.574   1.288   6.999
 3914SOL    HW112641   6.652   1.269   6.939
 3914SOL    HW212642   6.491   1.295   6.945
 3915SOL     OW12643   5.065   6.111   5.302
 3915SOL    HW112644   5.053   6.015   5.275
 3915SOL    HW212645   4.998   6.168   5.254
 3916SOL     OW12646   2.233   2.009   2.752
 3916SOL    HW112647   2.288   2.059   2.818
 3916SOL    HW212648   2.201   1.923   2.792
 3917SOL     OW12649   3.467   4.664   1.192
 3917SOL    HW112650   3.373   4.698   1.196
 3917SOL    HW212651   3.528   4.728   1.238
 3918SOL     OW12652   4.832   0.899   6.670
 3918SOL    HW112653   4.735   0.899   6.646
 3918SOL    HW212654   4.875   0.815   6.636
 3919SOL     OW12655   4.620   6.036   2.421
 3919SOL    HW112656   4.617   6.054   2.322
 3919SOL    HW212657   4.587   5.943   2.438
 3920SOL     OW12658   3.476   1.609   5.314
 3920SOL    HW112659   3.383   1.619   5.278
 3920SOL    HW212660   3.507   1.515   5.299
 3921SOL     OW12661   0.077   2.982   6.650
 3921SOL    HW112662   0.128   2.952   6.731
 3921SOL    HW212663   0.136   2.977   6.570
 3922SOL     OW12664   5.055   4.155   3.074
 3922SOL    HW112665   5.020   4.219   3.005
 3922SOL    HW212666   5.096   4.207   3.149
 3923SOL     OW12667   5.039   1.593   2.071
 3923SOL    HW112668   5.013   1.601   1.974
 3923SOL    HW212669   5.046   1.684   2.112
 3924SOL     OW12670   5.601   5.448   3.901
 3924SOL    HW112671   5.604   5.457   3.801
 3924SOL    HW212672   5.541   5.371   3.925
 3925SOL     OW12673   5.324   5.648   1.161
 3925SOL    HW112674   5.327   5.569   1.099
 3925SOL    HW212675   5.413   5.693   1.161
 3926SOL     OW12676   0.810   5.554   4.825
 3926SOL    HW112677   0.885   5.617   4.809
 3926SOL    HW212678   0.747   5.556   4.748
 3927SOL     OW12679   5.785   1.777   5.988
 3927SOL    HW112680   5.863   1.774   5.925
 3927SOL    HW212681   5.807   1.724   6.070
 3928SOL     OW12682   3.455   5.741   2.077
 3928SOL    HW112683   3.523   5.813   2.060
 3928SOL    HW212684   3.501   5.658   2.108
 3929SOL     OW12685   0.626   1.901   5.570
 3929SOL    HW112686   0.693   1.918   5.498
 3929SOL    HW212687   0.605   1.987   5.618
 3930SOL     OW12688   2.314   4.445   4.156
 3930SOL    HW112689   2.236   4.506   4.174
 3930SOL    HW212690   2.355   4.468   4.068
 3931SOL     OW12691   1.654   2.109   0.457
 3931SOL    HW112692   1.683   2.063   0.541
 3931SOL    HW212693   1.562   2.146   0.469
 3932SOL     OW12694   2.463   4.521   3.922
 3932SOL    HW112695   2.530   4.529   3.847
 3932SOL    HW212696   2.373   4.546   3.888
 3933SOL     OW12697   1.266   6.247   1.710
 3933SOL    HW112698   1.181   6.280   1.667
 3933SOL    HW212699   1.341   6.308   1.686
 3934SOL     OW12700   1.257   6.932   1.202
 3934SOL    HW112701   1.319   7.003   1.235
 3934SOL    HW212702   1.302   6.843   1.206
 3935SOL     OW12703   0.056   3.852   5.535
 3935SOL    HW112704   7.000   3.908   5.574
 3935SOL    HW212705   0.019   3.797   5.460
 3936SOL     OW12706   6.931   4.186   5.201
 3936SOL    HW112707   0.003   4.165   5.241
 3936SOL    HW212708   6.864   4.118   5.231
 3937SOL     OW12709   0.621   6.161   1.123
 3937SOL    HW112710   0.695   6.115   1.074
 3937SOL    HW212711   0.660   6.227   1.187
 3938SOL     OW12712   0.892   3.314   1.573
 3938SOL    HW112713   0.937   3.233   1.611
 3938SOL    HW212714   0.807   3.287   1.527
 3939SOL     OW12715   0.616   0.779   3.043
 3939SOL    HW112716   0.549   0.849   3.067
 3939SOL    HW212717   0.631   0.719   3.121
 3940SOL     OW12718   2.795   6.461   0.209
 3940SOL    HW112719   2.887   6.475   0.173
 3940SOL    HW212720   2.799   6.448   0.308
 3941SOL     OW12721   5.164   5.764   2.328
 3941SOL    HW112722   5.104   5.760   2.408
 3941SOL    HW212723   5.150   5.851   2.280
 3942SOL     OW12724   6.884   6.051   5.610
 3942SOL    HW112725   6.972   6.092   5.585
 3942SOL    HW212726   6.877   6.046   5.710
 3943SOL     OW12727   2.064   3.026   0.333
 3943SOL    HW112728   2.139   2.964   0.357
 3943SOL    HW212729   2.099   3.119   0.325
 3944SOL     OW12730   4.769   2.727   6.807
 3944SOL    HW112731   4.715   2.648   6.775
 3944SOL    HW212732   4.730   2.811   6.769
 3945SOL     OW12733   5.781   0.231   3.973
 3945SOL    HW112734   5.784   0.188   4.063
 3945SOL    HW212735   5.856   0.195   3.917
 3946SOL     OW12736   0.201   3.951   0.834
 3946SOL    HW112737   0.204   3.884   0.760
 3946SOL    HW212738   0.126   4.016   0.818
 3947SOL     OW12739   6.295   5.664   1.979
 3947SOL    HW112740   6.232   5.735   1.949
 3947SOL    HW212741   6.255   5.614   2.056
 3948SOL     OW12742   1.314   2.853   5.711
 3948SOL    HW112743   1.405   2.882   5.682
 3948SOL    HW212744   1.311   2.845   5.810
 3949SOL     OW12745   5.988   0.329   2.430
 3949SOL    HW112746   6.042   0.371   2.357
 3949SOL    HW212747   5.924   0.263   2.390
 3950SOL     OW12748   2.946   4.676   1.667
 3950SOL    HW112749   2.877   4.747   1.654
 3950SOL    HW212750   2.911   4.606   1.729
 3951SOL     OW12751   0.769   2.535   4.648
 3951SOL    HW112752   0.707   2.543   4.725
 3951SOL    HW212753   0.773   2.621   4.598
 3952SOL     OW12754   5.519   4.069   0.309
 3952SOL    HW112755   5.598   4.114   0.351
 3952SOL    HW212756   5.483   4.126   0.235
 3953SOL     OW12757   3.330   3.409   6.844
 3953SOL    HW112758   3.305   3.408   6.941
 3953SOL    HW212759   3.263   3.463   6.793
 3954SOL     OW12760   0.698   3.334   5.147
 3954SOL    HW112761   0.649   3.291   5.223
 3954SOL    HW212762   0.787   3.290   5.136
 3955SOL     OW12763   6.682   3.639   0.638
 3955SOL    HW112764   6.648   3.711   0.698
 3955SOL    HW212765   6.646   3.653   0.546
 3956SOL     OW12766   6.805   2.888   5.807
 3956SOL    HW112767   6.837   2.887   5.902
 3956SOL    HW212768   6.857   2.957   5.756
 3957SOL     OW12769   0.632   1.560   2.714
 3957SOL    HW112770   0.564   1.631   2.730
 3957SOL    HW212771   0.586   1.475   2.688
 3958SOL     OW12772   5.081   7.010   0.053
 3958SOL    HW112773   5.122   6.932   0.101
 3958SOL    HW212774   5.141   0.073   0.063
 3959SOL     OW12775   2.144   6.291   1.405
 3959SOL    HW112776   2.113   6.238   1.483
 3959SOL    HW212777   2.226   6.249   1.366
 3960SOL     OW12778   5.382   3.196   1.353
 3960SOL    HW112779   5.299   3.252   1.363
 3960SOL    HW212780   5.393   3.171   1.257
 3961SOL     OW12781   5.518   0.465   0.846
 3961SOL    HW112782   5.538   0.561   0.860
 3961SOL    HW212783   5.428   0.456   0.802
 3962SOL     OW12784   0.729   6.501   5.556
 3962SOL    HW112785   0.640   6.538   5.531
 3962SOL    HW212786   0.718   6.423   5.618
 3963SOL     OW12787   4.536   4.581   2.613
 3963SOL    HW112788   4.482   4.657   2.576
 3963SOL    HW212789   4.516   4.571   2.711
 3964SOL     OW12790   5.742   6.176   6.820
 3964SOL    HW112791   5.753   6.193   6.722
 3964SOL    HW212792   5.680   6.244   6.859
 3965SOL     OW12793   3.693   3.276   0.911
 3965SOL    HW112794   3.702   3.325   0.998
 3965SOL    HW212795   3.642   3.333   0.847
 3966SOL     OW12796   6.269   3.690   5.236
 3966SOL    HW112797   6.198   3.629   5.271
 3966SOL    HW212798   6.336   3.708   5.308
 3967SOL     OW12799   1.697   6.966   6.739
 3967SOL    HW112800   1.633   7.001   6.807
 3967SOL    HW212801   1.692   6.866   6.737
 3968SOL     OW12802   4.943   0.898   1.624
 3968SOL    HW112803   4.993   0.923   1.707
 3968SOL    HW212804   4.854   0.942   1.624
 3969SOL     OW12805   0.461   6.232   1.453
 3969SOL    HW112806   0.395   6.256   1.524
 3969SOL    HW212807   0.414   6.186   1.378
 3970SOL     OW12808   4.780   4.022   4.372
 3970SOL    HW112809   4.811   3.956   4.440
 3970SOL    HW212810   4.825   4.110   4.388
 3971SOL     OW12811   0.868   5.940   3.622
 3971SOL    HW112812   0.962   5.974   3.623
 3971SOL    HW212813   0.815   5.992   3.554
 3972SOL     OW12814   1.182   0.538   6.695
 3972SOL    HW112815   1.085   0.559   6.694
 3972SOL    HW212816   1.233   0.618   6.727
 3973SOL     OW12817   3.257   2.910   3.724
 3973SOL    HW112818   3.245   2.947   3.816
 3973SOL    HW212819   3.188   2.949   3.663
 3974SOL     OW12820   5.458   0.467   6.492
 3974SOL    HW112821   5.451   0.414   6.407
 3974SOL    HW212822   5.530   0.429   6.549
 3975SOL     OW12823   6.641   6.516   5.136
 3975SOL    HW112824   6.562   6.478   5.183
 3975SOL    HW212825   6.719   6.520   5.198
 3976SOL     OW12826   1.158   3.123   0.125
 3976SOL    HW112827   1.160   3.177   0.209
 3976SOL    HW212828   1.155   3.185   0.046
 3977SOL     OW12829   3.619   5.175   5.994
 3977SOL    HW112830   3.596   5.101   5.931
 3977SOL    HW212831   3.584   5.153   6.085
 3978SOL     OW12832   6.442   4.077   6.458
 3978SOL    HW112833   6.423   4.109   6.551
 3978SOL    HW212834   6.356   4.076   6.406
 3979SOL     OW12835   1.353   6.579   2.901
 3979SOL    HW112836   1.288   6.620   2.837
 3979SOL    HW212837   1.306   6.509   2.955
 3980SOL     OW12838   4.940   3.565   4.821
 3980SOL    HW112839   4.930   3.471   4.787
 3980SOL    HW212840   4.916   3.568   4.918
 3981SOL     OW12841   6.544   2.185   5.441
 3981SOL    HW112842   6.520   2.280   5.422
 3981SOL    HW212843   6.468   2.139   5.486
 3982SOL     OW12844   2.406   2.711   4.052
 3982SOL    HW112845   2.396   2.728   4.150
 3982SOL    HW212846   2.317   2.713   4.008
 3983SOL     OW12847   3.623   0.322   3.393
 3983SOL    HW112848   3.588   0.409   3.358
 3983SOL    HW212849   3.638   0.330   3.492
 3984SOL     OW12850   2.033   0.018   1.524
 3984SOL    HW112851   2.103   0.016   1.595
 3984SOL    HW212852   1.949   0.057   1.561
 3985SOL     OW12853   1.797   3.464   1.595
 3985SOL    HW112854   1.815   3.395   1.525
 3985SOL    HW212855   1.877   3.472   1.654
 3986SOL     OW12856   1.667   2.239   2.054
 3986SOL    HW112857   1.606   2.310   2.018
 3986SOL    HW212858   1.707   2.271   2.140
 3987SOL     OW12859   1.319   4.346   5.277
 3987SOL    HW112860   1.387   4.418   5.292
 3987SOL    HW212861   1.358   4.274   5.220
 3988SOL     OW12862   4.749   1.211   7.004
 3988SOL    HW112863   4.763   1.116   0.012
 3988SOL    HW212864   4.717   1.217   6.909
 3989SOL     OW12865   4.125   0.528   5.942
 3989SOL    HW112866   4.150   0.625   5.941
 3989SOL    HW212867   4.164   0.483   5.862
 3990SOL     OW12868   0.974   2.542   3.849
 3990SOL    HW112869   0.886   2.579   3.821
 3990SOL    HW212870   1.021   2.608   3.908
 3991SOL     OW12871   0.486   1.476   3.970
 3991SOL    HW112872   0.439   1.397   3.932
 3991SOL    HW212873   0.446   1.498   4.060
 3992SOL     OW12874   5.903   3.910   6.652
 3992SOL    HW112875   5.973   3.965   6.698
 3992SOL    HW212876   5.815   3.924   6.697
 3993SOL     OW12877   1.528   0.692   4.321
 3993SOL    HW112878   1.600   0.672   4.388
 3993SOL    HW212879   1.440   0.692   4.367
 3994SOL     OW12880   2.890   2.280   3.140
 3994SOL    HW112881   2.918   2.248   3.231
 3994SOL    HW212882   2.965   2.266   3.075
 3995SOL     OW12883   1.035   3.290   2.395
 3995SOL    HW112884   1.078   3.210   2.437
 3995SOL    HW212885   0.941   3.268   2.370
 3996SOL     OW12886   5.923   6.416   4.124
 3996SOL    HW112887   5.914   6.353   4.202
 3996SOL    HW212888   5.849   6.483   4.127
 3997SOL     OW12889   4.896   3.457   2.671
 3997SOL    HW112890   4.912   3.494   2.579
 3997SOL    HW212891   4.806   3.485   2.704
 3998SOL     OW12892   5.091   2.345   3.081
 3998SOL    HW112893   5.082   2.409   3.005
 3998SOL    HW212894   5.038   2.263   3.062
 3999SOL     OW12895   4.429   2.579   1.359
 3999SOL    HW112896   4.352   2.643   1.352
 3999SOL    HW212897   4.508   2.626   1.398
 4000SOL     OW12898   2.694   5.215   2.358
 4000SOL    HW112899   2.648   5.298   2.328
 4000SOL    HW212900   2.669   5.140   2.297
 4001SOL     OW12901   1.224   5.051   4.146
 4001SOL    HW112902   1.169   4.969   4.130
 4001SOL    HW212903   1.220   5.075   4.242
 4002SOL     OW12904   3.524   4.048   3.743
 4002SOL    HW112905   3.492   3.974   3.801
 4002SOL    HW212906   3.450   4.113   3.727
 4003SOL     OW12907   1.840   0.711   5.522
 4003SOL    HW112908   1.753   0.686   5.564
 4003SOL    HW212909   1.895   0.763   5.587
 4004SOL     OW12910   0.853   3.723   3.581
 4004SOL    HW112911   0.785   3.761   3.644
 4004SOL    HW212912   0.921   3.670   3.632
 4005SOL     OW12913   4.719   3.067   0.197
 4005SOL    HW112914   4.762   3.120   0.271
 4005SOL    HW212915   4.781   3.064   0.118
 4006SOL     OW12916   5.359   5.292   2.749
 4006SOL    HW112917   5.410   5.225   2.803
 4006SOL    HW212918   5.370   5.272   2.652
 4007SOL     OW12919   0.026   0.749   2.648
 4007SOL    HW112920   0.023   0.695   2.732
 4007SOL    HW212921   0.121   0.771   2.625
 4008SOL     OW12922   3.555   1.003   0.643
 4008SOL    HW112923   3.568   0.907   0.670
 4008SOL    HW212924   3.546   1.059   0.725
 4009SOL     OW12925   5.091   1.817   0.881
 4009SOL    HW112926   5.159   1.771   0.939
 4009SOL    HW212927   5.101   1.916   0.892
 4010SOL     OW12928   2.941   5.044   2.079
 4010SOL    HW112929   2.970   4.962   2.029
 4010SOL    HW212930   2.851   5.028   2.119
 4011SOL     OW12931   5.137   6.311   6.570
 4011SOL    HW112932   5.208   6.358   6.623
 4011SOL    HW212933   5.049   6.356   6.586
 4012SOL     OW12934   4.718   6.805   2.927
 4012SOL    HW112935   4.711   6.844   3.019
 4012SOL    HW212936   4.637   6.830   2.874
 4013SOL     OW12937   6.968   1.047   5.425
 4013SOL    HW112938   6.927   1.081   5.341
 4013SOL    HW212939   6.957   1.115   5.498
 4014SOL     OW12940   3.341   4.944   2.634
 4014SOL    HW112941   3.312   4.848   2.634
 4014SOL    HW212942   3.261   5.003   2.619
 4015SOL     OW12943   4.338   4.653   6.302
 4015SOL    HW112944   4.353   4.656   6.203
 4015SOL    HW212945   4.420   4.686   6.349
 4016SOL     OW12946   4.342   5.109   5.318
 4016SOL    HW112947   4.370   5.192   5.272
 4016SOL    HW212948   4.259   5.127   5.372
 4017SOL     OW12949   0.689   4.793   5.623
 4017SOL    HW112950   0.711   4.888   5.646
 4017SOL    HW212951   0.619   4.759   5.686
 4018SOL     OW12952   4.354   5.763   1.215
 4018SOL    HW112953   4.368   5.775   1.313
 4018SOL    HW212954   4.261   5.791   1.191
 4019SOL     OW12955   5.435   3.954   2.570
 4019SOL    HW112956   5.380   3.911   2.499
 4019SOL    HW212957   5.448   3.888   2.645
 4020SOL     OW12958   6.880   5.521   4.478
 4020SOL    HW112959   6.885   5.569   4.566
 4020SOL    HW212960   6.893   5.586   4.404
 4021SOL     OW12961   4.235   3.715   6.524
 4021SOL    HW112962   4.163   3.729   6.457
 4021SOL    HW212963   4.270   3.621   6.516
 4022SOL     OW12964   2.412   0.462   1.288
 4022SOL    HW112965   2.452   0.443   1.378
 4022SOL    HW212966   2.338   0.397   1.269
 4023SOL     OW12967   0.454   1.241   4.612
 4023SOL    HW112968   0.514   1.213   4.686
 4023SOL    HW212969   0.507   1.284   4.539
 4024SOL     OW12970   0.984   6.420   4.218
 4024SOL    HW112971   1.035   6.419   4.304
 4024SOL    HW212972   1.017   6.346   4.158
 4025SOL     OW12973   0.049   5.532   3.710
 4025SOL    HW112974   6.982   5.572   3.747
 4025SOL    HW212975   0.032   5.497   3.618
 4026SOL     OW12976   6.753   0.070   3.933
 4026SOL    HW112977   6.787   0.141   3.995
 4026SOL    HW212978   6.795   6.999   3.957
 4027SOL     OW12979   2.678   4.178   6.139
 4027SOL    HW112980   2.643   4.234   6.215
 4027SOL    HW212981   2.640   4.085   6.146
 4028SOL     OW12982   4.581   1.715   3.397
 4028SOL    HW112983   4.514   1.736   3.468
 4028SOL    HW212984   4.657   1.780   3.404
 4029SOL     OW12985   1.784   5.451   0.130
 4029SOL    HW112986   1.753   5.516   0.060
 4029SOL    HW212987   1.875   5.476   0.162
 4030SOL     OW12988   0.217   1.142   2.683
 4030SOL    HW112989   0.138   1.198   2.660
 4030SOL    HW212990   0.221   1.127   2.782
 4031SOL     OW12991   6.058   6.540   0.604
 4031SOL    HW112992   5.992   6.614   0.590
 4031SOL    HW212993   6.025   6.457   0.560
 4032SOL     OW12994   5.432   0.681   2.072
 4032SOL    HW112995   5.340   0.666   2.109
 4032SOL    HW212996   5.488   0.727   2.141
 4033SOL     OW12997   1.908   3.012   2.391
 4033SOL    HW112998   1.873   3.012   2.298
 4033SOL    HW212999   1.998   3.056   2.393
 4034SOL     OW13000   0.170   3.204   5.220
 4034SOL    HW113001   0.259   3.223   5.180
 4034SOL    HW213002   0.100   3.203   5.149
 4035SOL     OW13003   4.554   1.947   1.919
 4035SOL    HW113004   4.600   2.031   1.892
 4035SOL    HW213005   4.477   1.969   1.979
 4036SOL     OW13006   2.759   5.911   2.793
 4036SOL    HW113007   2.836   5.889   2.854
 4036SOL    HW213008   2.691   5.965   2.843
 4037SOL     OW13009   2.638   1.242   5.789
 4037SOL    HW113010   2.700   1.170   5.757
 4037SOL    HW213011   2.552   1.237   5.739
 4038SOL     OW13012   3.541   3.718   5.989
 4038SOL    HW113013   3.586   3.636   5.954
 4038SOL    HW213014   3.609   3.790   6.003
 4039SOL     OW13015   6.194   4.852   1.492
 4039SOL    HW113016   6.233   4.759   1.497
 4039SOL    HW213017   6.096   4.845   1.472
 4040SOL     OW13018   3.017   6.434   4.638
 4040SOL    HW113019   3.043   6.363   4.703
 4040SOL    HW213020   2.988   6.392   4.552
 4041SOL     OW13021   2.558   6.544   0.783
 4041SOL    HW113022   2.525   6.605   0.710
 4041SOL    HW213023   2.554   6.449   0.752
 4042SOL     OW13024   6.468   0.878   3.077
 4042SOL    HW113025   6.499   0.865   3.171
 4042SOL    HW213026   6.548   0.888   3.017
 4043SOL     OW13027   5.601   3.405   0.172
 4043SOL    HW113028   5.554   3.402   0.260
 4043SOL    HW213029   5.677   3.340   0.172
 4044SOL     OW13030   4.731   5.455   3.134
 4044SOL    HW113031   4.782   5.382   3.088
 4044SOL    HW213032   4.795   5.524   3.168
 4045SOL     OW13033   5.127   0.545   5.438
 4045SOL    HW113034   5.195   0.472   5.436
 4045SOL    HW213035   5.119   0.586   5.348
 4046SOL     OW13036   6.107   1.981   2.622
 4046SOL    HW113037   6.139   1.895   2.582
 4046SOL    HW213038   6.167   2.055   2.594
 4047SOL     OW13039   2.867   3.386   6.967
 4047SOL    HW113040   2.841   3.482   6.962
 4047SOL    HW213041   2.911   3.368   0.039
 4048SOL     OW13042   4.350   1.734   2.199
 4048SOL    HW113043   4.391   1.819   2.231
 4048SOL    HW213044   4.401   1.656   2.235
 4049SOL     OW13045   3.964   4.442   6.738
 4049SOL    HW113046   3.885   4.501   6.723
 4049SOL    HW213047   3.979   4.430   6.837
 4050SOL     OW13048   0.566   5.551   2.071
 4050SOL    HW113049   0.605   5.639   2.044
 4050SOL    HW213050   0.530   5.557   2.164
 4051SOL     OW13051   5.344   1.080   5.190
 4051SOL    HW113052   5.433   1.056   5.229
 4051SOL    HW213053   5.330   1.030   5.105
 4052SOL     OW13054   6.401   1.980   3.913
 4052SOL    HW113055   6.500   1.976   3.899
 4052SOL    HW213056   6.362   1.888   3.904
 4053SOL     OW13057   0.952   5.334   4.259
 4053SOL    HW113058   0.939   5.431   4.237
 4053SOL    HW213059   0.891   5.308   4.334
 4054SOL     OW13060   4.212   3.702   0.587
 4054SOL    HW113061   4.311   3.703   0.602
 4054SOL    HW213062   4.166   3.730   0.671
 4055SOL     OW13063   0.440   4.828   1.519
 4055SOL    HW113064   0.376   4.784   1.456
 4055SOL    HW213065   0.499   4.760   1.561
 4056SOL     OW13066   5.172   3.415   1.132
 4056SOL    HW113067   5.111   3.488   1.102
 4056SOL    HW213068   5.134   3.371   1.213
 4057SOL     OW13069   0.093   2.927   0.133
 4057SOL    HW113070   0.072   2.930   0.231
 4057SOL    HW213071   0.047   3.003   0.086
 4058SOL     OW13072   3.025   6.750   5.880
 4058SOL    HW113073   2.979   6.683   5.822
 4058SOL    HW213074   2.967   6.769   5.960
 4059SOL     OW13075   0.593   1.827   3.901
 4059SOL    HW113076   0.508   1.805   3.949
 4059SOL    HW213077   0.577   1.905   3.840
 4060SOL     OW13078   6.098   5.778   5.538
 4060SOL    HW113079   6.128   5.850   5.601
 4060SOL    HW213080   6.054   5.820   5.458
 4061SOL     OW13081   2.111   5.919   0.961
 4061SOL    HW113082   2.207   5.922   0.989
 4061SOL    HW213083   2.098   5.845   0.895
 4062SOL     OW13084   1.257   2.231   1.761
 4062SOL    HW113085   1.329   2.165   1.739
 4062SOL    HW213086   1.287   2.291   1.835
 4063SOL     OW13087   4.689   0.949   7.013
 4063SOL    HW113088   4.743   0.933   6.931
 4063SOL    HW213089   4.679   0.864   0.047
 4064SOL     OW13090   2.089   1.955   5.349
 4064SOL    HW113091   2.034   2.010   5.413
 4064SOL    HW213092   2.033   1.882   5.311
 4065SOL     OW13093   2.621   6.844   1.098
 4065SOL    HW113094   2.610   6.942   1.078
 4065SOL    HW213095   2.532   6.800   1.099
 4066SOL     OW13096   0.395   4.293   3.515
 4066SOL    HW113097   0.417   4.342   3.600
 4066SOL    HW213098   0.311   4.240   3.528
 4067SOL     OW13099   4.576   4.881   0.934
 4067SOL    HW113100   4.585   4.791   0.892
 4067SOL    HW213101   4.581   4.952   0.863
 4068SOL     OW13102   1.920   2.508   5.293
 4068SOL    HW113103   1.832   2.515   5.338
 4068SOL    HW213104   1.908   2.476   5.199
 4069SOL     OW13105   4.208   0.168   6.567
 4069SOL    HW113106   4.211   0.084   6.622
 4069SOL    HW213107   4.128   0.165   6.507
 4070SOL     OW13108   1.703   3.229   3.735
 4070SOL    HW113109   1.604   3.223   3.725
 4070SOL    HW213110   1.742   3.137   3.737
 4071SOL     OW13111   0.795   0.356   3.842
 4071SOL    HW113112   0.761   0.360   3.936
 4071SOL    HW213113   0.893   0.340   3.842
 4072SOL     OW13114   2.258   5.899   3.189
 4072SOL    HW113115   2.298   5.925   3.101
 4072SOL    HW213116   2.173   5.850   3.174
 4073SOL     OW13117   2.699   4.923   0.443
 4073SOL    HW113118   2.795   4.911   0.470
 4073SOL    HW213119   2.692   4.919   0.344
 4074SOL     OW13120   1.458   5.864   2.770
 4074SOL    HW113121   1.381   5.805   2.748
 4074SOL    HW213122   1.540   5.809   2.783
 4075SOL     OW13123   6.055   0.673   0.684
 4075SOL    HW113124   5.975   0.729   0.705
 4075SOL    HW213125   6.026   0.580   0.663
 4076SOL     OW13126   2.916   3.979   5.199
 4076SOL    HW113127   2.869   3.944   5.118
 4076SOL    HW213128   2.892   3.923   5.279
 4077SOL     OW13129   2.856   1.460   1.732
 4077SOL    HW113130   2.946   1.503   1.743
 4077SOL    HW213131   2.800   1.480   1.812
 4078SOL     OW13132   2.619   4.651   2.755
 4078SOL    HW113133   2.597   4.553   2.758
 4078SOL    HW213134   2.718   4.662   2.747
 4079SOL     OW13135   1.056   2.386   4.435
 4079SOL    HW113136   0.957   2.381   4.426
 4079SOL    HW213137   1.081   2.457   4.501
 4080SOL     OW13138   6.173   1.520   5.026
 4080SOL    HW113139   6.181   1.589   4.954
 4080SOL    HW213140   6.080   1.519   5.062
 4081SOL     OW13141   2.166   3.463   3.638
 4081SOL    HW113142   2.188   3.515   3.722
 4081SOL    HW213143   2.129   3.374   3.663
 4082SOL     OW13144   0.970   3.287   1.092
 4082SOL    HW113145   0.873   3.290   1.068
 4082SOL    HW213146   0.985   3.214   1.159
 4083SOL     OW13147   5.468   2.646   5.207
 4083SOL    HW113148   5.512   2.594   5.134
 4083SOL    HW213149   5.444   2.585   5.283
 4084SOL     OW13150   0.535   1.206   4.162
 4084SOL    HW113151   0.459   1.270   4.154
 4084SOL    HW213152   0.524   1.133   4.095
 4085SOL     OW13153   3.426   6.578   0.262
 4085SOL    HW113154   3.383   6.545   0.346
 4085SOL    HW213155   3.461   6.671   0.276
 4086SOL     OW13156   1.801   4.547   1.066
 4086SOL    HW113157   1.790   4.646   1.051
 4086SOL    HW213158   1.716   4.509   1.102
 4087SOL     OW13159   1.588   1.351   3.167
 4087SOL    HW113160   1.561   1.403   3.086
 4087SOL    HW213161   1.506   1.315   3.212
 4088SOL     OW13162   6.690   1.592   1.202
 4088SOL    HW113163   6.718   1.647   1.281
 4088SOL    HW213164   6.630   1.518   1.233
 4089SOL     OW13165   1.178   0.370   4.278
 4089SOL    HW113166   1.152   0.461   4.311
 4089SOL    HW213167   1.274   0.353   4.297
 4090SOL     OW13168   1.934   4.073   5.770
 4090SOL    HW113169   1.913   4.111   5.680
 4090SOL    HW213170   1.849   4.058   5.821
 4091SOL     OW13171   4.417   5.698   0.433
 4091SOL    HW113172   4.413   5.724   0.530
 4091SOL    HW213173   4.439   5.779   0.378
 4092SOL     OW13174   0.164   3.103   4.774
 4092SOL    HW113175   0.156   3.081   4.677
 4092SOL    HW213176   0.166   3.203   4.785
 4093SOL     OW13177   5.593   0.434   4.063
 4093SOL    HW113178   5.672   0.406   4.007
 4093SOL    HW213179   5.522   0.363   4.058
 4094SOL     OW13180   2.070   4.128   5.132
 4094SOL    HW113181   2.162   4.104   5.101
 4094SOL    HW213182   2.055   4.088   5.223
 4095SOL     OW13183   0.921   3.438   6.336
 4095SOL    HW113184   0.889   3.443   6.242
 4095SOL    HW213185   0.851   3.477   6.396
 4096SOL     OW13186   3.701   4.139   0.198
 4096SOL    HW113187   3.773   4.069   0.202
 4096SOL    HW213188   3.668   4.146   0.104
 4097SOL     OW13189   3.659   3.447   5.945
 4097SOL    HW113190   3.609   3.373   5.989
 4097SOL    HW213191   3.662   3.430   5.846
 4098SOL     OW13192   0.661   1.922   3.215
 4098SOL    HW113193   0.650   1.936   3.313
 4098SOL    HW213194   0.607   1.844   3.186
 4099SOL     OW13195   3.940   5.725   1.900
 4099SOL    HW113196   4.013   5.776   1.945
 4099SOL    HW213197   3.973   5.690   1.812
 4100SOL     OW13198   3.703   5.968   3.673
 4100SOL    HW113199   3.629   6.011   3.725
 4100SOL    HW213200   3.707   5.871   3.693
 4101SOL     OW13201   6.093   1.801   6.335
 4101SOL    HW113202   6.185   1.816   6.299
 4101SOL    HW213203   6.087   1.838   6.428
 4102SOL     OW13204   5.997   1.115   0.348
 4102SOL    HW113205   5.949   1.090   0.432
 4102SOL    HW213206   6.027   1.031   0.301
 4103SOL     OW13207   0.548   0.703   2.001
 4103SOL    HW113208   0.488   0.716   1.922
 4103SOL    HW213209   0.507   0.636   2.063
 4104SOL     OW13210   1.190   4.627   2.719
 4104SOL    HW113211   1.094   4.632   2.746
 4104SOL    HW213212   1.228   4.539   2.749
 4105SOL     OW13213   4.084   4.641   0.224
 4105SOL    HW113214   4.143   4.593   0.160
 4105SOL    HW213215   4.046   4.576   0.290
 4106SOL     OW13216   0.103   3.729   4.572
 4106SOL    HW113217   0.061   3.819   4.576
 4106SOL    HW213218   0.151   3.711   4.658
 4107SOL     OW13219   6.768   0.573   1.536
 4107SOL    HW113220   6.782   0.517   1.617
 4107SOL    HW213221   6.746   0.515   1.458
 4108SOL     OW13222   6.255   3.615   6.166
 4108SOL    HW113223   6.209   3.564   6.239
 4108SOL    HW213224   6.336   3.661   6.203
 4109SOL     OW13225   3.350   6.383   3.597
 4109SOL    HW113226   3.321   6.287   3.607
 4109SOL    HW213227   3.269   6.441   3.588
 4110SOL     OW13228   4.965   3.568   6.028
 4110SOL    HW113229   5.008   3.479   6.014
 4110SOL    HW213230   4.881   3.555   6.081
 4111SOL     OW13231   4.261   2.836   6.889
 4111SOL    HW113232   4.186   2.853   6.952
 4111SOL    HW213233   4.324   2.768   6.928
 4112SOL     OW13234   3.204   1.390   3.687
 4112SOL    HW113235   3.196   1.479   3.732
 4112SOL    HW213236   3.116   1.363   3.649
 4113SOL     OW13237   3.480   4.792   5.202
 4113SOL    HW113238   3.384   4.813   5.183
 4113SOL    HW213239   3.539   4.850   5.145
 4114SOL     OW13240   2.613   1.845   2.798
 4114SOL    HW113241   2.538   1.898   2.836
 4114SOL    HW213242   2.659   1.794   2.870
 4115SOL     OW13243   5.079   5.012   1.526
 4115SOL    HW113244   4.996   5.065   1.544
 4115SOL    HW213245   5.059   4.940   1.460
 4116SOL     OW13246   3.797   1.632   1.541
 4116SOL    HW113247   3.846   1.705   1.589
 4116SOL    HW213248   3.764   1.666   1.453
 4117SOL     OW13249   1.191   5.532   1.373
 4117SOL    HW113250   1.221   5.438   1.359
 4117SOL    HW213251   1.181   5.578   1.285
 4118SOL     OW13252   1.287   6.465   0.415
 4118SOL    HW113253   1.328   6.416   0.492
 4118SOL    HW213254   1.320   6.424   0.329
 4119SOL     OW13255   3.397   0.641   4.327
 4119SOL    HW113256   3.304   0.604   4.327
 4119SOL    HW213257   3.401   0.722   4.268
 4120SOL     OW13258   3.278   0.529   1.530
 4120SOL    HW113259   3.370   0.559   1.557
 4120SOL    HW213260   3.268   0.540   1.431
 4121SOL     OW13261   6.986   3.024   4.501
 4121SOL    HW113262   6.945   3.011   4.410
 4121SOL    HW213263   6.939   2.965   4.567
 4122SOL     OW13264   1.531   5.649   5.852
 4122SOL    HW113265   1.437   5.663   5.819
 4122SOL    HW213266   1.589   5.722   5.819
 4123SOL     OW13267   4.928   3.998   6.473
 4123SOL    HW113268   5.012   4.042   6.443
 4123SOL    HW213269   4.876   4.062   6.531
 4124SOL     OW13270   5.759   6.627   4.125
 4124SOL    HW113271   5.792   6.666   4.038
 4124SOL    HW213272   5.662   6.606   4.116
 4125SOL     OW13273   4.264   1.041   0.682
 4125SOL    HW113274   4.269   0.949   0.720
 4125SOL    HW213275   4.340   1.055   0.619
 4126SOL     OW13276   2.150   3.959   4.822
 4126SOL    HW113277   2.211   4.010   4.882
 4126SOL    HW213278   2.125   4.016   4.744
 4127SOL     OW13279   5.557   3.500   5.653
 4127SOL    HW113280   5.553   3.401   5.640
 4127SOL    HW213281   5.465   3.535   5.669
 4128SOL     OW13282   1.334   2.956   2.255
 4128SOL    HW113283   1.410   3.010   2.219
 4128SOL    HW213284   1.248   3.003   2.236
 4129SOL     OW13285   5.735   2.451   5.790
 4129SOL    HW113286   5.690   2.385   5.851
 4129SOL    HW213287   5.825   2.474   5.826
 4130SOL     OW13288   6.470   4.014   0.184
 4130SOL    HW113289   6.397   4.033   0.119
 4130SOL    HW213290   6.431   4.006   0.276
 4131SOL     OW13291   6.496   4.814   4.350
 4131SOL    HW113292   6.509   4.911   4.371
 4131SOL    HW213293   6.584   4.772   4.328
 4132SOL     OW13294   5.262   2.739   3.178
 4132SOL    HW113295   5.178   2.772   3.133
 4132SOL    HW213296   5.279   2.793   3.260
 4133SOL     OW13297   3.049   1.188   1.139
 4133SOL    HW113298   3.089   1.146   1.220
 4133SOL    HW213299   2.995   1.121   1.089
 4134SOL     OW13300   1.837   1.823   0.072
 4134SOL    HW113301   1.819   1.913   0.112
 4134SOL    HW213302   1.905   1.775   0.127
 4135SOL     OW13303   2.156   1.595   2.000
 4135SOL    HW113304   2.086   1.547   1.946
 4135SOL    HW213305   2.115   1.676   2.041
 4136SOL     OW13306   6.972   2.041   4.126
 4136SOL    HW113307   6.941   1.946   4.136
 4136SOL    HW213308   6.950   2.092   4.209
 4137SOL     OW13309   3.334   3.850   6.707
 4137SOL    HW113310   3.277   3.770   6.725
 4137SOL    HW213311   3.416   3.847   6.765
 4138SOL     OW13312   4.067   4.766   3.445
 4138SOL    HW113313   4.068   4.806   3.537
 4138SOL    HW213314   3.974   4.742   3.420
 4139SOL     OW13315   1.632   1.993   6.311
 4139SOL    HW113316   1.603   1.955   6.222
 4139SOL    HW213317   1.725   2.029   6.302
 4140SOL     OW13318   4.529   1.159   4.921
 4140SOL    HW113319   4.614   1.211   4.922
 4140SOL    HW213320   4.459   1.209   4.972
 4141SOL     OW13321   5.608   5.675   0.590
 4141SOL    HW113322   5.525   5.625   0.614
 4141SOL    HW213323   5.597   5.772   0.612
 4142SOL     OW13324   0.136   4.332   1.316
 4142SOL    HW113325   0.212   4.339   1.381
 4142SOL    HW213326   0.091   4.243   1.328
 4143SOL     OW13327   6.895   2.841   0.720
 4143SOL    HW113328   6.987   2.810   0.694
 4143SOL    HW213329   6.902   2.918   0.783
 4144SOL     OW13330   5.044   1.388   2.440
 4144SOL    HW113331   5.056   1.486   2.458
 4144SOL    HW213332   5.040   1.338   2.527
 4145SOL     OW13333   2.168   6.840   1.387
 4145SOL    HW113334   2.118   6.912   1.435
 4145SOL    HW213335   2.211   6.877   1.305
 4146SOL     OW13336   4.618   0.119   0.021
 4146SOL    HW113337   4.702   0.122   0.075
 4146SOL    HW213338   4.630   0.174   6.954
 4147SOL     OW13339   3.465   1.796   5.068
 4147SOL    HW113340   3.485   1.698   5.060
 4147SOL    HW213341   3.372   1.813   5.034
 4148SOL     OW13342   6.587   0.618   3.512
 4148SOL    HW113343   6.675   0.615   3.560
 4148SOL    HW213344   6.588   0.693   3.446
 4149SOL     OW13345   5.953   4.253   1.942
 4149SOL    HW113346   5.966   4.327   1.875
 4149SOL    HW213347   6.019   4.263   2.016
 4150SOL     OW13348   5.458   0.098   6.845
 4150SOL    HW113349   5.503   0.036   6.780
 4150SOL    HW213350   5.359   0.088   6.836
 4151SOL     OW13351   0.235   5.358   0.596
 4151SOL    HW113352   0.192   5.381   0.508
 4151SOL    HW213353   0.294   5.278   0.584
 4152SOL     OW13354   3.931   4.561   1.536
 4152SOL    HW113355   3.916   4.560   1.437
 4152SOL    HW213356   3.869   4.497   1.580
 4153SOL     OW13357   6.317   4.723   6.138
 4153SOL    HW113358   6.334   4.818   6.164
 4153SOL    HW213359   6.400   4.669   6.151
 4154SOL     OW13360   6.016   3.056   5.815
 4154SOL    HW113361   6.016   3.154   5.795
 4154SOL    HW213362   6.088   3.011   5.762
 4155SOL     OW13363   1.260   3.429   1.738
 4155SOL    HW113364   1.331   3.430   1.667
 4155SOL    HW213365   1.263   3.341   1.786
 4156SOL     OW13366   5.542   6.900   5.744
 4156SOL    HW113367   5.490   6.966   5.798
 4156SOL    HW213368   5.538   6.925   5.647
 4157SOL     OW13369   3.972   0.444   4.549
 4157SOL    HW113370   4.062   0.403   4.566
 4157SOL    HW213371   3.980   0.544   4.551
 4158SOL     OW13372   0.795   6.082   3.414
 4158SOL    HW113373   0.880   6.131   3.397
 4158SOL    HW213374   0.719   6.146   3.415
 4159SOL     OW13375   1.131   2.534   4.671
 4159SOL    HW113376   1.088   2.622   4.649
 4159SOL    HW213377   1.216   2.550   4.722
 4160SOL     OW13378   0.016   0.587   1.519
 4160SOL    HW113379   6.933   0.585   1.506
 4160SOL    HW213380   0.037   0.628   1.607
 4161SOL     OW13381   0.467   1.534   0.321
 4161SOL    HW113382   0.567   1.523   0.316
 4161SOL    HW213383   0.440   1.619   0.276
 4162SOL     OW13384   5.863   6.987   5.054
 4162SOL    HW113385   5.961   6.967   5.052
 4162SOL    HW213386   5.843   0.034   5.130
 4163SOL     OW13387   5.482   1.377   4.136
 4163SOL    HW113388   5.443   1.411   4.221
 4163SOL    HW213389   5.564   1.430   4.114
 4164SOL     OW13390   1.801   0.412   6.505
 4164SOL    HW113391   1.703   0.430   6.503
 4164SOL    HW213392   1.836   0.427   6.598
 4165SOL     OW13393   3.729   6.585   1.441
 4165SOL    HW113394   3.646   6.635   1.417
 4165SOL    HW213395   3.798   6.599   1.369
 4166SOL     OW13396   4.814   3.071   0.757
 4166SOL    HW113397   4.831   3.139   0.828
 4166SOL    HW213398   4.746   3.005   0.791
 4167SOL     OW13399   2.543   2.610   1.451
 4167SOL    HW113400   2.605   2.656   1.387
 4167SOL    HW213401   2.456   2.593   1.406
 4168SOL     OW13402   1.213   5.733   1.578
 4168SOL    HW113403   1.307   5.753   1.606
 4168SOL    HW213404   1.212   5.657   1.513
 4169SOL     OW13405   5.546   3.076   4.176
 4169SOL    HW113406   5.565   3.050   4.271
 4169SOL    HW213407   5.447   3.078   4.161
 4170SOL     OW13408   3.894   2.743   5.592
 4170SOL    HW113409   3.990   2.719   5.609
 4170SOL    HW213410   3.872   2.727   5.496
 4171SOL     OW13411   5.192   3.699   1.441
 4171SOL    HW113412   5.131   3.630   1.480
 4171SOL    HW213413   5.174   3.788   1.484
 4172SOL     OW13414   0.898   1.973   1.022
 4172SOL    HW113415   0.850   1.885   1.024
 4172SOL    HW213416   0.985   1.964   1.071
 4173SOL     OW13417   4.959   3.192   5.267
 4173SOL    HW113418   5.039   3.235   5.310
 4173SOL    HW213419   4.915   3.258   5.206
 4174SOL     OW13420   4.794   0.647   3.925
 4174SOL    HW113421   4.719   0.711   3.943
 4174SOL    HW213422   4.861   0.652   3.999
 4175SOL     OW13423   2.753   0.518   3.099
 4175SOL    HW113424   2.726   0.595   3.040
 4175SOL    HW213425   2.671   0.476   3.137
 4176SOL     OW13426   4.748   6.511   3.235
 4176SOL    HW113427   4.818   6.582   3.225
 4176SOL    HW213428   4.662   6.543   3.195
 4177SOL     OW13429   0.278   6.298   2.506
 4177SOL    HW113430   0.282   6.332   2.600
 4177SOL    HW213431   0.193   6.246   2.493
 4178SOL     OW13432   3.642   2.264   5.596
 4178SOL    HW113433   3.635   2.265   5.696
 4178SOL    HW213434   3.553   2.237   5.557
 4179SOL     OW13435   5.757   3.895   5.622
 4179SOL    HW113436   5.852   3.867   5.616
 4179SOL    HW213437   5.743   3.977   5.566
 4180SOL     OW13438   4.756   4.262   1.544
 4180SOL    HW113439   4.786   4.180   1.495
 4180SOL    HW213440   4.727   4.237   1.636
 4181SOL     OW13441   1.170   1.167   0.623
 4181SOL    HW113442   1.094   1.221   0.659
 4181SOL    HW213443   1.137   1.100   0.557
 4182SOL     OW13444   5.731   0.438   2.860
 4182SOL    HW113445   5.714   0.350   2.815
 4182SOL    HW213446   5.645   0.488   2.869
 4183SOL     OW13447   1.612   1.855   1.677
 4183SOL    HW113448   1.674   1.880   1.751
 4183SOL    HW213449   1.649   1.777   1.627
 4184SOL     OW13450   4.164   5.294   0.557
 4184SOL    HW113451   4.187   5.374   0.501
 4184SOL    HW213452   4.248   5.254   0.594
 4185SOL     OW13453   0.390   0.131   3.674
 4185SOL    HW113454   0.326   0.143   3.598
 4185SOL    HW213455   0.483   0.145   3.642
 4186SOL     OW13456   2.693   3.912   1.196
 4186SOL    HW113457   2.727   3.863   1.116
 4186SOL    HW213458   2.636   3.851   1.250
 4187SOL     OW13459   3.675   3.419   6.595
 4187SOL    HW113460   3.766   3.444   6.561
 4187SOL    HW213461   3.668   3.444   6.692
 4188SOL     OW13462   4.366   6.997   4.744
 4188SOL    HW113463   4.272   0.000   4.772
 4188SOL    HW213464   4.389   0.036   4.664
 4189SOL     OW13465   2.325   1.802   4.525
 4189SOL    HW113466   2.396   1.871   4.509
 4189SOL    HW213467   2.238   1.847   4.547
 4190SOL     OW13468   3.482   1.178   0.433
 4190SOL    HW113469   3.517   1.259   0.480
 4190SOL    HW213470   3.473   1.102   0.498
 4191SOL     OW13471   6.360   2.108   2.519
 4191SOL    HW113472   6.429   2.040   2.492
 4191SOL    HW213473   6.395   2.200   2.502
 4192SOL     OW13474   6.326   1.143   3.531
 4192SOL    HW113475   6.364   1.202   3.460
 4192SOL    HW213476   6.238   1.107   3.501
 4193SOL     OW13477   2.000   6.985   1.978
 4193SOL    HW113478   1.932   6.939   2.036
 4193SOL    HW213479   1.968   0.061   1.956
 4194SOL     OW13480   0.504   0.972   3.998
 4194SOL    HW113481   0.515   0.907   4.073
 4194SOL    HW213482   0.525   0.927   3.911
 4195SOL     OW13483   5.309   0.102   1.461
 4195SOL    HW113484   5.325   0.138   1.553
 4195SOL    HW213485   5.393   0.107   1.408
 4196SOL     OW13486   4.882   2.563   3.725
 4196SOL    HW113487   4.881   2.529   3.631
 4196SOL    HW213488   4.819   2.640   3.733
 4197SOL     OW13489   4.865   4.544   4.494
 4197SOL    HW113490   4.797   4.473   4.474
 4197SOL    HW213491   4.948   4.526   4.440
 4198SOL     OW13492   6.604   3.450   6.777
 4198SOL    HW113493   6.591   3.481   6.683
 4198SOL    HW213494   6.585   3.352   6.782
 4199SOL     OW13495   2.873   3.288   5.605
 4199SOL    HW113496   2.856   3.359   5.536
 4199SOL    HW213497   2.962   3.246   5.587
 4200SOL     OW13498   1.880   0.138   6.759
 4200SOL    HW113499   1.842   0.205   6.823
 4200SOL    HW213500   1.813   0.065   6.745
 4201SOL     OW13501   5.606   6.050   3.706
 4201SOL    HW113502   5.691   6.018   3.664
 4201SOL    HW213503   5.546   5.972   3.724
 4202SOL     OW13504   5.496   4.901   4.778
 4202SOL    HW113505   5.458   4.812   4.751
 4202SOL    HW213506   5.422   4.964   4.799
 4203SOL     OW13507   5.318   5.620   3.396
 4203SOL    HW113508   5.248   5.634   3.326
 4203SOL    HW213509   5.387   5.692   3.389
 4204SOL     OW13510   3.347   3.248   1.608
 4204SOL    HW113511   3.291   3.179   1.653
 4204SOL    HW213512   3.288   3.318   1.567
 4205SOL     OW13513   2.588   5.065   3.407
 4205SOL    HW113514   2.546   5.105   3.488
 4205SOL    HW213515   2.587   5.132   3.332
 4206SOL     OW13516   5.142   0.307   4.414
 4206SOL    HW113517   5.182   0.265   4.332
 4206SOL    HW213518   5.047   0.332   4.395
 4207SOL     OW13519   1.043   1.316   1.823
 4207SOL    HW113520   1.026   1.232   1.772
 4207SOL    HW213521   1.136   1.349   1.802
 4208SOL     OW13522   0.642   3.598   1.188
 4208SOL    HW113523   0.687   3.667   1.132
 4208SOL    HW213524   0.638   3.630   1.283
 4209SOL     OW13525   2.653   0.127   4.880
 4209SOL    HW113526   2.613   0.049   4.928
 4209SOL    HW213527   2.721   0.093   4.814
 4210SOL     OW13528   4.973   3.014   0.523
 4210SOL    HW113529   4.953   2.930   0.473
 4210SOL    HW213530   4.925   3.013   0.611
 4211SOL     OW13531   4.438   4.894   3.361
 4211SOL    HW113532   4.531   4.914   3.330
 4211SOL    HW213533   4.426   4.795   3.367
 4212SOL     OW13534   6.330   0.938   2.817
 4212SOL    HW113535   6.231   0.933   2.828
 4212SOL    HW213536   6.375   0.902   2.899
 4213SOL     OW13537   1.005   1.199   2.476
 4213SOL    HW113538   0.909   1.172   2.470
 4213SOL    HW213539   1.015   1.269   2.547
 4214SOL     OW13540   1.268   3.102   4.349
 4214SOL    HW113541   1.246   3.015   4.304
 4214SOL    HW213542   1.367   3.110   4.358
 4215SOL     OW13543   0.788   5.282   4.045
 4215SOL    HW113544   0.853   5.317   4.112
 4215SOL    HW213545   0.802   5.183   4.034
 4216SOL     OW13546   1.253   2.938   4.987
 4216SOL    HW113547   1.175   2.898   5.035
 4216SOL    HW213548   1.265   2.892   4.899
 4217SOL     OW13549   0.137   0.446   3.063
 4217SOL    HW113550   0.114   0.531   3.015
 4217SOL    HW213551   0.065   0.378   3.045
 4218SOL     OW13552   4.461   6.938   2.011
 4218SOL    HW113553   4.361   6.930   2.018
 4218SOL    HW213554   4.484   0.005   1.960
 4219SOL     OW13555   4.150   5.760   3.329
 4219SOL    HW113556   4.066   5.813   3.317
 4219SOL    HW213557   4.220   5.817   3.372
 4220SOL     OW13558   6.059   2.883   3.377
 4220SOL    HW113559   6.068   2.809   3.443
 4220SOL    HW213560   6.149   2.907   3.341
 4221SOL     OW13561   5.550   5.589   5.812
 4221SOL    HW113562   5.621   5.641   5.765
 4221SOL    HW213563   5.581   5.567   5.905
 4222SOL     OW13564   4.731   2.063   1.031
 4222SOL    HW113565   4.759   1.972   1.063
 4222SOL    HW213566   4.784   2.133   1.080
 4223SOL     OW13567   4.006   3.869   2.422
 4223SOL    HW113568   4.064   3.950   2.407
 4223SOL    HW213569   4.027   3.829   2.512
 4224SOL     OW13570   4.437   2.359   5.023
 4224SOL    HW113571   4.479   2.418   5.091
 4224SOL    HW213572   4.339   2.350   5.043
 4225SOL     OW13573   5.625   0.297   4.787
 4225SOL    HW113574   5.674   0.220   4.828
 4225SOL    HW213575   5.566   0.340   4.855
 4226SOL     OW13576   1.170   1.142   3.856
 4226SOL    HW113577   1.221   1.118   3.774
 4226SOL    HW213578   1.137   1.236   3.848
 4227SOL     OW13579   5.475   4.218   0.070
 4227SOL    HW113580   5.490   4.146   0.003
 4227SOL    HW213581   5.549   4.286   0.063
 4228SOL     OW13582   6.346   5.281   2.538
 4228SOL    HW113583   6.301   5.360   2.579
 4228SOL    HW213584   6.375   5.304   2.445
 4229SOL     OW13585   5.313   4.556   5.629
 4229SOL    HW113586   5.364   4.535   5.546
 4229SOL    HW213587   5.377   4.582   5.702
 4230SOL     OW13588   3.073   6.889   4.657
 4230SOL    HW113589   2.993   6.943   4.682
 4230SOL    HW213590   3.153   6.922   4.707
 4231SOL     OW13591   4.235   6.723   5.612
 4231SOL    HW113592   4.209   6.805   5.562
 4231SOL    HW213593   4.190   6.723   5.702
 4232SOL     OW13594   2.212   4.020   2.305
 4232SOL    HW113595   2.128   4.073   2.291
 4232SOL    HW213596   2.290   4.083   2.310
 4233SOL     OW13597   6.455   6.641   0.884
 4233SOL    HW113598   6.360   6.610   0.890
 4233SOL    HW213599   6.515   6.568   0.917
 4234SOL     OW13600   2.836   4.487   5.633
 4234SOL    HW113601   2.800   4.529   5.549
 4234SOL    HW213602   2.854   4.390   5.616
 4235SOL     OW13603   6.432   3.769   5.765
 4235SOL    HW113604   6.473   3.779   5.856
 4235SOL    HW213605   6.493   3.808   5.696
 4236SOL     OW13606   1.270   3.351   4.642
 4236SOL    HW113607   1.176   3.385   4.642
 4236SOL    HW213608   1.285   3.293   4.722
 4237SOL     OW13609   5.340   2.970   4.803
 4237SOL    HW113610   5.386   2.895   4.755
 4237SOL    HW213611   5.348   2.956   4.902
 4238SOL     OW13612   4.285   5.241   4.045
 4238SOL    HW113613   4.334   5.180   3.983
 4238SOL    HW213614   4.223   5.299   3.992
 4239SOL     OW13615   4.814   5.577   5.779
 4239SOL    HW113616   4.818   5.481   5.752
 4239SOL    HW213617   4.903   5.604   5.817
 4240SOL     OW13618   2.255   4.629   6.740
 4240SOL    HW113619   2.254   4.570   6.660
 4240SOL    HW213620   2.275   4.723   6.712
 4241SOL     OW13621   4.109   0.759   6.336
 4241SOL    HW113622   4.148   0.670   6.313
 4241SOL    HW213623   4.025   0.773   6.284
 4242SOL     OW13624   1.987   0.615   2.638
 4242SOL    HW113625   1.985   0.704   2.592
 4242SOL    HW213626   1.988   0.630   2.737
 4243SOL     OW13627   1.623   2.762   3.190
 4243SOL    HW113628   1.671   2.834   3.241
 4243SOL    HW213629   1.594   2.799   3.101
 4244SOL     OW13630   3.771   6.484   1.735
 4244SOL    HW113631   3.865   6.519   1.740
 4244SOL    HW213632   3.723   6.527   1.659
 4245SOL     OW13633   6.106   3.808   0.709
 4245SOL    HW113634   6.078   3.759   0.626
 4245SOL    HW213635   6.032   3.867   0.740
 4246SOL     OW13636   5.144   1.587   3.721
 4246SOL    HW113637   5.175   1.671   3.677
 4246SOL    HW213638   5.193   1.509   3.682
 4247SOL     OW13639   1.593   5.127   5.715
 4247SOL    HW113640   1.529   5.204   5.710
 4247SOL    HW213641   1.548   5.049   5.757
 4248SOL     OW13642   1.598   0.674   3.349
 4248SOL    HW113643   1.643   0.744   3.404
 4248SOL    HW213644   1.635   0.676   3.256
 4249SOL     OW13645   6.477   6.734   5.021
 4249SOL    HW113646   6.534   6.657   5.050
 4249SOL    HW213647   6.455   6.725   4.924
 4250SOL     OW13648   0.121   5.675   4.219
 4250SOL    HW113649   0.159   5.586   4.246
 4250SOL    HW213650   0.133   5.688   4.120
 4251SOL     OW13651   6.435   2.219   5.710
 4251SOL    HW113652   6.335   2.218   5.720
 4251SOL    HW213653   6.468   2.313   5.716
 4252SOL     OW13654   0.080   6.540   0.269
 4252SOL    HW113655   0.024   6.476   0.217
 4252SOL    HW213656   0.095   6.505   0.361
 4253SOL     OW13657   4.779   5.649   2.765
 4253SOL    HW113658   4.812   5.737   2.733
 4253SOL    HW213659   4.821   5.576   2.712
 4254SOL     OW13660   1.738   3.318   0.371
 4254SOL    HW113661   1.835   3.342   0.360
 4254SOL    HW213662   1.728   3.219   0.360
 4255SOL     OW13663   1.285   3.473   3.208
 4255SOL    HW113664   1.279   3.565   3.169
 4255SOL    HW213665   1.341   3.415   3.149
 4256SOL     OW13666   0.754   5.886   1.609
 4256SOL    HW113667   0.751   5.849   1.516
 4256SOL    HW213668   0.715   5.979   1.609
 4257SOL     OW13669   6.585   0.303   4.541
 4257SOL    HW113670   6.678   0.329   4.519
 4257SOL    HW213671   6.529   0.385   4.553
 4258SOL     OW13672   3.243   6.133   0.665
 4258SOL    HW113673   3.277   6.211   0.612
 4258SOL    HW213674   3.192   6.072   0.605
 4259SOL     OW13675   1.373   0.436   1.832
 4259SOL    HW113676   1.446   0.373   1.856
 4259SOL    HW213677   1.402   0.493   1.755
 4260SOL     OW13678   5.649   1.301   4.501
 4260SOL    HW113679   5.672   1.292   4.599
 4260SOL    HW213680   5.720   1.256   4.447
 4261SOL     OW13681   2.046   6.373   4.027
 4261SOL    HW113682   2.005   6.363   4.117
 4261SOL    HW213683   2.019   6.296   3.969
 4262SOL     OW13684   1.965   4.053   6.462
 4262SOL    HW113685   1.975   3.981   6.531
 4262SOL    HW213686   1.881   4.104   6.480
 4263SOL     OW13687   2.387   1.547   4.452
 4263SOL    HW113688   2.351   1.633   4.489
 4263SOL    HW213689   2.373   1.474   4.519
 4264SOL     OW13690   5.003   1.563   5.156
 4264SOL    HW113691   4.942   1.636   5.123
 4264SOL    HW213692   5.076   1.549   5.089
 4265SOL     OW13693   3.195   0.395   6.841
 4265SOL    HW113694   3.178   0.420   6.746
 4265SOL    HW213695   3.279   0.342   6.847
 4266SOL     OW13696   1.086   5.354   1.153
 4266SOL    HW113697   1.120   5.447   1.167
 4266SOL    HW213698   1.029   5.352   1.071
 4267SOL     OW13699   1.763   4.611   4.674
 4267SOL    HW113700   1.849   4.646   4.638
 4267SOL    HW213701   1.761   4.621   4.774
 4268SOL     OW13702   1.291   4.300   0.305
 4268SOL    HW113703   1.293   4.312   0.404
 4268SOL    HW213704   1.258   4.385   0.262
 4269SOL     OW13705   3.056   1.415   5.119
 4269SOL    HW113706   3.112   1.396   5.038
 4269SOL    HW213707   3.024   1.329   5.158
 4270SOL     OW13708   3.728   2.826   0.936
 4270SOL    HW113709   3.749   2.766   0.859
 4270SOL    HW213710   3.779   2.797   1.017
 4271SOL     OW13711   0.018   0.919   1.544
 4271SOL    HW113712   0.069   0.882   1.622
 4271SOL    HW213713   6.943   0.880   1.543
 4272SOL     OW13714   0.243   1.276   6.612
 4272SOL    HW113715   0.167   1.220   6.643
 4272SOL    HW213716   0.252   1.356   6.671
 4273SOL     OW13717   3.224   6.052   4.574
 4273SOL    HW113718   3.131   6.084   4.592
 4273SOL    HW213719   3.227   6.006   4.486
 4274SOL     OW13720   6.686   1.494   1.941
 4274SOL    HW113721   6.676   1.471   1.844
 4274SOL    HW213722   6.619   1.565   1.965
 4275SOL     OW13723   6.881   3.082   3.444
 4275SOL    HW113724   6.790   3.044   3.458
 4275SOL    HW213725   6.880   3.179   3.466
 4276SOL     OW13726   2.374   5.966   3.539
 4276SOL    HW113727   2.452   5.924   3.586
 4276SOL    HW213728   2.327   5.897   3.483
 4277SOL     OW13729   5.834   5.857   2.623
 4277SOL    HW113730   5.865   5.763   2.633
 4277SOL    HW213731   5.866   5.911   2.701
 4278SOL     OW13732   1.431   6.796   1.862
 4278SOL    HW113733   1.469   6.764   1.949
 4278SOL    HW213734   1.489   6.869   1.826
 4279SOL     OW13735   0.950   1.369   3.466
 4279SOL    HW113736   1.050   1.373   3.455
 4279SOL    HW213737   0.909   1.331   3.383
 4280SOL     OW13738   1.015   6.842   6.411
 4280SOL    HW113739   0.993   6.810   6.319
 4280SOL    HW213740   0.958   6.795   6.478
 4281SOL     OW13741   5.265   5.436   3.106
 4281SOL    HW113742   5.234   5.403   3.017
 4281SOL    HW213743   5.201   5.407   3.176
 4282SOL     OW13744   3.654   4.125   0.867
 4282SOL    HW113745   3.644   4.054   0.798
 4282SOL    HW213746   3.744   4.169   0.856
 4283SOL     OW13747   5.010   1.349   4.672
 4283SOL    HW113748   5.019   1.406   4.754
 4283SOL    HW213749   4.923   1.369   4.627
 4284SOL     OW13750   4.591   5.792   6.173
 4284SOL    HW113751   4.562   5.721   6.238
 4284SOL    HW213752   4.608   5.749   6.084
 4285SOL     OW13753   3.669   0.370   5.481
 4285SOL    HW113754   3.695   0.416   5.565
 4285SOL    HW213755   3.607   0.429   5.428
 4286SOL     OW13756   5.698   0.904   6.651
 4286SOL    HW113757   5.636   0.830   6.626
 4286SOL    HW213758   5.754   0.930   6.572
 4287SOL     OW13759   4.285   0.288   0.640
 4287SOL    HW113760   4.205   0.329   0.598
 4287SOL    HW213761   4.274   0.189   0.643
 4288SOL     OW13762   6.621   6.342   2.646
 4288SOL    HW113763   6.695   6.337   2.713
 4288SOL    HW213764   6.620   6.432   2.603
 4289SOL     OW13765   0.347   3.960   4.131
 4289SOL    HW113766   0.349   4.050   4.089
 4289SOL    HW213767   0.414   3.901   4.086
 4290SOL     OW13768   0.810   0.843   3.700
 4290SOL    HW113769   0.716   0.831   3.735
 4290SOL    HW213770   0.829   0.941   3.692
 4291SOL     OW13771   4.931   3.363   6.421
 4291SOL    HW113772   4.915   3.283   6.363
 4291SOL    HW213773   4.861   3.432   6.403
 4292SOL     OW13774   6.398   2.538   1.461
 4292SOL    HW113775   6.476   2.561   1.404
 4292SOL    HW213776   6.330   2.611   1.456
 4293SOL     OW13777   4.072   3.967   0.029
 4293SOL    HW113778   4.028   3.979   0.118
 4293SOL    HW213779   4.066   4.051   6.993
 4294SOL     OW13780   1.454   1.843   6.435
 4294SOL    HW113781   1.372   1.881   6.477
 4294SOL    HW213782   1.506   1.916   6.391
 4295SOL     OW13783   4.335   6.005   3.046
 4295SOL    HW113784   4.354   6.014   3.144
 4295SOL    HW213785   4.402   5.945   3.004
 4296SOL     OW13786   2.924   6.285   2.787
 4296SOL    HW113787   3.014   6.240   2.782
 4296SOL    HW213788   2.935   6.376   2.826
 4297SOL     OW13789   5.764   5.156   0.615
 4297SOL    HW113790   5.778   5.161   0.516
 4297SOL    HW213791   5.852   5.146   0.660
 4298SOL     OW13792   1.830   6.697   0.822
 4298SOL    HW113793   1.907   6.756   0.847
 4298SOL    HW213794   1.817   6.628   0.893
 4299SOL     OW13795   0.681   3.038   0.096
 4299SOL    HW113796   0.751   3.029   0.167
 4299SOL    HW213797   0.652   3.133   0.090
 4300SOL     OW13798   2.540   1.105   1.148
 4300SOL    HW113799   2.627   1.150   1.166
 4300SOL    HW213800   2.511   1.123   1.054
 4301SOL     OW13801   2.781   6.527   0.972
 4301SOL    HW113802   2.692   6.516   0.929
 4301SOL    HW213803   2.820   6.616   0.947
 4302SOL     OW13804   2.408   5.582   6.329
 4302SOL    HW113805   2.454   5.661   6.289
 4302SOL    HW213806   2.461   5.499   6.308
 4303SOL     OW13807   5.937   5.264   2.907
 4303SOL    HW113808   5.912   5.221   2.820
 4303SOL    HW213809   5.929   5.364   2.898
 4304SOL     OW13810   3.778   3.731   1.370
 4304SOL    HW113811   3.680   3.737   1.388
 4304SOL    HW213812   3.829   3.749   1.455
 4305SOL     OW13813   1.369   6.674   5.296
 4305SOL    HW113814   1.374   6.621   5.211
 4305SOL    HW213815   1.342   6.768   5.275
 4306SOL     OW13816   5.874   3.629   5.194
 4306SOL    HW113817   5.808   3.616   5.268
 4306SOL    HW213818   5.890   3.542   5.147
 4307SOL     OW13819   0.381   1.577   5.902
 4307SOL    HW113820   0.456   1.557   5.965
 4307SOL    HW213821   0.417   1.608   5.815
 4308SOL     OW13822   5.028   5.952   0.081
 4308SOL    HW113823   4.948   5.964   0.139
 4308SOL    HW213824   5.025   5.861   0.039
 4309SOL     OW13825   1.106   2.220   0.803
 4309SOL    HW113826   1.009   2.227   0.826
 4309SOL    HW213827   1.145   2.312   0.796
 4310SOL     OW13828   0.183   2.160   3.216
 4310SOL    HW113829   0.109   2.219   3.248
 4310SOL    HW213830   0.223   2.199   3.133
 4311SOL     OW13831   0.311   0.398   1.961
 4311SOL    HW113832   0.296   0.475   2.023
 4311SOL    HW213833   0.294   0.427   1.867
 4312SOL     OW13834   0.498   4.600   2.489
 4312SOL    HW113835   0.535   4.684   2.449
 4312SOL    HW213836   0.472   4.617   2.584
 4313SOL     OW13837   6.502   2.446   6.767
 4313SOL    HW113838   6.564   2.525   6.768
 4313SOL    HW213839   6.541   2.373   6.822
 4314SOL     OW13840   0.248   1.796   5.557
 4314SOL    HW113841   0.205   1.747   5.633
 4314SOL    HW213842   0.330   1.747   5.528
 4315SOL     OW13843   2.924   1.192   4.675
 4315SOL    HW113844   2.951   1.131   4.749
 4315SOL    HW213845   2.830   1.172   4.648
 4316SOL     OW13846   5.523   6.462   1.618
 4316SOL    HW113847   5.616   6.483   1.590
 4316SOL    HW213848   5.470   6.431   1.539
 4317SOL     OW13849   4.917   0.721   5.723
 4317SOL    HW113850   4.959   0.734   5.812
 4317SOL    HW213851   4.911   0.623   5.703
 4318SOL     OW13852   0.912   0.264   4.309
 4318SOL    HW113853   1.001   0.310   4.298
 4318SOL    HW213854   0.897   0.245   4.406
 4319SOL     OW13855   1.706   5.092   2.917
 4319SOL    HW113856   1.803   5.111   2.901
 4319SOL    HW213857   1.653   5.120   2.838
 4320SOL     OW13858   3.083   6.590   1.163
 4320SOL    HW113859   3.131   6.522   1.219
 4320SOL    HW213860   3.149   6.636   1.103
 4321SOL     OW13861   6.329   6.533   2.823
 4321SOL    HW113862   6.359   6.439   2.838
 4321SOL    HW213863   6.271   6.562   2.899
 4322SOL     OW13864   0.986   3.408   4.896
 4322SOL    HW113865   1.007   3.483   4.957
 4322SOL    HW213866   0.982   3.322   4.947
 4323SOL     OW13867   3.878   4.890   6.836
 4323SOL    HW113868   3.919   4.888   6.927
 4323SOL    HW213869   3.940   4.935   6.771
 4324SOL     OW13870   0.088   4.649   5.830
 4324SOL    HW113871   0.060   4.606   5.744
 4324SOL    HW213872   0.177   4.615   5.858
 4325SOL     OW13873   2.224   0.877   2.772
 4325SOL    HW113874   2.279   0.829   2.703
 4325SOL    HW213875   2.148   0.820   2.800
 4326SOL     OW13876   5.326   2.255   2.559
 4326SOL    HW113877   5.282   2.206   2.634
 4326SOL    HW213878   5.347   2.192   2.485
 4327SOL     OW13879   2.884   6.297   3.611
 4327SOL    HW113880   2.833   6.277   3.527
 4327SOL    HW213881   2.829   6.270   3.690
 4328SOL     OW13882   6.040   6.990   4.784
 4328SOL    HW113883   6.033   6.938   4.869
 4328SOL    HW213884   6.070   6.931   4.710
 4329SOL     OW13885   0.214   1.659   6.098
 4329SOL    HW113886   0.165   1.745   6.085
 4329SOL    HW213887   0.268   1.638   6.016
 4330SOL     OW13888   3.082   4.855   4.820
 4330SOL    HW113889   3.079   4.883   4.915
 4330SOL    HW213890   3.137   4.772   4.811
 4331SOL     OW13891   5.953   1.117   2.022
 4331SOL    HW113892   5.901   1.096   1.939
 4331SOL    HW213893   5.900   1.180   2.079
 4332SOL     OW13894   0.296   4.993   2.724
 4332SOL    HW113895   0.291   5.092   2.711
 4332SOL    HW213896   0.218   4.950   2.679
 4333SOL     OW13897   3.778   2.596   5.840
 4333SOL    HW113898   3.711   2.586   5.766
 4333SOL    HW213899   3.737   2.570   5.927
 4334SOL     OW13900   0.235   2.981   4.488
 4334SOL    HW113901   0.289   2.923   4.550
 4334SOL    HW213902   0.138   2.958   4.498
 4335SOL     OW13903   2.551   3.701   1.486
 4335SOL    HW113904   2.455   3.710   1.513
 4335SOL    HW213905   2.605   3.769   1.536
 4336SOL     OW13906   2.624   5.079   5.868
 4336SOL    HW113907   2.722   5.092   5.881
 4336SOL    HW213908   2.575   5.121   5.945
 4337SOL     OW13909   1.387   5.316   3.890
 4337SOL    HW113910   1.333   5.396   3.862
 4337SOL    HW213911   1.337   5.233   3.865
 4338SOL     OW13912   3.742   1.129   5.501
 4338SOL    HW113913   3.810   1.077   5.552
 4338SOL    HW213914   3.652   1.088   5.515
 4339SOL     OW13915   4.015   3.793   6.371
 4339SOL    HW113916   3.932   3.738   6.377
 4339SOL    HW213917   4.035   3.811   6.274
 4340SOL     OW13918   6.513   4.146   0.873
 4340SOL    HW113919   6.553   4.126   0.963
 4340SOL    HW213920   6.424   4.103   0.865
 4341SOL     OW13921   6.969   0.041   2.536
 4341SOL    HW113922   0.005   0.126   2.525
 4341SOL    HW213923   6.922   0.019   2.451
 4342SOL     OW13924   4.990   3.602   2.464
 4342SOL    HW113925   5.014   3.656   2.545
 4342SOL    HW213926   4.989   3.662   2.384
 4343SOL     OW13927   3.991   6.774   5.926
 4343SOL    HW113928   3.906   6.819   5.953
 4343SOL    HW213929   4.021   6.713   5.999
 4344SOL     OW13930   0.074   3.342   3.801
 4344SOL    HW113931   0.147   3.368   3.864
 4344SOL    HW213932   0.041   3.250   3.825
 4345SOL     OW13933   3.223   3.038   2.358
 4345SOL    HW113934   3.243   2.974   2.285
 4345SOL    HW213935   3.125   3.058   2.360
 4346SOL     OW13936   0.827   3.101   2.245
 4346SOL    HW113937   0.801   3.094   2.341
 4346SOL    HW213938   0.754   3.145   2.193
 4347SOL     OW13939   5.980   6.125   0.502
 4347SOL    HW113940   5.908   6.065   0.466
 4347SOL    HW213941   6.064   6.110   0.451
 4348SOL     OW13942   5.953   5.339   3.941
 4348SOL    HW113943   5.917   5.282   3.867
 4348SOL    HW213944   5.946   5.435   3.915
 4349SOL     OW13945   6.917   3.815   4.219
 4349SOL    HW113946   6.842   3.864   4.263
 4349SOL    HW213947   6.887   3.723   4.194
 4350SOL     OW13948   4.292   1.550   4.976
 4350SOL    HW113949   4.385   1.529   5.005
 4350SOL    HW213950   4.285   1.540   4.877
 4351SOL     OW13951   1.081   6.579   0.294
 4351SOL    HW113952   1.003   6.601   0.352
 4351SOL    HW213953   1.156   6.545   0.350
 4352SOL     OW13954   3.785   3.621   0.738
 4352SOL    HW113955   3.833   3.539   0.705
 4352SOL    HW213956   3.790   3.693   0.668
 4353SOL     OW13957   2.913   2.918   1.425
 4353SOL    HW113958   2.948   2.953   1.512
 4353SOL    HW213959   2.816   2.941   1.417
 4354SOL     OW13960   5.807   6.928   3.603
 4354SOL    HW113961   5.776   6.939   3.508
 4354SOL    HW213962   5.729   6.908   3.662
 4355SOL     OW13963   1.396   6.118   2.861
 4355SOL    HW113964   1.411   6.029   2.818
 4355SOL    HW213965   1.412   6.190   2.793
 4356SOL     OW13966   5.239   2.518   6.042
 4356SOL    HW113967   5.220   2.597   5.984
 4356SOL    HW213968   5.157   2.492   6.092
 4357SOL     OW13969   5.799   0.572   2.518
 4357SOL    HW113970   5.704   0.543   2.515
 4357SOL    HW213971   5.849   0.516   2.584
 4358SOL     OW13972   2.113   6.996   6.732
 4358SOL    HW113973   2.049   0.054   6.751
 4358SOL    HW213974   2.165   7.016   6.649
 4359SOL     OW13975   2.425   2.254   6.919
 4359SOL    HW113976   2.515   2.222   6.887
 4359SOL    HW213977   2.418   2.236   0.001
 4360SOL     OW13978   1.837   3.629   3.796
 4360SOL    HW113979   1.875   3.663   3.710
 4360SOL    HW213980   1.745   3.665   3.810
 4361SOL     OW13981   6.429   2.025   0.850
 4361SOL    HW113982   6.483   2.108   0.840
 4361SOL    HW213983   6.478   1.948   0.808
 4362SOL     OW13984   1.192   5.679   3.326
 4362SOL    HW113985   1.262   5.613   3.356
 4362SOL    HW213986   1.154   5.725   3.406
 4363SOL     OW13987   4.493   1.189   2.943
 4363SOL    HW113988   4.515   1.217   3.036
 4363SOL    HW213989   4.578   1.175   2.892
 4364SOL     OW13990   4.165   3.470   2.406
 4364SOL    HW113991   4.215   3.502   2.486
 4364SOL    HW213992   4.139   3.374   2.419
 4365SOL     OW13993   2.456   2.222   1.532
 4365SOL    HW113994   2.509   2.187   1.610
 4365SOL    HW213995   2.359   2.203   1.546
 4366SOL     OW13996   4.318   6.140   4.930
 4366SOL    HW113997   4.266   6.224   4.944
 4366SOL    HW213998   4.258   6.071   4.889
 4367SOL     OW13999   2.627   5.715   3.164
 4367SOL    HW114000   2.643   5.617   3.163
 4367SOL    HW214001   2.712   5.763   3.185
 4368SOL     OW14002   4.729   4.160   3.563
 4368SOL    HW114003   4.757   4.247   3.603
 4368SOL    HW214004   4.666   4.177   3.487
 4369SOL     OW14005   4.506   4.502   3.220
 4369SOL    HW114006   4.420   4.519   3.269
 4369SOL    HW214007   4.563   4.584   3.224
 4370SOL     OW14008   3.660   4.407   1.646
 4370SOL    HW114009   3.645   4.417   1.548
 4370SOL    HW214010   3.626   4.488   1.694
 4371SOL     OW14011   3.075   2.069   0.346
 4371SOL    HW114012   3.013   1.999   0.380
 4371SOL    HW214013   3.139   2.028   0.281
 4372SOL     OW14014   1.866   3.161   4.518
 4372SOL    HW114015   1.949   3.213   4.541
 4372SOL    HW214016   1.799   3.171   4.591
 4373SOL     OW14017   3.999   1.325   5.909
 4373SOL    HW114018   4.047   1.344   5.823
 4373SOL    HW214019   3.935   1.249   5.895
 4374SOL     OW14020   2.043   0.917   1.734
 4374SOL    HW114021   2.014   0.822   1.745
 4374SOL    HW214022   2.143   0.920   1.725
 4375SOL     OW14023   4.799   1.310   4.192
 4375SOL    HW114024   4.778   1.230   4.248
 4375SOL    HW214025   4.851   1.281   4.112
 4376SOL     OW14026   1.656   6.060   6.969
 4376SOL    HW114027   1.738   6.008   6.945
 4376SOL    HW214028   1.683   6.145   7.015
 4377SOL     OW14029   5.869   7.005   6.663
 4377SOL    HW114030   5.863   0.043   6.579
 4377SOL    HW214031   5.923   0.038   6.731
 4378SOL     OW14032   2.422   5.661   2.442
 4378SOL    HW114033   2.397   5.735   2.380
 4378SOL    HW214034   2.476   5.697   2.517
 4379SOL     OW14035   1.461   0.945   1.788
 4379SOL    HW114036   1.456   1.039   1.823
 4379SOL    HW214037   1.382   0.928   1.729
 4380SOL     OW14038   2.244   5.378   4.816
 4380SOL    HW114039   2.228   5.365   4.718
 4380SOL    HW214040   2.237   5.290   4.862
 4381SOL     OW14041   4.099   6.176   5.581
 4381SOL    HW114042   4.058   6.161   5.491
 4381SOL    HW214043   4.027   6.196   5.647
 4382SOL     OW14044   5.010   3.839   3.272
 4382SOL    HW114045   4.968   3.815   3.185
 4382SOL    HW214046   4.984   3.933   3.297
 4383SOL     OW14047   0.985   2.756   6.916
 4383SOL    HW114048   1.027   2.726   7.001
 4383SOL    HW214049   1.041   2.724   6.839
 4384SOL     OW14050   4.033   6.177   1.182
 4384SOL    HW114051   4.031   6.267   1.138
 4384SOL    HW214052   3.941   6.152   1.211
 4385SOL     OW14053   6.779   1.790   2.472
 4385SOL    HW114054   6.737   1.699   2.470
 4385SOL    HW214055   6.785   1.821   2.567
 4386SOL     OW14056   1.015   3.449   0.155
 4386SOL    HW114057   1.083   3.503   0.105
 4386SOL    HW214058   1.062   3.391   0.221
 4387SOL     OW14059   6.893   3.405   1.946
 4387SOL    HW114060   6.885   3.377   2.042
 4387SOL    HW214061   6.804   3.438   1.914
 4388SOL     OW14062   3.512   1.345   5.367
 4388SOL    HW114063   3.596   1.348   5.421
 4388SOL    HW214064   3.433   1.358   5.427
 4389SOL     OW14065   4.706   2.454   2.825
 4389SOL    HW114066   4.723   2.427   2.920
 4389SOL    HW214067   4.610   2.479   2.814
 4390SOL     OW14068   4.672   2.570   2.148
 4390SOL    HW114069   4.730   2.637   2.194
 4390SOL    HW214070   4.594   2.547   2.206
 4391SOL     OW14071   0.611   5.712   0.569
 4391SOL    HW114072   0.548   5.754   0.635
 4391SOL    HW214073   0.655   5.633   0.611
 4392SOL     OW14074   5.345   3.448   4.436
 4392SOL    HW114075   5.320   3.482   4.527
 4392SOL    HW214076   5.310   3.355   4.424
 4393SOL     OW14077   4.533   6.490   3.603
 4393SOL    HW114078   4.598   6.426   3.563
 4393SOL    HW214079   4.446   6.485   3.554
 4394SOL     OW14080   4.758   0.742   1.949
 4394SOL    HW114081   4.848   0.698   1.949
 4394SOL    HW214082   4.761   0.824   2.007
 4395SOL     OW14083   5.112   1.802   2.243
 4395SOL    HW114084   5.204   1.824   2.275
 4395SOL    HW214085   5.048   1.812   2.319
 4396SOL     OW14086   1.340   0.403   3.869
 4396SOL    HW114087   1.396   0.320   3.856
 4396SOL    HW214088   1.365   0.446   3.956
 4397SOL     OW14089   6.638   0.387   6.073
 4397SOL    HW114090   6.578   0.458   6.110
 4397SOL    HW214091   6.613   0.370   5.978
 4398SOL     OW14092   6.830   4.853   4.520
 4398SOL    HW114093   6.780   4.880   4.602
 4398SOL    HW214094   6.789   4.770   4.483
 4399SOL     OW14095   2.164   1.435   1.632
 4399SOL    HW114096   2.150   1.424   1.533
 4399SOL    HW214097   2.251   1.393   1.658
 4400SOL     OW14098   3.180   6.108   4.889
 4400SOL    HW114099   3.149   6.151   4.804
 4400SOL    HW214100   3.277   6.085   4.882
 4401SOL     OW14101   5.480   6.179   4.916
 4401SOL    HW114102   5.513   6.264   4.876
 4401SOL    HW214103   5.380   6.174   4.910
 4402SOL     OW14104   6.804   6.874   3.219
 4402SOL    HW114105   6.754   6.960   3.214
 4402SOL    HW214106   6.899   6.888   3.193
 4403SOL     OW14107   0.671   0.257   2.566
 4403SOL    HW114108   0.680   0.274   2.664
 4403SOL    HW214109   0.715   0.332   2.516
 4404SOL     OW14110   1.752   3.929   3.352
 4404SOL    HW114111   1.703   3.936   3.439
 4404SOL    HW214112   1.822   4.001   3.348
 4405SOL     OW14113   3.321   4.148   5.616
 4405SOL    HW114114   3.307   4.247   5.624
 4405SOL    HW214115   3.408   4.123   5.659
 4406SOL     OW14116   5.311   3.640   1.199
 4406SOL    HW114117   5.290   3.548   1.167
 4406SOL    HW214118   5.285   3.649   1.295
 4407SOL     OW14119   6.496   6.832   0.004
 4407SOL    HW114120   6.424   6.901   0.005
 4407SOL    HW214121   6.494   6.780   0.090
 4408SOL     OW14122   4.841   5.705   6.980
 4408SOL    HW114123   4.797   5.624   6.942
 4408SOL    HW214124   4.911   5.678   0.029
 4409SOL     OW14125   3.363   1.308   2.156
 4409SOL    HW114126   3.307   1.295   2.238
 4409SOL    HW214127   3.302   1.324   2.077
 4410SOL     OW14128   2.650   5.564   1.660
 4410SOL    HW114129   2.631   5.661   1.675
 4410SOL    HW214130   2.719   5.555   1.588
 4411SOL     OW14131   3.627   3.132   2.398
 4411SOL    HW114132   3.657   3.058   2.337
 4411SOL    HW214133   3.600   3.093   2.486
 4412SOL     OW14134   3.792   2.565   6.473
 4412SOL    HW114135   3.887   2.597   6.467
 4412SOL    HW214136   3.731   2.635   6.435
 4413SOL     OW14137   3.914   5.994   4.621
 4413SOL    HW114138   3.841   5.941   4.579
 4413SOL    HW214139   3.938   6.072   4.563
 4414SOL     OW14140   3.643   5.010   1.868
 4414SOL    HW114141   3.577   5.077   1.902
 4414SOL    HW214142   3.616   4.919   1.899
 4415SOL     OW14143   5.069   2.641   0.128
 4415SOL    HW114144   5.119   2.612   0.046
 4415SOL    HW214145   4.975   2.606   0.123
 4416SOL     OW14146   3.779   0.852   3.376
 4416SOL    HW114147   3.856   0.788   3.377
 4416SOL    HW214148   3.806   0.937   3.420
 4417SOL     OW14149   0.072   0.121   1.696
 4417SOL    HW114150   0.142   0.186   1.726
 4417SOL    HW214151   7.008   0.130   1.755
 4418SOL     OW14152   3.942   6.840   3.299
 4418SOL    HW114153   3.944   6.791   3.386
 4418SOL    HW214154   4.027   6.824   3.249
 4419SOL     OW14155   0.435   5.165   6.314
 4419SOL    HW114156   0.517   5.136   6.363
 4419SOL    HW214157   0.404   5.253   6.350
 4420SOL     OW14158   5.269   1.774   6.596
 4420SOL    HW114159   5.323   1.760   6.513
 4420SOL    HW214160   5.301   1.857   6.642
 4421SOL     OW14161   1.624   1.677   3.510
 4421SOL    HW114162   1.552   1.740   3.540
 4421SOL    HW214163   1.618   1.593   3.563
 4422SOL     OW14164   2.533   3.395   6.005
 4422SOL    HW114165   2.544   3.426   5.910
 4422SOL    HW214166   2.447   3.345   6.013
 4423SOL     OW14167   0.857   2.218   6.732
 4423SOL    HW114168   0.822   2.180   6.647
 4423SOL    HW214169   0.893   2.145   6.790
 4424SOL     OW14170   0.050   6.873   3.296
 4424SOL    HW114171   0.033   6.824   3.382
 4424SOL    HW214172   0.029   6.970   3.309
 4425SOL     OW14173   4.686   4.180   6.650
 4425SOL    HW114174   4.612   4.168   6.716
 4425SOL    HW214175   4.740   4.261   6.674
 4426SOL     OW14176   0.931   0.473   5.684
 4426SOL    HW114177   0.913   0.415   5.604
 4426SOL    HW214178   1.003   0.431   5.739
 4427SOL     OW14179   0.937   6.836   3.625
 4427SOL    HW114180   1.024   6.831   3.672
 4427SOL    HW214181   0.918   6.749   3.579
 4428SOL     OW14182   2.436   5.727   2.971
 4428SOL    HW114183   2.519   5.731   3.026
 4428SOL    HW214184   2.404   5.820   2.952
 4429SOL     OW14185   4.224   0.066   3.189
 4429SOL    HW114186   4.226   6.984   3.208
 4429SOL    HW214187   4.146   0.088   3.130
 4430SOL     OW14188   1.799   1.331   1.644
 4430SOL    HW114189   1.702   1.307   1.634
 4430SOL    HW214190   1.814   1.366   1.737
 4431SOL     OW14191   1.808   2.041   2.596
 4431SOL    HW114192   1.740   2.091   2.542
 4431SOL    HW214193   1.762   1.997   2.673
 4432SOL     OW14194   2.974   3.906   2.836
 4432SOL    HW114195   2.963   3.827   2.895
 4432SOL    HW214196   3.026   3.977   2.884
 4433SOL     OW14197   6.437   0.156   3.254
 4433SOL    HW114198   6.399   0.100   3.180
 4433SOL    HW214199   6.405   0.120   3.342
 4434SOL     OW14200   5.381   2.035   4.285
 4434SOL    HW114201   5.331   2.025   4.371
 4434SOL    HW214202   5.396   2.132   4.266
 4435SOL     OW14203   3.648   2.672   1.816
 4435SOL    HW114204   3.662   2.762   1.857
 4435SOL    HW214205   3.642   2.602   1.887
 4436SOL     OW14206   4.917   1.415   6.791
 4436SOL    HW114207   4.995   1.354   6.779
 4436SOL    HW214208   4.910   1.477   6.712
 4437SOL     OW14209   3.241   0.209   4.583
 4437SOL    HW114210   3.246   0.128   4.524
 4437SOL    HW214211   3.323   0.212   4.641
 4438SOL     OW14212   4.501   3.265   6.132
 4438SOL    HW114213   4.585   3.302   6.094
 4438SOL    HW214214   4.436   3.247   6.057
 4439SOL     OW14215   2.451   5.645   2.046
 4439SOL    HW114216   2.461   5.585   1.967
 4439SOL    HW214217   2.367   5.699   2.037
 4440SOL     OW14218   0.363   0.214   6.137
 4440SOL    HW114219   0.403   0.296   6.180
 4440SOL    HW214220   0.345   0.233   6.041
 4441SOL     OW14221   6.171   2.686   2.893
 4441SOL    HW114222   6.135   2.775   2.865
 4441SOL    HW214223   6.099   2.617   2.887
 4442SOL     OW14224   3.002   0.009   2.596
 4442SOL    HW114225   3.000   6.934   2.556
 4442SOL    HW214226   3.023   0.002   2.693
 4443SOL     OW14227   2.580   1.779   5.103
 4443SOL    HW114228   2.671   1.818   5.116
 4443SOL    HW214229   2.522   1.802   5.181
 4444SOL     OW14230   5.022   0.637   2.023
 4444SOL    HW114231   5.076   0.654   2.106
 4444SOL    HW214232   5.045   0.705   1.953
 4445SOL     OW14233   1.684   1.010   6.148
 4445SOL    HW114234   1.653   0.986   6.056
 4445SOL    HW214235   1.694   1.109   6.155
 4446SOL     OW14236   6.607   6.222   3.536
 4446SOL    HW114237   6.691   6.276   3.534
 4446SOL    HW214238   6.548   6.255   3.610
 4447SOL     OW14239   5.511   2.928   5.512
 4447SOL    HW114240   5.461   2.843   5.524
 4447SOL    HW214241   5.609   2.910   5.511
 4448SOL     OW14242   2.628   3.050   6.602
 4448SOL    HW114243   2.534   3.082   6.596
 4448SOL    HW214244   2.673   3.094   6.680
 4449SOL     OW14245   0.975   1.310   5.036
 4449SOL    HW114246   1.028   1.250   4.977
 4449SOL    HW214247   0.878   1.285   5.030
 4450SOL     OW14248   3.672   4.062   3.489
 4450SOL    HW114249   3.624   4.034   3.572
 4450SOL    HW214250   3.615   4.124   3.436
 4451SOL     OW14251   6.204   4.305   2.096
 4451SOL    HW114252   6.175   4.279   2.188
 4451SOL    HW214253   6.142   4.375   2.061
 4452SOL     OW14254   6.260   6.014   6.368
 4452SOL    HW114255   6.301   6.106   6.370
 4452SOL    HW214256   6.210   5.998   6.453
 4453SOL     OW14257   5.628   2.098   1.540
 4453SOL    HW114258   5.655   2.109   1.636
 4453SOL    HW214259   5.564   2.169   1.515
 4454SOL     OW14260   5.036   3.065   1.531
 4454SOL    HW114261   5.001   3.101   1.618
 4454SOL    HW214262   4.959   3.044   1.471
 4455SOL     OW14263   4.265   1.313   2.053
 4455SOL    HW114264   4.320   1.244   2.008
 4455SOL    HW214265   4.286   1.403   2.014
 4456SOL     OW14266   0.822   5.882   3.223
 4456SOL    HW114267   0.806   5.923   3.133
 4456SOL    HW214268   0.811   5.952   3.294
 4457SOL     OW14269   5.369   2.265   6.249
 4457SOL    HW114270   5.434   2.332   6.214
 4457SOL    HW214271   5.287   2.311   6.281
 4458SOL     OW14272   3.807   1.999   5.866
 4458SOL    HW114273   3.754   2.083   5.861
 4458SOL    HW214274   3.803   1.952   5.778
 4459SOL     OW14275   4.573   5.792   4.681
 4459SOL    HW114276   4.563   5.877   4.733
 4459SOL    HW214277   4.661   5.749   4.704
 4460SOL     OW14278   1.945   1.539   6.239
 4460SOL    HW114279   1.873   1.503   6.180
 4460SOL    HW214280   1.975   1.468   6.303
 4461SOL     OW14281   2.457   0.247   2.013
 4461SOL    HW114282   2.411   0.326   1.975
 4461SOL    HW214283   2.550   0.241   1.977
 4462SOL     OW14284   6.746   5.602   1.335
 4462SOL    HW114285   6.682   5.649   1.274
 4462SOL    HW214286   6.821   5.664   1.359
 4463SOL     OW14287   1.066   3.776   6.284
 4463SOL    HW114288   1.024   3.838   6.218
 4463SOL    HW214289   1.165   3.773   6.270
 4464SOL     OW14290   5.820   3.451   6.719
 4464SOL    HW114291   5.777   3.374   6.672
 4464SOL    HW214292   5.761   3.482   6.794
 4465SOL     OW14293   1.301   6.164   2.187
 4465SOL    HW114294   1.328   6.210   2.102
 4465SOL    HW214295   1.376   6.171   2.253
 4466SOL     OW14296   0.854   2.296   3.803
 4466SOL    HW114297   0.875   2.206   3.842
 4466SOL    HW214298   0.938   2.346   3.786
 4467SOL     OW14299   0.918   6.666   2.989
 4467SOL    HW114300   0.938   6.680   3.086
 4467SOL    HW214301   0.819   6.666   2.975
 4468SOL     OW14302   1.386   2.253   0.503
 4468SOL    HW114303   1.343   2.343   0.497
 4468SOL    HW214304   1.352   2.195   0.429
 4469SOL     OW14305   4.394   0.338   6.932
 4469SOL    HW114306   4.351   0.325   6.843
 4469SOL    HW214307   4.335   0.394   6.990
 4470SOL     OW14308   4.303   4.568   1.255
 4470SOL    HW114309   4.351   4.606   1.334
 4470SOL    HW214310   4.304   4.633   1.180
 4471SOL     OW14311   6.405   3.524   0.616
 4471SOL    HW114312   6.466   3.493   0.544
 4471SOL    HW214313   6.391   3.451   0.683
 4472SOL     OW14314   2.031   4.508   2.605
 4472SOL    HW114315   2.061   4.603   2.609
 4472SOL    HW214316   1.936   4.502   2.636
 4473SOL     OW14317   0.469   6.726   5.208
 4473SOL    HW114318   0.375   6.759   5.201
 4473SOL    HW214319   0.488   6.661   5.135
 4474SOL     OW14320   4.671   0.432   3.626
 4474SOL    HW114321   4.726   0.514   3.613
 4474SOL    HW214322   4.574   0.457   3.622
 4475SOL     OW14323   1.830   4.036   0.549
 4475SOL    HW114324   1.743   3.987   0.545
 4475SOL    HW214325   1.813   4.134   0.539
 4476SOL     OW14326   4.607   6.228   1.895
 4476SOL    HW114327   4.577   6.156   1.832
 4476SOL    HW214328   4.636   6.308   1.842
 4477SOL     OW14329   1.222   1.841   0.990
 4477SOL    HW114330   1.202   1.833   1.088
 4477SOL    HW214331   1.164   1.776   0.940
 4478SOL     OW14332   1.865   5.958   1.683
 4478SOL    HW114333   1.784   6.008   1.654
 4478SOL    HW214334   1.837   5.869   1.721
 4479SOL     OW14335   0.470   0.182   5.343
 4479SOL    HW114336   0.517   0.093   5.346
 4479SOL    HW214337   0.418   0.188   5.257
 4480SOL     OW14338   0.845   4.467   3.423
 4480SOL    HW114339   0.887   4.412   3.496
 4480SOL    HW214340   0.863   4.564   3.440
 4481SOL     OW14341   1.196   6.722   4.539
 4481SOL    HW114342   1.204   6.651   4.470
 4481SOL    HW214343   1.127   6.789   4.511
 4482SOL     OW14344   7.000   4.028   4.070
 4482SOL    HW114345   6.967   3.942   4.109
 4482SOL    HW214346   7.008   4.097   4.142
 4483SOL     OW14347   5.746   2.701   2.099
 4483SOL    HW114348   5.752   2.602   2.112
 4483SOL    HW214349   5.767   2.748   2.185
 4484SOL     OW14350   4.143   2.610   5.561
 4484SOL    HW114351   4.177   2.593   5.468
 4484SOL    HW214352   4.195   2.684   5.603
 4485SOL     OW14353   5.442   1.722   6.382
 4485SOL    HW114354   5.510   1.679   6.442
 4485SOL    HW214355   5.392   1.652   6.332
 4486SOL     OW14356   6.111   2.940   4.076
 4486SOL    HW114357   6.090   3.033   4.047
 4486SOL    HW214358   6.027   2.895   4.109
 4487SOL     OW14359   3.198   2.939   6.328
 4487SOL    HW114360   3.114   2.982   6.360
 4487SOL    HW214361   3.199   2.843   6.355
 4488SOL     OW14362   0.318   1.413   4.930
 4488SOL    HW114363   0.234   1.465   4.940
 4488SOL    HW214364   0.302   1.333   4.872
 4489SOL     OW14365   6.495   6.858   4.466
 4489SOL    HW114366   6.400   6.868   4.436
 4489SOL    HW214367   6.500   6.858   4.566
 4490SOL     OW14368   6.935   1.856   3.065
 4490SOL    HW114369   6.982   1.804   3.136
 4490SOL    HW214370   6.841   1.874   3.093
 4491SOL     OW14371   0.945   3.112   3.071
 4491SOL    HW114372   1.025   3.162   3.102
 4491SOL    HW214373   0.862   3.160   3.100
 4492SOL     OW14374   4.358   3.250   6.771
 4492SOL    HW114375   4.451   3.286   6.774
 4492SOL    HW214376   4.359   3.152   6.790
 4493SOL     OW14377   6.088   5.006   4.122
 4493SOL    HW114378   6.175   5.048   4.095
 4493SOL    HW214379   6.033   5.074   4.170
 4494SOL     OW14380   6.353   4.222   4.187
 4494SOL    HW114381   6.308   4.300   4.144
 4494SOL    HW214382   6.425   4.255   4.248
 4495SOL     OW14383   5.012   6.588   1.259
 4495SOL    HW114384   4.993   6.630   1.170
 4495SOL    HW214385   4.934   6.603   1.320
 4496SOL     OW14386   5.074   4.022   5.561
 4496SOL    HW114387   5.144   4.003   5.492
 4496SOL    HW214388   5.117   4.066   5.640
 4497SOL     OW14389   6.009   4.685   0.392
 4497SOL    HW114390   5.928   4.734   0.423
 4497SOL    HW214391   6.089   4.717   0.442
 4498SOL     OW14392   0.361   3.589   0.008
 4498SOL    HW114393   0.411   3.539   6.953
 4498SOL    HW214394   0.318   3.671   6.984
 4499SOL     OW14395   0.019   3.222   6.119
 4499SOL    HW114396   0.049   3.126   6.119
 4499SOL    HW214397   0.012   3.254   6.214
 4500SOL     OW14398   3.022   4.001   4.520
 4500SOL    HW114399   2.990   4.019   4.427
 4500SOL    HW214400   3.113   4.040   4.532
 4501SOL     OW14401   0.212   4.155   4.936
 4501SOL    HW114402   0.290   4.121   4.883
 4501SOL    HW214403   0.139   4.183   4.873
 4502SOL     OW14404   0.614   3.156   0.565
 4502SOL    HW114405   0.603   3.149   0.465
 4502SOL    HW214406   0.678   3.229   0.586
 4503SOL     OW14407   1.423   1.334   3.844
 4503SOL    HW114408   1.332   1.302   3.872
 4503SOL    HW214409   1.413   1.413   3.783
 4504SOL     OW14410   5.181   1.660   4.807
 4504SOL    HW114411   5.174   1.698   4.715
 4504SOL    HW214412   5.263   1.695   4.852
 4505SOL     OW14413   1.922   5.631   5.896
 4505SOL    HW114414   1.944   5.728   5.883
 4505SOL    HW214415   1.934   5.606   5.992
 4506SOL     OW14416   4.388   0.413   5.392
 4506SOL    HW114417   4.343   0.483   5.447
 4506SOL    HW214418   4.477   0.447   5.360
 4507SOL     OW14419   6.170   4.439   0.359
 4507SOL    HW114420   6.253   4.496   0.359
 4507SOL    HW214421   6.089   4.497   0.351
 4508SOL     OW14422   1.612   3.919   0.793
 4508SOL    HW114423   1.667   3.845   0.831
 4508SOL    HW214424   1.663   4.005   0.799
 4509SOL     OW14425   2.533   1.690   4.279
 4509SOL    HW114426   2.622   1.681   4.324
 4509SOL    HW214427   2.460   1.680   4.347
 4510SOL     OW14428   3.942   6.453   5.403
 4510SOL    HW114429   3.975   6.417   5.316
 4510SOL    HW214430   3.967   6.549   5.411
 4511SOL     OW14431   6.078   2.497   0.435
 4511SOL    HW114432   6.133   2.428   0.483
 4511SOL    HW214433   5.992   2.511   0.483
 4512SOL     OW14434   2.567   5.100   6.989
 4512SOL    HW114435   2.623   5.146   0.041
 4512SOL    HW214436   2.524   5.169   6.930
 4513SOL     OW14437   5.007   0.923   1.935
 4513SOL    HW114438   5.078   0.992   1.946
 4513SOL    HW214439   4.920   0.959   1.968
 4514SOL     OW14440   3.577   1.554   5.031
 4514SOL    HW114441   3.637   1.608   5.090
 4514SOL    HW214442   3.606   1.563   4.936
 4515SOL     OW14443   0.441   5.113   1.149
 4515SOL    HW114444   0.420   5.044   1.080
 4515SOL    HW214445   0.381   5.102   1.228
 4516SOL     OW14446   1.199   0.664   4.893
 4516SOL    HW114447   1.130   0.737   4.884
 4516SOL    HW214448   1.237   0.665   4.985
 4517SOL     OW14449   3.357   6.504   5.323
 4517SOL    HW114450   3.380   6.560   5.403
 4517SOL    HW214451   3.415   6.531   5.246
 4518SOL     OW14452   1.203   1.871   4.488
 4518SOL    HW114453   1.284   1.823   4.456
 4518SOL    HW214454   1.198   1.961   4.444
 4519SOL     OW14455   6.573   3.284   3.725
 4519SOL    HW114456   6.610   3.224   3.797
 4519SOL    HW214457   6.505   3.346   3.765
 4520SOL     OW14458   6.863   3.914   3.118
 4520SOL    HW114459   6.794   3.986   3.122
 4520SOL    HW214460   6.927   3.932   3.043
 4521SOL     OW14461   5.616   2.098   6.879
 4521SOL    HW114462   5.673   2.100   6.796
 4521SOL    HW214463   5.607   2.190   6.916
 4522SOL     OW14464   6.069   0.349   4.076
 4522SOL    HW114465   6.114   0.364   3.988
 4522SOL    HW214466   6.133   0.370   4.150
 4523SOL     OW14467   3.766   3.533   0.214
 4523SOL    HW114468   3.860   3.523   0.181
 4523SOL    HW214469   3.743   3.454   0.272
 4524SOL     OW14470   5.690   7.008   4.838
 4524SOL    HW114471   5.707   6.990   4.741
 4524SOL    HW214472   5.767   6.977   4.893
 4525SOL     OW14473   6.742   1.572   5.104
 4525SOL    HW114474   6.671   1.533   5.046
 4525SOL    HW214475   6.730   1.671   5.109
 4526SOL     OW14476   4.836   0.361   1.068
 4526SOL    HW114477   4.821   0.368   1.167
 4526SOL    HW214478   4.886   0.442   1.037
 4527SOL     OW14479   5.120   0.637   2.558
 4527SOL    HW114480   5.085   0.555   2.602
 4527SOL    HW214481   5.049   0.677   2.500
 4528SOL     OW14482   6.289   6.851   6.776
 4528SOL    HW114483   6.202   6.820   6.736
 4528SOL    HW214484   6.349   6.773   6.790
 4529SOL     OW14485   3.712   6.226   2.868
 4529SOL    HW114486   3.766   6.214   2.784
 4529SOL    HW214487   3.622   6.183   2.855
 4530SOL     OW14488   0.399   3.380   5.515
 4530SOL    HW114489   0.447   3.352   5.431
 4530SOL    HW214490   0.454   3.355   5.595
 4531SOL     OW14491   0.160   3.753   4.106
 4531SOL    HW114492   0.223   3.830   4.119
 4531SOL    HW214493   0.066   3.784   4.119
 4532SOL     OW14494   5.878   1.395   0.600
 4532SOL    HW114495   5.975   1.371   0.605
 4532SOL    HW214496   5.850   1.440   0.684
 4533SOL     OW14497   2.628   5.938   2.541
 4533SOL    HW114498   2.552   6.000   2.559
 4533SOL    HW214499   2.672   5.913   2.627
 4534SOL     OW14500   6.092   3.941   4.979
 4534SOL    HW114501   6.145   3.964   4.897
 4534SOL    HW214502   6.155   3.917   5.053
 4535SOL     OW14503   4.925   2.822   1.703
 4535SOL    HW114504   4.900   2.903   1.650
 4535SOL    HW214505   4.870   2.817   1.786
 4536SOL     OW14506   6.332   0.935   4.768
 4536SOL    HW114507   6.310   0.868   4.698
 4536SOL    HW214508   6.364   1.019   4.725
 4537SOL     OW14509   3.448   3.056   6.437
 4537SOL    HW114510   3.371   3.009   6.480
 4537SOL    HW214511   3.418   3.099   6.352
 4538SOL     OW14512   2.887   1.341   2.973
 4538SOL    HW114513   2.881   1.242   2.970
 4538SOL    HW214514   2.796   1.381   2.968
 4539SOL     OW14515   1.978   1.460   2.960
 4539SOL    HW114516   2.069   1.443   2.999
 4539SOL    HW214517   1.968   1.409   2.875
 4540SOL     OW14518   3.501   2.907   4.264
 4540SOL    HW114519   3.405   2.911   4.235
 4540SOL    HW214520   3.528   2.997   4.300
 4541SOL     OW14521   4.899   1.648   1.519
 4541SOL    HW114522   4.848   1.563   1.504
 4541SOL    HW214523   4.895   1.704   1.436
 4542SOL     OW14524   5.021   0.418   2.698
 4542SOL    HW114525   5.033   0.476   2.778
 4542SOL    HW214526   4.941   0.358   2.711
 4543SOL     OW14527   5.619   1.358   1.450
 4543SOL    HW114528   5.668   1.340   1.364
 4543SOL    HW214529   5.614   1.457   1.465
 4544SOL     OW14530   3.465   4.879   6.292
 4544SOL    HW114531   3.530   4.954   6.302
 4544SOL    HW214532   3.373   4.916   6.276
 4545SOL     OW14533   3.973   2.120   5.541
 4545SOL    HW114534   3.922   2.036   5.557
 4545SOL    HW214535   4.070   2.098   5.528
 4546SOL     OW14536   1.375   6.470   6.494
 4546SOL    HW114537   1.431   6.524   6.556
 4546SOL    HW214538   1.350   6.384   6.539
 4547SOL     OW14539   4.877   2.103   2.257
 4547SOL    HW114540   4.898   2.057   2.171
 4547SOL    HW214541   4.844   2.036   2.324
 4548SOL     OW14542   1.241   3.987   3.442
 4548SOL    HW114543   1.186   3.966   3.361
 4548SOL    HW214544   1.338   3.974   3.420
 4549SOL     OW14545   6.475   2.894   2.750
 4549SOL    HW114546   6.572   2.869   2.742
 4549SOL    HW214547   6.433   2.894   2.659
 4550SOL     OW14548   1.266   5.978   4.027
 4550SOL    HW114549   1.287   5.928   4.111
 4550SOL    HW214550   1.300   6.072   4.034
 4551SOL     OW14551   0.726   2.823   5.713
 4551SOL    HW114552   0.689   2.730   5.725
 4551SOL    HW214553   0.799   2.838   5.779
 4552SOL     OW14554   0.264   3.675   4.780
 4552SOL    HW114555   0.259   3.625   4.866
 4552SOL    HW214556   0.358   3.672   4.745
 4553SOL     OW14557   5.008   4.784   0.250
 4553SOL    HW114558   5.080   4.801   0.182
 4553SOL    HW214559   5.032   4.703   0.303
 4554SOL     OW14560   5.312   6.701   2.656
 4554SOL    HW114561   5.309   6.781   2.596
 4554SOL    HW214562   5.234   6.641   2.635
 4555SOL     OW14563   5.170   2.088   6.803
 4555SOL    HW114564   5.255   2.047   6.771
 4555SOL    HW214565   5.144   2.049   6.891
 4556SOL     OW14566   4.621   1.170   3.984
 4556SOL    HW114567   4.541   1.128   3.941
 4556SOL    HW214568   4.684   1.202   3.914
 4557SOL     OW14569   5.109   0.079   5.962
 4557SOL    HW114570   5.014   0.087   5.992
 4557SOL    HW214571   5.120   7.011   5.910
 4558SOL     OW14572   6.466   3.226   6.627
 4558SOL    HW114573   6.465   3.302   6.562
 4558SOL    HW214574   6.373   3.195   6.645
 4559SOL     OW14575   1.045   6.632   1.177
 4559SOL    HW114576   1.000   6.629   1.266
 4559SOL    HW214577   0.985   6.591   1.108
 4560SOL     OW14578   4.855   3.482   3.109
 4560SOL    HW114579   4.856   3.394   3.062
 4560SOL    HW214580   4.879   3.554   3.045
 4561SOL     OW14581   3.319   0.365   6.507
 4561SOL    HW114582   3.407   0.345   6.550
 4561SOL    HW214583   3.262   0.284   6.507
 4562SOL     OW14584   2.427   4.853   6.669
 4562SOL    HW114585   2.440   4.785   6.597
 4562SOL    HW214586   2.514   4.899   6.687
 4563SOL     OW14587   6.252   2.339   6.765
 4563SOL    HW114588   6.269   2.242   6.780
 4563SOL    HW214589   6.340   2.388   6.762
 4564SOL     OW14590   1.827   5.815   0.170
 4564SOL    HW114591   1.816   5.909   0.203
 4564SOL    HW214592   1.885   5.764   0.233
 4565SOL     OW14593   2.209   0.514   5.393
 4565SOL    HW114594   2.287   0.526   5.332
 4565SOL    HW214595   2.236   0.536   5.487
 4566SOL     OW14596   0.315   1.499   6.748
 4566SOL    HW114597   0.249   1.554   6.697
 4566SOL    HW214598   0.408   1.527   6.724
 4567SOL     OW14599   0.181   1.047   0.874
 4567SOL    HW114600   0.277   1.050   0.900
 4567SOL    HW214601   0.151   1.138   0.844
 4568SOL     OW14602   3.586   4.438   5.425
 4568SOL    HW114603   3.492   4.450   5.456
 4568SOL    HW214604   3.607   4.508   5.356
 4569SOL     OW14605   0.571   2.087   4.417
 4569SOL    HW114606   0.556   1.992   4.393
 4569SOL    HW214607   0.630   2.092   4.498
 4570SOL     OW14608   0.455   5.288   3.957
 4570SOL    HW114609   0.473   5.209   4.016
 4570SOL    HW214610   0.542   5.330   3.931
 4571SOL     OW14611   3.609   2.971   4.649
 4571SOL    HW114612   3.652   2.881   4.638
 4571SOL    HW214613   3.669   3.030   4.702
 4572SOL     OW14614   1.539   6.583   1.335
 4572SOL    HW114615   1.538   6.668   1.387
 4572SOL    HW214616   1.454   6.576   1.282
 4573SOL     OW14617   5.378   0.122   0.887
 4573SOL    HW114618   5.293   0.105   0.936
 4573SOL    HW214619   5.445   0.052   0.909
 4574SOL     OW14620   0.214   4.516   2.077
 4574SOL    HW114621   0.219   4.432   2.131
 4574SOL    HW214622   0.296   4.524   2.020
 4575SOL     OW14623   6.366   0.331   2.780
 4575SOL    HW114624   6.269   0.347   2.760
 4575SOL    HW214625   6.401   0.403   2.840
 4576SOL     OW14626   2.991   5.811   5.775
 4576SOL    HW114627   2.967   5.787   5.681
 4576SOL    HW214628   2.982   5.730   5.833
 4577SOL     OW14629   1.105   3.141   3.454
 4577SOL    HW114630   1.155   3.214   3.502
 4577SOL    HW214631   1.159   3.057   3.458
 4578SOL     OW14632   6.670   4.350   3.965
 4578SOL    HW114633   6.767   4.360   3.942
 4578SOL    HW214634   6.645   4.253   3.960
 4579SOL     OW14635   5.877   2.009   3.552
 4579SOL    HW114636   5.850   2.088   3.497
 4579SOL    HW214637   5.976   2.010   3.567
 4580SOL     OW14638   6.710   5.662   0.585
 4580SOL    HW114639   6.695   5.567   0.613
 4580SOL    HW214640   6.806   5.675   0.559
 4581SOL     OW14641   3.449   5.695   2.716
 4581SOL    HW114642   3.354   5.687   2.688
 4581SOL    HW214643   3.475   5.615   2.770
 4582SOL     OW14644   4.961   6.213   2.433
 4582SOL    HW114645   5.029   6.204   2.506
 4582SOL    HW214646   4.885   6.270   2.465
 4583SOL     OW14647   4.339   1.802   5.965
 4583SOL    HW114648   4.278   1.858   5.909
 4583SOL    HW214649   4.295   1.714   5.986
 4584SOL     OW14650   0.598   5.881   5.608
 4584SOL    HW114651   0.652   5.846   5.685
 4584SOL    HW214652   0.647   5.957   5.564
 4585SOL     OW14653   3.828   6.396   2.553
 4585SOL    HW114654   3.769   6.340   2.494
 4585SOL    HW214655   3.907   6.427   2.500
 4586SOL     OW14656   3.835   5.362   2.286
 4586SOL    HW114657   3.766   5.317   2.343
 4586SOL    HW214658   3.917   5.380   2.340
 4587SOL     OW14659   2.388   4.004   1.485
 4587SOL    HW114660   2.436   3.994   1.572
 4587SOL    HW214661   2.388   4.100   1.458
 4588SOL     OW14662   4.235   3.508   5.116
 4588SOL    HW114663   4.196   3.436   5.059
 4588SOL    HW214664   4.181   3.592   5.106
 4589SOL     OW14665   6.360   2.459   4.689
 4589SOL    HW114666   6.377   2.426   4.596
 4589SOL    HW214667   6.408   2.400   4.754
 4590SOL     OW14668   4.561   5.376   2.392
 4590SOL    HW114669   4.641   5.430   2.366
 4590SOL    HW214670   4.587   5.311   2.464
 4591SOL     OW14671   5.489   6.304   5.573
 4591SOL    HW114672   5.485   6.370   5.648
 4591SOL    HW214673   5.396   6.288   5.539
 4592SOL     OW14674   3.718   2.308   6.550
 4592SOL    HW114675   3.763   2.253   6.481
 4592SOL    HW214676   3.742   2.405   6.537
 4593SOL     OW14677   3.965   6.065   2.397
 4593SOL    HW114678   3.907   6.045   2.476
 4593SOL    HW214679   4.040   6.125   2.425
 4594SOL     OW14680   2.327   1.392   2.072
 4594SOL    HW114681   2.266   1.469   2.088
 4594SOL    HW214682   2.373   1.403   1.983
 4595SOL     OW14683   3.611   2.992   6.032
 4595SOL    HW114684   3.568   2.933   5.963
 4595SOL    HW214685   3.627   2.939   6.115
 4596SOL     OW14686   5.380   6.970   1.937
 4596SOL    HW114687   5.340   0.030   1.886
 4596SOL    HW214688   5.328   6.955   2.021
 4597SOL     OW14689   6.109   4.766   6.861
 4597SOL    HW114690   6.119   4.865   6.854
 4597SOL    HW214691   6.028   4.743   6.915
 4598SOL     OW14692   2.505   4.603   6.894
 4598SOL    HW114693   2.418   4.593   6.844
 4598SOL    HW214694   2.506   4.692   6.940
 4599SOL     OW14695   1.779   4.603   0.582
 4599SOL    HW114696   1.692   4.579   0.539
 4599SOL    HW214697   1.778   4.699   0.609
 4600SOL     OW14698   3.249   5.735   1.194
 4600SOL    HW114699   3.332   5.702   1.238
 4600SOL    HW214700   3.234   5.831   1.220
 4601SOL     OW14701   2.136   6.240   5.282
 4601SOL    HW114702   2.044   6.230   5.245
 4601SOL    HW214703   2.203   6.222   5.210
 4602SOL     OW14704   2.032   0.598   1.475
 4602SOL    HW114705   2.121   0.630   1.442
 4602SOL    HW214706   2.034   0.499   1.485
 4603SOL     OW14707   3.537   6.780   1.389
 4603SOL    HW114708   3.452   6.775   1.442
 4603SOL    HW214709   3.567   6.875   1.381
 4604SOL     OW14710   3.614   6.787   2.275
 4604SOL    HW114711   3.610   6.809   2.372
 4604SOL    HW214712   3.672   6.707   2.261
 4605SOL     OW14713   5.253   6.874   4.559
 4605SOL    HW114714   5.207   6.804   4.614
 4605SOL    HW214715   5.228   6.965   4.594
 4606SOL     OW14716   0.126   6.138   5.588
 4606SOL    HW114717   0.169   6.116   5.501
 4606SOL    HW214718   0.197   6.152   5.658
 4607SOL     OW14719   3.308   1.918   1.450
 4607SOL    HW114720   3.242   1.894   1.521
 4607SOL    HW214721   3.273   1.994   1.395
 4608SOL     OW14722   1.654   4.023   5.454
 4608SOL    HW114723   1.725   3.959   5.484
 4608SOL    HW214724   1.573   4.013   5.512
 4609SOL     OW14725   4.327   6.401   6.706
 4609SOL    HW114726   4.284   6.341   6.773
 4609SOL    HW214727   4.408   6.444   6.747
 4610SOL     OW14728   0.470   3.192   6.861
 4610SOL    HW114729   0.453   3.124   6.933
 4610SOL    HW214730   0.382   3.224   6.824
 4611SOL     OW14731   0.737   4.097   0.199
 4611SOL    HW114732   0.663   4.079   0.264
 4611SOL    HW214733   0.780   4.010   0.174
 4612SOL     OW14734   2.268   6.790   6.861
 4612SOL    HW114735   2.324   6.836   6.930
 4612SOL    HW214736   2.207   6.857   6.819
 4613SOL     OW14737   3.589   5.236   2.082
 4613SOL    HW114738   3.635   5.189   2.158
 4613SOL    HW214739   3.502   5.191   2.063
 4614SOL     OW14740   1.698   5.546   0.415
 4614SOL    HW114741   1.697   5.633   0.464
 4614SOL    HW214742   1.642   5.554   0.332
 4615SOL     OW14743   0.484   2.414   0.282
 4615SOL    HW114744   0.502   2.509   0.257
 4615SOL    HW214745   0.435   2.412   0.369
 4616SOL     OW14746   5.377   0.838   6.710
 4616SOL    HW114747   5.285   0.864   6.680
 4616SOL    HW214748   5.422   0.785   6.638
 4617SOL     OW14749   0.226   2.769   2.210
 4617SOL    HW114750   0.135   2.811   2.203
 4617SOL    HW214751   0.261   2.752   2.118
 4618SOL     OW14752   1.047   2.494   6.251
 4618SOL    HW114753   0.953   2.506   6.280
 4618SOL    HW214754   1.065   2.397   6.234
 4619SOL     OW14755   3.221   0.981   3.595
 4619SOL    HW114756   3.268   0.979   3.507
 4619SOL    HW214757   3.256   1.057   3.650
 4620SOL     OW14758   2.372   4.199   6.482
 4620SOL    HW114759   2.402   4.130   6.548
 4620SOL    HW214760   2.303   4.159   6.422
 4621SOL     OW14761   0.175   6.142   6.021
 4621SOL    HW114762   0.126   6.224   5.992
 4621SOL    HW214763   0.170   6.133   6.120
 4622SOL     OW14764   2.110   3.824   1.151
 4622SOL    HW114765   2.074   3.889   1.084
 4622SOL    HW214766   2.114   3.867   1.241
 4623SOL     OW14767   6.200   4.751   1.871
 4623SOL    HW114768   6.290   4.789   1.894
 4623SOL    HW214769   6.132   4.785   1.935
 4624SOL     OW14770   4.900   0.184   4.725
 4624SOL    HW114771   4.874   0.175   4.822
 4624SOL    HW214772   4.848   0.118   4.671
 4625SOL     OW14773   0.771   3.514   6.976
 4625SOL    HW114774   0.770   3.518   6.876
 4625SOL    HW214775   0.848   3.458   7.007
 4626SOL     OW14776   6.546   5.359   1.117
 4626SOL    HW114777   6.606   5.339   1.195
 4626SOL    HW214778   6.582   5.438   1.068
 4627SOL     OW14779   3.118   6.499   6.025
 4627SOL    HW114780   3.128   6.407   5.986
 4627SOL    HW214781   3.028   6.536   6.000
 4628SOL     OW14782   0.352   3.917   1.968
 4628SOL    HW114783   0.429   3.951   2.023
 4628SOL    HW214784   0.291   3.994   1.946
 4629SOL     OW14785   2.441   4.890   5.483
 4629SOL    HW114786   2.417   4.793   5.474
 4629SOL    HW214787   2.535   4.898   5.515
 4630SOL     OW14788   1.678   6.535   2.654
 4630SOL    HW114789   1.652   6.572   2.743
 4630SOL    HW214790   1.741   6.598   2.608
 4631SOL     OW14791   3.329   6.835   2.629
 4631SOL    HW114792   3.359   6.926   2.656
 4631SOL    HW214793   3.280   6.840   2.542
 4632SOL     OW14794   5.188   5.710   3.949
 4632SOL    HW114795   5.158   5.687   3.856
 4632SOL    HW214796   5.188   5.627   4.005
 4633SOL     OW14797   6.452   2.286   4.884
 4633SOL    HW114798   6.549   2.283   4.907
 4633SOL    HW214799   6.398   2.246   4.959
 4634SOL     OW14800   3.283   4.221   0.716
 4634SOL    HW114801   3.220   4.172   0.655
 4634SOL    HW214802   3.278   4.180   0.808
 4635SOL     OW14803   5.540   4.124   1.739
 4635SOL    HW114804   5.637   4.103   1.727
 4635SOL    HW214805   5.488   4.039   1.746
 4636SOL     OW14806   2.269   5.431   0.664
 4636SOL    HW114807   2.277   5.462   0.759
 4636SOL    HW214808   2.360   5.434   0.621
 4637SOL     OW14809   1.505   1.381   5.073
 4637SOL    HW114810   1.450   1.332   5.006
 4637SOL    HW214811   1.534   1.318   5.145
 4638SOL     OW14812   5.381   3.293   5.230
 4638SOL    HW114813   5.384   3.388   5.199
 4638SOL    HW214814   5.308   3.283   5.298
 4639SOL     OW14815   7.007   3.785   5.227
 4639SOL    HW114816   0.080   3.812   5.192
 4639SOL    HW214817   7.015   3.700   5.279
 4640SOL     OW14818   5.579   4.138   2.715
 4640SOL    HW114819   5.529   4.076   2.654
 4640SOL    HW214820   5.558   4.233   2.690
 4641SOL     OW14821   2.177   5.144   4.953
 4641SOL    HW114822   2.119   5.076   4.908
 4641SOL    HW214823   2.124   5.189   5.025
 4642SOL     OW14824   5.546   6.336   4.315
 4642SOL    HW114825   5.584   6.409   4.373
 4642SOL    HW214826   5.526   6.373   4.224
 4643SOL     OW14827   4.167   2.127   1.967
 4643SOL    HW114828   4.094   2.184   1.931
 4643SOL    HW214829   4.167   2.039   1.921
 4644SOL     OW14830   2.187   5.597   5.189
 4644SOL    HW114831   2.206   5.630   5.096
 4644SOL    HW214832   2.273   5.567   5.231
 4645SOL     OW14833   2.215   5.700   4.664
 4645SOL    HW114834   2.126   5.726   4.702
 4645SOL    HW214835   2.206   5.615   4.613
 4646SOL     OW14836   4.372   0.436   1.534
 4646SOL    HW114837   4.446   0.457   1.597
 4646SOL    HW214838   4.284   0.455   1.578
 4647SOL     OW14839   6.886   0.265   4.423
 4647SOL    HW114840   6.953   0.339   4.425
 4647SOL    HW214841   6.929   0.181   4.457
 4648SOL     OW14842   2.232   5.890   2.675
 4648SOL    HW114843   2.178   5.968   2.705
 4648SOL    HW214844   2.248   5.896   2.577
 4649SOL     OW14845   5.424   0.377   5.975
 4649SOL    HW114846   5.483   0.387   5.894
 4649SOL    HW214847   5.472   0.409   6.056
 4650SOL     OW14848   6.570   4.660   2.088
 4650SOL    HW114849   6.533   4.684   1.998
 4650SOL    HW214850   6.605   4.742   2.132
 4651SOL     OW14851   0.191   2.474   1.913
 4651SOL    HW114852   0.173   2.453   1.817
 4651SOL    HW214853   0.245   2.558   1.919
 4652SOL     OW14854   6.779   6.395   6.262
 4652SOL    HW114855   6.749   6.491   6.259
 4652SOL    HW214856   6.795   6.363   6.169
 4653SOL     OW14857   0.259   5.790   0.079
 4653SOL    HW114858   0.336   5.799   0.017
 4653SOL    HW214859   0.198   5.869   0.068
 4654SOL     OW14860   1.269   1.063   0.026
 4654SOL    HW114861   1.354   1.106   7.015
 4654SOL    HW214862   1.201   1.133   0.047
 4655SOL     OW14863   0.036   4.769   3.191
 4655SOL    HW114864   0.035   4.861   3.229
 4655SOL    HW214865   0.048   4.702   3.265
 4656SOL     OW14866   1.975   6.737   3.366
 4656SOL    HW114867   2.032   6.706   3.442
 4656SOL    HW214868   1.975   6.668   3.293
 4657SOL     OW14869   5.590   0.252   0.234
 4657SOL    HW114870   5.595   0.327   0.169
 4657SOL    HW214871   5.565   0.168   0.186
 4658SOL     OW14872   5.565   0.504   3.607
 4658SOL    HW114873   5.652   0.519   3.560
 4658SOL    HW214874   5.532   0.411   3.588
 4659SOL     OW14875   1.616   2.537   5.074
 4659SOL    HW114876   1.566   2.463   5.119
 4659SOL    HW214877   1.563   2.621   5.081
 4660SOL     OW14878   0.069   0.095   6.000
 4660SOL    HW114879   0.093   0.179   6.049
 4660SOL    HW214880   0.056   0.021   6.065
 4661SOL     OW14881   3.774   3.940   3.846
 4661SOL    HW114882   3.744   3.997   3.923
 4661SOL    HW214883   3.735   3.976   3.762
 4662SOL     OW14884   4.982   0.478   5.103
 4662SOL    HW114885   4.902   0.435   5.145
 4662SOL    HW214886   5.057   0.412   5.101
 4663SOL     OW14887   0.135   2.293   2.673
 4663SOL    HW114888   0.167   2.385   2.696
 4663SOL    HW214889   0.203   2.226   2.702
 4664SOL     OW14890   2.996   2.319   6.451
 4664SOL    HW114891   2.937   2.355   6.524
 4664SOL    HW214892   3.015   2.391   6.385
 4665SOL     OW14893   5.283   0.760   0.113
 4665SOL    HW114894   5.228   0.697   0.169
 4665SOL    HW214895   5.355   0.709   0.066
 4666SOL     OW14896   2.068   1.049   0.613
 4666SOL    HW114897   2.089   1.146   0.605
 4666SOL    HW214898   2.064   1.023   0.710
 4667SOL     OW14899   0.242   5.527   5.795
 4667SOL    HW114900   0.329   5.494   5.831
 4667SOL    HW214901   0.218   5.474   5.713
 4668SOL     OW14902   6.757   1.382   4.084
 4668SOL    HW114903   6.779   1.467   4.131
 4668SOL    HW214904   6.689   1.400   4.013
 4669SOL     OW14905   2.107   0.233   0.385
 4669SOL    HW114906   2.139   0.304   0.448
 4669SOL    HW214907   2.076   0.154   0.437
 4670SOL     OW14908   2.337   1.796   4.070
 4670SOL    HW114909   2.247   1.790   4.113
 4670SOL    HW214910   2.407   1.774   4.137
 4671SOL     OW14911   5.910   3.868   0.917
 4671SOL    HW114912   5.961   3.797   0.965
 4671SOL    HW214913   5.812   3.855   0.934
 4672SOL     OW14914   1.820   3.640   6.017
 4672SOL    HW114915   1.803   3.544   6.000
 4672SOL    HW214916   1.806   3.660   6.114
 4673SOL     OW14917   4.039   0.878   2.871
 4673SOL    HW114918   4.012   0.876   2.774
 4673SOL    HW214919   3.958   0.894   2.927
 4674SOL     OW14920   4.502   6.035   6.053
 4674SOL    HW114921   4.413   5.992   6.036
 4674SOL    HW214922   4.558   5.973   6.107
 4675SOL     OW14923   0.971   4.340   7.004
 4675SOL    HW114924   0.912   4.410   0.027
 4675SOL    HW214925   0.972   4.350   6.904
 4676SOL     OW14926   0.979   5.698   3.907
 4676SOL    HW114927   0.937   5.618   3.863
 4676SOL    HW214928   1.066   5.719   3.863
 4677SOL     OW14929   1.723   2.994   0.279
 4677SOL    HW114930   1.796   2.932   0.250
 4677SOL    HW214931   1.681   2.959   0.364
 4678SOL     OW14932   2.553   4.887   2.517
 4678SOL    HW114933   2.639   4.867   2.564
 4678SOL    HW214934   2.536   4.817   2.448
 4679SOL     OW14935   5.011   6.958   1.836
 4679SOL    HW114936   5.066   0.024   1.848
 4679SOL    HW214937   5.071   6.878   1.844
 4680SOL     OW14938   2.218   1.106   1.441
 4680SOL    HW114939   2.261   1.191   1.471
 4680SOL    HW214940   2.125   1.101   1.477
 4681SOL     OW14941   5.182   4.685   1.248
 4681SOL    HW114942   5.205   4.600   1.294
 4681SOL    HW214943   5.254   4.709   1.183
 4682SOL     OW14944   3.917   3.535   6.903
 4682SOL    HW114945   3.959   3.493   6.983
 4682SOL    HW214946   3.987   3.583   6.850
 4683SOL     OW14947   6.126   4.183   3.275
 4683SOL    HW114948   6.092   4.120   3.345
 4683SOL    HW214949   6.061   4.257   3.262
 4684SOL     OW14950   4.991   6.616   0.239
 4684SOL    HW114951   5.037   6.692   0.285
 4684SOL    HW214952   5.050   6.535   0.243
 4685SOL     OW14953   2.777   3.074   5.729
 4685SOL    HW114954   2.858   3.018   5.745
 4685SOL    HW214955   2.805   3.166   5.703
 4686SOL     OW14956   2.732   5.520   0.157
 4686SOL    HW114957   2.635   5.500   0.173
 4686SOL    HW214958   2.784   5.501   0.239
 4687SOL     OW14959   3.171   0.745   3.038
 4687SOL    HW114960   3.093   0.689   3.011
 4687SOL    HW214961   3.143   0.807   3.111
 4688SOL     OW14962   5.880   3.367   5.711
 4688SOL    HW114963   5.902   3.464   5.702
 4688SOL    HW214964   5.830   3.336   5.630
 4689SOL     OW14965   5.752   1.107   1.498
 4689SOL    HW114966   5.706   1.193   1.520
 4689SOL    HW214967   5.851   1.121   1.501
 4690SOL     OW14968   2.832   1.602   0.166
 4690SOL    HW114969   2.857   1.605   0.263
 4690SOL    HW214970   2.872   1.681   0.120
 4691SOL     OW14971   0.045   4.080   1.903
 4691SOL    HW114972   0.035   4.101   1.805
 4691SOL    HW214973   0.125   4.128   1.939
 4692SOL     OW14974   5.750   3.789   2.518
 4692SOL    HW114975   5.706   3.869   2.476
 4692SOL    HW214976   5.847   3.788   2.493
 4693SOL     OW14977   1.983   0.621   3.693
 4693SOL    HW114978   1.905   0.560   3.676
 4693SOL    HW214979   1.965   0.675   3.775
 4694SOL     OW14980   2.060   1.206   0.072
 4694SOL    HW114981   2.004   1.161   0.142
 4694SOL    HW214982   2.003   1.269   0.020
 4695SOL     OW14983   0.683   6.144   1.563
 4695SOL    HW114984   0.615   6.193   1.509
 4695SOL    HW214985   0.713   6.202   1.639
 4696SOL     OW14986   1.402   5.350   5.992
 4696SOL    HW114987   1.496   5.335   6.023
 4696SOL    HW214988   1.393   5.320   5.897
 4697SOL     OW14989   3.454   4.920   0.652
 4697SOL    HW114990   3.526   4.927   0.584
 4697SOL    HW214991   3.494   4.905   0.743
 4698SOL     OW14992   5.879   1.333   3.032
 4698SOL    HW114993   5.921   1.360   2.946
 4698SOL    HW214994   5.917   1.245   3.062
 4699SOL     OW14995   1.039   7.009   2.659
 4699SOL    HW114996   1.056   0.076   2.607
 4699SOL    HW214997   1.121   6.952   2.659
 4700SOL     OW14998   6.057   2.056   3.220
 4700SOL    HW114999   6.143   2.105   3.203
 4700SOL    HW215000   6.000   2.061   3.138
 4701SOL     OW15001   3.404   1.849   1.916
 4701SOL    HW115002   3.492   1.893   1.929
 4701SOL    HW215003   3.391   1.779   1.986
 4702SOL     OW15004   5.548   4.614   6.577
 4702SOL    HW115005   5.532   4.568   6.664
 4702SOL    HW215006   5.488   4.575   6.507
 4703SOL     OW15007   0.847   5.204   3.555
 4703SOL    HW115008   0.864   5.106   3.553
 4703SOL    HW215009   0.791   5.226   3.635
 4704SOL     OW15010   1.156   5.103   5.612
 4704SOL    HW115011   1.157   5.103   5.512
 4704SOL    HW215012   1.065   5.080   5.645
 4705SOL     OW15013   3.581   2.325   1.580
 4705SOL    HW115014   3.553   2.411   1.538
 4705SOL    HW215015   3.615   2.343   1.672
 4706SOL     OW15016   1.929   0.541   0.378
 4706SOL    HW115017   1.959   0.597   0.456
 4706SOL    HW215018   1.882   0.460   0.411
 4707SOL     OW15019   1.986   6.275   1.183
 4707SOL    HW115020   2.053   6.304   1.252
 4707SOL    HW215021   1.969   6.177   1.192
 4708SOL     OW15022   0.544   2.883   4.070
 4708SOL    HW115023   0.507   2.818   4.136
 4708SOL    HW215024   0.506   2.974   4.087
 4709SOL     OW15025   4.745   3.722   5.395
 4709SOL    HW115026   4.843   3.742   5.400
 4709SOL    HW215027   4.722   3.692   5.302
 4710SOL     OW15028   6.081   6.086   4.478
 4710SOL    HW115029   6.056   5.990   4.483
 4710SOL    HW215030   6.088   6.124   4.570
 4711SOL     OW15031   5.675   3.323   3.463
 4711SOL    HW115032   5.690   3.263   3.542
 4711SOL    HW215033   5.689   3.272   3.379
 4712SOL     OW15034   4.769   4.037   5.205
 4712SOL    HW115035   4.710   4.019   5.283
 4712SOL    HW215036   4.764   3.959   5.141
 4713SOL     OW15037   5.968   4.317   1.236
 4713SOL    HW115038   5.933   4.330   1.143
 4713SOL    HW215039   5.967   4.220   1.259
 4714SOL     OW15040   5.681   1.135   6.041
 4714SOL    HW115041   5.628   1.207   6.086
 4714SOL    HW215042   5.701   1.063   6.107
 4715SOL     OW15043   6.161   1.202   1.732
 4715SOL    HW115044   6.157   1.103   1.720
 4715SOL    HW215045   6.253   1.229   1.758
 4716SOL     OW15046   3.711   4.187   6.105
 4716SOL    HW115047   3.707   4.255   6.033
 4716SOL    HW215048   3.715   4.095   6.065
 4717SOL     OW15049   2.788   5.250   4.828
 4717SOL    HW115050   2.842   5.256   4.912
 4717SOL    HW215051   2.801   5.159   4.787
 4718SOL     OW15052   4.578   4.378   0.317
 4718SOL    HW115053   4.599   4.365   0.220
 4718SOL    HW215054   4.549   4.291   0.357
 4719SOL     OW15055   6.845   3.838   3.789
 4719SOL    HW115056   6.906   3.868   3.861
 4719SOL    HW215057   6.750   3.853   3.817
 4720SOL     OW15058   2.917   3.990   6.966
 4720SOL    HW115059   2.998   4.031   6.925
 4720SOL    HW215060   2.913   3.893   6.940
 4721SOL     OW15061   6.342   3.132   2.845
 4721SOL    HW115062   6.398   3.050   2.831
 4721SOL    HW215063   6.400   3.205   2.883
 4722SOL     OW15064   1.418   4.535   6.719
 4722SOL    HW115065   1.383   4.482   6.797
 4722SOL    HW215066   1.474   4.476   6.661
 4723SOL     OW15067   3.788   4.037   6.778
 4723SOL    HW115068   3.856   4.029   6.704
 4723SOL    HW215069   3.796   3.959   6.839
 4724SOL     OW15070   1.452   6.781   4.655
 4724SOL    HW115071   1.370   6.823   4.615
 4724SOL    HW215072   1.476   6.828   4.740
 4725SOL     OW15073   5.254   5.911   0.480
 4725SOL    HW115074   5.276   5.946   0.389
 4725SOL    HW215075   5.274   5.981   0.549
 4726SOL     OW15076   0.801   3.481   5.465
 4726SOL    HW115077   0.745   3.418   5.410
 4726SOL    HW215078   0.801   3.451   5.560
 4727SOL     OW15079   0.791   5.404   0.408
 4727SOL    HW115080   0.749   5.443   0.326
 4727SOL    HW215081   0.860   5.337   0.381
 4728SOL     OW15082   6.575   1.563   4.480
 4728SOL    HW115083   6.628   1.566   4.395
 4728SOL    HW215084   6.624   1.613   4.552
 4729SOL     OW15085   6.088   1.221   1.274
 4729SOL    HW115086   6.048   1.141   1.230
 4729SOL    HW215087   6.041   1.239   1.361
 4730SOL     OW15088   3.333   6.677   4.995
 4730SOL    HW115089   3.421   6.659   5.041
 4730SOL    HW215090   3.291   6.758   5.035
 4731SOL     OW15091   3.713   0.470   0.597
 4731SOL    HW115092   3.723   0.547   0.659
 4731SOL    HW215093   3.701   0.386   0.649
 4732SOL     OW15094   0.350   4.459   3.742
 4732SOL    HW115095   0.331   4.393   3.815
 4732SOL    HW215096   0.265   4.506   3.717
 4733SOL     OW15097   2.169   3.808   3.231
 4733SOL    HW115098   2.136   3.735   3.291
 4733SOL    HW215099   2.212   3.767   3.151
 4734SOL     OW15100   4.840   3.201   6.643
 4734SOL    HW115101   4.866   3.255   6.562
 4734SOL    HW215102   4.904   3.220   6.717
 4735SOL     OW15103   6.939   0.068   4.885
 4735SOL    HW115104   6.905   0.129   4.957
 4735SOL    HW215105   0.014   0.035   4.909
 4736SOL     OW15106   6.681   2.150   3.381
 4736SOL    HW115107   6.736   2.224   3.342
 4736SOL    HW215108   6.713   2.062   3.347
 4737SOL     OW15109   2.355   4.240   0.988
 4737SOL    HW115110   2.441   4.282   0.960
 4737SOL    HW215111   2.280   4.278   0.932
 4738SOL     OW15112   1.875   6.539   3.741
 4738SOL    HW115113   1.821   6.576   3.817
 4738SOL    HW215114   1.823   6.549   3.656
 4739SOL     OW15115   5.568   3.386   3.801
 4739SOL    HW115116   5.530   3.474   3.830
 4739SOL    HW215117   5.552   3.373   3.703
 4740SOL     OW15118   0.630   1.131   1.344
 4740SOL    HW115119   0.672   1.198   1.405
 4740SOL    HW215120   0.669   1.139   1.253
 4741SOL     OW15121   4.154   4.738   1.646
 4741SOL    HW115122   4.115   4.720   1.736
 4741SOL    HW215123   4.090   4.709   1.574
 4742SOL     OW15124   2.567   6.198   1.839
 4742SOL    HW115125   2.648   6.252   1.815
 4742SOL    HW215126   2.493   6.220   1.775
 4743SOL     OW15127   2.328   1.917   0.392
 4743SOL    HW115128   2.273   1.921   0.309
 4743SOL    HW215129   2.370   1.826   0.400
 4744SOL     OW15130   1.681   3.069   5.335
 4744SOL    HW115131   1.659   3.118   5.250
 4744SOL    HW215132   1.610   3.088   5.403
 4745SOL     OW15133   2.948   5.497   5.032
 4745SOL    HW115134   2.943   5.402   5.063
 4745SOL    HW215135   2.867   5.546   5.063
 4746SOL     OW15136   6.720   0.483   0.411
 4746SOL    HW115137   6.633   0.531   0.429
 4746SOL    HW215138   6.747   0.499   0.316
 4747SOL     OW15139   6.180   2.697   0.750
 4747SOL    HW115140   6.237   2.655   0.680
 4747SOL    HW215141   6.152   2.628   0.817
 4748SOL     OW15142   1.708   0.990   1.706
 4748SOL    HW115143   1.790   0.961   1.756
 4748SOL    HW215144   1.627   0.955   1.753
 4749SOL     OW15145   1.506   6.633   6.672
 4749SOL    HW115146   1.470   6.720   6.638
 4749SOL    HW215147   1.604   6.642   6.689
 4750SOL     OW15148   6.955   0.967   4.649
 4750SOL    HW115149   6.895   0.906   4.700
 4750SOL    HW215150   7.013   0.913   4.587
 4751SOL     OW15151   1.226   3.887   6.738
 4751SOL    HW115152   1.323   3.865   6.723
 4751SOL    HW215153   1.197   3.852   6.827
 4752SOL     OW15154   3.026   5.967   1.489
 4752SOL    HW115155   3.089   5.989   1.414
 4752SOL    HW215156   3.067   5.894   1.546
 4753SOL     OW15157   5.823   6.951   5.422
 4753SOL    HW115158   5.904   6.987   5.468
 4753SOL    HW215159   5.852   6.896   5.343
 4754SOL     OW15160   0.841   0.243   5.550
 4754SOL    HW115161   0.825   0.188   5.468
 4754SOL    HW215162   0.839   0.184   5.630
 4755SOL     OW15163   2.688   1.565   6.516
 4755SOL    HW115164   2.785   1.542   6.508
 4755SOL    HW215165   2.659   1.551   6.611
 4756SOL     OW15166   4.712   2.848   1.171
 4756SOL    HW115167   4.659   2.789   1.109
 4756SOL    HW215168   4.801   2.806   1.189
 4757SOL     OW15169   2.186   1.757   1.000
 4757SOL    HW115170   2.259   1.698   0.966
 4757SOL    HW215171   2.126   1.783   0.924
 4758SOL     OW15172   5.282   5.199   5.300
 4758SOL    HW115173   5.199   5.144   5.305
 4758SOL    HW215174   5.287   5.246   5.212
 4759SOL     OW15175   5.300   5.561   5.763
 4759SOL    HW115176   5.395   5.591   5.756
 4759SOL    HW215177   5.284   5.486   5.699
 4760SOL     OW15178   1.611   1.509   1.804
 4760SOL    HW115179   1.572   1.552   1.885
 4760SOL    HW215180   1.552   1.435   1.773
 4761SOL     OW15181   0.824   6.691   6.541
 4761SOL    HW115182   0.830   6.658   6.636
 4761SOL    HW215183   0.767   6.773   6.538
 4762SOL     OW15184   2.210   5.807   2.306
 4762SOL    HW115185   2.244   5.858   2.227
 4762SOL    HW215186   2.129   5.854   2.344
 4763SOL     OW15187   6.202   5.913   3.616
 4763SOL    HW115188   6.293   5.888   3.583
 4763SOL    HW215189   6.135   5.846   3.583
 4764SOL     OW15190   3.615   3.603   4.062
 4764SOL    HW115191   3.517   3.591   4.073
 4764SOL    HW215192   3.646   3.548   3.984
 4765SOL     OW15193   5.455   5.664   4.700
 4765SOL    HW115194   5.496   5.752   4.725
 4765SOL    HW215195   5.421   5.618   4.782
 4766SOL     OW15196   2.818   0.318   2.817
 4766SOL    HW115197   2.785   0.256   2.745
 4766SOL    HW215198   2.905   0.358   2.788
 4767SOL     OW15199   4.258   5.832   6.453
 4767SOL    HW115200   4.185   5.901   6.451
 4767SOL    HW215201   4.345   5.876   6.431
 4768SOL     OW15202   6.906   0.585   5.410
 4768SOL    HW115203   6.852   0.547   5.335
 4768SOL    HW215204   6.995   0.613   5.376
 4769SOL     OW15205   3.936   6.994   1.553
 4769SOL    HW115206   3.951   6.912   1.497
 4769SOL    HW215207   3.854   0.025   1.522
 4770SOL     OW15208   2.503   0.755   3.223
 4770SOL    HW115209   2.479   0.658   3.223
 4770SOL    HW215210   2.451   0.802   3.295
 4771SOL     OW15211   3.941   4.160   5.353
 4771SOL    HW115212   3.847   4.154   5.388
 4771SOL    HW215213   3.948   4.112   5.266
 4772SOL     OW15214   2.582   2.114   1.778
 4772SOL    HW115215   2.610   2.074   1.866
 4772SOL    HW215216   2.609   2.210   1.776
 4773SOL     OW15217   0.241   5.994   3.810
 4773SOL    HW115218   0.276   5.900   3.804
 4773SOL    HW215219   0.281   6.049   3.738
 4774SOL     OW15220   0.494   4.116   1.346
 4774SOL    HW115221   0.480   4.126   1.247
 4774SOL    HW215222   0.578   4.161   1.373
 4775SOL     OW15223   4.237   0.609   2.195
 4775SOL    HW115224   4.335   0.591   2.191
 4775SOL    HW215225   4.212   0.675   2.125
 4776SOL     OW15226   3.044   5.426   2.191
 4776SOL    HW115227   2.955   5.432   2.144
 4776SOL    HW215228   3.041   5.481   2.274
 4777SOL     OW15229   2.919   4.146   0.981
 4777SOL    HW115230   2.988   4.211   0.948
 4777SOL    HW215231   2.907   4.158   1.079
 4778SOL     OW15232   5.118   3.848   1.984
 4778SOL    HW115233   5.074   3.853   1.894
 4778SOL    HW215234   5.175   3.929   1.998
 4779SOL     OW15235   5.294   0.783   2.941
 4779SOL    HW115236   5.307   0.709   3.008
 4779SOL    HW215237   5.307   0.746   2.849
 4780SOL     OW15238   0.897   6.482   6.407
 4780SOL    HW115239   0.989   6.485   6.368
 4780SOL    HW215240   0.883   6.562   6.466
 4781SOL     OW15241   2.398   5.376   1.448
 4781SOL    HW115242   2.306   5.413   1.447
 4781SOL    HW215243   2.458   5.434   1.503
 4782SOL     OW15244   5.620   6.576   6.630
 4782SOL    HW115245   5.628   6.669   6.594
 4782SOL    HW215246   5.643   6.510   6.558
 4783SOL     OW15247   5.580   4.573   1.279
 4783SOL    HW115248   5.529   4.656   1.255
 4783SOL    HW215249   5.657   4.596   1.338
 4784SOL     OW15250   5.970   5.090   4.506
 4784SOL    HW115251   5.992   5.184   4.479
 4784SOL    HW215252   6.054   5.042   4.532
 4785SOL     OW15253   6.516   0.358   1.538
 4785SOL    HW115254   6.456   0.428   1.575
 4785SOL    HW215255   6.536   0.379   1.442
 4786SOL     OW15256   1.753   3.123   1.896
 4786SOL    HW115257   1.846   3.158   1.883
 4786SOL    HW215258   1.719   3.086   1.810
 4787SOL     OW15259   3.688   1.948   3.088
 4787SOL    HW115260   3.697   1.856   3.048
 4787SOL    HW215261   3.603   1.990   3.056
 4788SOL     OW15262   1.590   5.277   4.201
 4788SOL    HW115263   1.492   5.283   4.219
 4788SOL    HW215264   1.607   5.208   4.131
 4789SOL     OW15265   5.558   0.846   0.580
 4789SOL    HW115266   5.631   0.807   0.637
 4789SOL    HW215267   5.476   0.858   0.636
 4790SOL     OW15268   5.829   2.024   6.087
 4790SOL    HW115269   5.920   2.021   6.127
 4790SOL    HW215270   5.804   1.933   6.053
 4791SOL     OW15271   5.614   6.932   2.360
 4791SOL    HW115272   5.693   6.925   2.421
 4791SOL    HW215273   5.641   6.911   2.266
 4792SOL     OW15274   2.068   2.646   2.114
 4792SOL    HW115275   2.152   2.633   2.061
 4792SOL    HW215276   2.084   2.716   2.183
 4793SOL     OW15277   1.194   6.735   5.903
 4793SOL    HW115278   1.239   6.799   5.841
 4793SOL    HW215279   1.121   6.687   5.853
 4794SOL     OW15280   2.707   0.649   2.418
 4794SOL    HW115281   2.679   0.724   2.478
 4794SOL    HW215282   2.631   0.586   2.405
 4795SOL     OW15283   6.096   3.195   3.949
 4795SOL    HW115284   6.142   3.265   4.002
 4795SOL    HW215285   6.069   3.233   3.860
 4796SOL     OW15286   5.536   4.841   0.795
 4796SOL    HW115287   5.455   4.782   0.792
 4796SOL    HW215288   5.567   4.851   0.890
 4797SOL     OW15289   0.094   4.856   5.044
 4797SOL    HW115290   0.107   4.933   5.108
 4797SOL    HW215291   0.059   4.891   4.957
 4798SOL     OW15292   0.001   4.552   4.234
 4798SOL    HW115293   6.942   4.488   4.246
 4798SOL    HW215294   0.052   4.560   4.320
 4799SOL     OW15295   4.549   1.478   5.091
 4799SOL    HW115296   4.611   1.551   5.120
 4799SOL    HW215297   4.582   1.438   5.005
 4800SOL     OW15298   1.901   2.265   4.784
 4800SOL    HW115299   1.981   2.246   4.841
 4800SOL    HW215300   1.861   2.178   4.752
 4801SOL     OW15301   0.695   2.354   1.146
 4801SOL    HW115302   0.794   2.344   1.161
 4801SOL    HW215303   0.680   2.412   1.066
 4802SOL     OW15304   2.883   0.630   1.882
 4802SOL    HW115305   2.877   0.725   1.912
 4802SOL    HW215306   2.958   0.620   1.817
 4803SOL     OW15307   1.144   7.012   0.682
 4803SOL    HW115308   1.216   0.026   0.619
 4803SOL    HW215309   1.183   6.999   0.773
 4804SOL     OW15310   4.064   5.149   0.116
 4804SOL    HW115311   3.979   5.188   0.151
 4804SOL    HW215312   4.142   5.190   0.164
 4805SOL     OW15313   6.756   1.792   0.987
 4805SOL    HW115314   6.723   1.745   1.069
 4805SOL    HW215315   6.677   1.823   0.933
 4806SOL     OW15316   0.750   2.776   3.080
 4806SOL    HW115317   0.838   2.792   3.123
 4806SOL    HW215318   0.682   2.753   3.149
 4807SOL     OW15319   6.957   0.072   1.467
 4807SOL    HW115320   6.893   0.149   1.460
 4807SOL    HW215321   7.005   0.077   1.554
 4808SOL     OW15322   4.923   3.120   1.205
 4808SOL    HW115323   4.918   3.113   1.105
 4808SOL    HW215324   4.870   3.200   1.235
 4809SOL     OW15325   3.792   5.591   6.880
 4809SOL    HW115326   3.891   5.602   6.874
 4809SOL    HW215327   3.770   5.508   6.931
 4810SOL     OW15328   1.172   0.267   1.414
 4810SOL    HW115329   1.098   0.204   1.391
 4810SOL    HW215330   1.260   0.223   1.398
 4811SOL     OW15331   4.027   5.187   2.139
 4811SOL    HW115332   3.976   5.242   2.072
 4811SOL    HW215333   3.962   5.148   2.205
 4812SOL     OW15334   6.895   5.697   4.281
 4812SOL    HW115335   6.992   5.696   4.254
 4812SOL    HW215336   6.850   5.777   4.241
 4813SOL     OW15337   5.335   2.228   3.168
 4813SOL    HW115338   5.296   2.305   3.117
 4813SOL    HW215339   5.278   2.209   3.248
 4814SOL     OW15340   6.668   3.511   1.825
 4814SOL    HW115341   6.705   3.553   1.742
 4814SOL    HW215342   6.614   3.579   1.875
 4815SOL     OW15343   4.691   6.429   1.224
 4815SOL    HW115344   4.751   6.422   1.303
 4815SOL    HW215345   4.745   6.446   1.141
 4816SOL     OW15346   5.171   4.965   3.396
 4816SOL    HW115347   5.117   4.884   3.373
 4816SOL    HW215348   5.267   4.947   3.376
 4817SOL     OW15349   0.316   1.939   6.437
 4817SOL    HW115350   0.289   2.034   6.417
 4817SOL    HW215351   0.335   1.929   6.534
 4818SOL     OW15352   0.586   0.040   4.139
 4818SOL    HW115353   0.486   0.045   4.139
 4818SOL    HW215354   0.623   0.116   4.084
 4819SOL     OW15355   1.811   3.253   0.758
 4819SOL    HW115356   1.820   3.346   0.724
 4819SOL    HW215357   1.839   3.188   0.687
 4820SOL     OW15358   6.738   3.169   1.860
 4820SOL    HW115359   6.777   3.132   1.944
 4820SOL    HW215360   6.762   3.266   1.852
 4821SOL     OW15361   6.808   5.560   2.341
 4821SOL    HW115362   6.890   5.510   2.314
 4821SOL    HW215363   6.745   5.499   2.388
 4822SOL     OW15364   1.231   3.626   4.056
 4822SOL    HW115365   1.305   3.601   4.118
 4822SOL    HW215366   1.267   3.686   3.984
 4823SOL     OW15367   1.847   2.996   1.418
 4823SOL    HW115368   1.867   3.007   1.320
 4823SOL    HW215369   1.931   2.971   1.466
 4824SOL     OW15370   6.163   1.570   5.752
 4824SOL    HW115371   6.117   1.635   5.813
 4824SOL    HW215372   6.202   1.495   5.806
 4825SOL     OW15373   1.646   6.951   3.806
 4825SOL    HW115374   1.738   6.944   3.845
 4825SOL    HW215375   1.615   0.030   3.810
 4826SOL     OW15376   4.500   0.734   1.453
 4826SOL    HW115377   4.543   0.649   1.424
 4826SOL    HW215378   4.509   0.744   1.552
 4827SOL     OW15379   6.785   1.767   1.395
 4827SOL    HW115380   6.788   1.849   1.340
 4827SOL    HW215381   6.715   1.776   1.466
 4828SOL     OW15382   4.819   0.664   3.656
 4828SOL    HW115383   4.805   0.658   3.755
 4828SOL    HW215384   4.911   0.696   3.637
 4829SOL     OW15385   3.787   6.926   5.052
 4829SOL    HW115386   3.861   6.862   5.071
 4829SOL    HW215387   3.826   7.015   5.029
 4830SOL     OW15388   2.996   5.807   3.218
 4830SOL    HW115389   2.963   5.894   3.255
 4830SOL    HW215390   3.019   5.746   3.294
 4831SOL     OW15391   3.007   4.704   5.356
 4831SOL    HW115392   2.979   4.620   5.309
 4831SOL    HW215393   2.926   4.756   5.383
 4832SOL     OW15394   3.833   3.425   4.597
 4832SOL    HW115395   3.812   3.490   4.671
 4832SOL    HW215396   3.929   3.435   4.570
 4833SOL     OW15397   6.878   3.206   4.051
 4833SOL    HW115398   6.864   3.294   4.006
 4833SOL    HW215399   6.796   3.183   4.103
 4834SOL     OW15400   0.946   5.109   1.301
 4834SOL    HW115401   0.958   5.201   1.263
 4834SOL    HW215402   0.857   5.072   1.273
 4835SOL     OW15403   6.373   2.427   5.316
 4835SOL    HW115404   6.461   2.431   5.364
 4835SOL    HW215405   6.298   2.439   5.382
 4836SOL     OW15406   5.089   0.951   5.265
 4836SOL    HW115407   5.185   0.980   5.267
 4836SOL    HW215408   5.064   0.913   5.354
 4837SOL     OW15409   0.332   4.222   3.989
 4837SOL    HW115410   0.420   4.235   3.943
 4837SOL    HW215411   0.315   4.299   4.051
 4838SOL     OW15412   2.182   4.096   6.314
 4838SOL    HW115413   2.210   4.020   6.256
 4838SOL    HW215414   2.097   4.073   6.361
 4839SOL     OW15415   2.495   1.361   0.377
 4839SOL    HW115416   2.577   1.317   0.340
 4839SOL    HW215417   2.417   1.299   0.366
 4840SOL     OW15418   5.877   3.827   4.338
 4840SOL    HW115419   5.907   3.876   4.420
 4840SOL    HW215420   5.946   3.837   4.267
 4841SOL     OW15421   3.452   6.139   2.681
 4841SOL    HW115422   3.419   6.053   2.718
 4841SOL    HW215423   3.437   6.212   2.747
 4842SOL     OW15424   3.305   5.574   3.004
 4842SOL    HW115425   3.282   5.505   3.072
 4842SOL    HW215426   3.361   5.533   2.932
 4843SOL     OW15427   0.429   1.901   1.380
 4843SOL    HW115428   0.388   1.855   1.459
 4843SOL    HW215429   0.398   1.996   1.377
 4844SOL     OW15430   1.357   5.561   4.981
 4844SOL    HW115431   1.352   5.521   4.889
 4844SOL    HW215432   1.373   5.660   4.973
 4845SOL     OW15433   4.948   3.833   4.804
 4845SOL    HW115434   5.044   3.847   4.828
 4845SOL    HW215435   4.929   3.735   4.800
 4846SOL     OW15436   6.621   3.704   4.293
 4846SOL    HW115437   6.671   3.630   4.249
 4846SOL    HW215438   6.522   3.689   4.282
 4847SOL     OW15439   2.393   5.804   6.629
 4847SOL    HW115440   2.309   5.774   6.582
 4847SOL    HW215441   2.375   5.889   6.678
 4848SOL     OW15442   3.366   0.924   4.274
 4848SOL    HW115443   3.444   0.934   4.336
 4848SOL    HW215444   3.320   1.012   4.264
 4849SOL     OW15445   1.950   6.685   1.144
 4849SOL    HW115446   1.986   6.687   1.238
 4849SOL    HW215447   1.885   6.610   1.135
 4850SOL     OW15448   4.522   0.227   0.252
 4850SOL    HW115449   4.428   0.216   0.285
 4850SOL    HW215450   4.534   0.175   0.168
 4851SOL     OW15451   3.723   4.606   6.681
 4851SOL    HW115452   3.697   4.699   6.707
 4851SOL    HW215453   3.656   4.542   6.718
 4852SOL     OW15454   4.823   5.679   4.694
 4852SOL    HW115455   4.865   5.620   4.763
 4852SOL    HW215456   4.795   5.623   4.615
 4853SOL     OW15457   4.541   6.670   1.997
 4853SOL    HW115458   4.630   6.701   1.964
 4853SOL    HW215459   4.478   6.747   2.001
 4854SOL     OW15460   5.364   6.224   1.715
 4854SOL    HW115461   5.395   6.309   1.674
 4854SOL    HW215462   5.296   6.243   1.786
 4855SOL     OW15463   5.270   4.976   5.561
 4855SOL    HW115464   5.352   4.989   5.505
 4855SOL    HW215465   5.190   5.004   5.508
 4856SOL     OW15466   0.014   3.939   2.910
 4856SOL    HW115467   7.004   3.939   2.813
 4856SOL    HW215468   0.041   4.031   2.937
 4857SOL     OW15469   2.360   2.294   5.189
 4857SOL    HW115470   2.288   2.322   5.125
 4857SOL    HW215471   2.318   2.248   5.268
 4858SOL     OW15472   0.566   6.257   4.306
 4858SOL    HW115473   0.478   6.210   4.311
 4858SOL    HW215474   0.638   6.191   4.281
 4859SOL     OW15475   0.615   6.412   2.313
 4859SOL    HW115476   0.620   6.313   2.302
 4859SOL    HW215477   0.707   6.450   2.311
 4860SOL     OW15478   4.459   5.292   1.156
 4860SOL    HW115479   4.525   5.234   1.109
 4860SOL    HW215480   4.469   5.281   1.255
 4861SOL     OW15481   0.341   4.191   6.679
 4861SOL    HW115482   0.402   4.222   6.751
 4861SOL    HW215483   0.249   4.227   6.695
 4862SOL     OW15484   2.515   5.527   5.746
 4862SOL    HW115485   2.561   5.445   5.712
 4862SOL    HW215486   2.419   5.506   5.764
 4863SOL     OW15487   4.643   1.843   3.103
 4863SOL    HW115488   4.643   1.922   3.164
 4863SOL    HW215489   4.563   1.848   3.042
 4864SOL     OW15490   2.165   1.021   1.170
 4864SOL    HW115491   2.206   1.106   1.138
 4864SOL    HW215492   2.156   1.023   1.270
 4865SOL     OW15493   3.474   5.891   5.686
 4865SOL    HW115494   3.510   5.984   5.697
 4865SOL    HW215495   3.548   5.828   5.665
 4866SOL     OW15496   6.993   4.342   2.104
 4866SOL    HW115497   0.027   4.301   2.180
 4866SOL    HW215498   6.911   4.388   2.139
 4867SOL     OW15499   4.722   5.738   3.374
 4867SOL    HW115500   4.719   5.760   3.472
 4867SOL    HW215501   4.719   5.638   3.363
 4868SOL     OW15502   0.864   6.105   0.965
 4868SOL    HW115503   0.912   6.084   0.880
 4868SOL    HW215504   0.898   6.047   1.038
 4869SOL     OW15505   6.451   0.661   0.893
 4869SOL    HW115506   6.419   0.566   0.903
 4869SOL    HW215507   6.508   0.685   0.971
 4870SOL     OW15508   6.628   6.938   1.641
 4870SOL    HW115509   6.539   6.983   1.646
 4870SOL    HW215510   6.672   6.940   1.731
 4871SOL     OW15511   0.519   3.499   3.986
 4871SOL    HW115512   0.580   3.520   4.063
 4871SOL    HW215513   0.565   3.439   3.921
 4872SOL     OW15514   1.128   0.509   3.545
 4872SOL    HW115515   1.080   0.526   3.631
 4872SOL    HW215516   1.207   0.571   3.538
 4873SOL     OW15517   0.790   5.684   5.314
 4873SOL    HW115518   0.795   5.596   5.267
 4873SOL    HW215519   0.817   5.672   5.409
 4874SOL     OW15520   5.142   3.571   3.290
 4874SOL    HW115521   5.048   3.557   3.258
 4874SOL    HW215522   5.146   3.654   3.345
 4875SOL     OW15523   6.256   2.737   6.662
 4875SOL    HW115524   6.167   2.699   6.688
 4875SOL    HW215525   6.256   2.759   6.564
 4876SOL     OW15526   0.701   1.319   6.353
 4876SOL    HW115527   0.713   1.408   6.309
 4876SOL    HW215528   0.642   1.330   6.434
 4877SOL     OW15529   6.543   1.775   0.755
 4877SOL    HW115530   6.540   1.676   0.751
 4877SOL    HW215531   6.554   1.812   0.662
 4878SOL     OW15532   6.834   2.001   1.228
 4878SOL    HW115533   6.889   2.025   1.148
 4878SOL    HW215534   6.861   2.058   1.305
 4879SOL     OW15535   4.218   5.495   3.278
 4879SOL    HW115536   4.203   5.594   3.285
 4879SOL    HW215537   4.226   5.469   3.182
 4880SOL     OW15538   5.677   2.233   5.982
 4880SOL    HW115539   5.699   2.149   6.031
 4880SOL    HW215540   5.581   2.231   5.954
 4881SOL     OW15541   3.422   5.894   6.640
 4881SOL    HW115542   3.507   5.845   6.622
 4881SOL    HW215543   3.442   5.978   6.690
 4882SOL     OW15544   5.557   0.916   5.548
 4882SOL    HW115545   5.461   0.891   5.563
 4882SOL    HW215546   5.615   0.842   5.582
 4883SOL     OW15547   0.602   5.813   0.938
 4883SOL    HW115548   0.547   5.783   0.859
 4883SOL    HW215549   0.540   5.839   1.012
 4884SOL     OW15550   3.244   6.480   1.989
 4884SOL    HW115551   3.278   6.470   1.895
 4884SOL    HW215552   3.307   6.437   2.053
 4885SOL     OW15553   1.909   0.222   1.914
 4885SOL    HW115554   1.950   0.249   1.827
 4885SOL    HW215555   1.923   0.294   1.982
 4886SOL     OW15556   6.083   0.715   6.380
 4886SOL    HW115557   6.179   0.704   6.357
 4886SOL    HW215558   6.072   0.717   6.480
 4887SOL     OW15559   0.516   1.777   5.017
 4887SOL    HW115560   0.470   1.717   5.082
 4887SOL    HW215561   0.529   1.729   4.930
 4888SOL     OW15562   2.814   5.447   2.065
 4888SOL    HW115563   2.783   5.377   2.001
 4888SOL    HW215564   2.736   5.484   2.116
 4889SOL     OW15565   1.505   2.320   6.966
 4889SOL    HW115566   1.538   2.396   0.005
 4889SOL    HW215567   1.583   2.271   6.927
 4890SOL     OW15568   1.461   0.299   4.590
 4890SOL    HW115569   1.422   0.370   4.649
 4890SOL    HW215570   1.541   0.259   4.635
 4891SOL     OW15571   1.343   3.886   0.766
 4891SOL    HW115572   1.442   3.876   0.780
 4891SOL    HW215573   1.308   3.804   0.722
 4892SOL     OW15574   1.266   6.001   1.440
 4892SOL    HW115575   1.339   5.934   1.430
 4892SOL    HW215576   1.182   5.955   1.470
 4893SOL     OW15577   0.680   3.469   6.497
 4893SOL    HW115578   0.694   3.372   6.476
 4893SOL    HW215579   0.583   3.492   6.487
 4894SOL     OW15580   2.148   1.004   3.664
 4894SOL    HW115581   2.151   0.920   3.609
 4894SOL    HW215582   2.063   1.006   3.717
 4895SOL     OW15583   0.245   3.823   0.511
 4895SOL    HW115584   0.146   3.829   0.520
 4895SOL    HW215585   0.272   3.728   0.494
 4896SOL     OW15586   4.165   5.293   3.781
 4896SOL    HW115587   4.200   5.203   3.757
 4896SOL    HW215588   4.168   5.353   3.701
 4897SOL     OW15589   3.201   5.426   5.909
 4897SOL    HW115590   3.258   5.473   5.976
 4897SOL    HW215591   3.244   5.432   5.818
 4898SOL     OW15592   5.752   2.350   5.525
 4898SOL    HW115593   5.752   2.395   5.614
 4898SOL    HW215594   5.749   2.419   5.452
 4899SOL     OW15595   5.312   4.102   4.721
 4899SOL    HW115596   5.389   4.164   4.712
 4899SOL    HW215597   5.304   4.046   4.638
 4900SOL     OW15598   0.942   6.713   5.142
 4900SOL    HW115599   0.909   6.796   5.097
 4900SOL    HW215600   1.022   6.678   5.094
 4901SOL     OW15601   1.467   6.639   3.265
 4901SOL    HW115602   1.477   6.738   3.256
 4901SOL    HW215603   1.395   6.607   3.203
 4902SOL     OW15604   2.971   4.808   1.961
 4902SOL    HW115605   2.987   4.828   1.864
 4902SOL    HW215606   2.900   4.739   1.970
 4903SOL     OW15607   5.203   6.210   6.325
 4903SOL    HW115608   5.199   6.245   6.418
 4903SOL    HW215609   5.118   6.162   6.303
 4904SOL     OW15610   3.427   6.052   3.515
 4904SOL    HW115611   3.446   6.065   3.612
 4904SOL    HW215612   3.372   5.969   3.503
 4905SOL     OW15613   6.193   3.307   2.647
 4905SOL    HW115614   6.242   3.292   2.732
 4905SOL    HW215615   6.235   3.253   2.574
 4906SOL     OW15616   5.995   1.233   1.523
 4906SOL    HW115617   5.971   1.329   1.515
 4906SOL    HW215618   6.054   1.219   1.602
 4907SOL     OW15619   2.798   1.079   2.371
 4907SOL    HW115620   2.736   1.042   2.440
 4907SOL    HW215621   2.824   1.173   2.396
 4908SOL     OW15622   3.381   5.606   6.689
 4908SOL    HW115623   3.290   5.599   6.648
 4908SOL    HW215624   3.375   5.658   6.774
 4909SOL     OW15625   6.519   0.311   4.997
 4909SOL    HW115626   6.570   0.273   4.920
 4909SOL    HW215627   6.476   0.237   5.049
 4910SOL     OW15628   6.369   0.039   5.118
 4910SOL    HW115629   6.456   0.023   5.071
 4910SOL    HW215630   6.376   0.007   5.213
 4911SOL     OW15631   0.229   3.344   5.984
 4911SOL    HW115632   0.280   3.352   6.070
 4911SOL    HW215633   0.144   3.294   6.000
 4912SOL     OW15634   2.511   2.476   1.971
 4912SOL    HW115635   2.562   2.406   1.920
 4912SOL    HW215636   2.534   2.470   2.068
 4913SOL     OW15637   2.961   3.737   2.172
 4913SOL    HW115638   2.984   3.808   2.239
 4913SOL    HW215639   2.978   3.771   2.080
 4914SOL     OW15640   1.644   6.232   3.435
 4914SOL    HW115641   1.737   6.252   3.404
 4914SOL    HW215642   1.639   6.138   3.467
 4915SOL     OW15643   3.283   5.833   3.497
 4915SOL    HW115644   3.258   5.835   3.594
 4915SOL    HW215645   3.209   5.791   3.444
 4916SOL     OW15646   2.231   1.455   2.396
 4916SOL    HW115647   2.321   1.429   2.361
 4916SOL    HW215648   2.168   1.464   2.319
 4917SOL     OW15649   1.180   4.886   0.265
 4917SOL    HW115650   1.269   4.925   0.286
 4917SOL    HW215651   1.146   4.835   0.345
 4918SOL     OW15652   2.634   0.375   2.246
 4918SOL    HW115653   2.643   0.281   2.212
 4918SOL    HW215654   2.629   0.374   2.346
 4919SOL     OW15655   2.596   2.644   1.713
 4919SOL    HW115656   2.561   2.630   1.620
 4919SOL    HW215657   2.625   2.557   1.752
 4920SOL     OW15658   4.449   0.747   6.879
 4920SOL    HW115659   4.481   0.721   6.970
 4920SOL    HW215660   4.459   0.846   6.867
 4921SOL     OW15661   1.521   4.704   1.914
 4921SOL    HW115662   1.501   4.800   1.896
 4921SOL    HW215663   1.515   4.652   1.829
 4922SOL     OW15664   0.953   2.854   5.841
 4922SOL    HW115665   1.025   2.913   5.878
 4922SOL    HW215666   0.995   2.776   5.793
 4923SOL     OW15667   4.008   1.594   1.104
 4923SOL    HW115668   4.034   1.601   1.200
 4923SOL    HW215669   4.084   1.556   1.051
 4924SOL     OW15670   0.709   4.236   4.467
 4924SOL    HW115671   0.769   4.157   4.453
 4924SOL    HW215672   0.722   4.271   4.560
 4925SOL     OW15673   4.219   6.073   6.322
 4925SOL    HW115674   4.267   6.153   6.284
 4925SOL    HW215675   4.125   6.072   6.287
 4926SOL     OW15676   4.833   2.422   2.021
 4926SOL    HW115677   4.760   2.479   2.058
 4926SOL    HW215678   4.882   2.472   1.950
 4927SOL     OW15679   3.581   3.815   3.013
 4927SOL    HW115680   3.541   3.779   3.097
 4927SOL    HW215681   3.675   3.846   3.032
 4928SOL     OW15682   0.751   5.971   0.577
 4928SOL    HW115683   0.840   5.995   0.537
 4928SOL    HW215684   0.720   5.884   0.540
 4929SOL     OW15685   0.954   5.013   4.305
 4929SOL    HW115686   0.902   5.086   4.348
 4929SOL    HW215687   0.968   5.034   4.208
 4930SOL     OW15688   6.876   1.991   0.569
 4930SOL    HW115689   6.915   2.070   0.521
 4930SOL    HW215690   6.894   2.000   0.667
 4931SOL     OW15691   0.054   0.680   1.233
 4931SOL    HW115692   0.084   0.775   1.229
 4931SOL    HW215693   0.042   0.652   1.328
 4932SOL     OW15694   3.316   2.268   1.098
 4932SOL    HW115695   3.353   2.347   1.048
 4932SOL    HW215696   3.368   2.186   1.075
 4933SOL     OW15697   2.680   1.053   4.679
 4933SOL    HW115698   2.650   1.058   4.774
 4933SOL    HW215699   2.727   0.966   4.662
 4934SOL     OW15700   1.238   6.315   4.924
 4934SOL    HW115701   1.139   6.318   4.939
 4934SOL    HW215702   1.260   6.356   4.836
 4935SOL     OW15703   1.703   1.157   0.571
 4935SOL    HW115704   1.610   1.182   0.546
 4935SOL    HW215705   1.765   1.231   0.545
 4936SOL     OW15706   3.879   5.810   0.578
 4936SOL    HW115707   3.821   5.756   0.639
 4936SOL    HW215708   3.896   5.759   0.494
 4937SOL     OW15709   0.567   3.386   6.139
 4937SOL    HW115710   0.485   3.368   6.194
 4937SOL    HW215711   0.585   3.484   6.137
 4938SOL     OW15712   3.552   4.415   1.279
 4938SOL    HW115713   3.619   4.363   1.227
 4938SOL    HW215714   3.538   4.504   1.235
 4939SOL     OW15715   1.456   2.199   2.291
 4939SOL    HW115716   1.512   2.125   2.329
 4939SOL    HW215717   1.490   2.286   2.326
 4940SOL     OW15718   6.889   2.200   5.066
 4940SOL    HW115719   6.974   2.247   5.091
 4940SOL    HW215720   6.840   2.173   5.149
 4941SOL     OW15721   3.999   1.784   5.346
 4941SOL    HW115722   3.990   1.794   5.246
 4941SOL    HW215723   4.087   1.820   5.375
 4942SOL     OW15724   0.142   1.532   3.751
 4942SOL    HW115725   0.161   1.629   3.739
 4942SOL    HW215726   0.072   1.503   3.686
 4943SOL     OW15727   5.171   3.125   6.587
 4943SOL    HW115728   5.170   3.149   6.684
 4943SOL    HW215729   5.217   3.196   6.535
 4944SOL     OW15730   1.228   5.360   0.705
 4944SOL    HW115731   1.200   5.444   0.752
 4944SOL    HW215732   1.304   5.380   0.644
 4945SOL     OW15733   2.478   0.648   4.615
 4945SOL    HW115734   2.393   0.700   4.605
 4945SOL    HW215735   2.460   0.567   4.672
 4946SOL     OW15736   2.506   4.841   7.008
 4946SOL    HW115737   2.527   4.933   6.977
 4946SOL    HW215738   2.406   4.829   7.013
 4947SOL     OW15739   1.482   1.173   1.927
 4947SOL    HW115740   1.441   1.232   1.997
 4947SOL    HW215741   1.543   1.107   1.970
 4948SOL     OW15742   1.478   2.692   1.889
 4948SOL    HW115743   1.406   2.752   1.853
 4948SOL    HW215744   1.533   2.657   1.813
 4949SOL     OW15745   0.207   4.285   6.920
 4949SOL    HW115746   0.190   4.314   7.014
 4949SOL    HW215747   0.279   4.216   6.918
 4950SOL     OW15748   2.672   3.840   5.606
 4950SOL    HW115749   2.635   3.795   5.688
 4950SOL    HW215750   2.641   3.935   5.604
 4951SOL     OW15751   5.095   5.307   3.262
 4951SOL    HW115752   5.065   5.234   3.201
 4951SOL    HW215753   5.016   5.363   3.287
 4952SOL     OW15754   0.597   0.019   6.240
 4952SOL    HW115755   0.500   0.036   6.227
 4952SOL    HW215756   0.619   6.942   6.211
 4953SOL     OW15757   0.747   1.925   5.052
 4953SOL    HW115758   0.660   1.876   5.049
 4953SOL    HW215759   0.784   1.933   4.960
 4954SOL     OW15760   3.525   3.974   5.401
 4954SOL    HW115761   3.566   4.026   5.326
 4954SOL    HW215762   3.450   4.027   5.441
 4955SOL     OW15763   3.492   5.210   6.673
 4955SOL    HW115764   3.577   5.182   6.629
 4955SOL    HW215765   3.486   5.310   6.674
 4956SOL     OW15766   2.954   0.285   4.630
 4956SOL    HW115767   2.908   0.279   4.542
 4956SOL    HW215768   3.053   0.278   4.617
 4957SOL     OW15769   6.053   4.160   6.787
 4957SOL    HW115770   6.034   4.253   6.819
 4957SOL    HW215771   6.097   4.164   6.697
 4958SOL     OW15772   3.548   5.915   0.194
 4958SOL    HW115773   3.615   5.959   0.253
 4958SOL    HW215774   3.569   5.937   0.098
 4959SOL     OW15775   0.726   2.905   2.840
 4959SOL    HW115776   0.626   2.895   2.831
 4959SOL    HW215777   0.754   2.879   2.932
 4960SOL     OW15778   4.498   4.858   4.083
 4960SOL    HW115779   4.587   4.902   4.070
 4960SOL    HW215780   4.477   4.801   4.003
 4961SOL     OW15781   4.041   0.891   0.268
 4961SOL    HW115782   4.071   0.974   0.313
 4961SOL    HW215783   4.101   0.870   0.191
 4962SOL     OW15784   1.349   4.014   1.033
 4962SOL    HW115785   1.331   3.987   0.938
 4962SOL    HW215786   1.405   4.097   1.034
 4963SOL     OW15787   1.249   4.053   6.487
 4963SOL    HW115788   1.198   4.022   6.406
 4963SOL    HW215789   1.248   3.981   6.556
 4964SOL     OW15790   2.594   6.834   4.551
 4964SOL    HW115791   2.677   6.882   4.524
 4964SOL    HW215792   2.618   6.756   4.609
 4965SOL     OW15793   1.710   5.789   3.186
 4965SOL    HW115794   1.683   5.704   3.140
 4965SOL    HW215795   1.747   5.768   3.277
 4966SOL     OW15796   3.030   6.996   4.298
 4966SOL    HW115797   3.118   0.012   4.264
 4966SOL    HW215798   3.034   6.897   4.312
 4967SOL     OW15799   4.318   4.711   4.814
 4967SOL    HW115800   4.360   4.801   4.828
 4967SOL    HW215801   4.332   4.655   4.895
 4968SOL     OW15802   6.264   2.586   3.204
 4968SOL    HW115803   6.232   2.574   3.298
 4968SOL    HW215804   6.220   2.518   3.145
 4969SOL     OW15805   0.630   6.372   3.101
 4969SOL    HW115806   0.711   6.370   3.159
 4969SOL    HW215807   0.658   6.375   3.005
 4970SOL     OW15808   0.564   1.706   1.588
 4970SOL    HW115809   0.560   1.763   1.670
 4970SOL    HW215810   0.473   1.670   1.567
 4971SOL     OW15811   6.638   6.124   2.820
 4971SOL    HW115812   6.735   6.132   2.798
 4971SOL    HW215813   6.590   6.080   2.744
 4972SOL     OW15814   1.177   4.358   1.064
 4972SOL    HW115815   1.126   4.358   0.978
 4972SOL    HW215816   1.267   4.316   1.049
 4973SOL     OW15817   6.635   0.776   1.081
 4973SOL    HW115818   6.721   0.733   1.054
 4973SOL    HW215819   6.648   0.875   1.090
 4974SOL     OW15820   3.584   5.555   5.016
 4974SOL    HW115821   3.538   5.477   5.056
 4974SOL    HW215822   3.524   5.599   4.949
 4975SOL     OW15823   6.015   4.513   0.698
 4975SOL    HW115824   6.036   4.607   0.671
 4975SOL    HW215825   5.931   4.484   0.652
 4976SOL     OW15826   1.900   6.553   3.162
 4976SOL    HW115827   1.874   6.460   3.189
 4976SOL    HW215828   1.964   6.548   3.085
 4977SOL     OW15829   1.825   4.442   6.125
 4977SOL    HW115830   1.838   4.347   6.153
 4977SOL    HW215831   1.897   4.468   6.061
 4978SOL     OW15832   5.118   4.581   4.806
 4978SOL    HW115833   5.053   4.638   4.756
 4978SOL    HW215834   5.209   4.593   4.768
 4979SOL     OW15835   2.252   0.066   5.944
 4979SOL    HW115836   2.343   0.108   5.938
 4979SOL    HW215837   2.253   7.011   6.013
 4980SOL     OW15838   5.324   3.669   3.103
 4980SOL    HW115839   5.405   3.692   3.158
 4980SOL    HW215840   5.249   3.641   3.164
 4981SOL     OW15841   3.291   4.870   1.926
 4981SOL    HW115842   3.257   4.856   1.833
 4981SOL    HW215843   3.380   4.827   1.936
 4982SOL     OW15844   3.838   1.544   5.929
 4982SOL    HW115845   3.741   1.522   5.914
 4982SOL    HW215846   3.895   1.474   5.887
 4983SOL     OW15847   5.623   5.474   2.931
 4983SOL    HW115848   5.643   5.569   2.904
 4983SOL    HW215849   5.614   5.469   3.031
 4984SOL     OW15850   5.047   4.629   3.014
 4984SOL    HW115851   5.054   4.634   2.914
 4984SOL    HW215852   4.959   4.588   3.039
 4985SOL     OW15853   5.508   6.530   2.607
 4985SOL    HW115854   5.601   6.559   2.583
 4985SOL    HW215855   5.455   6.610   2.635
 4986SOL     OW15856   0.027   5.125   2.835
 4986SOL    HW115857   0.093   5.075   2.779
 4986SOL    HW215858   7.008   5.203   2.783
 4987SOL     OW15859   0.747   1.134   2.354
 4987SOL    HW115860   0.743   1.233   2.369
 4987SOL    HW215861   0.672   1.090   2.404
 4988SOL     OW15862   5.551   6.477   3.313
 4988SOL    HW115863   5.539   6.506   3.408
 4988SOL    HW215864   5.648   6.463   3.295
 4989SOL     OW15865   4.380   0.344   2.705
 4989SOL    HW115866   4.315   0.420   2.712
 4989SOL    HW215867   4.427   0.332   2.792
 4990SOL     OW15868   4.597   2.117   4.996
 4990SOL    HW115869   4.520   2.060   5.025
 4990SOL    HW215870   4.566   2.211   4.982
 4991SOL     OW15871   1.361   5.004   4.869
 4991SOL    HW115872   1.377   5.032   4.774
 4991SOL    HW215873   1.398   5.074   4.930
 4992SOL     OW15874   0.368   2.211   3.961
 4992SOL    HW115875   0.289   2.267   3.986
 4992SOL    HW215876   0.439   2.268   3.920
 4993SOL     OW15877   3.679   6.234   4.022
 4993SOL    HW115878   3.671   6.186   4.109
 4993SOL    HW215879   3.587   6.250   3.985
 4994SOL     OW15880   3.299   4.464   5.486
 4994SOL    HW115881   3.275   4.434   5.578
 4994SOL    HW215882   3.282   4.562   5.477
 4995SOL     OW15883   0.336   0.102   5.590
 4995SOL    HW115884   0.370   0.013   5.622
 4995SOL    HW215885   0.350   0.110   5.492
 4996SOL     OW15886   6.919   1.132   4.449
 4996SOL    HW115887   6.952   1.067   4.517
 4996SOL    HW215888   6.947   1.102   4.358
 4997SOL     OW15889   3.925   2.222   1.866
 4997SOL    HW115890   3.912   2.211   1.768
 4997SOL    HW215891   3.837   2.228   1.911
 4998SOL     OW15892   0.348   3.633   3.747
 4998SOL    HW115893   0.294   3.606   3.827
 4998SOL    HW215894   0.336   3.566   3.674
 4999SOL     OW15895   0.658   3.970   4.147
 4999SOL    HW115896   0.710   4.036   4.092
 4999SOL    HW215897   0.618   3.901   4.087
 5000SOL     OW15898   2.886   5.638   2.730
 5000SOL    HW115899   2.928   5.626   2.820
 5000SOL    HW215900   2.817   5.710   2.734
 5001SOL     OW15901   0.535   5.232   3.090
 5001SOL    HW115902   0.483   5.194   3.167
 5001SOL    HW215903   0.476   5.239   3.010
 5002SOL     OW15904   0.460   3.032   3.595
 5002SOL    HW115905   0.476   3.130   3.601
 5002SOL    HW215906   0.426   2.998   3.682
 5003SOL     OW15907   4.004   6.800   3.862
 5003SOL    HW115908   4.069   6.777   3.790
 5003SOL    HW215909   4.014   6.735   3.938
 5004SOL     OW15910   2.389   6.069   6.735
 5004SOL    HW115911   2.289   6.071   6.732
 5004SOL    HW215912   2.424   6.162   6.742
 5005SOL     OW15913   3.618   2.238   0.036
 5005SOL    HW115914   3.601   2.260   6.956
 5005SOL    HW215915   3.555   2.290   0.094
 5006SOL     OW15916   5.246   1.909   2.031
 5006SOL    HW115917   5.302   1.831   2.005
 5006SOL    HW215918   5.168   1.877   2.086
 5007SOL     OW15919   6.051   6.942   2.249
 5007SOL    HW115920   6.108   6.861   2.261
 5007SOL    HW215921   6.110   0.007   2.243
 5008SOL     OW15922   5.445   6.429   2.356
 5008SOL    HW115923   5.455   6.466   2.448
 5008SOL    HW215924   5.435   6.330   2.361
 5009SOL     OW15925   6.947   2.504   0.733
 5009SOL    HW115926   6.922   2.436   0.801
 5009SOL    HW215927   0.005   2.562   0.768
 5010SOL     OW15928   4.197   3.181   0.819
 5010SOL    HW115929   4.252   3.237   0.757
 5010SOL    HW215930   4.143   3.241   0.878
 5011SOL     OW15931   2.218   3.626   6.709
 5011SOL    HW115932   2.238   3.702   6.648
 5011SOL    HW215933   2.233   3.654   6.804
 5012SOL     OW15934   6.076   2.249   5.001
 5012SOL    HW115935   6.081   2.345   4.975
 5012SOL    HW215936   6.156   2.224   5.056
 5013SOL     OW15937   5.944   0.657   5.863
 5013SOL    HW115938   6.036   0.665   5.822
 5013SOL    HW215939   5.919   0.745   5.904
 5014SOL     OW15940   6.443   3.633   1.314
 5014SOL    HW115941   6.445   3.596   1.407
 5014SOL    HW215942   6.349   3.661   1.292
 5015SOL     OW15943   5.489   6.791   4.221
 5015SOL    HW115944   5.525   6.851   4.151
 5015SOL    HW215945   5.478   6.843   4.306
 5016SOL     OW15946   1.621   3.855   5.083
 5016SOL    HW115947   1.706   3.906   5.074
 5016SOL    HW215948   1.558   3.906   5.142
 5017SOL     OW15949   0.533   2.784   1.673
 5017SOL    HW115950   0.563   2.879   1.670
 5017SOL    HW215951   0.534   2.752   1.768
 5018SOL     OW15952   0.610   6.551   1.082
 5018SOL    HW115953   0.537   6.485   1.099
 5018SOL    HW215954   0.626   6.604   1.165
 5019SOL     OW15955   1.301   5.342   5.361
 5019SOL    HW115956   1.349   5.262   5.394
 5019SOL    HW215957   1.330   5.423   5.413
 5020SOL     OW15958   1.869   6.970   4.410
 5020SOL    HW115959   1.885   0.049   4.436
 5020SOL    HW215960   1.953   6.932   4.370
 5021SOL     OW15961   1.451   1.377   1.195
 5021SOL    HW115962   1.384   1.405   1.126
 5021SOL    HW215963   1.425   1.414   1.284
 5022SOL     OW15964   0.355   3.426   1.402
 5022SOL    HW115965   0.355   3.465   1.310
 5022SOL    HW215966   0.284   3.470   1.457
 5023SOL     OW15967   6.950   4.415   2.779
 5023SOL    HW115968   0.019   4.426   2.728
 5023SOL    HW215969   6.944   4.487   2.849
 5024SOL     OW15970   4.627   3.713   1.592
 5024SOL    HW115971   4.676   3.799   1.576
 5024SOL    HW215972   4.682   3.637   1.558
 5025SOL     OW15973   3.841   1.087   3.505
 5025SOL    HW115974   3.901   1.143   3.563
 5025SOL    HW215975   3.752   1.076   3.551
 5026SOL     OW15976   4.597   6.917   4.935
 5026SOL    HW115977   4.590   6.829   4.982
 5026SOL    HW215978   4.537   6.918   4.855
 5027SOL     OW15979   5.305   0.499   6.747
 5027SOL    HW115980   5.377   0.431   6.759
 5027SOL    HW215981   5.235   0.486   6.818
 5028SOL     OW15982   0.307   2.284   3.001
 5028SOL    HW115983   0.365   2.343   3.058
 5028SOL    HW215984   0.262   2.339   2.931
 5029SOL     OW15985   5.931   1.756   2.757
 5029SOL    HW115986   5.870   1.679   2.739
 5029SOL    HW215987   5.932   1.818   2.679
 5030SOL     OW15988   0.260   4.742   6.445
 5030SOL    HW115989   0.217   4.753   6.535
 5030SOL    HW215990   0.258   4.829   6.396
 5031SOL     OW15991   6.925   0.390   6.177
 5031SOL    HW115992   6.896   0.453   6.249
 5031SOL    HW215993   6.857   0.389   6.104
 5032SOL     OW15994   3.195   3.524   5.482
 5032SOL    HW115995   3.112   3.532   5.427
 5032SOL    HW215996   3.265   3.477   5.428
 5033SOL     OW15997   1.766   1.066   0.215
 5033SOL    HW115998   1.741   1.126   0.139
 5033SOL    HW215999   1.694   1.071   0.285
 5034SOL     OW16000   4.314   6.628   4.073
 5034SOL    HW116001   4.223   6.659   4.042
 5034SOL    HW216002   4.320   6.529   4.063
 5035SOL     OW16003   1.268   4.707   3.902
 5035SOL    HW116004   1.214   4.752   3.973
 5035SOL    HW216005   1.217   4.707   3.816
 5036SOL     OW16006   6.335   2.837   5.364
 5036SOL    HW116007   6.388   2.919   5.345
 5036SOL    HW216008   6.315   2.790   5.277
 5037SOL     OW16009   4.395   4.445   0.757
 5037SOL    HW116010   4.420   4.352   0.730
 5037SOL    HW216011   4.304   4.467   0.721
 5038SOL     OW16012   3.424   3.404   3.572
 5038SOL    HW116013   3.331   3.397   3.608
 5038SOL    HW216014   3.475   3.322   3.598
 5039SOL     OW16015   0.509   3.543   6.793
 5039SOL    HW116016   0.496   3.444   6.797
 5039SOL    HW216017   0.604   3.563   6.769
 5040SOL     OW16018   0.903   5.960   6.580
 5040SOL    HW116019   0.928   5.866   6.602
 5040SOL    HW216020   0.964   6.023   6.629
 5041SOL     OW16021   6.538   3.181   2.373
 5041SOL    HW116022   6.535   3.260   2.311
 5041SOL    HW216023   6.620   3.127   2.353
 5042SOL     OW16024   0.491   3.731   5.945
 5042SOL    HW116025   0.447   3.816   5.914
 5042SOL    HW216026   0.557   3.752   6.018
 5043SOL     OW16027   3.902   0.111   0.795
 5043SOL    HW116028   3.985   0.161   0.821
 5043SOL    HW216029   3.825   0.173   0.790
 5044SOL     OW16030   5.977   5.470   0.715
 5044SOL    HW116031   5.981   5.385   0.768
 5044SOL    HW216032   6.068   5.492   0.681
 5045SOL     OW16033   6.332   3.375   6.033
 5045SOL    HW116034   6.279   3.457   6.053
 5045SOL    HW216035   6.308   3.302   6.098
 5046SOL     OW16036   3.190   3.375   3.206
 5046SOL    HW116037   3.219   3.305   3.271
 5046SOL    HW216038   3.255   3.451   3.208
 5047SOL     OW16039   2.015   4.015   3.158
 5047SOL    HW116040   2.002   4.069   3.241
 5047SOL    HW216041   2.063   3.930   3.180
 5048SOL     OW16042   1.428   1.132   5.721
 5048SOL    HW116043   1.461   1.219   5.685
 5048SOL    HW216044   1.367   1.148   5.798
 5049SOL     OW16045   5.772   0.663   6.252
 5049SOL    HW116046   5.847   0.728   6.242
 5049SOL    HW216047   5.803   0.583   6.304
 5050SOL     OW16048   1.880   0.872   1.236
 5050SOL    HW116049   1.909   0.777   1.237
 5050SOL    HW216050   1.932   0.922   1.167
 5051SOL     OW16051   3.649   4.780   1.371
 5051SOL    HW116052   3.619   4.796   1.465
 5051SOL    HW216053   3.659   4.867   1.323
 5052SOL     OW16054   3.178   1.110   5.445
 5052SOL    HW116055   3.163   1.126   5.542
 5052SOL    HW216056   3.181   1.012   5.427
 5053SOL     OW16057   0.310   6.386   2.247
 5053SOL    HW116058   0.281   6.374   2.342
 5053SOL    HW216059   0.409   6.375   2.241
 5054SOL     OW16060   3.779   4.985   4.295
 5054SOL    HW116061   3.760   4.969   4.198
 5054SOL    HW216062   3.869   4.950   4.317
 5055SOL     OW16063   6.514   2.808   6.635
 5055SOL    HW116064   6.576   2.747   6.685
 5055SOL    HW216065   6.420   2.780   6.651
 5056SOL     OW16066   5.385   3.974   5.099
 5056SOL    HW116067   5.319   3.917   5.051
 5056SOL    HW216068   5.428   4.038   5.035
 5057SOL     OW16069   1.124   6.695   2.790
 5057SOL    HW116070   1.055   6.684   2.862
 5057SOL    HW216071   1.096   6.642   2.710
 5058SOL     OW16072   2.931   4.493   6.365
 5058SOL    HW116073   3.009   4.552   6.383
 5058SOL    HW216074   2.861   4.507   6.435
 5059SOL     OW16075   0.529   0.499   2.695
 5059SOL    HW116076   0.566   0.588   2.668
 5059SOL    HW216077   0.485   0.507   2.784
 5060SOL     OW16078   6.428   1.972   5.654
 5060SOL    HW116079   6.477   1.919   5.723
 5060SOL    HW216080   6.449   2.069   5.664
 5061SOL     OW16081   4.916   3.304   0.142
 5061SOL    HW116082   4.902   3.272   0.236
 5061SOL    HW216083   4.988   3.373   0.140
 5062SOL     OW16084   0.432   0.317   1.507
 5062SOL    HW116085   0.418   0.218   1.503
 5062SOL    HW216086   0.495   0.345   1.435
 5063SOL     OW16087   1.133   6.853   2.132
 5063SOL    HW116088   1.060   6.907   2.174
 5063SOL    HW216089   1.202   6.830   2.200
 5064SOL     OW16090   4.620   2.977   0.528
 5064SOL    HW116091   4.652   2.899   0.475
 5064SOL    HW216092   4.665   2.977   0.617
 5065SOL     OW16093   2.431   6.714   5.885
 5065SOL    HW116094   2.519   6.710   5.837
 5065SOL    HW216095   2.440   6.676   5.977
 5066SOL     OW16096   5.983   5.152   1.251
 5066SOL    HW116097   6.034   5.212   1.313
 5066SOL    HW216098   6.033   5.142   1.165
 5067SOL     OW16099   4.710   1.428   0.327
 5067SOL    HW116100   4.728   1.405   0.423
 5067SOL    HW216101   4.786   1.396   0.270
 5068SOL     OW16102   2.469   5.054   0.377
 5068SOL    HW116103   2.403   5.015   0.442
 5068SOL    HW216104   2.557   5.007   0.387
 5069SOL     OW16105   0.365   4.584   2.759
 5069SOL    HW116106   0.284   4.557   2.707
 5069SOL    HW216107   0.342   4.592   2.856
 5070SOL     OW16108   5.070   2.849   3.971
 5070SOL    HW116109   5.068   2.791   3.890
 5070SOL    HW216110   5.061   2.793   4.053
 5071SOL     OW16111   4.793   1.908   6.950
 5071SOL    HW116112   4.759   1.917   6.856
 5071SOL    HW216113   4.860   1.834   6.954
 5072SOL     OW16114   1.135   4.587   1.259
 5072SOL    HW116115   1.149   4.506   1.203
 5072SOL    HW216116   1.043   4.622   1.244
 5073SOL     OW16117   5.014   0.573   2.944
 5073SOL    HW116118   4.932   0.626   2.922
 5073SOL    HW216119   5.029   0.574   3.043
 5074SOL     OW16120   2.651   3.887   6.303
 5074SOL    HW116121   2.671   3.973   6.351
 5074SOL    HW216122   2.725   3.822   6.318
 5075SOL     OW16123   0.150   5.840   5.022
 5075SOL    HW116124   0.244   5.810   5.041
 5075SOL    HW216125   0.142   5.867   4.926
 5076SOL     OW16126   3.374   0.629   1.231
 5076SOL    HW116127   3.425   0.715   1.229
 5076SOL    HW216128   3.322   0.620   1.146
 5077SOL     OW16129   0.632   2.552   3.499
 5077SOL    HW116130   0.705   2.587   3.557
 5077SOL    HW216131   0.579   2.483   3.549
 5078SOL     OW16132   1.246   1.780   4.054
 5078SOL    HW116133   1.299   1.865   4.063
 5078SOL    HW216134   1.301   1.703   4.088
 5079SOL     OW16135   3.880   4.834   5.903
 5079SOL    HW116136   3.867   4.748   5.854
 5079SOL    HW216137   3.790   4.872   5.928
 5080SOL     OW16138   5.645   6.984   6.171
 5080SOL    HW116139   5.546   6.973   6.168
 5080SOL    HW216140   5.689   6.900   6.139
 5081SOL     OW16141   3.758   3.429   3.563
 5081SOL    HW116142   3.769   3.458   3.468
 5081SOL    HW216143   3.757   3.329   3.567
 5082SOL     OW16144   5.098   5.896   4.774
 5082SOL    HW116145   5.124   5.875   4.680
 5082SOL    HW216146   5.119   5.992   4.794
 5083SOL     OW16147   1.776   6.440   1.411
 5083SOL    HW116148   1.864   6.486   1.419
 5083SOL    HW216149   1.704   6.508   1.394
 5084SOL     OW16150   1.503   5.999   3.484
 5084SOL    HW116151   1.481   5.980   3.388
 5084SOL    HW216152   1.441   6.069   3.519
 5085SOL     OW16153   6.217   2.445   6.386
 5085SOL    HW116154   6.166   2.408   6.464
 5085SOL    HW216155   6.311   2.462   6.414
 5086SOL     OW16156   6.692   5.004   3.643
 5086SOL    HW116157   6.665   5.097   3.615
 5086SOL    HW216158   6.769   5.010   3.706
 5087SOL     OW16159   6.937   5.383   5.766
 5087SOL    HW116160   6.956   5.285   5.773
 5087SOL    HW216161   6.839   5.399   5.773
 5088SOL     OW16162   5.826   0.443   6.392
 5088SOL    HW116163   5.875   0.455   6.478
 5088SOL    HW216164   5.744   0.386   6.408
 5089SOL     OW16165   5.537   3.732   3.258
 5089SOL    HW116166   5.557   3.788   3.338
 5089SOL    HW216167   5.595   3.650   3.260
 5090SOL     OW16168   1.930   5.334   0.996
 5090SOL    HW116169   1.880   5.266   1.050
 5090SOL    HW216170   1.940   5.301   0.903
 5091SOL     OW16171   1.128   6.085   2.716
 5091SOL    HW116172   1.226   6.091   2.737
 5091SOL    HW216173   1.077   6.139   2.783
 5092SOL     OW16174   4.218   2.169   1.506
 5092SOL    HW116175   4.281   2.099   1.474
 5092SOL    HW216176   4.269   2.252   1.529
 5093SOL     OW16177   0.596   2.140   2.069
 5093SOL    HW116178   0.609   2.123   2.167
 5093SOL    HW216179   0.514   2.196   2.056
 5094SOL     OW16180   0.614   6.953   5.383
 5094SOL    HW116181   0.638   6.894   5.306
 5094SOL    HW216182   0.698   6.993   5.421
 5095SOL     OW16183   2.866   0.026   4.735
 5095SOL    HW116184   2.931   0.098   4.761
 5095SOL    HW216185   2.823   0.050   4.649
 5096SOL     OW16186   4.185   4.136   1.210
 5096SOL    HW116187   4.224   4.210   1.156
 5096SOL    HW216188   4.221   4.048   1.177
 5097SOL     OW16189   1.568   6.797   6.028
 5097SOL    HW116190   1.469   6.801   6.021
 5097SOL    HW216191   1.595   6.796   6.125
 5098SOL     OW16192   0.026   1.617   2.957
 5098SOL    HW116193   0.124   1.606   2.940
 5098SOL    HW216194   0.007   1.714   2.975
 5099SOL     OW16195   1.481   0.438   5.163
 5099SOL    HW116196   1.430   0.373   5.219
 5099SOL    HW216197   1.512   0.393   5.079
 5100SOL     OW16198   5.237   6.945   6.389
 5100SOL    HW116199   5.326   6.975   6.425
 5100SOL    HW216200   5.166   7.009   6.417
 5101SOL     OW16201   4.126   6.324   0.298
 5101SOL    HW116202   4.104   6.400   0.238
 5101SOL    HW216203   4.145   6.358   0.390
 5102SOL     OW16204   3.628   5.582   5.380
 5102SOL    HW116205   3.633   5.482   5.371
 5102SOL    HW216206   3.540   5.614   5.347
 5103SOL     OW16207   0.500   0.304   4.492
 5103SOL    HW116208   0.421   0.356   4.460
 5103SOL    HW216209   0.581   0.363   4.488
 5104SOL     OW16210   1.362   0.595   1.590
 5104SOL    HW116211   1.389   0.670   1.529
 5104SOL    HW216212   1.262   0.597   1.602
 5105SOL     OW16213   3.307   3.897   6.416
 5105SOL    HW116214   3.268   3.907   6.507
 5105SOL    HW216215   3.353   3.981   6.389
 5106SOL     OW16216   3.458   0.778   2.314
 5106SOL    HW116217   3.380   0.750   2.371
 5106SOL    HW216218   3.481   0.704   2.251
 5107SOL     OW16219   1.909   6.694   5.761
 5107SOL    HW116220   1.956   6.651   5.684
 5107SOL    HW216221   1.973   6.708   5.836
 5108SOL     OW16222   3.349   3.551   4.131
 5108SOL    HW116223   3.353   3.615   4.208
 5108SOL    HW216224   3.344   3.458   4.164
 5109SOL     OW16225   0.243   1.413   1.352
 5109SOL    HW116226   0.155   1.387   1.393
 5109SOL    HW216227   0.229   1.436   1.255
 5110SOL     OW16228   2.259   5.803   5.919
 5110SOL    HW116229   2.244   5.897   5.887
 5110SOL    HW216230   2.199   5.741   5.868
 5111SOL     OW16231   1.497   0.967   0.722
 5111SOL    HW116232   1.566   1.012   0.666
 5111SOL    HW216233   1.414   0.954   0.669
 5112SOL     OW16234   0.330   5.763   3.726
 5112SOL    HW116235   0.350   5.670   3.695
 5112SOL    HW216236   0.387   5.785   3.804
 5113SOL     OW16237   1.216   6.979   6.839
 5113SOL    HW116238   1.134   6.942   6.882
 5113SOL    HW216239   1.191   0.040   6.781
 5114SOL     OW16240   3.982   4.864   0.120
 5114SOL    HW116241   4.033   4.948   0.139
 5114SOL    HW216242   4.032   4.786   0.155
 5115SOL     OW16243   1.604   3.557   5.694
 5115SOL    HW116244   1.698   3.525   5.711
 5115SOL    HW216245   1.556   3.489   5.637
 5116SOL     OW16246   6.817   4.698   0.398
 5116SOL    HW116247   6.902   4.703   0.345
 5116SOL    HW216248   6.755   4.772   0.368
 5117SOL     OW16249   2.387   4.466   4.638
 5117SOL    HW116250   2.464   4.510   4.593
 5117SOL    HW216251   2.420   4.402   4.708
 5118SOL     OW16252   4.446   6.279   0.920
 5118SOL    HW116253   4.455   6.371   0.958
 5118SOL    HW216254   4.383   6.281   0.842
 5119SOL     OW16255   5.861   6.950   2.443
 5119SOL    HW116256   5.926   6.918   2.374
 5119SOL    HW216257   5.885   6.909   2.532
 5120SOL     OW16258   5.001   1.672   2.496
 5120SOL    HW116259   4.932   1.674   2.569
 5120SOL    HW216260   5.079   1.728   2.524
 5121SOL     OW16261   0.392   3.799   5.467
 5121SOL    HW116262   0.344   3.722   5.509
 5121SOL    HW216263   0.341   3.830   5.387
 5122SOL     OW16264   2.085   6.379   3.646
 5122SOL    HW116265   1.997   6.413   3.678
 5122SOL    HW216266   2.135   6.337   3.722
 5123SOL     OW16267   5.313   4.725   2.250
 5123SOL    HW116268   5.288   4.631   2.227
 5123SOL    HW216269   5.277   4.787   2.180
 5124SOL     OW16270   2.632   6.970   0.133
 5124SOL    HW116271   2.688   6.888   0.140
 5124SOL    HW216272   2.545   6.949   0.088
 5125SOL     OW16273   0.106   3.380   4.819
 5125SOL    HW116274   0.170   3.404   4.892
 5125SOL    HW216275   0.082   3.462   4.768
 5126SOL     OW16276   5.652   3.597   6.383
 5126SOL    HW116277   5.730   3.660   6.380
 5126SOL    HW216278   5.672   3.517   6.327
 5127SOL     OW16279   5.991   3.027   6.766
 5127SOL    HW116280   5.907   2.992   6.725
 5127SOL    HW216281   6.054   2.950   6.782
 5128SOL     OW16282   0.299   0.757   6.775
 5128SOL    HW116283   0.244   0.813   6.836
 5128SOL    HW216284   0.367   0.707   6.828
 5129SOL     OW16285   4.426   1.984   2.600
 5129SOL    HW116286   4.480   1.927   2.662
 5129SOL    HW216287   4.341   2.010   2.644
 5130SOL     OW16288   1.322   6.131   4.612
 5130SOL    HW116289   1.376   6.073   4.673
 5130SOL    HW216290   1.225   6.122   4.635
 5131SOL     OW16291   2.966   5.014   3.812
 5131SOL    HW116292   2.935   5.105   3.786
 5131SOL    HW216293   3.065   5.007   3.799
 5132SOL     OW16294   3.496   1.296   6.780
 5132SOL    HW116295   3.593   1.305   6.803
 5132SOL    HW216296   3.465   1.203   6.801
 5133SOL     OW16297   4.836   4.396   6.712
 5133SOL    HW116298   4.852   4.465   6.783
 5133SOL    HW216299   4.918   4.387   6.656
 5134SOL     OW16300   6.562   6.192   0.930
 5134SOL    HW116301   6.530   6.176   1.023
 5134SOL    HW216302   6.616   6.277   0.927
 5135SOL     OW16303   6.584   3.392   2.186
 5135SOL    HW116304   6.541   3.373   2.098
 5135SOL    HW216305   6.675   3.432   2.171
 5136SOL     OW16306   1.081   0.999   5.993
 5136SOL    HW116307   1.050   0.985   6.087
 5136SOL    HW216308   1.058   0.919   5.938
 5137SOL     OW16309   5.948   1.162   4.634
 5137SOL    HW116310   5.917   1.206   4.549
 5137SOL    HW216311   5.887   1.086   4.656
 5138SOL     OW16312   3.186   3.075   4.016
 5138SOL    HW116313   3.278   3.112   4.013
 5138SOL    HW216314   3.120   3.150   4.010
 5139SOL     OW16315   2.737   0.241   5.345
 5139SOL    HW116316   2.687   0.158   5.321
 5139SOL    HW216317   2.735   0.253   5.444
 5140SOL     OW16318   4.393   2.480   0.107
 5140SOL    HW116319   4.375   2.386   0.078
 5140SOL    HW216320   4.328   2.507   0.178
 5141SOL     OW16321   6.484   2.707   1.771
 5141SOL    HW116322   6.388   2.731   1.756
 5141SOL    HW216323   6.507   2.626   1.719
 5142SOL     OW16324   0.250   0.129   2.667
 5142SOL    HW116325   0.308   0.063   2.619
 5142SOL    HW216326   0.214   0.196   2.603
 5143SOL     OW16327   0.047   6.288   3.115
 5143SOL    HW116328   0.105   6.367   3.094
 5143SOL    HW216329   6.971   6.319   3.138
 5144SOL     OW16330   2.313   2.896   5.387
 5144SOL    HW116331   2.357   2.935   5.307
 5144SOL    HW216332   2.270   2.968   5.441
 5145SOL     OW16333   2.166   5.745   0.017
 5145SOL    HW116334   2.110   5.727   6.952
 5145SOL    HW216335   2.262   5.729   7.012
 5146SOL     OW16336   5.169   5.159   6.311
 5146SOL    HW116337   5.144   5.088   6.245
 5146SOL    HW216338   5.101   5.164   6.384
 5147SOL     OW16339   4.620   2.677   3.758
 5147SOL    HW116340   4.541   2.628   3.720
 5147SOL    HW216341   4.626   2.659   3.856
 5148SOL     OW16342   0.953   0.461   6.379
 5148SOL    HW116343   1.027   0.411   6.333
 5148SOL    HW216344   0.993   0.528   6.442
 5149SOL     OW16345   4.737   4.730   3.910
 5149SOL    HW116346   4.753   4.717   4.007
 5149SOL    HW216347   4.809   4.687   3.857
 5150SOL     OW16348   0.091   6.085   4.037
 5150SOL    HW116349   0.131   6.044   3.956
 5150SOL    HW216350   7.007   6.079   4.031
 5151SOL     OW16351   6.346   5.363   2.086
 5151SOL    HW116352   6.292   5.279   2.098
 5151SOL    HW216353   6.399   5.357   2.002
 5152SOL     OW16354   1.201   1.373   0.362
 5152SOL    HW116355   1.271   1.416   0.305
 5152SOL    HW216356   1.245   1.314   0.429
 5153SOL     OW16357   1.221   1.604   1.250
 5153SOL    HW116358   1.186   1.512   1.228
 5153SOL    HW216359   1.309   1.595   1.296
 5154SOL     OW16360   0.403   2.887   0.350
 5154SOL    HW116361   0.388   2.970   0.403
 5154SOL    HW216362   0.330   2.821   0.369
 5155SOL     OW16363   1.712   1.483   0.571
 5155SOL    HW116364   1.694   1.529   0.484
 5155SOL    HW216365   1.626   1.451   0.610
 5156SOL     OW16366   5.246   6.035   5.719
 5156SOL    HW116367   5.333   5.989   5.698
 5156SOL    HW216368   5.255   6.084   5.805
 5157SOL     OW16369   3.557   0.394   1.276
 5157SOL    HW116370   3.500   0.476   1.290
 5157SOL    HW216371   3.600   0.369   1.362
 5158SOL     OW16372   2.058   1.959   1.603
 5158SOL    HW116373   2.017   1.936   1.691
 5158SOL    HW216374   1.987   1.995   1.541
 5159SOL     OW16375   6.303   3.266   5.781
 5159SOL    HW116376   6.317   3.308   5.871
 5159SOL    HW216377   6.308   3.337   5.710
 5160SOL     OW16378   6.286   6.404   3.523
 5160SOL    HW116379   6.322   6.406   3.616
 5160SOL    HW216380   6.297   6.494   3.481
 5161SOL     OW16381   1.070   3.398   0.597
 5161SOL    HW116382   0.973   3.406   0.620
 5161SOL    HW216383   1.120   3.362   0.676
 5162SOL     OW16384   0.256   0.154   3.423
 5162SOL    HW116385   0.165   0.134   3.387
 5162SOL    HW216386   0.289   0.241   3.385
 5163SOL     OW16387   3.001   0.217   1.835
 5163SOL    HW116388   3.061   0.154   1.885
 5163SOL    HW216389   3.040   0.235   1.745
 5164SOL     OW16390   3.020   3.212   0.527
 5164SOL    HW116391   2.992   3.176   0.616
 5164SOL    HW216392   2.967   3.167   0.455
 5165SOL     OW16393   1.570   3.901   6.454
 5165SOL    HW116394   1.568   3.954   6.370
 5165SOL    HW216395   1.617   3.952   6.526
 5166SOL     OW16396   1.350   5.681   0.932
 5166SOL    HW116397   1.391   5.729   1.009
 5166SOL    HW216398   1.293   5.745   0.880
 5167SOL     OW16399   5.642   3.255   5.502
 5167SOL    HW116400   5.557   3.204   5.496
 5167SOL    HW216401   5.687   3.257   5.413
 5168SOL     OW16402   4.418   2.366   3.149
 5168SOL    HW116403   4.471   2.282   3.161
 5168SOL    HW216404   4.345   2.350   3.083
 5169SOL     OW16405   4.209   6.203   4.406
 5169SOL    HW116406   4.239   6.116   4.445
 5169SOL    HW216407   4.113   6.198   4.381
 5170SOL     OW16408   1.945   3.871   6.686
 5170SOL    HW116409   1.902   3.781   6.692
 5170SOL    HW216410   2.040   3.864   6.716
 5171SOL     OW16411   1.991   5.654   5.375
 5171SOL    HW116412   2.074   5.624   5.328
 5171SOL    HW216413   1.911   5.608   5.335
 5172SOL     OW16414   6.265   5.779   4.637
 5172SOL    HW116415   6.362   5.775   4.617
 5172SOL    HW216416   6.215   5.720   4.573
 5173SOL     OW16417   4.443   4.087   5.683
 5173SOL    HW116418   4.480   4.045   5.601
 5173SOL    HW216419   4.349   4.055   5.698
 5174SOL     OW16420   2.271   6.473   3.032
 5174SOL    HW116421   2.186   6.494   2.984
 5174SOL    HW216422   2.336   6.548   3.021
 5175SOL     OW16423   3.223   3.207   0.012
 5175SOL    HW116424   3.204   3.263   0.093
 5175SOL    HW216425   3.260   3.118   0.040
 5176SOL     OW16426   6.111   6.352   0.209
 5176SOL    HW116427   6.155   6.276   0.257
 5176SOL    HW216428   6.166   6.377   0.129
 5177SOL     OW16429   6.059   0.065   0.361
 5177SOL    HW116430   6.127   0.138   0.358
 5177SOL    HW216431   6.023   0.050   0.269
 5178SOL     OW16432   0.626   4.634   2.140
 5178SOL    HW116433   0.722   4.615   2.117
 5178SOL    HW216434   0.597   4.571   2.212
 5179SOL     OW16435   5.160   6.143   2.707
 5179SOL    HW116436   5.230   6.212   2.724
 5179SOL    HW216437   5.160   6.076   2.782
 5180SOL     OW16438   2.534   6.790   2.457
 5180SOL    HW116439   2.499   6.807   2.550
 5180SOL    HW216440   2.461   6.805   2.391
 5181SOL     OW16441   0.305   0.048   5.863
 5181SOL    HW116442   0.216   0.061   5.906
 5181SOL    HW216443   0.317   0.115   5.790
 5182SOL     OW16444   2.616   6.295   3.477
 5182SOL    HW116445   2.643   6.379   3.431
 5182SOL    HW216446   2.569   6.317   3.562
 5183SOL     OW16447   4.315   1.632   3.839
 5183SOL    HW116448   4.343   1.682   3.921
 5183SOL    HW216449   4.289   1.539   3.864
 5184SOL     OW16450   2.799   1.577   3.853
 5184SOL    HW116451   2.734   1.648   3.881
 5184SOL    HW216452   2.824   1.590   3.757
 5185SOL     OW16453   6.295   0.411   1.744
 5185SOL    HW116454   6.375   0.468   1.724
 5185SOL    HW216455   6.242   0.399   1.660
 5186SOL     OW16456   0.224   3.287   6.779
 5186SOL    HW116457   0.226   3.272   6.680
 5186SOL    HW216458   0.140   3.249   6.817
 5187SOL     OW16459   1.561   4.822   5.309
 5187SOL    HW116460   1.468   4.835   5.274
 5187SOL    HW216461   1.617   4.901   5.284
 5188SOL     OW16462   6.321   6.910   2.721
 5188SOL    HW116463   6.222   6.900   2.714
 5188SOL    HW216464   6.355   6.964   2.644
 5189SOL     OW16465   5.171   6.694   6.488
 5189SOL    HW116466   5.233   6.715   6.563
 5189SOL    HW216467   5.185   6.759   6.413
 5190SOL     OW16468   2.246   4.010   0.672
 5190SOL    HW116469   2.160   4.029   0.719
 5190SOL    HW216470   2.321   4.055   0.720
 5191SOL     OW16471   3.149   4.842   2.194
 5191SOL    HW116472   3.249   4.838   2.194
 5191SOL    HW216473   3.115   4.836   2.100
 5192SOL     OW16474   2.004   5.201   2.249
 5192SOL    HW116475   2.067   5.185   2.174
 5192SOL    HW216476   2.051   5.185   2.336
 5193SOL     OW16477   5.163   0.181   5.646
 5193SOL    HW116478   5.108   0.099   5.636
 5193SOL    HW216479   5.107   0.254   5.685
 5194SOL     OW16480   5.618   1.912   6.324
 5194SOL    HW116481   5.555   1.836   6.340
 5194SOL    HW216482   5.618   1.935   6.226
 5195SOL     OW16483   0.044   0.693   4.763
 5195SOL    HW116484   0.088   0.711   4.850
 5195SOL    HW216485   0.096   0.624   4.712
 5196SOL     OW16486   5.567   7.008   2.833
 5196SOL    HW116487   5.481   0.040   2.820
 5196SOL    HW216488   5.551   6.909   2.829
 5197SOL     OW16489   0.997   3.849   5.217
 5197SOL    HW116490   0.997   3.779   5.289
 5197SOL    HW216491   1.067   3.917   5.238
 5198SOL     OW16492   5.905   5.308   3.375
 5198SOL    HW116493   5.939   5.277   3.286
 5198SOL    HW216494   5.981   5.348   3.427
 5199SOL     OW16495   0.496   5.041   1.783
 5199SOL    HW116496   0.424   5.110   1.792
 5199SOL    HW216497   0.500   5.009   1.689
 5200SOL     OW16498   0.015   3.985   4.608
 5200SOL    HW116499   0.084   4.058   4.600
 5200SOL    HW216500   6.940   4.024   4.595
 5201SOL     OW16501   1.457   5.025   4.040
 5201SOL    HW116502   1.362   5.021   4.073
 5201SOL    HW216503   1.478   4.940   3.990
 5202SOL     OW16504   0.796   5.301   1.673
 5202SOL    HW116505   0.782   5.231   1.743
 5202SOL    HW216506   0.730   5.289   1.599
 5203SOL     OW16507   1.122   2.445   0.598
 5203SOL    HW116508   1.112   2.361   0.546
 5203SOL    HW216509   1.052   2.511   0.569
 5204SOL     OW16510   4.921   4.600   6.872
 5204SOL    HW116511   4.896   4.697   6.863
 5204SOL    HW216512   5.010   4.594   6.918
 5205SOL     OW16513   1.829   0.401   1.683
 5205SOL    HW116514   1.813   0.489   1.639
 5205SOL    HW216515   1.771   0.394   1.764
 5206SOL     OW16516   0.294   4.539   5.467
 5206SOL    HW116517   0.292   4.539   5.367
 5206SOL    HW216518   0.218   4.483   5.502
 5207SOL     OW16519   1.868   4.121   4.252
 5207SOL    HW116520   1.844   4.034   4.209
 5207SOL    HW216521   1.847   4.196   4.189
 5208SOL     OW16522   3.910   1.449   6.653
 5208SOL    HW116523   3.995   1.447   6.706
 5208SOL    HW216524   3.925   1.405   6.565
 5209SOL     OW16525   5.017   6.057   3.120
 5209SOL    HW116526   4.966   6.036   3.203
 5209SOL    HW216527   4.993   6.149   3.088
 5210SOL     OW16528   4.788   5.184   3.676
 5210SOL    HW116529   4.714   5.245   3.646
 5210SOL    HW216530   4.845   5.232   3.742
 5211SOL     OW16531   4.055   3.307   2.782
 5211SOL    HW116532   4.083   3.267   2.695
 5211SOL    HW216533   3.956   3.318   2.784
 5212SOL     OW16534   1.196   1.884   0.500
 5212SOL    HW116535   1.213   1.898   0.597
 5212SOL    HW216536   1.172   1.971   0.457
 5213SOL     OW16537   4.059   1.983   6.596
 5213SOL    HW116538   4.152   1.997   6.561
 5213SOL    HW216539   4.052   1.892   6.638
 5214SOL     OW16540   5.672   1.570   5.695
 5214SOL    HW116541   5.595   1.604   5.641
 5214SOL    HW216542   5.745   1.639   5.696
 5215SOL     OW16543   4.705   5.225   2.562
 5215SOL    HW116544   4.614   5.183   2.555
 5215SOL    HW216545   4.771   5.156   2.591
 5216SOL     OW16546   4.852   5.033   0.926
 5216SOL    HW116547   4.940   5.025   0.972
 5216SOL    HW216548   4.797   4.952   0.945
 5217SOL     OW16549   2.393   4.953   3.917
 5217SOL    HW116550   2.302   4.913   3.930
 5217SOL    HW216551   2.451   4.929   3.995
 5218SOL     OW16552   1.642   6.841   3.557
 5218SOL    HW116553   1.666   6.745   3.569
 5218SOL    HW216554   1.648   6.888   3.645
 5219SOL     OW16555   2.684   5.992   0.091
 5219SOL    HW116556   2.595   5.989   0.045
 5219SOL    HW216557   2.671   5.994   0.190
 5220SOL     OW16558   0.462   6.515   2.528
 5220SOL    HW116559   0.549   6.504   2.576
 5220SOL    HW216560   0.468   6.471   2.438
 5221SOL     OW16561   4.899   1.648   4.835
 5221SOL    HW116562   4.998   1.651   4.831
 5221SOL    HW216563   4.864   1.736   4.867
 5222SOL     OW16564   1.260   0.376   2.674
 5222SOL    HW116565   1.306   0.465   2.671
 5222SOL    HW216566   1.163   0.389   2.654
 5223SOL     OW16567   4.913   6.949   1.560
 5223SOL    HW116568   4.866   6.861   1.560
 5223SOL    HW216569   4.965   6.960   1.644
 5224SOL     OW16570   5.654   2.035   2.360
 5224SOL    HW116571   5.741   2.063   2.318
 5224SOL    HW216572   5.647   2.077   2.451
 5225SOL     OW16573   5.423   5.892   5.203
 5225SOL    HW116574   5.391   5.866   5.112
 5225SOL    HW216575   5.443   5.990   5.204
 5226SOL     OW16576   1.155   6.331   3.966
 5226SOL    HW116577   1.242   6.285   3.954
 5226SOL    HW216578   1.080   6.266   3.954
 5227SOL     OW16579   5.990   4.674   3.133
 5227SOL    HW116580   5.939   4.731   3.196
 5227SOL    HW216581   6.001   4.722   3.046
 5228SOL     OW16582   5.409   1.415   0.913
 5228SOL    HW116583   5.482   1.396   0.978
 5228SOL    HW216584   5.390   1.333   0.859
 5229SOL     OW16585   1.228   4.650   5.329
 5229SOL    HW116586   1.260   4.582   5.263
 5229SOL    HW216587   1.135   4.627   5.358
 5230SOL     OW16588   0.967   0.093   6.927
 5230SOL    HW116589   1.003   0.172   6.876
 5230SOL    HW216590   0.894   0.123   6.988
 5231SOL     OW16591   3.805   3.216   3.165
 5231SOL    HW116592   3.814   3.156   3.245
 5231SOL    HW216593   3.709   3.237   3.149
 5232SOL     OW16594   4.897   2.411   6.869
 5232SOL    HW116595   4.947   2.437   6.952
 5232SOL    HW216596   4.813   2.364   6.894
 5233SOL     OW16597   0.781   0.481   2.454
 5233SOL    HW116598   0.761   0.492   2.357
 5233SOL    HW216599   0.720   0.538   2.508
 5234SOL     OW16600   3.992   6.900   0.900
 5234SOL    HW116601   4.089   6.918   0.918
 5234SOL    HW216602   3.952   6.979   0.853
 5235SOL     OW16603   0.613   3.314   1.184
 5235SOL    HW116604   0.652   3.404   1.208
 5235SOL    HW216605   0.624   3.251   1.261
 5236SOL     OW16606   5.195   2.977   1.142
 5236SOL    HW116607   5.106   3.004   1.179
 5236SOL    HW216608   5.222   2.889   1.181
 5237SOL     OW16609   2.341   1.857   5.210
 5237SOL    HW116610   2.295   1.866   5.122
 5237SOL    HW216611   2.276   1.877   5.284
 5238SOL     OW16612   1.823   4.787   1.357
 5238SOL    HW116613   1.777   4.831   1.280
 5238SOL    HW216614   1.801   4.690   1.359
 5239SOL     OW16615   2.900   3.357   4.238
 5239SOL    HW116616   2.928   3.313   4.152
 5239SOL    HW216617   2.916   3.294   4.314
 5240SOL     OW16618   3.370   2.084   4.903
 5240SOL    HW116619   3.454   2.090   4.958
 5240SOL    HW216620   3.308   2.158   4.930
 5241SOL     OW16621   1.879   5.932   6.864
 5241SOL    HW116622   1.896   5.889   6.953
 5241SOL    HW216623   1.962   5.978   6.832
 5242SOL     OW16624   5.782   1.121   5.197
 5242SOL    HW116625   5.692   1.081   5.217
 5242SOL    HW216626   5.770   1.216   5.169
 5243SOL     OW16627   1.605   4.861   1.188
 5243SOL    HW116628   1.612   4.943   1.131
 5243SOL    HW216629   1.553   4.883   1.271
 5244SOL     OW16630   5.444   4.147   5.505
 5244SOL    HW116631   5.415   4.226   5.451
 5244SOL    HW216632   5.544   4.140   5.502
 5245SOL     OW16633   4.805   3.526   6.710
 5245SOL    HW116634   4.868   3.465   6.757
 5245SOL    HW216635   4.711   3.501   6.733
 5246SOL     OW16636   0.979   3.183   2.781
 5246SOL    HW116637   0.935   3.269   2.755
 5246SOL    HW216638   0.961   3.165   2.878
 5247SOL     OW16639   0.706   5.025   1.186
 5247SOL    HW116640   0.618   5.073   1.191
 5247SOL    HW216641   0.704   4.946   1.247
 5248SOL     OW16642   4.878   1.045   6.080
 5248SOL    HW116643   4.809   0.986   6.123
 5248SOL    HW216644   4.850   1.140   6.091
 5249SOL     OW16645   0.897   5.023   4.729
 5249SOL    HW116646   0.836   5.100   4.750
 5249SOL    HW216647   0.966   5.015   4.800
 5250SOL     OW16648   0.746   1.648   5.836
 5250SOL    HW116649   0.743   1.613   5.742
 5250SOL    HW216650   0.686   1.593   5.894
 5251SOL     OW16651   6.794   3.387   1.163
 5251SOL    HW116652   6.728   3.344   1.224
 5251SOL    HW216653   6.882   3.397   1.211
 5252SOL     OW16654   4.262   6.069   0.506
 5252SOL    HW116655   4.270   6.124   0.589
 5252SOL    HW216656   4.348   6.021   0.489
 5253SOL     OW16657   5.494   3.587   3.955
 5253SOL    HW116658   5.399   3.570   3.932
 5253SOL    HW216659   5.510   3.563   4.051
 5254SOL     OW16660   4.577   0.842   3.932
 5254SOL    HW116661   4.606   0.900   3.856
 5254SOL    HW216662   4.499   0.786   3.904
 5255SOL     OW16663   3.553   6.274   4.987
 5255SOL    HW116664   3.596   6.188   4.960
 5255SOL    HW216665   3.506   6.261   5.075
 5256SOL     OW16666   5.578   6.518   3.806
 5256SOL    HW116667   5.495   6.541   3.858
 5256SOL    HW216668   5.644   6.593   3.814
 5257SOL     OW16669   3.471   0.864   1.090
 5257SOL    HW116670   3.496   0.943   1.146
 5257SOL    HW216671   3.413   0.894   1.014
 5258SOL     OW16672   5.755   3.538   2.379
 5258SOL    HW116673   5.731   3.453   2.426
 5258SOL    HW216674   5.703   3.614   2.418
 5259SOL     OW16675   4.714   4.889   2.688
 5259SOL    HW116676   4.792   4.829   2.671
 5259SOL    HW216677   4.652   4.888   2.609
 5260SOL     OW16678   5.649   3.269   1.388
 5260SOL    HW116679   5.561   3.234   1.356
 5260SOL    HW216680   5.711   3.280   1.310
 5261SOL     OW16681   1.503   2.524   4.596
 5261SOL    HW116682   1.439   2.534   4.520
 5261SOL    HW216683   1.453   2.501   4.679
 5262SOL     OW16684   2.648   6.995   1.999
 5262SOL    HW116685   2.559   6.997   1.953
 5262SOL    HW216686   2.686   0.071   2.002
 5263SOL     OW16687   1.098   6.459   6.764
 5263SOL    HW116688   1.017   6.445   6.820
 5263SOL    HW216689   1.101   6.555   6.733
 5264SOL     OW16690   0.366   2.349   1.036
 5264SOL    HW116691   0.441   2.326   0.973
 5264SOL    HW216692   0.404   2.375   1.124
 5265SOL     OW16693   5.168   4.683   1.622
 5265SOL    HW116694   5.225   4.633   1.558
 5265SOL    HW216695   5.110   4.748   1.572
 5266SOL     OW16696   1.420   6.777   0.975
 5266SOL    HW116697   1.382   6.692   1.013
 5266SOL    HW216698   1.491   6.812   1.037
 5267SOL     OW16699   4.744   4.743   4.983
 5267SOL    HW116700   4.708   4.758   4.892
 5267SOL    HW216701   4.807   4.665   4.982
 5268SOL     OW16702   5.637   4.777   4.997
 5268SOL    HW116703   5.696   4.712   4.948
 5268SOL    HW216704   5.569   4.814   4.934
 5269SOL     OW16705   2.140   5.752   3.801
 5269SOL    HW116706   2.043   5.731   3.788
 5269SOL    HW216707   2.191   5.727   3.719
 5270SOL     OW16708   6.118   2.805   2.058
 5270SOL    HW116709   6.104   2.831   2.153
 5270SOL    HW216710   6.150   2.885   2.006
 5271SOL     OW16711   4.898   4.501   4.947
 5271SOL    HW116712   4.942   4.490   5.036
 5271SOL    HW216713   4.968   4.518   4.877
 5272SOL     OW16714   1.868   1.078   4.707
 5272SOL    HW116715   1.802   1.143   4.745
 5272SOL    HW216716   1.885   1.006   4.774
 5273SOL     OW16717   0.506   1.192   3.692
 5273SOL    HW116718   0.593   1.182   3.740
 5273SOL    HW216719   0.434   1.215   3.759
 5274SOL     OW16720   6.305   5.135   4.046
 5274SOL    HW116721   6.288   5.231   4.068
 5274SOL    HW216722   6.404   5.118   4.045
 5275SOL     OW16723   1.889   6.648   6.983
 5275SOL    HW116724   1.889   6.727   0.027
 5275SOL    HW216725   1.963   6.586   7.008
 5276SOL     OW16726   0.370   0.069   1.449
 5276SOL    HW116727   0.315   0.068   1.365
 5276SOL    HW216728   0.318   0.028   1.524
 5277SOL     OW16729   0.990   1.935   3.182
 5277SOL    HW116730   1.000   2.004   3.253
 5277SOL    HW216731   0.893   1.914   3.169
 5278SOL     OW16732   0.890   5.230   5.520
 5278SOL    HW116733   0.899   5.316   5.571
 5278SOL    HW216734   0.974   5.214   5.468
 5279SOL     OW16735   1.740   5.555   6.749
 5279SOL    HW116736   1.732   5.614   6.830
 5279SOL    HW216737   1.666   5.576   6.685
 5280SOL     OW16738   4.444   5.758   4.996
 5280SOL    HW116739   4.520   5.704   5.032
 5280SOL    HW216740   4.481   5.834   4.943
 5281SOL     OW16741   1.930   0.922   4.974
 5281SOL    HW116742   1.977   1.011   4.974
 5281SOL    HW216743   1.994   0.851   4.945
 5282SOL     OW16744   1.255   0.720   2.072
 5282SOL    HW116745   1.203   0.805   2.064
 5282SOL    HW216746   1.245   0.667   1.988
 5283SOL     OW16747   0.519   0.798   4.207
 5283SOL    HW116748   0.430   0.754   4.217
 5283SOL    HW216749   0.535   0.858   4.286
 5284SOL     OW16750   4.998   2.356   2.207
 5284SOL    HW116751   4.922   2.394   2.154
 5284SOL    HW216752   4.971   2.268   2.247
 5285SOL     OW16753   1.097   2.614   4.228
 5285SOL    HW116754   1.035   2.540   4.202
 5285SOL    HW216755   1.135   2.656   4.145
 5286SOL     OW16756   6.028   3.172   1.114
 5286SOL    HW116757   5.993   3.243   1.175
 5286SOL    HW216758   6.053   3.214   1.026
 5287SOL     OW16759   2.859   5.245   1.237
 5287SOL    HW116760   2.905   5.160   1.261
 5287SOL    HW216761   2.760   5.232   1.241
 5288SOL     OW16762   4.810   0.520   2.240
 5288SOL    HW116763   4.827   0.423   2.255
 5288SOL    HW216764   4.759   0.533   2.156
 5289SOL     OW16765   1.575   4.399   6.465
 5289SOL    HW116766   1.609   4.370   6.375
 5289SOL    HW216767   1.593   4.496   6.478
 5290SOL     OW16768   1.104   3.011   5.565
 5290SOL    HW116769   1.153   2.923   5.564
 5290SOL    HW216770   1.142   3.069   5.636
 5291SOL     OW16771   2.659   4.771   4.923
 5291SOL    HW116772   2.727   4.712   4.968
 5291SOL    HW216773   2.567   4.740   4.947
 5292SOL     OW16774   6.768   4.244   6.323
 5292SOL    HW116775   6.751   4.242   6.225
 5292SOL    HW216776   6.867   4.253   6.339
 5293SOL     OW16777   2.334   5.584   4.352
 5293SOL    HW116778   2.386   5.660   4.314
 5293SOL    HW216779   2.250   5.571   4.300
 5294SOL     OW16780   3.907   0.716   5.051
 5294SOL    HW116781   3.895   0.815   5.053
 5294SOL    HW216782   3.984   0.693   4.992
 5295SOL     OW16783   2.952   0.972   2.137
 5295SOL    HW116784   3.049   0.989   2.152
 5295SOL    HW216785   2.900   1.005   2.215
 5296SOL     OW16786   4.141   4.590   0.850
 5296SOL    HW116787   4.093   4.633   0.773
 5296SOL    HW216788   4.170   4.661   0.914
 5297SOL     OW16789   2.496   4.419   0.815
 5297SOL    HW116790   2.432   4.402   0.740
 5297SOL    HW216791   2.586   4.382   0.791
 5298SOL     OW16792   2.027   0.049   0.836
 5298SOL    HW116793   2.090   0.125   0.820
 5298SOL    HW216794   2.042   6.995   0.766
 5299SOL     OW16795   3.219   1.961   0.153
 5299SOL    HW116796   3.284   1.885   0.145
 5299SOL    HW216797   3.153   1.956   0.078
 5300SOL     OW16798   2.171   4.397   0.147
 5300SOL    HW116799   2.231   4.344   0.087
 5300SOL    HW216800   2.078   4.395   0.111
 5301SOL     OW16801   4.708   0.476   5.783
 5301SOL    HW116802   4.724   0.535   5.704
 5301SOL    HW216803   4.673   0.388   5.752
 5302SOL     OW16804   5.522   5.510   3.192
 5302SOL    HW116805   5.435   5.505   3.144
 5302SOL    HW216806   5.531   5.600   3.236
 5303SOL     OW16807   6.790   4.747   5.822
 5303SOL    HW116808   6.846   4.688   5.881
 5303SOL    HW216809   6.752   4.822   5.877
 5304SOL     OW16810   6.583   1.194   1.374
 5304SOL    HW116811   6.624   1.196   1.465
 5304SOL    HW216812   6.549   1.102   1.356
 5305SOL     OW16813   1.304   5.533   2.877
 5305SOL    HW116814   1.286   5.614   2.933
 5305SOL    HW216815   1.398   5.536   2.843
 5306SOL     OW16816   6.799   3.811   5.788
 5306SOL    HW116817   6.839   3.719   5.787
 5306SOL    HW216818   6.781   3.839   5.882
 5307SOL     OW16819   5.396   1.905   0.749
 5307SOL    HW116820   5.322   1.969   0.767
 5307SOL    HW216821   5.358   1.814   0.731
 5308SOL     OW16822   1.603   4.531   3.183
 5308SOL    HW116823   1.527   4.594   3.166
 5308SOL    HW216824   1.653   4.560   3.265
 5309SOL     OW16825   4.538   6.212   3.275
 5309SOL    HW116826   4.606   6.269   3.320
 5309SOL    HW216827   4.454   6.265   3.259
 5310SOL     OW16828   5.929   2.947   3.070
 5310SOL    HW116829   6.003   2.963   3.005
 5310SOL    HW216830   5.965   2.950   3.163
 5311SOL     OW16831   5.905   0.466   0.592
 5311SOL    HW116832   5.810   0.456   0.563
 5311SOL    HW216833   5.965   0.435   0.518
 5312SOL     OW16834   0.228   6.785   1.319
 5312SOL    HW116835   0.298   6.715   1.333
 5312SOL    HW216836   0.241   6.828   1.230
 5313SOL     OW16837   6.219   5.013   5.174
 5313SOL    HW116838   6.130   5.028   5.217
 5313SOL    HW216839   6.272   5.098   5.177
 5314SOL     OW16840   6.012   6.824   1.393
 5314SOL    HW116841   6.106   6.838   1.423
 5314SOL    HW216842   5.957   6.791   1.469
 5315SOL     OW16843   4.196   1.393   3.933
 5315SOL    HW116844   4.214   1.309   3.984
 5315SOL    HW216845   4.097   1.402   3.920
 5316SOL     OW16846   1.021   2.794   4.664
 5316SOL    HW116847   1.013   2.778   4.566
 5316SOL    HW216848   0.932   2.820   4.702
 5317SOL     OW16849   6.618   1.590   5.954
 5317SOL    HW116850   6.539   1.580   6.016
 5317SOL    HW216851   6.603   1.669   5.895
 5318SOL     OW16852   6.315   3.031   0.266
 5318SOL    HW116853   6.305   2.968   0.343
 5318SOL    HW216854   6.278   2.989   0.183
 5319SOL     OW16855   4.470   6.802   1.117
 5319SOL    HW116856   4.506   6.811   1.210
 5319SOL    HW216857   4.545   6.811   1.051
 5320SOL     OW16858   3.200   6.002   1.261
 5320SOL    HW116859   3.162   6.032   1.174
 5320SOL    HW216860   3.294   6.033   1.269
 5321SOL     OW16861   1.967   4.720   4.528
 5321SOL    HW116862   2.066   4.720   4.542
 5321SOL    HW216863   1.941   4.804   4.480
 5322SOL     OW16864   5.639   6.800   2.032
 5322SOL    HW116865   5.680   6.880   1.989
 5322SOL    HW216866   5.699   6.721   2.020
 5323SOL     OW16867   4.394   1.748   5.611
 5323SOL    HW116868   4.425   1.744   5.706
 5323SOL    HW216869   4.431   1.669   5.560
 5324SOL     OW16870   2.431   2.266   0.180
 5324SOL    HW116871   2.403   2.259   0.276
 5324SOL    HW216872   2.526   2.297   0.175
 5325SOL     OW16873   2.543   2.214   4.963
 5325SOL    HW116874   2.495   2.218   5.051
 5325SOL    HW216875   2.508   2.285   4.902
 5326SOL     OW16876   6.234   6.227   2.835
 5326SOL    HW116877   6.270   6.267   2.919
 5326SOL    HW216878   6.218   6.130   2.849
 5327SOL     OW16879   5.588   2.590   4.935
 5327SOL    HW116880   5.554   2.664   4.876
 5327SOL    HW216881   5.659   2.539   4.886
 5328SOL     OW16882   4.337   3.966   6.970
 5328SOL    HW116883   4.360   3.913   6.889
 5328SOL    HW216884   4.237   3.965   6.983
 5329SOL     OW16885   1.575   6.247   6.361
 5329SOL    HW116886   1.664   6.232   6.404
 5329SOL    HW216887   1.504   6.250   6.431
 5330SOL     OW16888   2.724   2.802   0.738
 5330SOL    HW116889   2.757   2.708   0.742
 5330SOL    HW216890   2.625   2.803   0.725
 5331SOL     OW16891   6.595   0.847   6.786
 5331SOL    HW116892   6.501   0.844   6.751
 5331SOL    HW216893   6.603   0.788   6.866
 5332SOL     OW16894   1.317   4.556   2.022
 5332SOL    HW116895   1.333   4.498   2.102
 5332SOL    HW216896   1.404   4.595   1.991
 5333SOL     OW16897   0.729   6.576   4.116
 5333SOL    HW116898   0.795   6.516   4.161
 5333SOL    HW216899   0.659   6.605   4.182
 5334SOL     OW16900   2.771   6.892   4.278
 5334SOL    HW116901   2.753   6.872   4.182
 5334SOL    HW216902   2.869   6.894   4.294
 5335SOL     OW16903   6.967   5.211   0.646
 5335SOL    HW116904   6.893   5.279   0.644
 5335SOL    HW216905   0.027   5.248   0.699
 5336SOL     OW16906   1.879   3.572   2.411
 5336SOL    HW116907   1.908   3.572   2.507
 5336SOL    HW216908   1.849   3.481   2.385
 5337SOL     OW16909   5.323   4.186   1.128
 5337SOL    HW116910   5.224   4.198   1.133
 5337SOL    HW216911   5.354   4.128   1.203
 5338SOL     OW16912   6.563   1.735   6.818
 5338SOL    HW116913   6.511   1.718   6.901
 5338SOL    HW216914   6.649   1.683   6.820
 5339SOL     OW16915   6.964   1.659   3.522
 5339SOL    HW116916   0.028   1.687   3.574
 5339SOL    HW216917   6.882   1.673   3.577
 5340SOL     OW16918   5.757   2.796   0.080
 5340SOL    HW116919   5.815   2.855   0.136
 5340SOL    HW216920   5.663   2.799   0.115
 5341SOL     OW16921   4.822   1.298   6.070
 5341SOL    HW116922   4.758   1.307   5.994
 5341SOL    HW216923   4.839   1.388   6.110
 5342SOL     OW16924   4.084   0.641   5.289
 5342SOL    HW116925   4.087   0.605   5.196
 5342SOL    HW216926   4.013   0.712   5.295
 5343SOL     OW16927   3.836   3.304   2.335
 5343SOL    HW116928   3.811   3.400   2.347
 5343SOL    HW216929   3.757   3.246   2.353
 5344SOL     OW16930   1.984   2.908   3.481
 5344SOL    HW116931   2.072   2.865   3.502
 5344SOL    HW216932   1.999   3.005   3.462
 5345SOL     OW16933   4.452   6.509   1.053
 5345SOL    HW116934   4.472   6.495   1.151
 5345SOL    HW216935   4.464   6.606   1.031
 5346SOL     OW16936   2.668   6.496   3.299
 5346SOL    HW116937   2.765   6.478   3.317
 5346SOL    HW216938   2.657   6.520   3.202
 5347SOL     OW16939   0.030   1.955   1.449
 5347SOL    HW116940   0.012   1.856   1.450
 5347SOL    HW216941   0.017   1.992   1.541
 5348SOL     OW16942   1.304   1.628   0.606
 5348SOL    HW116943   1.211   1.646   0.639
 5348SOL    HW216944   1.344   1.712   0.571
 5349SOL     OW16945   0.123   1.568   0.752
 5349SOL    HW116946   0.176   1.649   0.728
 5349SOL    HW216947   0.025   1.590   0.752
 5350SOL     OW16948   2.313   1.319   6.209
 5350SOL    HW116949   2.323   1.377   6.290
 5350SOL    HW216950   2.400   1.316   6.160
 5351SOL     OW16951   4.838   6.534   1.013
 5351SOL    HW116952   4.855   6.630   0.991
 5351SOL    HW216953   4.915   6.479   0.982
 5352SOL     OW16954   2.360   5.634   3.312
 5352SOL    HW116955   2.332   5.710   3.254
 5352SOL    HW216956   2.458   5.618   3.302
 5353SOL     OW16957   4.734   6.030   5.043
 5353SOL    HW116958   4.713   6.012   5.139
 5353SOL    HW216959   4.771   5.947   5.001
 5354SOL     OW16960   1.761   5.084   2.178
 5354SOL    HW116961   1.758   5.004   2.118
 5354SOL    HW216962   1.856   5.106   2.200
 5355SOL     OW16963   4.587   1.424   3.817
 5355SOL    HW116964   4.655   1.353   3.804
 5355SOL    HW216965   4.577   1.444   3.915
 5356SOL     OW16966   6.312   3.950   0.894
 5356SOL    HW116967   6.240   3.885   0.871
 5356SOL    HW216968   6.385   3.902   0.944
 5357SOL     OW16969   3.559   0.281   0.277
 5357SOL    HW116970   3.519   0.273   0.368
 5357SOL    HW216971   3.496   0.329   0.216
 5358SOL     OW16972   4.369   2.345   0.896
 5358SOL    HW116973   4.318   2.421   0.856
 5358SOL    HW216974   4.376   2.358   0.995
 5359SOL     OW16975   2.718   1.627   0.768
 5359SOL    HW116976   2.636   1.571   0.762
 5359SOL    HW216977   2.767   1.605   0.853
 5360SOL     OW16978   3.638   6.565   5.816
 5360SOL    HW116979   3.703   6.634   5.786
 5360SOL    HW216980   3.640   6.558   5.916
 5361SOL     OW16981   2.308   1.090   4.810
 5361SOL    HW116982   2.385   1.150   4.832
 5361SOL    HW216983   2.226   1.123   4.857
 5362SOL     OW16984   4.753   5.063   2.907
 5362SOL    HW116985   4.746   4.982   2.849
 5362SOL    HW216986   4.689   5.055   2.984
 5363SOL     OW16987   0.945   5.694   6.630
 5363SOL    HW116988   1.017   5.636   6.670
 5363SOL    HW216989   0.880   5.637   6.581
 5364SOL     OW16990   6.975   6.362   0.699
 5364SOL    HW116991   6.984   6.453   0.740
 5364SOL    HW216992   6.996   6.292   0.768
 5365SOL     OW16993   4.546   2.278   5.986
 5365SOL    HW116994   4.558   2.196   6.041
 5365SOL    HW216995   4.449   2.296   5.972
 5366SOL     OW16996   4.205   4.243   0.384
 5366SOL    HW116997   4.207   4.144   0.394
 5366SOL    HW216998   4.261   4.286   0.455
 5367SOL     OW16999   0.835   4.613   1.228
 5367SOL    HW117000   0.804   4.524   1.263
 5367SOL    HW217001   0.800   4.686   1.287
 5368SOL     OW17002   5.562   2.004   3.129
 5368SOL    HW117003   5.560   1.996   3.228
 5368SOL    HW217004   5.574   2.100   3.102
 5369SOL     OW17005   2.358   4.683   3.116
 5369SOL    HW117006   2.344   4.586   3.097
 5369SOL    HW217007   2.456   4.704   3.112
 5370SOL     OW17008   3.805   2.717   1.382
 5370SOL    HW117009   3.711   2.712   1.415
 5370SOL    HW217010   3.866   2.744   1.456
 5371SOL     OW17011   1.523   4.330   4.340
 5371SOL    HW117012   1.591   4.334   4.414
 5371SOL    HW217013   1.500   4.423   4.311
 5372SOL     OW17014   2.864   4.764   2.920
 5372SOL    HW117015   2.868   4.748   2.821
 5372SOL    HW217016   2.848   4.677   2.967
 5373SOL     OW17017   3.082   4.994   4.203
 5373SOL    HW117018   3.177   4.965   4.197
 5373SOL    HW217019   3.022   4.915   4.198
 5374SOL     OW17020   1.713   2.970   6.448
 5374SOL    HW117021   1.679   2.904   6.515
 5374SOL    HW217022   1.747   2.920   6.368
 5375SOL     OW17023   1.493   4.552   4.620
 5375SOL    HW117024   1.426   4.486   4.654
 5375SOL    HW217025   1.585   4.514   4.631
 5376SOL     OW17026   1.411   3.797   1.652
 5376SOL    HW117027   1.437   3.749   1.568
 5376SOL    HW217028   1.471   3.768   1.727
 5377SOL     OW17029   0.316   0.471   1.715
 5377SOL    HW117030   0.337   0.568   1.728
 5377SOL    HW217031   0.377   0.433   1.645
 5378SOL     OW17032   5.842   0.889   0.085
 5378SOL    HW117033   5.767   0.929   0.138
 5378SOL    HW217034   5.927   0.936   0.107
 5379SOL     OW17035   0.192   5.366   3.093
 5379SOL    HW117036   0.139   5.451   3.094
 5379SOL    HW217037   0.216   5.341   3.187
 5380SOL     OW17038   2.437   6.892   3.573
 5380SOL    HW117039   2.341   6.904   3.548
 5380SOL    HW217040   2.457   6.941   3.657
 5381SOL     OW17041   5.711   4.465   1.059
 5381SOL    HW117042   5.669   4.486   1.147
 5381SOL    HW217043   5.772   4.539   1.033
 5382SOL     OW17044   3.071   1.068   1.390
 5382SOL    HW117045   3.070   0.968   1.402
 5382SOL    HW217046   3.060   1.112   1.479
 5383SOL     OW17047   2.599   2.365   5.351
 5383SOL    HW117048   2.531   2.383   5.280
 5383SOL    HW217049   2.687   2.402   5.322
 5384SOL     OW17050   6.457   6.748   4.143
 5384SOL    HW117051   6.461   6.669   4.204
 5384SOL    HW217052   6.409   6.823   4.189
 5385SOL     OW17053   3.344   4.083   2.188
 5385SOL    HW117054   3.390   4.083   2.099
 5385SOL    HW217055   3.302   4.172   2.203
 5386SOL     OW17056   5.084   6.364   4.248
 5386SOL    HW117057   5.077   6.330   4.154
 5386SOL    HW217058   5.114   6.459   4.246
 5387SOL     OW17059   3.075   5.264   1.977
 5387SOL    HW117060   3.017   5.190   2.010
 5387SOL    HW217061   3.082   5.336   2.046
 5388SOL     OW17062   5.752   6.620   2.539
 5388SOL    HW117063   5.763   6.692   2.471
 5388SOL    HW217064   5.805   6.644   2.621
 5389SOL     OW17065   4.531   0.846   1.691
 5389SOL    HW117066   4.478   0.868   1.773
 5389SOL    HW217067   4.619   0.894   1.695
 5390SOL     OW17068   5.964   5.062   4.981
 5390SOL    HW117069   6.049   5.102   4.948
 5390SOL    HW217070   5.909   5.031   4.904
 5391SOL     OW17071   2.658   3.362   0.374
 5391SOL    HW117072   2.680   3.266   0.387
 5391SOL    HW217073   2.611   3.397   0.455
 5392SOL     OW17074   6.088   3.065   1.681
 5392SOL    HW117075   5.995   3.028   1.693
 5392SOL    HW217076   6.085   3.165   1.686
 5393SOL     OW17077   6.853   0.107   0.433
 5393SOL    HW117078   6.764   0.074   0.464
 5393SOL    HW217079   6.911   0.030   0.407
 5394SOL     OW17080   0.694   4.073   5.849
 5394SOL    HW117081   0.658   4.069   5.942
 5394SOL    HW217082   0.650   4.003   5.793
 5395SOL     OW17083   4.000   0.530   0.926
 5395SOL    HW117084   3.982   0.539   0.829
 5395SOL    HW217085   3.916   0.505   0.974
 5396SOL     OW17086   5.479   3.871   2.014
 5396SOL    HW117087   5.462   3.899   1.919
 5396SOL    HW217088   5.427   3.788   2.034
 5397SOL     OW17089   6.837   3.287   1.577
 5397SOL    HW117090   6.882   3.374   1.554
 5397SOL    HW217091   6.877   3.213   1.523
 5398SOL     OW17092   3.128   2.410   1.690
 5398SOL    HW117093   3.190   2.332   1.687
 5398SOL    HW217094   3.072   2.404   1.773
 5399SOL     OW17095   1.973   6.310   0.892
 5399SOL    HW117096   2.070   6.286   0.882
 5399SOL    HW217097   1.958   6.350   0.983
 5400SOL     OW17098   2.810   4.654   0.270
 5400SOL    HW117099   2.818   4.742   0.223
 5400SOL    HW217100   2.815   4.580   0.203
 5401SOL     OW17101   5.894   3.204   1.943
 5401SOL    HW117102   5.876   3.157   1.856
 5401SOL    HW217103   5.824   3.275   1.957
 5402SOL     OW17104   2.105   6.303   2.058
 5402SOL    HW117105   2.009   6.276   2.062
 5402SOL    HW217106   2.159   6.244   2.118
 5403SOL     OW17107   0.159   3.782   6.540
 5403SOL    HW117108   0.253   3.756   6.519
 5403SOL    HW217109   0.150   3.881   6.540
 5404SOL     OW17110   1.634   2.975   3.964
 5404SOL    HW117111   1.691   2.922   4.026
 5404SOL    HW217112   1.625   2.927   3.876
 5405SOL     OW17113   6.865   5.497   6.005
 5405SOL    HW117114   6.910   5.481   5.917
 5405SOL    HW217115   6.873   5.415   6.061
 5406SOL     OW17116   1.461   1.228   6.857
 5406SOL    HW117117   1.499   1.202   6.768
 5406SOL    HW217118   1.364   1.248   6.847
 5407SOL     OW17119   4.077   3.374   0.991
 5407SOL    HW117120   4.044   3.468   0.984
 5407SOL    HW217121   4.044   3.334   1.077
 5408SOL     OW17122   2.440   0.662   6.344
 5408SOL    HW117123   2.487   0.612   6.271
 5408SOL    HW217124   2.458   0.759   6.335
 5409SOL     OW17125   5.311   0.553   3.098
 5409SOL    HW117126   5.295   0.577   3.193
 5409SOL    HW217127   5.278   0.460   3.081
 5410SOL     OW17128   3.142   1.890   1.677
 5410SOL    HW117129   3.094   1.978   1.683
 5410SOL    HW217130   3.201   1.879   1.758
 5411SOL     OW17131   0.038   5.100   5.419
 5411SOL    HW117132   6.995   5.143   5.351
 5411SOL    HW217133   0.123   5.152   5.427
 5412SOL     OW17134   5.616   2.925   0.757
 5412SOL    HW117135   5.624   2.848   0.821
 5412SOL    HW217136   5.530   2.974   0.775
 5413SOL     OW17137   3.059   1.678   1.519
 5413SOL    HW117138   3.073   1.756   1.580
 5413SOL    HW217139   3.126   1.681   1.445
 5414SOL     OW17140   4.388   1.280   4.536
 5414SOL    HW117141   4.418   1.200   4.588
 5414SOL    HW217142   4.446   1.358   4.559
 5415SOL     OW17143   0.448   5.812   1.196
 5415SOL    HW117144   0.461   5.756   1.278
 5415SOL    HW217145   0.454   5.909   1.220
 5416SOL     OW17146   4.324   5.201   4.845
 5416SOL    HW117147   4.351   5.105   4.841
 5416SOL    HW217148   4.384   5.250   4.908
 5417SOL     OW17149   3.544   6.535   5.129
 5417SOL    HW117150   3.634   6.578   5.124
 5417SOL    HW217151   3.539   6.462   5.061
 5418SOL     OW17152   3.669   0.103   2.537
 5418SOL    HW117153   3.636   0.178   2.594
 5418SOL    HW217154   3.622   0.105   2.449
 5419SOL     OW17155   3.179   4.718   6.595
 5419SOL    HW117156   3.156   4.813   6.572
 5419SOL    HW217157   3.267   4.695   6.553
 5420SOL     OW17158   2.047   2.192   3.230
 5420SOL    HW117159   2.002   2.211   3.317
 5420SOL    HW217160   1.995   2.123   3.180
 5421SOL     OW17161   1.813   3.982   1.613
 5421SOL    HW117162   1.798   3.896   1.564
 5421SOL    HW217163   1.889   4.032   1.571
 5422SOL     OW17164   1.649   4.423   1.662
 5422SOL    HW117165   1.733   4.419   1.716
 5422SOL    HW217166   1.628   4.332   1.625
 5423SOL     OW17167   6.210   3.141   6.407
 5423SOL    HW117168   6.138   3.191   6.360
 5423SOL    HW217169   6.202   3.155   6.505
 5424SOL     OW17170   5.069   3.344   4.541
 5424SOL    HW117171   5.102   3.274   4.604
 5424SOL    HW217172   5.063   3.306   4.449
 5425SOL     OW17173   4.146   1.110   5.290
 5425SOL    HW117174   4.241   1.109   5.259
 5425SOL    HW217175   4.116   1.205   5.300
 5426SOL     OW17176   5.752   6.686   5.082
 5426SOL    HW117177   5.723   6.775   5.047
 5426SOL    HW217178   5.810   6.699   5.162
 5427SOL     OW17179   4.503   5.844   6.686
 5427SOL    HW117180   4.591   5.861   6.731
 5427SOL    HW217181   4.475   5.750   6.704
 5428SOL     OW17182   0.736   0.235   1.010
 5428SOL    HW117183   0.835   0.220   1.011
 5428SOL    HW217184   0.690   0.149   0.989
 5429SOL     OW17185   1.555   2.057   6.640
 5429SOL    HW117186   1.632   2.117   6.619
 5429SOL    HW217187   1.587   1.976   6.688
 5430SOL     OW17188   0.768   2.567   6.373
 5430SOL    HW117189   0.675   2.530   6.386
 5430SOL    HW217190   0.826   2.539   6.449
 5431SOL     OW17191   3.382   6.527   6.512
 5431SOL    HW117192   3.336   6.532   6.601
 5431SOL    HW217193   3.376   6.433   6.477
 5432SOL     OW17194   4.845   0.086   0.163
 5432SOL    HW117195   4.813   0.016   0.227
 5432SOL    HW217196   4.930   0.056   0.120
 5433SOL     OW17197   6.957   1.853   4.930
 5433SOL    HW117198   0.003   1.931   4.941
 5433SOL    HW217199   6.879   1.864   4.992
 5434SOL     OW17200   2.914   0.205   6.121
 5434SOL    HW117201   2.849   0.263   6.072
 5434SOL    HW217202   2.986   0.262   6.160
 5435SOL     OW17203   4.306   7.003   1.679
 5435SOL    HW117204   4.230   6.999   1.744
 5435SOL    HW217205   4.379   0.043   1.716
 5436SOL     OW17206   4.754   4.518   3.467
 5436SOL    HW117207   4.740   4.616   3.477
 5436SOL    HW217208   4.839   4.501   3.418
 5437SOL     OW17209   2.928   4.322   6.919
 5437SOL    HW117210   3.012   4.372   6.900
 5437SOL    HW217211   2.937   4.227   6.890
 5438SOL     OW17212   5.938   1.722   1.717
 5438SOL    HW117213   6.004   1.670   1.662
 5438SOL    HW217214   5.852   1.729   1.667
 5439SOL     OW17215   1.279   2.264   1.125
 5439SOL    HW117216   1.329   2.177   1.119
 5439SOL    HW217217   1.185   2.246   1.153
 5440SOL     OW17218   1.059   2.146   1.344
 5440SOL    HW117219   1.007   2.178   1.423
 5440SOL    HW217220   1.106   2.061   1.368
 5441SOL     OW17221   3.239   2.099   3.779
 5441SOL    HW117222   3.215   2.041   3.701
 5441SOL    HW217223   3.158   2.147   3.812
 5442SOL     OW17224   3.802   0.265   2.020
 5442SOL    HW117225   3.783   0.180   2.070
 5442SOL    HW217226   3.893   0.299   2.047
 5443SOL     OW17227   2.802   6.853   4.903
 5443SOL    HW117228   2.823   6.761   4.871
 5443SOL    HW217229   2.821   6.919   4.830
 5444SOL     OW17230   0.390   6.404   4.012
 5444SOL    HW117231   0.423   6.351   4.090
 5444SOL    HW217232   0.407   6.502   4.029
 5445SOL     OW17233   6.342   3.580   2.771
 5445SOL    HW117234   6.389   3.529   2.698
 5445SOL    HW217235   6.404   3.594   2.848
 5446SOL     OW17236   5.916   5.680   4.778
 5446SOL    HW117237   5.826   5.652   4.744
 5446SOL    HW217238   5.985   5.615   4.748
 5447SOL     OW17239   3.798   2.461   6.820
 5447SOL    HW117240   3.726   2.393   6.805
 5447SOL    HW217241   3.783   2.505   6.909
 5448SOL     OW17242   4.956   2.368   5.492
 5448SOL    HW117243   4.994   2.283   5.456
 5448SOL    HW217244   4.902   2.413   5.422
 5449SOL     OW17245   1.164   2.895   0.280
 5449SOL    HW117246   1.200   2.969   0.223
 5449SOL    HW217247   1.138   2.818   0.223
 5450SOL     OW17248   2.040   0.237   1.357
 5450SOL    HW117249   2.045   0.138   1.375
 5450SOL    HW217250   1.944   0.265   1.355
 5451SOL     OW17251   0.402   6.235   3.176
 5451SOL    HW117252   0.452   6.307   3.128
 5451SOL    HW217253   0.433   6.146   3.144
 5452SOL     OW17254   1.928   4.421   0.001
 5452SOL    HW117255   1.937   4.481   6.937
 5452SOL    HW217256   1.935   4.326   6.988
 5453SOL     OW17257   6.223   3.782   0.336
 5453SOL    HW117258   6.258   3.874   0.355
 5453SOL    HW217259   6.297   3.724   0.301
 5454SOL     OW17260   0.085   5.063   6.504
 5454SOL    HW117261   0.059   5.149   6.460
 5454SOL    HW217262   0.158   5.020   6.451
 5455SOL     OW17263   6.600   3.234   1.309
 5455SOL    HW117264   6.517   3.195   1.270
 5455SOL    HW217265   6.592   3.238   1.409
 5456SOL     OW17266   2.959   0.384   6.527
 5456SOL    HW117267   3.004   0.295   6.530
 5456SOL    HW217268   2.864   0.373   6.555
 5457SOL     OW17269   5.883   2.634   1.196
 5457SOL    HW117270   5.981   2.621   1.210
 5457SOL    HW217271   5.869   2.713   1.136
 5458SOL     OW17272   1.502   4.157   6.943
 5458SOL    HW117273   1.507   4.120   6.850
 5458SOL    HW217274   1.471   4.086   7.005
 5459SOL     OW17275   1.833   4.743   7.005
 5459SOL    HW117276   1.794   4.676   0.052
 5459SOL    HW217277   1.823   4.835   0.026
 5460SOL     OW17278   3.002   0.554   1.030
 5460SOL    HW117279   2.924   0.530   0.971
 5460SOL    HW217280   3.036   0.644   1.005
 5461SOL     OW17281   4.799   0.061   5.049
 5461SOL    HW117282   4.895   0.038   5.065
 5461SOL    HW217283   4.755   7.003   4.999
 5462SOL     OW17284   1.335   0.064   0.474
 5462SOL    HW117285   1.420   0.011   0.473
 5462SOL    HW217286   1.300   0.071   0.380
 5463SOL     OW17287   6.251   2.890   0.503
 5463SOL    HW117288   6.184   2.925   0.568
 5463SOL    HW217289   6.207   2.822   0.444
 5464SOL     OW17290   2.032   0.684   3.956
 5464SOL    HW117291   1.986   0.770   3.979
 5464SOL    HW217292   1.998   0.611   4.015
 5465SOL     OW17293   3.622   0.020   4.803
 5465SOL    HW117294   3.541   6.987   4.834
 5465SOL    HW217295   3.655   0.079   4.876
 5466SOL     OW17296   4.867   4.115   4.766
 5466SOL    HW117297   4.780   4.133   4.812
 5466SOL    HW217298   4.884   4.016   4.766
 5467SOL     OW17299   5.554   1.474   2.459
 5467SOL    HW117300   5.551   1.374   2.457
 5467SOL    HW217301   5.514   1.507   2.545
 5468SOL     OW17302   5.074   1.976   4.892
 5468SOL    HW117303   5.096   2.016   4.981
 5468SOL    HW217304   5.049   2.048   4.828
 5469SOL     OW17305   4.099   4.355   5.719
 5469SOL    HW117306   4.180   4.344   5.660
 5469SOL    HW217307   4.097   4.280   5.785
 5470SOL     OW17308   1.706   5.093   3.974
 5470SOL    HW117309   1.612   5.059   3.986
 5470SOL    HW217310   1.767   5.015   3.958
 5471SOL     OW17311   6.917   5.765   1.601
 5471SOL    HW117312   6.956   5.840   1.654
 5471SOL    HW217313   6.986   5.694   1.588
 5472SOL     OW17314   4.382   3.920   6.009
 5472SOL    HW117315   4.447   3.995   6.017
 5472SOL    HW217316   4.289   3.956   6.014
 5473SOL     OW17317   1.469   3.286   3.576
 5473SOL    HW117318   1.500   3.367   3.525
 5473SOL    HW217319   1.370   3.290   3.587
 5474SOL     OW17320   1.843   5.587   4.046
 5474SOL    HW117321   1.882   5.512   3.992
 5474SOL    HW217322   1.897   5.669   4.032
 5475SOL     OW17323   3.275   1.786   0.707
 5475SOL    HW117324   3.358   1.823   0.664
 5475SOL    HW217325   3.272   1.813   0.803
 5476SOL     OW17326   1.232   3.213   6.581
 5476SOL    HW117327   1.151   3.235   6.636
 5476SOL    HW217328   1.225   3.259   6.492
 5477SOL     OW17329   2.172   2.895   3.002
 5477SOL    HW117330   2.153   2.961   3.074
 5477SOL    HW217331   2.243   2.831   3.032
 5478SOL     OW17332   5.360   5.794   5.938
 5478SOL    HW117333   5.415   5.837   5.865
 5478SOL    HW217334   5.352   5.696   5.920
 5479SOL     OW17335   4.722   0.033   4.591
 5479SOL    HW117336   4.773   6.963   4.594
 5479SOL    HW217337   4.662   0.033   4.511
 5480SOL     OW17338   0.858   4.007   4.383
 5480SOL    HW117339   0.784   3.953   4.342
 5480SOL    HW217340   0.872   3.979   4.478
 5481SOL     OW17341   3.450   6.645   4.556
 5481SOL    HW117342   3.359   6.657   4.596
 5481SOL    HW217343   3.444   6.650   4.457
 5482SOL     OW17344   3.091   4.723   1.366
 5482SOL    HW117345   3.059   4.706   1.459
 5482SOL    HW217346   3.018   4.702   1.301
 5483SOL     OW17347   0.423   2.824   5.972
 5483SOL    HW117348   0.486   2.886   6.019
 5483SOL    HW217349   0.388   2.869   5.889
 5484SOL     OW17350   4.580   0.813   4.214
 5484SOL    HW117351   4.565   0.819   4.115
 5484SOL    HW217352   4.511   0.869   4.260
 5485SOL     OW17353   2.919   6.573   5.708
 5485SOL    HW117354   2.852   6.635   5.668
 5485SOL    HW217355   2.915   6.484   5.661
 5486SOL     OW17356   2.801   5.815   4.429
 5486SOL    HW117357   2.712   5.860   4.433
 5486SOL    HW217358   2.870   5.880   4.397
 5487SOL     OW17359   2.871   4.943   5.850
 5487SOL    HW117360   2.795   4.939   5.786
 5487SOL    HW217361   2.956   4.922   5.803
 5488SOL     OW17362   6.216   1.036   1.021
 5488SOL    HW117363   6.119   1.031   1.043
 5488SOL    HW217364   6.241   0.960   0.962
 5489SOL     OW17365   6.641   3.786   2.319
 5489SOL    HW117366   6.604   3.797   2.227
 5489SOL    HW217367   6.567   3.768   2.384
 5490SOL     OW17368   1.297   6.898   2.743
 5490SOL    HW117369   1.373   6.854   2.696
 5490SOL    HW217370   1.237   6.828   2.781
 5491SOL     OW17371   6.786   4.101   0.581
 5491SOL    HW117372   6.823   4.115   0.673
 5491SOL    HW217373   6.687   4.111   0.583
 5492SOL     OW17374   0.650   1.021   5.523
 5492SOL    HW117375   0.724   0.954   5.527
 5492SOL    HW217376   0.610   1.021   5.431
 5493SOL     OW17377   4.008   3.628   1.536
 5493SOL    HW117378   3.988   3.531   1.542
 5493SOL    HW217379   4.064   3.656   1.614
 5494SOL     OW17380   6.276   4.150   5.257
 5494SOL    HW117381   6.235   4.192   5.176
 5494SOL    HW217382   6.319   4.064   5.230
 5495SOL     OW17383   5.987   0.793   1.180
 5495SOL    HW117384   5.952   0.886   1.170
 5495SOL    HW217385   5.960   0.738   1.101
 5496SOL     OW17386   3.698   0.424   4.646
 5496SOL    HW117387   3.621   0.485   4.628
 5496SOL    HW217388   3.784   0.473   4.629
 5497SOL     OW17389   0.981   0.897   6.246
 5497SOL    HW117390   1.050   0.841   6.292
 5497SOL    HW217391   0.906   0.839   6.214
 5498SOL     OW17392   0.667   5.075   2.185
 5498SOL    HW117393   0.568   5.062   2.183
 5498SOL    HW217394   0.694   5.144   2.118
 5499SOL     OW17395   1.703   0.195   4.733
 5499SOL    HW117396   1.775   0.185   4.664
 5499SOL    HW217397   1.721   0.133   4.810
 5500SOL     OW17398   2.233   0.468   0.524
 5500SOL    HW117399   2.323   0.436   0.554
 5500SOL    HW217400   2.230   0.568   0.526
 5501SOL     OW17401   3.589   3.025   6.712
 5501SOL    HW117402   3.677   3.006   6.757
 5501SOL    HW217403   3.526   3.067   6.777
 5502SOL     OW17404   4.412   2.232   0.277
 5502SOL    HW117405   4.508   2.253   0.260
 5502SOL    HW217406   4.402   2.135   0.296
 5503SOL     OW17407   6.983   3.839   0.578
 5503SOL    HW117408   6.954   3.856   0.484
 5503SOL    HW217409   6.951   3.914   0.636
 5504SOL     OW17410   3.415   1.000   6.355
 5504SOL    HW117411   3.366   1.033   6.275
 5504SOL    HW217412   3.456   0.911   6.336
 5505SOL     OW17413   2.390   4.774   4.392
 5505SOL    HW117414   2.466   4.742   4.335
 5505SOL    HW217415   2.319   4.704   4.396
 5506SOL     OW17416   0.708   3.629   6.120
 5506SOL    HW117417   0.783   3.623   6.054
 5506SOL    HW217418   0.724   3.704   6.183
 5507SOL     OW17419   3.114   0.133   6.804
 5507SOL    HW117420   3.142   0.223   6.836
 5507SOL    HW217421   3.016   0.133   6.785
 5508SOL     OW17422   0.314   0.858   6.523
 5508SOL    HW117423   0.309   0.816   6.614
 5508SOL    HW217424   0.222   0.864   6.484
 5509SOL     OW17425   6.960   5.270   0.115
 5509SOL    HW117426   6.947   5.301   0.021
 5509SOL    HW217427   6.887   5.306   0.173
 5510SOL     OW17428   3.833   5.189   0.255
 5510SOL    HW117429   3.747   5.146   0.228
 5510SOL    HW217430   3.831   5.209   0.353
 5511SOL     OW17431   0.785   1.231   5.390
 5511SOL    HW117432   0.742   1.196   5.473
 5511SOL    HW217433   0.828   1.156   5.340
 5512SOL     OW17434   3.406   1.097   2.798
 5512SOL    HW117435   3.397   1.152   2.714
 5512SOL    HW217436   3.319   1.099   2.847
 5513SOL     OW17437   3.996   4.165   6.888
 5513SOL    HW117438   3.907   4.137   6.852
 5513SOL    HW217439   3.985   4.245   6.946
 5514SOL     OW17440   2.715   0.399   6.239
 5514SOL    HW117441   2.797   0.408   6.296
 5514SOL    HW217442   2.647   0.343   6.286
 5515SOL     OW17443   2.548   5.970   1.975
 5515SOL    HW117444   2.598   5.946   2.059
 5515SOL    HW217445   2.564   6.066   1.953
 5516SOL     OW17446   2.354   2.695   5.015
 5516SOL    HW117447   2.284   2.666   5.080
 5516SOL    HW217448   2.359   2.795   5.015
 5517SOL     OW17449   1.815   3.373   3.553
 5517SOL    HW117450   1.802   3.470   3.573
 5517SOL    HW217451   1.773   3.318   3.625
 5518SOL     OW17452   4.580   4.157   5.919
 5518SOL    HW117453   4.551   4.131   5.827
 5518SOL    HW217454   4.648   4.091   5.953
 5519SOL     OW17455   4.683   2.252   4.014
 5519SOL    HW117456   4.689   2.183   4.087
 5519SOL    HW217457   4.590   2.289   4.011
 5520SOL     OW17458   4.744   6.825   1.883
 5520SOL    HW117459   4.795   6.744   1.913
 5520SOL    HW217460   4.807   6.889   1.839
 5521SOL     OW17461   5.757   5.679   1.743
 5521SOL    HW117462   5.737   5.588   1.705
 5521SOL    HW217463   5.829   5.670   1.812
 5522SOL     OW17464   6.239   5.532   0.622
 5522SOL    HW117465   6.231   5.590   0.541
 5522SOL    HW217466   6.273   5.586   0.699
 5523SOL     OW17467   5.501   1.189   2.406
 5523SOL    HW117468   5.411   1.215   2.370
 5523SOL    HW217469   5.490   1.125   2.481
 5524SOL     OW17470   2.945   0.810   4.386
 5524SOL    HW117471   2.935   0.719   4.345
 5524SOL    HW217472   2.927   0.880   4.317
 5525SOL     OW17473   6.402   1.707   1.068
 5525SOL    HW117474   6.361   1.705   0.977
 5525SOL    HW217475   6.450   1.620   1.085
 5526SOL     OW17476   4.749   4.830   3.463
 5526SOL    HW117477   4.830   4.851   3.519
 5526SOL    HW217478   4.768   4.853   3.368
 5527SOL     OW17479   6.186   1.463   3.870
 5527SOL    HW117480   6.114   1.521   3.832
 5527SOL    HW217481   6.204   1.489   3.965
 5528SOL     OW17482   0.802   1.716   1.043
 5528SOL    HW117483   0.860   1.654   1.096
 5528SOL    HW217484   0.738   1.763   1.104
 5529SOL     OW17485   3.748   0.837   2.004
 5529SOL    HW117486   3.677   0.871   2.066
 5529SOL    HW217487   3.743   0.887   1.918
 5530SOL     OW17488   6.207   2.249   1.249
 5530SOL    HW117489   6.257   2.243   1.336
 5530SOL    HW217490   6.120   2.201   1.258
 5531SOL     OW17491   2.420   4.288   1.424
 5531SOL    HW117492   2.347   4.303   1.358
 5531SOL    HW217493   2.508   4.304   1.380
 5532SOL     OW17494   1.583   2.877   0.833
 5532SOL    HW117495   1.673   2.835   0.833
 5532SOL    HW217496   1.582   2.953   0.899
 5533SOL     OW17497   3.958   2.197   4.231
 5533SOL    HW117498   3.876   2.155   4.270
 5533SOL    HW217499   3.970   2.289   4.267
 5534SOL     OW17500   1.267   0.727   4.433
 5534SOL    HW117501   1.195   0.663   4.461
 5534SOL    HW217502   1.230   0.790   4.364
 5535SOL     OW17503   0.370   2.169   3.422
 5535SOL    HW117504   0.391   2.267   3.412
 5535SOL    HW217505   0.300   2.143   3.356
 5536SOL     OW17506   3.674   6.626   4.195
 5536SOL    HW117507   3.757   6.641   4.248
 5536SOL    HW217508   3.691   6.649   4.099
 5537SOL     OW17509   3.136   1.236   3.331
 5537SOL    HW117510   3.231   1.240   3.363
 5537SOL    HW217511   3.077   1.282   3.397
 5538SOL     OW17512   4.085   5.476   4.512
 5538SOL    HW117513   4.027   5.419   4.454
 5538SOL    HW217514   4.042   5.565   4.526
 5539SOL     OW17515   2.000   4.029   0.194
 5539SOL    HW117516   1.902   4.014   0.209
 5539SOL    HW217517   2.042   4.059   0.279
 5540SOL     OW17518   5.580   5.052   2.004
 5540SOL    HW117519   5.551   4.995   1.928
 5540SOL    HW217520   5.554   5.009   2.090
 5541SOL     OW17521   4.496   1.493   5.523
 5541SOL    HW117522   4.593   1.507   5.501
 5541SOL    HW217523   4.447   1.463   5.440
 5542SOL     OW17524   4.980   4.879   6.050
 5542SOL    HW117525   5.065   4.905   6.096
 5542SOL    HW217526   4.952   4.953   5.988
 5543SOL     OW17527   6.826   2.127   5.893
 5543SOL    HW117528   6.881   2.210   5.902
 5543SOL    HW217529   6.772   2.132   5.810
 5544SOL     OW17530   5.584   1.498   6.234
 5544SOL    HW117531   5.660   1.563   6.226
 5544SOL    HW217532   5.503   1.535   6.189
 5545SOL     OW17533   2.962   2.101   1.838
 5545SOL    HW117534   2.967   2.198   1.865
 5545SOL    HW217535   2.880   2.060   1.877
 5546SOL     OW17536   1.905   4.910   5.646
 5546SOL    HW117537   1.819   4.863   5.623
 5546SOL    HW217538   1.888   5.008   5.656
 5547SOL     OW17539   3.971   6.135   5.045
 5547SOL    HW117540   4.015   6.077   4.977
 5547SOL    HW217541   4.014   6.120   5.134
 5548SOL     OW17542   6.862   3.603   4.912
 5548SOL    HW117543   6.903   3.681   4.865
 5548SOL    HW217544   6.882   3.609   5.010
 5549SOL     OW17545   3.527   4.421   6.797
 5549SOL    HW117546   3.485   4.377   6.717
 5549SOL    HW217547   3.552   4.350   6.864
 5550SOL     OW17548   3.603   6.639   1.887
 5550SOL    HW117549   3.692   6.597   1.867
 5550SOL    HW217550   3.532   6.570   1.884
 5551SOL     OW17551   0.495   1.012   3.088
 5551SOL    HW117552   0.564   1.074   3.049
 5551SOL    HW217553   0.494   1.022   3.188
 5552SOL     OW17554   0.246   2.731   1.624
 5552SOL    HW117555   0.318   2.664   1.605
 5552SOL    HW217556   0.289   2.818   1.650
 5553SOL     OW17557   5.105   6.808   0.434
 5553SOL    HW117558   5.089   6.865   0.515
 5553SOL    HW217559   5.181   6.745   0.452
 5554SOL     OW17560   2.822   1.986   4.822
 5554SOL    HW117561   2.787   1.973   4.729
 5554SOL    HW217562   2.855   2.080   4.832
 5555SOL     OW17563   6.931   5.851   2.746
 5555SOL    HW117564   6.921   5.946   2.777
 5555SOL    HW217565   0.007   5.819   2.764
 5556SOL     OW17566   0.483   0.940   4.455
 5556SOL    HW117567   0.407   1.004   4.452
 5556SOL    HW217568   0.532   0.952   4.542
 5557SOL     OW17569   2.502   0.552   3.482
 5557SOL    HW117570   2.549   0.633   3.516
 5557SOL    HW217571   2.425   0.531   3.542
 5558SOL     OW17572   5.413   2.400   4.686
 5558SOL    HW117573   5.371   2.330   4.628
 5558SOL    HW217574   5.410   2.489   4.639
 5559SOL     OW17575   1.705   0.122   1.104
 5559SOL    HW117576   1.739   0.202   1.152
 5559SOL    HW217577   1.782   0.067   1.071
 5560SOL     OW17578   0.417   0.328   4.114
 5560SOL    HW117579   0.412   0.345   4.016
 5560SOL    HW217580   0.511   0.343   4.146
 5561SOL     OW17581   1.549   3.528   3.471
 5561SOL    HW117582   1.503   3.613   3.444
 5561SOL    HW217583   1.647   3.537   3.453
 5562SOL     OW17584   2.208   2.355   5.907
 5562SOL    HW117585   2.159   2.441   5.921
 5562SOL    HW217586   2.206   2.302   5.992
 5563SOL     OW17587   4.017   4.871   1.291
 5563SOL    HW117588   4.007   4.794   1.353
 5563SOL    HW217589   4.056   4.949   1.341
 5564SOL     OW17590   6.229   4.440   1.259
 5564SOL    HW117591   6.134   4.409   1.257
 5564SOL    HW217592   6.250   4.487   1.173
 5565SOL     OW17593   2.521   3.289   5.688
 5565SOL    HW117594   2.621   3.291   5.686
 5565SOL    HW217595   2.487   3.254   5.600
 5566SOL     OW17596   2.015   4.378   1.111
 5566SOL    HW117597   2.057   4.375   1.020
 5566SOL    HW217598   1.935   4.439   1.109
 5567SOL     OW17599   1.675   6.004   2.153
 5567SOL    HW117600   1.744   5.935   2.174
 5567SOL    HW217601   1.604   5.963   2.094
 5568SOL     OW17602   3.732   1.608   1.125
 5568SOL    HW117603   3.741   1.661   1.210
 5568SOL    HW217604   3.821   1.570   1.100
 5569SOL     OW17605   5.843   2.257   0.083
 5569SOL    HW117606   5.874   2.166   0.054
 5569SOL    HW217607   5.770   2.288   0.021
 5570SOL     OW17608   6.835   4.017   5.605
 5570SOL    HW117609   6.749   4.046   5.564
 5570SOL    HW217610   6.817   3.956   5.682
 5571SOL     OW17611   6.552   4.618   6.212
 5571SOL    HW117612   6.587   4.589   6.301
 5571SOL    HW217613   6.620   4.601   6.142
 5572SOL     OW17614   5.414   2.660   5.628
 5572SOL    HW117615   5.500   2.671   5.679
 5572SOL    HW217616   5.338   2.648   5.692
 5573SOL     OW17617   1.084   3.870   0.503
 5573SOL    HW117618   1.020   3.925   0.556
 5573SOL    HW217619   1.106   3.787   0.553
 5574SOL     OW17620   0.572   6.023   4.674
 5574SOL    HW117621   0.472   6.030   4.664
 5574SOL    HW217622   0.611   6.114   4.684
 5575SOL     OW17623   1.696   0.949   1.441
 5575SOL    HW117624   1.777   0.948   1.382
 5575SOL    HW217625   1.724   0.946   1.537
 5576SOL     OW17626   6.227   6.116   0.351
 5576SOL    HW117627   6.314   6.134   0.398
 5576SOL    HW217628   6.233   6.027   0.305
 5577SOL     OW17629   2.370   3.760   5.348
 5577SOL    HW117630   2.388   3.831   5.279
 5577SOL    HW217631   2.294   3.788   5.407
 5578SOL     OW17632   4.033   1.690   6.036
 5578SOL    HW117633   3.945   1.647   6.015
 5578SOL    HW217634   4.018   1.785   6.063
 5579SOL     OW17635   5.057   4.513   0.821
 5579SOL    HW117636   5.011   4.427   0.797
 5579SOL    HW217637   5.043   4.531   0.918
 5580SOL     OW17638   5.526   0.783   1.541
 5580SOL    HW117639   5.471   0.743   1.614
 5580SOL    HW217640   5.527   0.721   1.462
 5581SOL     OW17641   2.784   2.545   0.615
 5581SOL    HW117642   2.865   2.598   0.590
 5581SOL    HW217643   2.805   2.448   0.611
 5582SOL     OW17644   3.786   3.492   3.267
 5582SOL    HW117645   3.859   3.425   3.274
 5582SOL    HW217646   3.804   3.553   3.190
 5583SOL     OW17647   3.551   0.612   0.445
 5583SOL    HW117648   3.492   0.554   0.389
 5583SOL    HW217649   3.618   0.555   0.492
 5584SOL     OW17650   5.811   2.970   2.657
 5584SOL    HW117651   5.724   3.018   2.648
 5584SOL    HW217652   5.881   3.016   2.602
 5585SOL     OW17653   0.093   6.661   4.284
 5585SOL    HW117654   0.106   6.596   4.209
 5585SOL    HW217655   0.167   6.650   4.351
 5586SOL     OW17656   2.344   1.583   6.412
 5586SOL    HW117657   2.430   1.634   6.404
 5586SOL    HW217658   2.271   1.634   6.366
 5587SOL     OW17659   3.570   0.247   3.995
 5587SOL    HW117660   3.644   0.312   4.013
 5587SOL    HW217661   3.492   0.295   3.956
 5588SOL     OW17662   4.129   7.003   5.980
 5588SOL    HW117663   4.070   0.052   5.932
 5588SOL    HW217664   4.078   6.919   5.997
 5589SOL     OW17665   3.401   3.252   6.639
 5589SOL    HW117666   3.384   3.317   6.713
 5589SOL    HW217667   3.366   3.162   6.666
 5590SOL     OW17668   6.983   6.559   3.225
 5590SOL    HW117669   6.899   6.526   3.183
 5590SOL    HW217670   6.974   6.556   3.324
 5591SOL     OW17671   4.629   0.699   0.096
 5591SOL    HW117672   4.717   0.660   0.071
 5591SOL    HW217673   4.591   0.649   0.173
 5592SOL     OW17674   2.616   2.438   2.650
 5592SOL    HW117675   2.677   2.399   2.582
 5592SOL    HW217676   2.562   2.366   2.692
 5593SOL     OW17677   1.761   3.273   5.124
 5593SOL    HW117678   1.835   3.279   5.057
 5593SOL    HW217679   1.697   3.349   5.110
 5594SOL     OW17680   2.313   1.074   6.592
 5594SOL    HW117681   2.318   0.978   6.619
 5594SOL    HW217682   2.265   1.082   6.505
 5595SOL     OW17683   0.095   1.701   5.766
 5595SOL    HW117684   0.076   1.605   5.784
 5595SOL    HW217685   0.009   1.751   5.755
 5596SOL     OW17686   4.885   1.379   2.956
 5596SOL    HW117687   4.838   1.291   2.953
 5596SOL    HW217688   4.972   1.372   2.906
 5597SOL     OW17689   0.128   0.950   6.161
 5597SOL    HW117690   0.197   0.917   6.096
 5597SOL    HW217691   0.097   1.040   6.132
 5598SOL     OW17692   6.887   2.528   4.506
 5598SOL    HW117693   6.929   2.497   4.421
 5598SOL    HW217694   6.943   2.501   4.584
 5599SOL     OW17695   4.798   2.807   3.371
 5599SOL    HW117696   4.718   2.761   3.409
 5599SOL    HW217697   4.859   2.741   3.328
 5600SOL     OW17698   2.365   1.727   1.881
 5600SOL    HW117699   2.292   1.684   1.933
 5600SOL    HW217700   2.355   1.826   1.885
 5601SOL     OW17701   6.301   2.835   5.809
 5601SOL    HW117702   6.279   2.741   5.837
 5601SOL    HW217703   6.272   2.849   5.715
 5602SOL     OW17704   6.184   2.470   2.572
 5602SOL    HW117705   6.118   2.414   2.624
 5602SOL    HW217706   6.206   2.424   2.486
 5603SOL     OW17707   4.506   1.243   5.653
 5603SOL    HW117708   4.516   1.342   5.643
 5603SOL    HW217709   4.421   1.214   5.609
 5604SOL     OW17710   1.299   6.805   3.076
 5604SOL    HW117711   1.331   6.900   3.072
 5604SOL    HW217712   1.342   6.753   3.002
 5605SOL     OW17713   4.288   6.971   4.323
 5605SOL    HW117714   4.188   6.974   4.324
 5605SOL    HW217715   4.319   6.914   4.246
 5606SOL     OW17716   4.885   3.254   0.406
 5606SOL    HW117717   4.919   3.173   0.453
 5606SOL    HW217718   4.832   3.310   0.469
 5607SOL     OW17719   6.783   2.477   3.462
 5607SOL    HW117720   6.737   2.429   3.537
 5607SOL    HW217721   6.814   2.412   3.394
 5608SOL     OW17722   5.122   0.862   3.280
 5608SOL    HW117723   5.155   0.951   3.249
 5608SOL    HW217724   5.198   0.807   3.314
 5609SOL     OW17725   6.723   0.488   0.921
 5609SOL    HW117726   6.749   0.442   0.836
 5609SOL    HW217727   6.805   0.512   0.973
 5610SOL     OW17728   5.167   5.442   0.916
 5610SOL    HW117729   5.237   5.416   0.850
 5610SOL    HW217730   5.078   5.408   0.884
 5611SOL     OW17731   6.115   5.040   1.757
 5611SOL    HW117732   6.119   4.940   1.762
 5611SOL    HW217733   6.019   5.069   1.749
 5612SOL     OW17734   3.797   2.027   6.959
 5612SOL    HW117735   3.802   2.050   6.862
 5612SOL    HW217736   3.724   2.080   7.003
 5613SOL     OW17737   6.005   4.945   6.304
 5613SOL    HW117738   6.003   5.041   6.330
 5613SOL    HW217739   6.009   4.888   6.386
 5614SOL     OW17740   4.823   3.001   3.901
 5614SOL    HW117741   4.917   2.973   3.920
 5614SOL    HW217742   4.795   2.967   3.812
 5615SOL     OW17743   0.287   2.852   3.226
 5615SOL    HW117744   0.213   2.848   3.294
 5615SOL    HW217745   0.322   2.945   3.222
 5616SOL     OW17746   1.797   3.296   2.352
 5616SOL    HW117747   1.840   3.206   2.357
 5616SOL    HW217748   1.721   3.300   2.417
 5617SOL     OW17749   1.283   5.289   6.393
 5617SOL    HW117750   1.275   5.264   6.489
 5617SOL    HW217751   1.376   5.324   6.375
 5618SOL     OW17752   5.255   6.908   2.154
 5618SOL    HW117753   5.187   6.946   2.218
 5618SOL    HW217754   5.314   6.844   2.202
 5619SOL     OW17755   3.563   3.175   3.552
 5619SOL    HW117756   3.634   3.155   3.484
 5619SOL    HW217757   3.547   3.094   3.608
 5620SOL     OW17758   4.847   4.726   4.167
 5620SOL    HW117759   4.909   4.785   4.219
 5620SOL    HW217760   4.771   4.699   4.226
 5621SOL     OW17761   7.005   2.513   6.464
 5621SOL    HW117762   0.084   2.492   6.441
 5621SOL    HW217763   6.972   2.449   6.533
 5622SOL     OW17764   4.617   5.721   3.841
 5622SOL    HW117765   4.696   5.672   3.879
 5622SOL    HW217766   4.551   5.738   3.914
 5623SOL     OW17767   4.969   4.757   4.667
 5623SOL    HW117768   4.976   4.721   4.573
 5623SOL    HW217769   5.011   4.847   4.671
 5624SOL     OW17770   5.040   4.710   3.326
 5624SOL    HW117771   5.112   4.684   3.390
 5624SOL    HW217772   5.049   4.656   3.242
 5625SOL     OW17773   2.137   6.179   6.073
 5625SOL    HW117774   2.068   6.237   6.028
 5625SOL    HW217775   2.166   6.107   6.010
 5626SOL     OW17776   0.937   4.102   6.616
 5626SOL    HW117777   1.032   4.101   6.648
 5626SOL    HW217778   0.876   4.114   6.695
 5627SOL     OW17779   1.011   5.378   6.892
 5627SOL    HW117780   0.999   5.363   6.990
 5627SOL    HW217781   1.047   5.469   6.876
 5628SOL     OW17782   2.471   3.434   0.569
 5628SOL    HW117783   2.385   3.439   0.518
 5628SOL    HW217784   2.473   3.505   0.639
 5629SOL     OW17785   6.156   3.533   2.478
 5629SOL    HW117786   6.084   3.498   2.418
 5629SOL    HW217787   6.166   3.473   2.557
 5630SOL     OW17788   1.143   3.863   7.012
 5630SOL    HW117789   1.044   3.859   6.999
 5630SOL    HW217790   1.169   3.956   0.023
 5631SOL     OW17791   3.826   1.502   2.063
 5631SOL    HW117792   3.751   1.511   1.998
 5631SOL    HW217793   3.848   1.591   2.102
 5632SOL     OW17794   4.927   6.668   5.921
 5632SOL    HW117795   4.854   6.737   5.910
 5632SOL    HW217796   4.915   6.596   5.853
 5633SOL     OW17797   1.106   5.662   5.356
 5633SOL    HW117798   1.111   5.613   5.269
 5633SOL    HW217799   1.041   5.616   5.417
 5634SOL     OW17800   2.682   0.715   1.063
 5634SOL    HW117801   2.720   0.807   1.067
 5634SOL    HW217802   2.637   0.694   1.150
 5635SOL     OW17803   3.226   0.851   1.222
 5635SOL    HW117804   3.236   0.761   1.264
 5635SOL    HW217805   3.286   0.916   1.268
 5636SOL     OW17806   5.026   1.432   5.752
 5636SOL    HW117807   4.946   1.397   5.800
 5636SOL    HW217808   5.024   1.402   5.657
 5637SOL     OW17809   5.163   6.664   4.708
 5637SOL    HW117810   5.098   6.712   4.767
 5637SOL    HW217811   5.141   6.567   4.706
 5638SOL     OW17812   6.315   5.235   1.122
 5638SOL    HW117813   6.403   5.283   1.131
 5638SOL    HW217814   6.266   5.242   1.209
 5639SOL     OW17815   2.349   0.396   1.830
 5639SOL    HW117816   2.263   0.388   1.778
 5639SOL    HW217817   2.418   0.439   1.772
 5640SOL     OW17818   3.100   0.362   2.783
 5640SOL    HW117819   3.114   0.372   2.685
 5640SOL    HW217820   3.158   0.288   2.818
 5641SOL     OW17821   6.478   4.314   3.508
 5641SOL    HW117822   6.543   4.373   3.555
 5641SOL    HW217823   6.525   4.233   3.474
 5642SOL     OW17824   2.095   3.358   6.756
 5642SOL    HW117825   2.143   3.345   6.669
 5642SOL    HW217826   2.093   3.456   6.779
 5643SOL     OW17827   5.218   2.511   4.916
 5643SOL    HW117828   5.300   2.489   4.864
 5643SOL    HW217829   5.225   2.605   4.952
 5644SOL     OW17830   4.515   0.735   5.013
 5644SOL    HW117831   4.469   0.689   5.090
 5644SOL    HW217832   4.614   0.732   5.027
 5645SOL     OW17833   6.577   5.529   3.924
 5645SOL    HW117834   6.602   5.496   4.015
 5645SOL    HW217835   6.501   5.593   3.932
 5646SOL     OW17836   0.197   6.384   3.832
 5646SOL    HW117837   0.229   6.303   3.784
 5646SOL    HW217838   0.251   6.397   3.915
 5647SOL     OW17839   6.039   5.341   6.016
 5647SOL    HW117840   6.005   5.388   6.098
 5647SOL    HW217841   5.962   5.301   5.966
 5648SOL     OW17842   1.920   1.388   5.065
 5648SOL    HW117843   1.963   1.301   5.093
 5648SOL    HW217844   1.942   1.407   4.970
 5649SOL     OW17845   1.497   0.298   4.910
 5649SOL    HW117846   1.451   0.374   4.865
 5649SOL    HW217847   1.572   0.265   4.852
 5650SOL     OW17848   6.788   4.909   0.220
 5650SOL    HW117849   6.709   4.963   0.192
 5650SOL    HW217850   6.819   4.853   0.142
 5651SOL     OW17851   6.638   1.348   2.917
 5651SOL    HW117852   6.552   1.374   2.874
 5651SOL    HW217853   6.691   1.430   2.940
 5652SOL     OW17854   5.292   4.396   0.142
 5652SOL    HW117855   5.349   4.477   0.141
 5652SOL    HW217856   5.343   4.318   0.105
 5653SOL     OW17857   1.979   6.159   6.491
 5653SOL    HW117858   2.054   6.179   6.428
 5653SOL    HW217859   1.909   6.106   6.444
 5654SOL     OW17860   0.894   5.503   6.010
 5654SOL    HW117861   0.830   5.453   6.068
 5654SOL    HW217862   0.978   5.521   6.061
 5655SOL     OW17863   0.188   4.119   3.581
 5655SOL    HW117864   0.157   4.109   3.676
 5655SOL    HW217865   0.220   4.031   3.547
 5656SOL     OW17866   3.024   4.718   6.232
 5656SOL    HW117867   3.041   4.687   6.139
 5656SOL    HW217868   3.088   4.791   6.256
 5657SOL     OW17869   4.107   5.953   1.599
 5657SOL    HW117870   4.168   5.969   1.676
 5657SOL    HW217871   4.099   6.036   1.544
 5658SOL     OW17872   4.902   6.873   5.382
 5658SOL    HW117873   4.858   6.952   5.340
 5658SOL    HW217874   4.864   6.789   5.343
 5659SOL     OW17875   3.545   3.472   2.742
 5659SOL    HW117876   3.477   3.412   2.699
 5659SOL    HW217877   3.521   3.568   2.724
 5660SOL     OW17878   6.141   0.032   0.858
 5660SOL    HW117879   6.054   0.051   0.812
 5660SOL    HW217880   6.198   0.114   0.858
 5661SOL     OW17881   6.483   6.179   4.818
 5661SOL    HW117882   6.530   6.228   4.891
 5661SOL    HW217883   6.510   6.083   4.820
 5662SOL     OW17884   2.187   3.765   4.170
 5662SOL    HW117885   2.159   3.670   4.181
 5662SOL    HW217886   2.159   3.798   4.080
 5663SOL     OW17887   1.600   3.800   0.539
 5663SOL    HW117888   1.570   3.836   0.627
 5663SOL    HW217889   1.522   3.796   0.476
 5664SOL     OW17890   6.899   4.870   2.871
 5664SOL    HW117891   6.937   4.958   2.845
 5664SOL    HW217892   6.839   4.882   2.950
 5665SOL     OW17893   2.240   1.678   6.141
 5665SOL    HW117894   2.192   1.592   6.125
 5665SOL    HW217895   2.318   1.684   6.079
 5666SOL     OW17896   6.033   5.158   0.625
 5666SOL    HW117897   6.016   5.213   0.543
 5666SOL    HW217898   6.116   5.104   0.611
 5667SOL     OW17899   0.319   5.462   3.609
 5667SOL    HW117900   0.243   5.469   3.673
 5667SOL    HW217901   0.292   5.498   3.520
 5668SOL     OW17902   6.045   2.659   5.415
 5668SOL    HW117903   6.051   2.747   5.369
 5668SOL    HW217904   5.961   2.612   5.387
 5669SOL     OW17905   6.703   3.169   5.272
 5669SOL    HW117906   6.605   3.159   5.286
 5669SOL    HW217907   6.722   3.185   5.175
 5670SOL     OW17908   1.973   4.219   3.632
 5670SOL    HW117909   1.915   4.176   3.702
 5670SOL    HW217910   1.965   4.318   3.639
 5671SOL     OW17911   1.612   1.168   5.247
 5671SOL    HW117912   1.613   1.070   5.230
 5671SOL    HW217913   1.706   1.203   5.251
 5672SOL     OW17914   5.571   4.207   5.881
 5672SOL    HW117915   5.566   4.246   5.789
 5672SOL    HW217916   5.625   4.123   5.878
 5673SOL     OW17917   1.605   0.267   1.827
 5673SOL    HW117918   1.670   0.196   1.854
 5673SOL    HW217919   1.611   0.344   1.891
 5674SOL     OW17920   6.579   3.532   1.051
 5674SOL    HW117921   6.659   3.502   1.103
 5674SOL    HW217922   6.530   3.602   1.102
 5675SOL     OW17923   4.088   1.942   5.763
 5675SOL    HW117924   4.155   2.004   5.722
 5675SOL    HW217925   4.005   1.993   5.786
 5676SOL     OW17926   3.243   6.864   1.376
 5676SOL    HW117927   3.145   6.879   1.388
 5676SOL    HW217928   3.262   6.846   1.280
 5677SOL     OW17929   0.170   0.171   4.096
 5677SOL    HW117930   0.146   0.212   4.008
 5677SOL    HW217931   0.270   0.168   4.105
 5678SOL     OW17932   2.049   5.285   3.294
 5678SOL    HW117933   2.026   5.188   3.298
 5678SOL    HW217934   2.145   5.295   3.269
 5679SOL     OW17935   2.456   5.943   5.337
 5679SOL    HW117936   2.415   5.901   5.255
 5679SOL    HW217937   2.548   5.906   5.351
 5680SOL     OW17938   2.254   6.916   6.159
 5680SOL    HW117939   2.198   6.833   6.162
 5680SOL    HW217940   2.200   6.993   6.194
 5681SOL     OW17941   1.047   3.501   0.950
 5681SOL    HW117942   1.017   3.417   0.996
 5681SOL    HW217943   1.145   3.496   0.932
 5682SOL     OW17944   0.872   3.347   3.963
 5682SOL    HW117945   0.922   3.282   3.905
 5682SOL    HW217946   0.901   3.336   4.057
 5683SOL     OW17947   3.736   2.490   5.321
 5683SOL    HW117948   3.636   2.490   5.330
 5683SOL    HW217949   3.769   2.584   5.311
 5684SOL     OW17950   3.056   3.980   3.319
 5684SOL    HW117951   3.086   4.074   3.305
 5684SOL    HW217952   3.024   3.970   3.414
 5685SOL     OW17953   0.412   5.163   2.162
 5685SOL    HW117954   0.373   5.109   2.087
 5685SOL    HW217955   0.376   5.256   2.158
 5686SOL     OW17956   3.356   5.824   6.922
 5686SOL    HW117957   3.329   5.913   6.884
 5686SOL    HW217958   3.456   5.820   6.929
 5687SOL     OW17959   4.605   5.627   5.595
 5687SOL    HW117960   4.528   5.677   5.636
 5687SOL    HW217961   4.690   5.652   5.641
 5688SOL     OW17962   5.957   1.916   2.131
 5688SOL    HW117963   6.010   1.915   2.046
 5688SOL    HW217964   5.973   1.831   2.181
 5689SOL     OW17965   4.086   2.525   0.367
 5689SOL    HW117966   4.040   2.469   0.298
 5689SOL    HW217967   4.134   2.466   0.431
 5690SOL     OW17968   4.934   6.638   1.564
 5690SOL    HW117969   4.978   6.562   1.613
 5690SOL    HW217970   4.872   6.601   1.495
 5691SOL     OW17971   2.040   0.305   2.158
 5691SOL    HW117972   2.134   0.314   2.191
 5691SOL    HW217973   2.018   0.209   2.147
 5692SOL     OW17974   5.441   2.920   0.047
 5692SOL    HW117975   5.528   2.957   0.013
 5692SOL    HW217976   5.416   2.839   7.010
 5693SOL     OW17977   4.585   2.647   3.426
 5693SOL    HW117978   4.512   2.690   3.373
 5693SOL    HW217979   4.544   2.592   3.499
 5694SOL     OW17980   0.395   1.491   4.239
 5694SOL    HW117981   0.368   1.586   4.257
 5694SOL    HW217982   0.452   1.458   4.315
 5695SOL     OW17983   2.109   3.592   3.394
 5695SOL    HW117984   2.084   3.532   3.318
 5695SOL    HW217985   2.116   3.538   3.478
 5696SOL     OW17986   3.167   6.852   5.469
 5696SOL    HW117987   3.179   6.944   5.431
 5696SOL    HW217988   3.139   6.790   5.396
 5697SOL     OW17989   6.973   3.159   0.033
 5697SOL    HW117990   6.979   3.258   0.050
 5697SOL    HW217991   6.962   3.143   6.952
 5698SOL     OW17992   0.466   4.180   2.167
 5698SOL    HW117993   0.498   4.096   2.211
 5698SOL    HW217994   0.476   4.257   2.230
 5699SOL     OW17995   6.023   1.076   5.045
 5699SOL    HW117996   5.949   1.092   5.109
 5699SOL    HW217997   5.998   1.002   4.982
 5700SOL     OW17998   1.204   5.501   3.810
 5700SOL    HW117999   1.106   5.482   3.802
 5700SOL    HW218000   1.217   5.593   3.846
 5701SOL     OW18001   5.833   5.150   1.761
 5701SOL    HW118002   5.765   5.096   1.713
 5701SOL    HW218003   5.788   5.212   1.825
 5702SOL     OW18004   1.720   0.261   5.986
 5702SOL    HW118005   1.711   0.174   5.937
 5702SOL    HW218006   1.730   0.243   6.084
 5703SOL     OW18007   3.886   4.349   0.845
 5703SOL    HW118008   3.888   4.356   0.746
 5703SOL    HW218009   3.979   4.337   0.880
 5704SOL     OW18010   3.764   5.619   3.394
 5704SOL    HW118011   3.858   5.652   3.380
 5704SOL    HW218012   3.708   5.693   3.431
 5705SOL     OW18013   6.509   1.680   2.032
 5705SOL    HW118014   6.413   1.670   2.005
 5705SOL    HW218015   6.519   1.659   2.129
 5706SOL     OW18016   2.066   1.151   6.724
 5706SOL    HW118017   2.133   1.136   6.651
 5706SOL    HW218018   2.072   1.077   6.791
 5707SOL     OW18019   3.496   2.497   6.238
 5707SOL    HW118020   3.515   2.416   6.294
 5707SOL    HW218021   3.403   2.491   6.202
 5708SOL     OW18022   5.445   6.706   2.198
 5708SOL    HW118023   5.485   6.627   2.243
 5708SOL    HW218024   5.514   6.753   2.144
 5709SOL     OW18025   1.151   1.036   2.727
 5709SOL    HW118026   1.086   0.964   2.751
 5709SOL    HW218027   1.230   1.033   2.788
 5710SOL     OW18028   3.134   3.690   6.266
 5710SOL    HW118029   3.176   3.678   6.176
 5710SOL    HW218030   3.196   3.741   6.325
 5711SOL     OW18031   4.036   0.976   4.227
 5711SOL    HW118032   4.098   0.946   4.301
 5711SOL    HW218033   3.981   0.898   4.197
 5712SOL     OW18034   6.497   5.956   6.551
 5712SOL    HW118035   6.432   5.966   6.476
 5712SOL    HW218036   6.533   6.045   6.577
 5713SOL     OW18037   6.859   2.325   3.244
 5713SOL    HW118038   6.948   2.322   3.290
 5713SOL    HW218039   6.873   2.333   3.145
 5714SOL     OW18040   1.879   0.776   6.812
 5714SOL    HW118041   1.948   0.846   6.830
 5714SOL    HW218042   1.799   0.791   6.870
 5715SOL     OW18043   1.823   0.016   3.136
 5715SOL    HW118044   1.779   0.098   3.174
 5715SOL    HW218045   1.823   0.021   3.036
 5716SOL     OW18046   2.205   2.834   5.948
 5716SOL    HW118047   2.260   2.778   5.886
 5716SOL    HW218048   2.263   2.871   6.020
 5717SOL     OW18049   0.775   3.856   0.644
 5717SOL    HW118050   0.834   3.804   0.707
 5717SOL    HW218051   0.764   3.804   0.559
 5718SOL     OW18052   2.387   4.623   5.425
 5718SOL    HW118053   2.453   4.568   5.374
 5718SOL    HW218054   2.345   4.568   5.497
 5719SOL     OW18055   3.028   0.894   6.249
 5719SOL    HW118056   3.018   0.959   6.324
 5719SOL    HW218057   3.115   0.912   6.201
 5720SOL     OW18058   1.634   4.736   4.447
 5720SOL    HW118059   1.659   4.711   4.540
 5720SOL    HW218060   1.584   4.823   4.448
 5721SOL     OW18061   0.896   4.956   1.663
 5721SOL    HW118062   0.839   5.000   1.732
 5721SOL    HW218063   0.910   4.860   1.687
 5722SOL     OW18064   5.314   6.993   4.089
 5722SOL    HW118065   5.215   7.007   4.085
 5722SOL    HW218066   5.352   0.029   4.166
 5723SOL     OW18067   1.881   4.843   0.949
 5723SOL    HW118068   1.978   4.825   0.968
 5723SOL    HW218069   1.859   4.938   0.972
 5724SOL     OW18070   5.231   1.615   6.821
 5724SOL    HW118071   5.287   1.659   6.891
 5724SOL    HW218072   5.235   1.670   6.737
 5725SOL     OW18073   5.109   5.566   6.321
 5725SOL    HW118074   5.058   5.646   6.351
 5725SOL    HW218075   5.091   5.548   6.224
 5726SOL     OW18076   5.318   3.342   6.257
 5726SOL    HW118077   5.322   3.261   6.199
 5726SOL    HW218078   5.330   3.315   6.353
 5727SOL     OW18079   6.267   1.737   3.860
 5727SOL    HW118080   6.301   1.658   3.911
 5727SOL    HW218081   6.248   1.709   3.765
 5728SOL     OW18082   6.336   0.625   6.325
 5728SOL    HW118083   6.371   0.579   6.243
 5728SOL    HW218084   6.406   0.623   6.397
 5729SOL     OW18085   0.606   2.586   5.819
 5729SOL    HW118086   0.535   2.580   5.889
 5729SOL    HW218087   0.694   2.559   5.858
 5730SOL     OW18088   4.992   4.697   6.459
 5730SOL    HW118089   5.047   4.629   6.410
 5730SOL    HW218090   4.913   4.722   6.402
 5731SOL     OW18091   3.517   1.175   4.113
 5731SOL    HW118092   3.596   1.144   4.165
 5731SOL    HW218093   3.434   1.157   4.165
 5732SOL     OW18094   5.566   4.192   4.487
 5732SOL    HW118095   5.488   4.129   4.483
 5732SOL    HW218096   5.558   4.259   4.413
 5733SOL     OW18097   3.064   0.783   0.509
 5733SOL    HW118098   3.155   0.801   0.471
 5733SOL    HW218099   3.032   0.865   0.556
 5734SOL     OW18100   2.425   6.279   6.494
 5734SOL    HW118101   2.511   6.330   6.502
 5734SOL    HW218102   2.358   6.315   6.559
 5735SOL     OW18103   4.452   0.363   1.952
 5735SOL    HW118104   4.466   0.418   2.035
 5735SOL    HW218105   4.358   0.329   1.950
 5736SOL     OW18106   5.023   4.132   6.984
 5736SOL    HW118107   4.948   4.067   6.975
 5736SOL    HW218108   5.021   4.174   0.058
 5737SOL     OW18109   3.924   5.406   1.058
 5737SOL    HW118110   3.961   5.481   1.112
 5737SOL    HW218111   3.951   5.418   0.962
 5738SOL     OW18112   2.911   0.919   0.238
 5738SOL    HW118113   2.843   0.875   0.179
 5738SOL    HW218114   2.936   1.007   0.199
 5739SOL     OW18115   2.258   0.691   6.071
 5739SOL    HW118116   2.189   0.748   6.116
 5739SOL    HW218117   2.344   0.742   6.063
 5740SOL     OW18118   5.300   3.280   2.313
 5740SOL    HW118119   5.398   3.269   2.299
 5740SOL    HW218120   5.282   3.295   2.410
 5741SOL     OW18121   0.338   3.283   4.203
 5741SOL    HW118122   0.345   3.366   4.148
 5741SOL    HW218123   0.267   3.295   4.273
 5742SOL     OW18124   5.122   0.291   3.700
 5742SOL    HW118125   5.137   0.202   3.658
 5742SOL    HW218126   5.094   0.357   3.629
 5743SOL     OW18127   4.162   4.273   6.679
 5743SOL    HW118128   4.139   4.189   6.727
 5743SOL    HW218129   4.092   4.342   6.697
 5744SOL     OW18130   5.468   6.750   2.882
 5744SOL    HW118131   5.419   6.748   2.969
 5744SOL    HW218132   5.405   6.729   2.807
 5745SOL     OW18133   1.967   2.115   2.224
 5745SOL    HW118134   1.909   2.191   2.251
 5745SOL    HW218135   1.935   2.031   2.269
 5746SOL     OW18136   4.387   0.192   3.361
 5746SOL    HW118137   4.326   0.149   3.295
 5746SOL    HW218138   4.350   0.280   3.390
 5747SOL     OW18139   0.672   6.189   0.739
 5747SOL    HW118140   0.721   6.176   0.825
 5747SOL    HW218141   0.692   6.113   0.677
 5748SOL     OW18142   0.399   5.778   0.751
 5748SOL    HW118143   0.365   5.872   0.760
 5748SOL    HW218144   0.333   5.724   0.699
 5749SOL     OW18145   1.928   5.947   5.937
 5749SOL    HW118146   2.025   5.965   5.919
 5749SOL    HW218147   1.872   5.995   5.870
 5750SOL     OW18148   6.110   4.325   3.686
 5750SOL    HW118149   6.136   4.341   3.781
 5750SOL    HW218150   6.011   4.331   3.677
 5751SOL     OW18151   1.743   3.560   4.484
 5751SOL    HW118152   1.840   3.544   4.503
 5751SOL    HW218153   1.732   3.595   4.391
 5752SOL     OW18154   4.732   0.661   0.648
 5752SOL    HW118155   4.731   0.654   0.549
 5752SOL    HW218156   4.663   0.599   0.687
 5753SOL     OW18157   3.938   3.991   5.091
 5753SOL    HW118158   3.843   3.967   5.111
 5753SOL    HW218159   3.951   3.996   4.992
 5754SOL     OW18160   0.965   5.990   1.229
 5754SOL    HW118161   0.968   5.942   1.316
 5754SOL    HW218162   0.944   6.087   1.244
 5755SOL     OW18163   1.129   2.604   6.744
 5755SOL    HW118164   1.182   2.537   6.796
 5755SOL    HW218165   1.147   2.592   6.646
 5756SOL     OW18166   5.968   6.245   1.232
 5756SOL    HW118167   6.012   6.229   1.321
 5756SOL    HW218168   5.901   6.319   1.241
 5757SOL     OW18169   6.156   0.156   4.458
 5757SOL    HW118170   6.064   0.173   4.494
 5757SOL    HW218171   6.207   0.099   4.523
 5758SOL     OW18172   6.589   0.231   2.896
 5758SOL    HW118173   6.491   0.232   2.875
 5758SOL    HW218174   6.625   0.324   2.891
 5759SOL     OW18175   4.038   0.189   1.260
 5759SOL    HW118176   3.947   0.229   1.276
 5759SOL    HW218177   4.077   0.229   1.177
 5760SOL     OW18178   0.612   3.064   1.370
 5760SOL    HW118179   0.696   3.023   1.404
 5760SOL    HW218180   0.535   3.002   1.383
 5761SOL     OW18181   5.436   6.701   4.801
 5761SOL    HW118182   5.416   6.737   4.892
 5761SOL    HW218183   5.353   6.702   4.745
 5762SOL     OW18184   6.254   5.706   6.835
 5762SOL    HW118185   6.166   5.730   6.877
 5762SOL    HW218186   6.275   5.610   6.856
 5763SOL     OW18187   5.991   0.036   0.066
 5763SOL    HW118188   6.006   0.045   6.984
 5763SOL    HW218189   6.042   6.974   0.101
 5764SOL     OW18190   4.535   6.239   4.241
 5764SOL    HW118191   4.451   6.207   4.284
 5764SOL    HW218192   4.515   6.270   4.148
 5765SOL     OW18193   6.887   4.982   1.620
 5765SOL    HW118194   6.943   5.039   1.680
 5765SOL    HW218195   6.790   5.007   1.631
 5766SOL     OW18196   0.065   1.834   4.421
 5766SOL    HW118197   0.026   1.797   4.506
 5766SOL    HW218198   0.164   1.835   4.427
 5767SOL     OW18199   2.841   0.162   0.352
 5767SOL    HW118200   2.848   0.169   0.253
 5767SOL    HW218201   2.758   0.111   0.376
 5768SOL     OW18202   0.821   6.879   4.798
 5768SOL    HW118203   0.787   6.788   4.776
 5768SOL    HW218204   0.770   6.947   4.746
 5769SOL     OW18205   1.406   4.224   6.592
 5769SOL    HW118206   1.369   4.160   6.524
 5769SOL    HW218207   1.459   4.295   6.546
 5770SOL     OW18208   2.192   5.074   1.522
 5770SOL    HW118209   2.287   5.100   1.540
 5770SOL    HW218210   2.166   5.002   1.586
 5771SOL     OW18211   2.266   5.264   3.616
 5771SOL    HW118212   2.317   5.325   3.677
 5771SOL    HW218213   2.187   5.314   3.579
 5772SOL     OW18214   3.496   0.951   2.029
 5772SOL    HW118215   3.429   0.972   2.100
 5772SOL    HW218216   3.457   0.885   1.964
 5773SOL     OW18217   4.351   1.762   2.972
 5773SOL    HW118218   4.276   1.827   2.981
 5773SOL    HW218219   4.348   1.721   2.880
 5774SOL     OW18220   0.200   6.597   2.579
 5774SOL    HW118221   0.191   6.685   2.532
 5774SOL    HW218222   0.294   6.565   2.571
 5775SOL     OW18223   6.900   5.825   2.013
 5775SOL    HW118224   6.964   5.810   1.938
 5775SOL    HW218225   6.884   5.923   2.024
 5776SOL     OW18226   2.551   0.550   3.875
 5776SOL    HW118227   2.588   0.603   3.798
 5776SOL    HW218228   2.473   0.496   3.843
 5777SOL     OW18229   1.736   6.146   2.838
 5777SOL    HW118230   1.671   6.103   2.775
 5777SOL    HW218231   1.731   6.100   2.927
 5778SOL     OW18232   0.554   1.242   0.266
 5778SOL    HW118233   0.536   1.264   0.362
 5778SOL    HW218234   0.617   1.310   0.228
 5779SOL     OW18235   6.057   2.108   6.251
 5779SOL    HW118236   6.024   2.194   6.212
 5779SOL    HW218237   6.030   2.103   6.347
 5780SOL     OW18238   5.070   5.677   3.721
 5780SOL    HW118239   4.992   5.620   3.697
 5780SOL    HW218240   5.088   5.743   3.648
 5781SOL     OW18241   0.610   4.236   5.601
 5781SOL    HW118242   0.598   4.151   5.651
 5781SOL    HW218243   0.663   4.220   5.518
 5782SOL     OW18244   0.303   1.227   0.567
 5782SOL    HW118245   0.273   1.286   0.493
 5782SOL    HW218246   0.401   1.242   0.585
 5783SOL     OW18247   1.691   1.620   1.543
 5783SOL    HW118248   1.790   1.609   1.539
 5783SOL    HW218249   1.654   1.562   1.616
 5784SOL     OW18250   0.170   6.633   6.515
 5784SOL    HW118251   0.245   6.680   6.562
 5784SOL    HW218252   0.180   6.644   6.416
 5785SOL     OW18253   1.690   1.248   1.125
 5785SOL    HW118254   1.769   1.273   1.181
 5785SOL    HW218255   1.608   1.290   1.163
 5786SOL     OW18256   6.234   4.194   0.987
 5786SOL    HW118257   6.261   4.101   0.960
 5786SOL    HW218258   6.256   4.208   1.083
 5787SOL     OW18259   2.866   2.039   5.658
 5787SOL    HW118260   2.776   2.067   5.692
 5787SOL    HW218261   2.857   2.011   5.562
 5788SOL     OW18262   2.871   1.050   2.993
 5788SOL    HW118263   2.928   1.001   3.059
 5788SOL    HW218264   2.775   1.040   3.018
 5789SOL     OW18265   4.331   5.042   6.287
 5789SOL    HW118266   4.252   4.989   6.318
 5789SOL    HW218267   4.326   5.135   6.324
 5790SOL     OW18268   0.506   2.709   3.848
 5790SOL    HW118269   0.544   2.753   3.930
 5790SOL    HW218270   0.440   2.771   3.805
 5791SOL     OW18271   2.525   0.711   2.770
 5791SOL    HW118272   2.524   0.616   2.800
 5791SOL    HW218273   2.469   0.721   2.688
 5792SOL     OW18274   0.233   2.568   3.300
 5792SOL    HW118275   0.158   2.602   3.243
 5792SOL    HW218276   0.260   2.640   3.365
 5793SOL     OW18277   6.681   0.883   3.811
 5793SOL    HW118278   6.780   0.867   3.810
 5793SOL    HW218279   6.636   0.812   3.865
 5794SOL     OW18280   3.862   3.810   6.933
 5794SOL    HW118281   3.845   3.712   6.923
 5794SOL    HW218282   3.950   3.824   6.979
 5795SOL     OW18283   6.318   4.206   6.134
 5795SOL    HW118284   6.301   4.300   6.105
 5795SOL    HW218285   6.230   4.158   6.142
 5796SOL     OW18286   3.555   1.569   6.918
 5796SOL    HW118287   3.611   1.647   6.948
 5796SOL    HW218288   3.562   1.560   6.819
 5797SOL     OW18289   3.309   1.850   4.760
 5797SOL    HW118290   3.328   1.930   4.818
 5797SOL    HW218291   3.217   1.859   4.721
 5798SOL     OW18292   0.086   4.631   4.817
 5798SOL    HW118293   7.003   4.621   4.814
 5798SOL    HW218294   0.110   4.725   4.791
 5799SOL     OW18295   5.553   0.117   3.877
 5799SOL    HW118296   5.621   0.175   3.922
 5799SOL    HW218297   5.463   0.135   3.918
 5800SOL     OW18298   5.794   4.811   0.455
 5800SOL    HW118299   5.794   4.903   0.415
 5800SOL    HW218300   5.710   4.798   0.507
 5801SOL     OW18301   1.562   0.826   3.685
 5801SOL    HW118302   1.524   0.834   3.778
 5801SOL    HW218303   1.540   0.736   3.648
 5802SOL     OW18304   0.372   3.976   5.894
 5802SOL    HW118305   0.299   3.990   5.960
 5802SOL    HW218306   0.339   3.998   5.802
 5803SOL     OW18307   0.861   4.951   0.970
 5803SOL    HW118308   0.947   4.953   1.020
 5803SOL    HW218309   0.786   4.979   1.031
 5804SOL     OW18310   6.037   4.212   4.531
 5804SOL    HW118311   6.035   4.134   4.468
 5804SOL    HW218312   6.131   4.241   4.545
 5805SOL     OW18313   5.139   3.554   6.493
 5805SOL    HW118314   5.077   3.476   6.488
 5805SOL    HW218315   5.232   3.521   6.514
 5806SOL     OW18316   0.441   6.504   6.978
 5806SOL    HW118317   0.472   6.535   6.887
 5806SOL    HW218318   0.486   6.418   7.000
 5807SOL     OW18319   1.877   3.280   1.413
 5807SOL    HW118320   1.872   3.181   1.426
 5807SOL    HW218321   1.947   3.301   1.344
 5808SOL     OW18322   5.969   4.188   2.257
 5808SOL    HW118323   5.949   4.112   2.195
 5808SOL    HW218324   6.001   4.152   2.344
 5809SOL     OW18325   6.989   3.475   4.395
 5809SOL    HW118326   0.044   3.408   4.416
 5809SOL    HW218327   7.014   3.563   4.433
 5810SOL     OW18328   2.460   1.821   2.556
 5810SOL    HW118329   2.530   1.778   2.612
 5810SOL    HW218330   2.427   1.904   2.601
 5811SOL     OW18331   2.933   0.556   4.268
 5811SOL    HW118332   2.976   0.554   4.177
 5811SOL    HW218333   2.979   0.492   4.328
 5812SOL     OW18334   4.733   0.355   3.889
 5812SOL    HW118335   4.722   0.357   3.790
 5812SOL    HW218336   4.714   0.445   3.927
 5813SOL     OW18337   1.590   0.891   5.297
 5813SOL    HW118338   1.616   0.801   5.262
 5813SOL    HW218339   1.490   0.900   5.296
 5814SOL     OW18340   6.685   5.014   1.358
 5814SOL    HW118341   6.666   5.028   1.455
 5814SOL    HW218342   6.679   5.102   1.310
 5815SOL     OW18343   4.103   1.698   3.252
 5815SOL    HW118344   4.027   1.745   3.296
 5815SOL    HW218345   4.148   1.639   3.318
 5816SOL     OW18346   4.491   0.851   0.469
 5816SOL    HW118347   4.484   0.788   0.546
 5816SOL    HW218348   4.444   0.812   0.390
 5817SOL     OW18349   5.038   3.073   5.525
 5817SOL    HW118350   4.992   3.071   5.614
 5817SOL    HW218351   4.974   3.045   5.454
 5818SOL     OW18352   5.915   6.895   6.362
 5818SOL    HW118353   6.014   6.885   6.349
 5818SOL    HW218354   5.869   6.896   6.273
 5819SOL     OW18355   5.541   0.579   1.357
 5819SOL    HW118356   5.640   0.590   1.362
 5819SOL    HW218357   5.512   0.581   1.262
 5820SOL     OW18358   5.381   6.260   3.320
 5820SOL    HW118359   5.450   6.333   3.323
 5820SOL    HW218360   5.290   6.301   3.322
 5821SOL     OW18361   3.088   0.727   2.185
 5821SOL    HW118362   3.031   0.807   2.163
 5821SOL    HW218363   3.071   0.699   2.279
 5822SOL     OW18364   6.942   1.536   2.407
 5822SOL    HW118365   0.020   1.561   2.386
 5822SOL    HW218366   6.883   1.565   2.331
 5823SOL     OW18367   1.959   2.023   4.411
 5823SOL    HW118368   1.962   1.975   4.324
 5823SOL    HW218369   1.970   2.121   4.396
 5824SOL     OW18370   5.571   6.873   3.376
 5824SOL    HW118371   5.587   6.971   3.366
 5824SOL    HW218372   5.645   6.822   3.331
 5825SOL     OW18373   2.066   0.403   6.930
 5825SOL    HW118374   2.027   0.336   6.993
 5825SOL    HW218375   2.162   0.419   6.954
 5826SOL     OW18376   6.664   6.506   4.484
 5826SOL    HW118377   6.717   6.485   4.402
 5826SOL    HW218378   6.568   6.522   4.459
 5827SOL     OW18379   0.633   5.707   4.998
 5827SOL    HW118380   0.636   5.626   5.056
 5827SOL    HW218381   0.703   5.701   4.927
 5828SOL     OW18382   0.527   3.473   1.936
 5828SOL    HW118383   0.584   3.555   1.934
 5828SOL    HW218384   0.484   3.460   1.846
 5829SOL     OW18385   2.409   1.275   1.622
 5829SOL    HW118386   2.487   1.330   1.595
 5829SOL    HW218387   2.440   1.183   1.646
 5830SOL     OW18388   2.958   1.162   6.109
 5830SOL    HW118389   2.923   1.139   6.018
 5830SOL    HW218390   3.056   1.144   6.112
 5831SOL     OW18391   5.513   0.030   3.106
 5831SOL    HW118392   5.518   7.003   3.016
 5831SOL    HW218393   5.601   0.019   3.152
 5832SOL     OW18394   4.107   3.761   5.132
 5832SOL    HW118395   4.088   3.859   5.139
 5832SOL    HW218396   4.032   3.709   5.173
 5833SOL     OW18397   3.309   3.348   4.324
 5833SOL    HW118398   3.369   3.293   4.383
 5833SOL    HW218399   3.214   3.330   4.348
 5834SOL     OW18400   5.885   1.962   0.867
 5834SOL    HW118401   5.885   2.060   0.887
 5834SOL    HW218402   5.791   1.929   0.866
 5835SOL     OW18403   4.970   2.101   3.812
 5835SOL    HW118404   5.060   2.061   3.790
 5835SOL    HW218405   4.979   2.201   3.819
 5836SOL     OW18406   3.693   6.320   2.055
 5836SOL    HW118407   3.722   6.236   2.101
 5836SOL    HW218408   3.701   6.308   1.956
 5837SOL     OW18409   4.648   4.133   0.523
 5837SOL    HW118410   4.732   4.118   0.575
 5837SOL    HW218411   4.664   4.110   0.427
 5838SOL     OW18412   1.561   1.361   5.604
 5838SOL    HW118413   1.552   1.380   5.506
 5838SOL    HW218414   1.654   1.330   5.624
 5839SOL     OW18415   6.498   3.278   3.046
 5839SOL    HW118416   6.572   3.226   3.090
 5839SOL    HW218417   6.410   3.247   3.083
 5840SOL     OW18418   1.416   5.263   0.153
 5840SOL    HW118419   1.449   5.234   0.243
 5840SOL    HW218420   1.470   5.219   0.082
 5841SOL     OW18421   6.418   2.441   3.588
 5841SOL    HW118422   6.333   2.460   3.637
 5841SOL    HW218423   6.454   2.526   3.550
 5842SOL     OW18424   3.899   2.803   1.139
 5842SOL    HW118425   3.982   2.858   1.144
 5842SOL    HW218426   3.866   2.784   1.232
 5843SOL     OW18427   2.119   3.350   2.422
 5843SOL    HW118428   2.092   3.329   2.327
 5843SOL    HW218429   2.058   3.421   2.458
 5844SOL     OW18430   0.370   5.944   6.725
 5844SOL    HW118431   0.346   6.038   6.698
 5844SOL    HW218432   0.437   5.907   6.660
 5845SOL     OW18433   0.882   2.453   4.108
 5845SOL    HW118434   0.931   2.458   4.021
 5845SOL    HW218435   0.900   2.365   4.152
 5846SOL     OW18436   0.301   2.665   5.624
 5846SOL    HW118437   0.249   2.708   5.550
 5846SOL    HW218438   0.370   2.604   5.584
 5847SOL     OW18439   2.249   2.888   2.344
 5847SOL    HW118440   2.231   2.960   2.411
 5847SOL    HW218441   2.224   2.920   2.253
 5848SOL     OW18442   1.383   4.852   3.350
 5848SOL    HW118443   1.326   4.932   3.340
 5848SOL    HW218444   1.457   4.871   3.416
 5849SOL     OW18445   2.166   0.547   5.658
 5849SOL    HW118446   2.148   0.449   5.657
 5849SOL    HW218447   2.079   0.597   5.661
 5850SOL     OW18448   0.884   4.779   2.237
 5850SOL    HW118449   0.899   4.847   2.165
 5850SOL    HW218450   0.818   4.815   2.303
 5851SOL     OW18451   6.247   4.079   1.933
 5851SOL    HW118452   6.169   4.016   1.927
 5851SOL    HW218453   6.230   4.145   2.006
 5852SOL     OW18454   3.791   6.104   2.197
 5852SOL    HW118455   3.839   6.093   2.284
 5852SOL    HW218456   3.784   6.016   2.151
 5853SOL     OW18457   2.884   4.502   6.053
 5853SOL    HW118458   2.880   4.530   6.149
 5853SOL    HW218459   2.957   4.434   6.041
 5854SOL     OW18460   7.011   0.997   5.756
 5854SOL    HW118461   0.001   0.903   5.789
 5854SOL    HW218462   6.919   1.013   5.721
 5855SOL     OW18463   1.265   1.070   4.581
 5855SOL    HW118464   1.258   0.982   4.628
 5855SOL    HW218465   1.349   1.117   4.609
 5856SOL     OW18466   1.587   4.807   3.573
 5856SOL    HW118467   1.598   4.794   3.672
 5856SOL    HW218468   1.604   4.721   3.526
 5857SOL     OW18469   6.399   2.925   5.056
 5857SOL    HW118470   6.404   2.826   5.064
 5857SOL    HW218471   6.358   2.949   4.968
 5858SOL     OW18472   3.843   1.147   2.660
 5858SOL    HW118473   3.766   1.147   2.724
 5858SOL    HW218474   3.926   1.173   2.709
 5859SOL     OW18475   6.456   6.947   1.241
 5859SOL    HW118476   6.430   6.932   1.146
 5859SOL    HW218477   6.531   7.014   1.245
 5860SOL     OW18478   1.769   4.268   2.011
 5860SOL    HW118479   1.725   4.252   2.099
 5860SOL    HW218480   1.795   4.181   1.970
 5861SOL     OW18481   5.624   1.925   4.235
 5861SOL    HW118482   5.546   1.984   4.257
 5861SOL    HW218483   5.610   1.835   4.276
 5862SOL     OW18484   4.263   4.690   2.819
 5862SOL    HW118485   4.198   4.656   2.887
 5862SOL    HW218486   4.218   4.695   2.730
 5863SOL     OW18487   1.848   0.818   5.916
 5863SOL    HW118488   1.921   0.857   5.973
 5863SOL    HW218489   1.786   0.890   5.886
 5864SOL     OW18490   4.316   4.361   1.642
 5864SOL    HW118491   4.389   4.358   1.574
 5864SOL    HW218492   4.336   4.296   1.716
 5865SOL     OW18493   4.747   0.821   3.392
 5865SOL    HW118494   4.797   0.905   3.412
 5865SOL    HW218495   4.810   0.744   3.386
 5866SOL     OW18496   3.800   6.745   5.685
 5866SOL    HW118497   3.820   6.749   5.587
 5866SOL    HW218498   3.880   6.775   5.737
 5867SOL     OW18499   0.602   3.054   1.679
 5867SOL    HW118500   0.639   3.067   1.771
 5867SOL    HW218501   0.569   3.141   1.644
 5868SOL     OW18502   1.823   6.962   5.519
 5868SOL    HW118503   1.806   6.942   5.423
 5868SOL    HW218504   1.815   6.877   5.573
 5869SOL     OW18505   2.655   4.795   4.635
 5869SOL    HW118506   2.564   4.837   4.640
 5869SOL    HW218507   2.691   4.782   4.727
 5870SOL     OW18508   4.892   5.264   4.140
 5870SOL    HW118509   4.875   5.168   4.118
 5870SOL    HW218510   4.897   5.275   4.239
 5871SOL     OW18511   3.612   3.113   0.559
 5871SOL    HW118512   3.571   3.199   0.589
 5871SOL    HW218513   3.684   3.086   0.622
 5872SOL     OW18514   3.356   5.608   6.017
 5872SOL    HW118515   3.334   5.699   5.981
 5872SOL    HW218516   3.453   5.606   6.043
 5873SOL     OW18517   2.958   3.131   0.252
 5873SOL    HW118518   2.871   3.088   0.276
 5873SOL    HW218519   3.019   3.062   0.213
 5874SOL     OW18520   2.121   3.409   1.683
 5874SOL    HW118521   2.202   3.427   1.740
 5874SOL    HW218522   2.147   3.354   1.604
 5875SOL     OW18523   3.399   1.769   0.038
 5875SOL    HW118524   3.486   1.726   0.017
 5875SOL    HW218525   3.377   1.837   6.985
 5876SOL     OW18526   3.127   3.603   6.748
 5876SOL    HW118527   3.099   3.574   6.656
 5876SOL    HW218528   3.051   3.648   6.794
 5877SOL     OW18529   6.244   0.827   2.320
 5877SOL    HW118530   6.151   0.796   2.300
 5877SOL    HW218531   6.304   0.747   2.327
 5878SOL     OW18532   4.666   4.708   2.021
 5878SOL    HW118533   4.705   4.639   2.082
 5878SOL    HW218534   4.567   4.694   2.015
 5879SOL     OW18535   3.595   3.569   6.258
 5879SOL    HW118536   3.550   3.556   6.170
 5879SOL    HW218537   3.534   3.618   6.320
 5880SOL     OW18538   4.902   3.065   5.755
 5880SOL    HW118539   4.851   2.979   5.753
 5880SOL    HW218540   4.949   3.074   5.843
 5881SOL     OW18541   1.078   6.325   1.929
 5881SOL    HW118542   1.147   6.388   1.895
 5881SOL    HW218543   1.097   6.233   1.894
 5882SOL     OW18544   1.915   5.615   6.180
 5882SOL    HW118545   1.960   5.695   6.218
 5882SOL    HW218546   1.818   5.618   6.201
 5883SOL     OW18547   0.083   4.582   1.188
 5883SOL    HW118548   0.025   4.550   1.114
 5883SOL    HW218549   0.115   4.503   1.241
 5884SOL     OW18550   6.326   1.623   3.596
 5884SOL    HW118551   6.250   1.578   3.548
 5884SOL    HW218552   6.382   1.554   3.641
 5885SOL     OW18553   0.361   5.273   6.699
 5885SOL    HW118554   0.285   5.329   6.731
 5885SOL    HW218555   0.344   5.177   6.723
 5886SOL     OW18556   1.807   4.037   3.767
 5886SOL    HW118557   1.763   3.979   3.698
 5886SOL    HW218558   1.779   4.008   3.858
 5887SOL     OW18559   2.172   2.442   0.866
 5887SOL    HW118560   2.235   2.372   0.900
 5887SOL    HW218561   2.181   2.448   0.766
 5888SOL     OW18562   3.427   0.047   1.090
 5888SOL    HW118563   3.414   0.048   0.991
 5888SOL    HW218564   3.356   0.103   1.134
 5889SOL     OW18565   6.585   0.623   1.938
 5889SOL    HW118566   6.488   0.639   1.922
 5889SOL    HW218567   6.639   0.698   1.901
 5890SOL     OW18568   2.885   6.395   2.546
 5890SOL    HW118569   2.890   6.351   2.635
 5890SOL    HW218570   2.956   6.359   2.486
 5891SOL     OW18571   2.704   3.558   0.828
 5891SOL    HW118572   2.705   3.609   0.742
 5891SOL    HW218573   2.694   3.461   0.809
 5892SOL     OW18574   0.961   3.699   0.808
 5892SOL    HW118575   1.006   3.622   0.853
 5892SOL    HW218576   0.922   3.760   0.877
 5893SOL     OW18577   0.484   5.757   2.290
 5893SOL    HW118578   0.406   5.813   2.318
 5893SOL    HW218579   0.562   5.815   2.270
 5894SOL     OW18580   2.243   5.427   5.846
 5894SOL    HW118581   2.196   5.465   5.767
 5894SOL    HW218582   2.182   5.429   5.925
 5895SOL     OW18583   5.505   2.972   4.421
 5895SOL    HW118584   5.497   3.039   4.494
 5895SOL    HW218585   5.520   2.881   4.460
 5896SOL     OW18586   5.750   2.434   2.069
 5896SOL    HW118587   5.822   2.365   2.061
 5896SOL    HW218588   5.676   2.397   2.126
 5897SOL     OW18589   4.567   2.163   0.836
 5897SOL    HW118590   4.621   2.129   0.912
 5897SOL    HW218591   4.516   2.244   0.864
 5898SOL     OW18592   1.951   1.505   5.296
 5898SOL    HW118593   1.899   1.473   5.217
 5898SOL    HW218594   2.020   1.437   5.320
 5899SOL     OW18595   6.673   5.402   5.748
 5899SOL    HW118596   6.589   5.450   5.774
 5899SOL    HW218597   6.653   5.305   5.734
 5900SOL     OW18598   6.020   6.376   3.523
 5900SOL    HW118599   6.119   6.384   3.513
 5900SOL    HW218600   5.995   6.390   3.618
 5901SOL     OW18601   1.877   0.343   5.694
 5901SOL    HW118602   1.967   0.300   5.707
 5901SOL    HW218603   1.867   0.417   5.760
 5902SOL     OW18604   4.879   4.781   5.402
 5902SOL    HW118605   4.949   4.794   5.472
 5902SOL    HW218606   4.822   4.702   5.426
 5903SOL     OW18607   6.335   1.788   5.909
 5903SOL    HW118608   6.327   1.717   5.979
 5903SOL    HW218609   6.426   1.784   5.868
 5904SOL     OW18610   2.282   4.389   2.529
 5904SOL    HW118611   2.357   4.454   2.534
 5904SOL    HW218612   2.199   4.432   2.565
 5905SOL     OW18613   6.354   1.701   4.318
 5905SOL    HW118614   6.392   1.665   4.404
 5905SOL    HW218615   6.349   1.801   4.324
 5906SOL     OW18616   4.878   0.694   5.360
 5906SOL    HW118617   4.856   0.609   5.409
 5906SOL    HW218618   4.932   0.754   5.419
 5907SOL     OW18619   1.786   2.918   6.832
 5907SOL    HW118620   1.805   3.013   6.807
 5907SOL    HW218621   1.725   2.877   6.764
 5908SOL     OW18622   4.672   2.679   5.866
 5908SOL    HW118623   4.706   2.736   5.941
 5908SOL    HW218624   4.572   2.682   5.865
 5909SOL     OW18625   6.631   5.459   4.499
 5909SOL    HW118626   6.592   5.392   4.435
 5909SOL    HW218627   6.723   5.485   4.469
 5910SOL     OW18628   2.139   3.903   1.409
 5910SOL    HW118629   2.112   3.831   1.474
 5910SOL    HW218630   2.226   3.942   1.438
 5911SOL     OW18631   6.026   6.388   6.646
 5911SOL    HW118632   5.944   6.350   6.603
 5911SOL    HW218633   6.087   6.424   6.575
 5912SOL     OW18634   6.920   3.570   6.870
 5912SOL    HW118635   6.985   3.596   6.799
 5912SOL    HW218636   6.882   3.480   6.849
 5913SOL     OW18637   1.787   1.480   6.008
 5913SOL    HW118638   1.699   1.521   5.986
 5913SOL    HW218639   1.860   1.534   5.966
 5914SOL     OW18640   1.906   6.213   0.524
 5914SOL    HW118641   1.846   6.247   0.596
 5914SOL    HW218642   1.953   6.130   0.555
 5915SOL     OW18643   4.838   2.846   2.648
 5915SOL    HW118644   4.863   2.915   2.580
 5915SOL    HW218645   4.914   2.781   2.659
 5916SOL     OW18646   3.801   0.882   5.800
 5916SOL    HW118647   3.706   0.897   5.770
 5916SOL    HW218648   3.809   0.790   5.838
 5917SOL     OW18649   2.934   3.413   3.071
 5917SOL    HW118650   2.940   3.469   2.988
 5917SOL    HW218651   3.025   3.403   3.111
 5918SOL     OW18652   2.125   3.235   4.250
 5918SOL    HW118653   2.156   3.210   4.342
 5918SOL    HW218654   2.177   3.183   4.182
 5919SOL     OW18655   1.438   3.137   6.792
 5919SOL    HW118656   1.410   3.150   6.697
 5919SOL    HW218657   1.422   3.221   6.844
 5920SOL     OW18658   3.690   6.581   6.860
 5920SOL    HW118659   3.746   6.500   6.841
 5920SOL    HW218660   3.748   6.663   6.855
 5921SOL     OW18661   3.906   4.826   5.206
 5921SOL    HW118662   3.993   4.778   5.217
 5921SOL    HW218663   3.899   4.862   5.113
 5922SOL     OW18664   5.737   4.331   2.130
 5922SOL    HW118665   5.820   4.302   2.083
 5922SOL    HW218666   5.747   4.316   2.228
 5923SOL     OW18667   0.264   6.896   4.204
 5923SOL    HW118668   0.245   6.977   4.149
 5923SOL    HW218669   0.188   6.832   4.198
 5924SOL     OW18670   5.386   1.953   4.564
 5924SOL    HW118671   5.333   2.036   4.581
 5924SOL    HW218672   5.450   1.939   4.640
 5925SOL     OW18673   5.868   6.089   0.990
 5925SOL    HW118674   5.920   6.142   0.923
 5925SOL    HW218675   5.922   6.081   1.075
 5926SOL     OW18676   3.499   5.163   1.396
 5926SOL    HW118677   3.447   5.232   1.345
 5926SOL    HW218678   3.440   5.122   1.465
 5927SOL     OW18679   3.088   5.951   2.575
 5927SOL    HW118680   3.129   5.982   2.489
 5927SOL    HW218681   3.104   6.020   2.646
 5928SOL     OW18682   1.302   0.083   2.091
 5928SOL    HW118683   1.265   0.007   2.038
 5928SOL    HW218684   1.255   0.167   2.066
 5929SOL     OW18685   1.355   6.891   6.225
 5929SOL    HW118686   1.333   6.921   6.317
 5929SOL    HW218687   1.369   6.971   6.166
 5930SOL     OW18688   6.914   2.043   4.602
 5930SOL    HW118689   6.815   2.057   4.591
 5930SOL    HW218690   6.934   1.945   4.597
 5931SOL     OW18691   6.620   5.787   1.178
 5931SOL    HW118692   6.688   5.815   1.111
 5931SOL    HW218693   6.530   5.782   1.135
 5932SOL     OW18694   3.217   6.688   0.715
 5932SOL    HW118695   3.239   6.694   0.812
 5932SOL    HW218696   3.117   6.692   0.703
 5933SOL     OW18697   6.497   3.670   2.979
 5933SOL    HW118698   6.550   3.635   3.056
 5933SOL    HW218699   6.525   3.763   2.958
 5934SOL     OW18700   3.362   3.927   2.917
 5934SOL    HW118701   3.353   3.913   2.819
 5934SOL    HW218702   3.451   3.892   2.948
 5935SOL     OW18703   4.094   3.451   4.105
 5935SOL    HW118704   4.100   3.452   4.005
 5935SOL    HW218705   4.075   3.358   4.136
 5936SOL     OW18706   5.010   5.817   6.478
 5936SOL    HW118707   4.934   5.858   6.427
 5936SOL    HW218708   5.083   5.885   6.490
 5937SOL     OW18709   1.985   3.200   0.953
 5937SOL    HW118710   1.905   3.234   0.904
 5937SOL    HW218711   2.059   3.184   0.888
 5938SOL     OW18712   2.023   4.388   2.350
 5938SOL    HW118713   2.024   4.432   2.440
 5938SOL    HW218714   1.989   4.295   2.359
 5939SOL     OW18715   3.747   6.997   3.074
 5939SOL    HW118716   3.739   6.897   3.068
 5939SOL    HW218717   3.695   0.023   2.999
 5940SOL     OW18718   3.820   5.998   2.993
 5940SOL    HW118719   3.784   6.078   2.945
 5940SOL    HW218720   3.920   5.994   2.981
 5941SOL     OW18721   5.956   4.995   2.365
 5941SOL    HW118722   6.022   4.956   2.301
 5941SOL    HW218723   6.003   5.018   2.451
 5942SOL     OW18724   4.525   2.610   6.191
 5942SOL    HW118725   4.588   2.547   6.236
 5942SOL    HW218726   4.558   2.703   6.201
 5943SOL     OW18727   1.553   5.885   0.475
 5943SOL    HW118728   1.457   5.870   0.499
 5943SOL    HW218729   1.591   5.956   0.534
 5944SOL     OW18730   5.488   1.837   2.715
 5944SOL    HW118731   5.512   1.929   2.685
 5944SOL    HW218732   5.520   1.823   2.809
 5945SOL     OW18733   6.721   5.142   5.798
 5945SOL    HW118734   6.787   5.091   5.742
 5945SOL    HW218735   6.719   5.103   5.890
 5946SOL     OW18736   4.286   3.180   5.328
 5946SOL    HW118737   4.227   3.140   5.398
 5946SOL    HW218738   4.379   3.191   5.364
 5947SOL     OW18739   4.344   3.609   1.571
 5947SOL    HW118740   4.430   3.660   1.567
 5947SOL    HW218741   4.278   3.660   1.627
 5948SOL     OW18742   3.378   4.992   2.340
 5948SOL    HW118743   3.296   5.049   2.334
 5948SOL    HW218744   3.392   4.963   2.435
 5949SOL     OW18745   4.428   4.623   1.477
 5949SOL    HW118746   4.348   4.604   1.533
 5949SOL    HW218747   4.465   4.537   1.441
 5950SOL     OW18748   6.549   2.606   4.166
 5950SOL    HW118749   6.485   2.660   4.111
 5950SOL    HW218750   6.503   2.524   4.198
 5951SOL     OW18751   2.232   5.615   3.572
 5951SOL    HW118752   2.160   5.546   3.576
 5951SOL    HW218753   2.279   5.609   3.485
 5952SOL     OW18754   0.339   6.658   4.476
 5952SOL    HW118755   0.314   6.592   4.547
 5952SOL    HW218756   0.372   6.742   4.519
 5953SOL     OW18757   0.047   3.219   6.405
 5953SOL    HW118758   6.974   3.193   6.443
 5953SOL    HW218759   0.084   3.296   6.459
 5954SOL     OW18760   0.292   4.984   6.773
 5954SOL    HW118761   0.362   4.933   6.723
 5954SOL    HW218762   0.202   4.944   6.754
 5955SOL     OW18763   5.188   5.146   1.827
 5955SOL    HW118764   5.225   5.107   1.742
 5955SOL    HW218765   5.253   5.210   1.866
 5956SOL     OW18766   5.654   2.369   6.922
 5956SOL    HW118767   5.627   2.438   6.990
 5956SOL    HW218768   5.655   2.410   6.831
 5957SOL     OW18769   5.818   6.286   6.178
 5957SOL    HW118770   5.817   6.225   6.257
 5957SOL    HW218771   5.734   6.272   6.125
 5958SOL     OW18772   6.960   5.500   1.979
 5958SOL    HW118773   6.875   5.468   1.938
 5958SOL    HW218774   6.947   5.592   2.016
 5959SOL     OW18775   1.964   1.648   5.868
 5959SOL    HW118776   2.047   1.592   5.864
 5959SOL    HW218777   1.987   1.739   5.902
 5960SOL     OW18778   3.223   0.659   3.364
 5960SOL    HW118779   3.252   0.753   3.344
 5960SOL    HW218780   3.124   0.652   3.354
 5961SOL     OW18781   3.101   0.580   5.235
 5961SOL    HW118782   3.144   0.593   5.325
 5961SOL    HW218783   3.106   0.665   5.184
 5962SOL     OW18784   5.323   5.118   2.283
 5962SOL    HW118785   5.368   5.031   2.264
 5962SOL    HW218786   5.276   5.114   2.371
 5963SOL     OW18787   4.014   3.662   2.259
 5963SOL    HW118788   4.061   3.588   2.307
 5963SOL    HW218789   3.997   3.738   2.323
 5964SOL     OW18790   0.596   5.274   5.384
 5964SOL    HW118791   0.679   5.236   5.425
 5964SOL    HW218792   0.554   5.338   5.448
 5965SOL     OW18793   2.835   2.599   5.664
 5965SOL    HW118794   2.821   2.666   5.738
 5965SOL    HW218795   2.918   2.546   5.683
 5966SOL     OW18796   2.777   5.911   4.065
 5966SOL    HW118797   2.733   5.995   4.098
 5966SOL    HW218798   2.834   5.873   4.138
 5967SOL     OW18799   4.829   6.720   2.525
 5967SOL    HW118800   4.775   6.653   2.575
 5967SOL    HW218801   4.768   6.778   2.470
 5968SOL     OW18802   7.006   2.879   4.173
 5968SOL    HW118803   0.005   2.781   4.155
 5968SOL    HW218804   0.075   2.922   4.201
 5969SOL     OW18805   5.912   3.644   3.467
 5969SOL    HW118806   5.866   3.670   3.382
 5969SOL    HW218807   6.005   3.612   3.446
 5970SOL     OW18808   1.246   2.979   3.160
 5970SOL    HW118809   1.338   2.991   3.124
 5970SOL    HW218810   1.193   3.062   3.143
 5971SOL     OW18811   2.424   0.115   2.569
 5971SOL    HW118812   2.456   0.038   2.625
 5971SOL    HW218813   2.324   0.110   2.561
 5972SOL     OW18814   4.735   6.362   0.371
 5972SOL    HW118815   4.653   6.309   0.391
 5972SOL    HW218816   4.714   6.459   0.370
 5973SOL     OW18817   1.180   4.659   3.399
 5973SOL    HW118818   1.270   4.687   3.366
 5973SOL    HW218819   1.144   4.586   3.342
 5974SOL     OW18820   0.486   3.872   6.907
 5974SOL    HW118821   0.465   3.931   6.985
 5974SOL    HW218822   0.584   3.874   6.889
 5975SOL     OW18823   2.466   2.765   0.699
 5975SOL    HW118824   2.464   2.669   0.728
 5975SOL    HW218825   2.408   2.819   0.760
 5976SOL     OW18826   3.029   3.120   5.051
 5976SOL    HW118827   3.035   3.091   4.955
 5976SOL    HW218828   3.073   3.209   5.061
 5977SOL     OW18829   1.024   3.845   2.455
 5977SOL    HW118830   0.994   3.929   2.499
 5977SOL    HW218831   1.022   3.770   2.521
 5978SOL     OW18832   5.344   5.019   1.586
 5978SOL    HW118833   5.345   4.946   1.654
 5978SOL    HW218834   5.249   5.047   1.567
 5979SOL     OW18835   6.856   0.655   3.581
 5979SOL    HW118836   6.866   0.556   3.574
 5979SOL    HW218837   6.891   0.686   3.669
 5980SOL     OW18838   5.924   4.039   0.105
 5980SOL    HW118839   5.910   4.016   0.201
 5980SOL    HW218840   6.022   4.047   0.086
 5981SOL     OW18841   5.285   0.920   2.372
 5981SOL    HW118842   5.294   0.920   2.471
 5981SOL    HW218843   5.274   1.014   2.339
 5982SOL     OW18844   6.565   1.844   6.354
 5982SOL    HW118845   6.628   1.907   6.309
 5982SOL    HW218846   6.471   1.864   6.325
 5983SOL     OW18847   1.676   0.945   4.574
 5983SOL    HW118848   1.595   1.002   4.586
 5983SOL    HW218849   1.758   0.997   4.598
 5984SOL     OW18850   0.214   6.454   5.014
 5984SOL    HW118851   0.157   6.418   4.940
 5984SOL    HW218852   0.164   6.446   5.101
 5985SOL     OW18853   4.410   1.761   4.073
 5985SOL    HW118854   4.332   1.751   4.136
 5985SOL    HW218855   4.413   1.854   4.038
 5986SOL     OW18856   3.348   3.287   2.322
 5986SOL    HW118857   3.280   3.217   2.345
 5986SOL    HW218858   3.440   3.251   2.338
 5987SOL     OW18859   3.819   6.743   4.766
 5987SOL    HW118860   3.907   6.790   4.758
 5987SOL    HW218861   3.762   6.790   4.833
 5988SOL     OW18862   4.017   6.633   4.091
 5988SOL    HW118863   3.974   6.671   4.173
 5988SOL    HW218864   4.000   6.534   4.088
 5989SOL     OW18865   3.360   0.746   5.839
 5989SOL    HW118866   3.301   0.824   5.820
 5989SOL    HW218867   3.455   0.770   5.819
 5990SOL     OW18868   3.171   4.651   1.074
 5990SOL    HW118869   3.154   4.585   1.147
 5990SOL    HW218870   3.130   4.739   1.098
 5991SOL     OW18871   2.828   4.987   4.778
 5991SOL    HW118872   2.760   4.947   4.838
 5991SOL    HW218873   2.917   4.944   4.794
 5992SOL     OW18874   4.361   0.285   3.814
 5992SOL    HW118875   4.425   0.207   3.817
 5992SOL    HW218876   4.380   0.340   3.732
 5993SOL     OW18877   2.720   5.835   5.324
 5993SOL    HW118878   2.743   5.816   5.419
 5993SOL    HW218879   2.799   5.874   5.277
 5994SOL     OW18880   6.377   2.301   2.944
 5994SOL    HW118881   6.374   2.234   2.870
 5994SOL    HW218882   6.358   2.392   2.907
 5995SOL     OW18883   6.953   4.790   1.324
 5995SOL    HW118884   0.004   4.725   1.291
 5995SOL    HW218885   6.984   4.830   1.410
 5996SOL     OW18886   6.920   5.192   5.198
 5996SOL    HW118887   6.892   5.136   5.121
 5996SOL    HW218888   6.978   5.267   5.166
 5997SOL     OW18889   0.384   6.757   2.158
 5997SOL    HW118890   0.483   6.776   2.161
 5997SOL    HW218891   0.369   6.668   2.115
 5998SOL     OW18892   5.438   2.223   2.836
 5998SOL    HW118893   5.426   2.322   2.840
 5998SOL    HW218894   5.379   2.179   2.904
 5999SOL     OW18895   1.169   1.558   2.739
 5999SOL    HW118896   1.175   1.565   2.838
 5999SOL    HW218897   1.137   1.467   2.714
 6000SOL     OW18898   4.745   5.550   2.282
 6000SOL    HW118899   4.788   5.549   2.192
 6000SOL    HW218900   4.755   5.642   2.322
 6001SOL     OW18901   6.945   2.086   6.996
 6001SOL    HW118902   6.866   2.030   6.970
 6001SOL    HW218903   7.007   2.032   0.037
 6002SOL     OW18904   2.104   0.330   1.663
 6002SOL    HW118905   2.007   0.355   1.654
 6002SOL    HW218906   2.127   0.260   1.596
 6003SOL     OW18907   4.643   4.227   4.884
 6003SOL    HW118908   4.597   4.217   4.972
 6003SOL    HW218909   4.580   4.270   4.818
 6004SOL     OW18910   0.285   3.406   2.635
 6004SOL    HW118911   0.383   3.389   2.638
 6004SOL    HW218912   0.267   3.491   2.585
 6005SOL     OW18913   2.979   5.830   2.944
 6005SOL    HW118914   2.995   5.809   3.040
 6005SOL    HW218915   3.064   5.862   2.902
 6006SOL     OW18916   2.732   6.925   6.791
 6006SOL    HW118917   2.802   6.880   6.734
 6006SOL    HW218918   2.678   6.855   6.838
 6007SOL     OW18919   5.836   2.820   4.378
 6007SOL    HW118920   5.756   2.767   4.405
 6007SOL    HW218921   5.919   2.768   4.399
 6008SOL     OW18922   2.829   4.550   6.614
 6008SOL    HW118923   2.770   4.504   6.681
 6008SOL    HW218924   2.924   4.527   6.634
 6009SOL     OW18925   2.751   1.977   4.555
 6009SOL    HW118926   2.656   2.006   4.542
 6009SOL    HW218927   2.767   1.892   4.504
 6010SOL     OW18928   1.796   3.812   3.106
 6010SOL    HW118929   1.893   3.801   3.083
 6010SOL    HW218930   1.787   3.880   3.179
 6011SOL     OW18931   5.173   3.464   2.753
 6011SOL    HW118932   5.074   3.450   2.748
 6011SOL    HW218933   5.195   3.514   2.837
 6012SOL     OW18934   6.876   3.252   0.705
 6012SOL    HW118935   6.952   3.236   0.642
 6012SOL    HW218936   6.790   3.232   0.659
 6013SOL     OW18937   5.402   0.979   2.619
 6013SOL    HW118938   5.402   0.904   2.685
 6013SOL    HW218939   5.396   1.066   2.667
 6014SOL     OW18940   5.890   0.180   0.792
 6014SOL    HW118941   5.873   0.124   0.711
 6014SOL    HW218942   5.919   0.272   0.763
 6015SOL     OW18943   5.879   1.685   4.291
 6015SOL    HW118944   5.903   1.777   4.321
 6015SOL    HW218945   5.884   1.680   4.191
 6016SOL     OW18946   1.822   0.234   5.232
 6016SOL    HW118947   1.760   0.271   5.301
 6016SOL    HW218948   1.917   0.252   5.259
 6017SOL     OW18949   6.347   4.868   2.541
 6017SOL    HW118950   6.406   4.854   2.620
 6017SOL    HW218951   6.299   4.783   2.520
 6018SOL     OW18952   2.745   3.781   0.958
 6018SOL    HW118953   2.833   3.817   0.929
 6018SOL    HW218954   2.725   3.698   0.906
 6019SOL     OW18955   3.460   0.222   4.352
 6019SOL    HW118956   3.490   0.226   4.447
 6019SOL    HW218957   3.499   0.299   4.301
 6020SOL     OW18958   3.787   0.941   2.950
 6020SOL    HW118959   3.738   0.969   3.033
 6020SOL    HW218960   3.724   0.939   2.873
 6021SOL     OW18961   4.417   1.338   2.707
 6021SOL    HW118962   4.337   1.282   2.686
 6021SOL    HW218963   4.454   1.311   2.796
 6022SOL     OW18964   4.234   1.165   4.099
 6022SOL    HW118965   4.165   1.098   4.127
 6022SOL    HW218966   4.308   1.166   4.166
 6023SOL     OW18967   6.890   1.251   2.428
 6023SOL    HW118968   6.866   1.213   2.517
 6023SOL    HW218969   6.897   1.351   2.435
 6024SOL     OW18970   0.514   4.775   1.920
 6024SOL    HW118971   0.552   4.866   1.900
 6024SOL    HW218972   0.567   4.732   1.993
 6025SOL     OW18973   4.778   1.807   1.086
 6025SOL    HW118974   4.733   1.806   0.996
 6025SOL    HW218975   4.851   1.739   1.087
 6026SOL     OW18976   6.571   4.943   5.195
 6026SOL    HW118977   6.649   4.898   5.239
 6026SOL    HW218978   6.523   4.999   5.263
 6027SOL     OW18979   2.978   3.388   0.201
 6027SOL    HW118980   2.977   3.449   0.281
 6027SOL    HW218981   2.980   3.293   0.232
 6028SOL     OW18982   1.172   3.299   0.338
 6028SOL    HW118983   1.271   3.304   0.347
 6028SOL    HW218984   1.130   3.310   0.428
 6029SOL     OW18985   2.071   6.050   1.539
 6029SOL    HW118986   2.155   5.996   1.546
 6029SOL    HW218987   2.000   6.006   1.594
 6030SOL     OW18988   1.619   0.695   1.777
 6030SOL    HW118989   1.535   0.746   1.763
 6030SOL    HW218990   1.670   0.688   1.691
 6031SOL     OW18991   5.244   0.108   4.910
 6031SOL    HW118992   5.338   0.079   4.929
 6031SOL    HW218993   5.217   0.078   4.819
 6032SOL     OW18994   0.569   3.397   2.670
 6032SOL    HW118995   0.583   3.364   2.577
 6032SOL    HW218996   0.561   3.319   2.732
 6033SOL     OW18997   0.947   0.623   4.031
 6033SOL    HW118998   0.964   0.715   3.996
 6033SOL    HW218999   0.857   0.619   4.075
 6034SOL     OW19000   1.703   4.158   5.210
 6034SOL    HW119001   1.728   4.252   5.232
 6034SOL    HW219002   1.687   4.107   5.294
 6035SOL     OW19003   6.071   0.733   4.062
 6035SOL    HW119004   6.015   0.666   4.015
 6035SOL    HW219005   6.029   0.755   4.150
 6036SOL     OW19006   0.689   6.343   5.267
 6036SOL    HW119007   0.702   6.406   5.344
 6036SOL    HW219008   0.752   6.368   5.193
 6037SOL     OW19009   5.921   5.927   4.890
 6037SOL    HW119010   5.913   5.842   4.838
 6037SOL    HW219011   5.832   5.951   4.928
 6038SOL     OW19012   5.300   3.625   6.274
 6038SOL    HW119013   5.332   3.530   6.272
 6038SOL    HW219014   5.230   3.634   6.346
 6039SOL     OW19015   3.546   3.663   2.540
 6039SOL    HW119016   3.596   3.746   2.564
 6039SOL    HW219017   3.516   3.669   2.444
 6040SOL     OW19018   0.168   1.909   0.117
 6040SOL    HW119019   0.185   1.986   0.178
 6040SOL    HW219020   0.093   1.854   0.152
 6041SOL     OW19021   1.106   2.259   0.076
 6041SOL    HW119022   1.157   2.218   0.001
 6041SOL    HW219023   1.151   2.344   0.103
 6042SOL     OW19024   4.296   5.186   3.452
 6042SOL    HW119025   4.355   5.118   3.497
 6042SOL    HW219026   4.322   5.194   3.356
 6043SOL     OW19027   1.005   4.553   4.168
 6043SOL    HW119028   0.978   4.462   4.137
 6043SOL    HW219029   0.927   4.598   4.212
 6044SOL     OW19030   0.830   0.722   1.175
 6044SOL    HW119031   0.779   0.757   1.254
 6044SOL    HW219032   0.926   0.709   1.201
 6045SOL     OW19033   6.926   3.836   2.101
 6045SOL    HW119034   6.937   3.911   2.036
 6045SOL    HW219035   7.010   3.782   2.105
 6046SOL     OW19036   3.102   2.388   0.116
 6046SOL    HW119037   3.067   2.358   0.205
 6046SOL    HW219038   3.194   2.351   0.102
 6047SOL     OW19039   6.539   0.176   4.288
 6047SOL    HW119040   6.610   0.110   4.263
 6047SOL    HW219041   6.520   0.169   4.386
 6048SOL     OW19042   4.637   6.678   5.060
 6048SOL    HW119043   4.668   6.650   5.151
 6048SOL    HW219044   4.669   6.613   4.992
 6049SOL     OW19045   6.054   4.529   0.112
 6049SOL    HW119046   6.035   4.627   0.123
 6049SOL    HW219047   6.150   4.512   0.132
 6050SOL     OW19048   4.479   4.785   5.605
 6050SOL    HW119049   4.515   4.875   5.579
 6050SOL    HW219050   4.417   4.795   5.683
 6051SOL     OW19051   1.821   1.684   2.906
 6051SOL    HW119052   1.901   1.645   2.951
 6051SOL    HW219053   1.823   1.662   2.808
 6052SOL     OW19054   0.231   0.804   0.770
 6052SOL    HW119055   0.205   0.848   0.856
 6052SOL    HW219056   0.226   0.872   0.696
 6053SOL     OW19057   1.750   6.668   6.767
 6053SOL    HW119058   1.793   6.659   6.857
 6053SOL    HW219059   1.814   6.640   6.696
 6054SOL     OW19060   2.471   4.181   0.314
 6054SOL    HW119061   2.429   4.094   0.291
 6054SOL    HW219062   2.476   4.239   0.233
 6055SOL     OW19063   4.724   1.012   4.730
 6055SOL    HW119064   4.736   1.043   4.824
 6055SOL    HW219065   4.805   1.033   4.676
 6056SOL     OW19066   5.008   1.864   6.488
 6056SOL    HW119067   5.010   1.825   6.397
 6056SOL    HW219068   5.070   1.943   6.492
 6057SOL     OW19069   3.120   1.093   4.914
 6057SOL    HW119070   3.156   1.051   4.830
 6057SOL    HW219071   3.167   1.180   4.931
 6058SOL     OW19072   5.729   1.949   4.007
 6058SOL    HW119073   5.663   2.005   3.957
 6058SOL    HW219074   5.695   1.933   4.100
 6059SOL     OW19075   6.128   5.049   6.882
 6059SOL    HW119076   6.156   5.052   6.786
 6059SOL    HW219077   6.059   5.120   6.899
 6060SOL     OW19078   4.338   5.746   5.566
 6060SOL    HW119079   4.265   5.725   5.631
 6060SOL    HW219080   4.337   5.844   5.546
 6061SOL     OW19081   2.897   1.663   6.097
 6061SOL    HW119082   2.976   1.640   6.155
 6061SOL    HW219083   2.814   1.627   6.138
 6062SOL     OW19084   2.223   0.178   4.438
 6062SOL    HW119085   2.229   0.146   4.344
 6062SOL    HW219086   2.277   0.262   4.448
 6063SOL     OW19087   4.168   0.502   6.227
 6063SOL    HW119088   4.196   0.472   6.136
 6063SOL    HW219089   4.238   0.477   6.294
 6064SOL     OW19090   1.687   5.483   3.339
 6064SOL    HW119091   1.683   5.499   3.240
 6064SOL    HW219092   1.703   5.387   3.357
 6065SOL     OW19093   7.010   0.336   0.805
 6065SOL    HW119094   0.065   0.378   0.749
 6065SOL    HW219095   6.924   0.338   0.755
 6066SOL     OW19096   4.339   2.829   0.694
 6066SOL    HW119097   4.255   2.824   0.747
 6066SOL    HW219098   4.317   2.831   0.597
 6067SOL     OW19099   6.189   1.444   6.616
 6067SOL    HW119100   6.215   1.541   6.615
 6067SOL    HW219101   6.220   1.401   6.532
 6068SOL     OW19102   4.601   2.511   4.852
 6068SOL    HW119103   4.620   2.608   4.839
 6068SOL    HW219104   4.545   2.499   4.934
 6069SOL     OW19105   6.595   4.365   4.589
 6069SOL    HW119106   6.535   4.419   4.648
 6069SOL    HW219107   6.681   4.346   4.637
 6070SOL     OW19108   4.072   2.243   6.268
 6070SOL    HW119109   4.092   2.233   6.170
 6070SOL    HW219110   4.128   2.316   6.306
 6071SOL     OW19111   4.260   6.468   5.547
 6071SOL    HW119112   4.273   6.564   5.571
 6071SOL    HW219113   4.171   6.456   5.503
 6072SOL     OW19114   0.342   2.161   1.363
 6072SOL    HW119115   0.292   2.182   1.447
 6072SOL    HW219116   0.281   2.116   1.298
 6073SOL     OW19117   6.432   2.707   0.587
 6073SOL    HW119118   6.370   2.784   0.570
 6073SOL    HW219119   6.493   2.695   0.509
 6074SOL     OW19120   0.719   0.172   5.071
 6074SOL    HW119121   0.658   0.200   4.997
 6074SOL    HW219122   0.740   0.075   5.062
 6075SOL     OW19123   5.812   3.820   6.979
 6075SOL    HW119124   5.745   3.852   6.912
 6075SOL    HW219125   5.848   3.898   0.014
 6076SOL     OW19126   2.099   5.503   4.221
 6076SOL    HW119127   2.032   5.443   4.264
 6076SOL    HW219128   2.078   5.512   4.124
 6077SOL     OW19129   6.141   6.144   2.168
 6077SOL    HW119130   6.237   6.134   2.139
 6077SOL    HW219131   6.138   6.162   2.266
 6078SOL     OW19132   2.556   4.637   4.235
 6078SOL    HW119133   2.580   4.684   4.150
 6078SOL    HW219134   2.497   4.559   4.215
 6079SOL     OW19135   2.170   1.695   6.616
 6079SOL    HW119136   2.237   1.623   6.596
 6079SOL    HW219137   2.214   1.769   6.666
 6080SOL     OW19138   5.763   2.567   1.566
 6080SOL    HW119139   5.766   2.509   1.485
 6080SOL    HW219140   5.794   2.659   1.542
 6081SOL     OW19141   6.740   3.588   3.703
 6081SOL    HW119142   6.792   3.671   3.723
 6081SOL    HW219143   6.659   3.612   3.648
 6082SOL     OW19144   4.023   1.252   3.643
 6082SOL    HW119145   4.102   1.227   3.587
 6082SOL    HW219146   4.050   1.257   3.739
 6083SOL     OW19147   1.376   6.132   6.908
 6083SOL    HW119148   1.305   6.199   6.929
 6083SOL    HW219149   1.455   6.148   6.968
 6084SOL     OW19150   6.975   5.638   5.534
 6084SOL    HW119151   0.011   5.696   5.597
 6084SOL    HW219152   6.977   5.544   5.566
 6085SOL     OW19153   5.349   3.772   0.493
 6085SOL    HW119154   5.378   3.756   0.398
 6085SOL    HW219155   5.428   3.762   0.553
 6086SOL     OW19156   2.959   1.889   3.910
 6086SOL    HW119157   3.018   1.955   3.956
 6086SOL    HW219158   2.928   1.926   3.823
 6087SOL     OW19159   5.342   6.836   6.675
 6087SOL    HW119160   5.304   6.928   6.685
 6087SOL    HW219161   5.442   6.841   6.684
 6088SOL     OW19162   1.283   0.047   4.954
 6088SOL    HW119163   1.220   7.011   4.896
 6088SOL    HW219164   1.285   0.142   4.925
 6089SOL     OW19165   0.064   3.666   0.763
 6089SOL    HW119166   7.013   3.700   0.698
 6089SOL    HW219167   0.017   3.620   0.839
 6090SOL     OW19168   0.902   5.203   5.110
 6090SOL    HW119169   0.878   5.122   5.164
 6090SOL    HW219170   0.827   5.269   5.113
 6091SOL     OW19171   6.457   1.918   1.885
 6091SOL    HW119172   6.374   1.895   1.834
 6091SOL    HW219173   6.498   1.835   1.922
 6092SOL     OW19174   2.071   1.860   2.056
 6092SOL    HW119175   1.989   1.898   2.099
 6092SOL    HW219176   2.105   1.925   1.987
 6093SOL     OW19177   1.191   2.672   0.919
 6093SOL    HW119178   1.208   2.578   0.889
 6093SOL    HW219179   1.094   2.692   0.909
 6094SOL     OW19180   1.199   1.029   1.382
 6094SOL    HW119181   1.125   0.971   1.347
 6094SOL    HW219182   1.276   1.028   1.318
 6095SOL     OW19183   5.973   3.291   6.344
 6095SOL    HW119184   5.971   3.284   6.244
 6095SOL    HW219185   6.026   3.371   6.371
 6096SOL     OW19186   3.957   2.200   3.542
 6096SOL    HW119187   3.916   2.262   3.610
 6096SOL    HW219188   3.924   2.224   3.451
 6097SOL     OW19189   2.781   1.922   2.324
 6097SOL    HW119190   2.753   1.985   2.396
 6097SOL    HW219191   2.722   1.841   2.325
 6098SOL     OW19192   1.948   2.269   5.980
 6098SOL    HW119193   1.932   2.187   6.036
 6098SOL    HW219194   2.045   2.275   5.957
 6099SOL     OW19195   6.065   5.816   5.086
 6099SOL    HW119196   6.162   5.831   5.068
 6099SOL    HW219197   6.011   5.854   5.011
 6100SOL     OW19198   6.711   2.418   0.103
 6100SOL    HW119199   6.683   2.365   0.023
 6100SOL    HW219200   6.656   2.390   0.182
 6101SOL     OW19201   6.551   1.112   5.348
 6101SOL    HW119202   6.514   1.132   5.257
 6101SOL    HW219203   6.484   1.060   5.400
 6102SOL     OW19204   2.665   0.363   4.496
 6102SOL    HW119205   2.749   0.330   4.454
 6102SOL    HW219206   2.686   0.404   4.585
 6103SOL     OW19207   6.622   6.731   5.731
 6103SOL    HW119208   6.593   6.826   5.726
 6103SOL    HW219209   6.542   6.671   5.723
 6104SOL     OW19210   6.730   2.260   6.506
 6104SOL    HW119211   6.717   2.308   6.419
 6104SOL    HW219212   6.643   2.222   6.536
 6105SOL     OW19213   3.467   5.932   4.665
 6105SOL    HW119214   3.382   5.946   4.615
 6105SOL    HW219215   3.500   5.839   4.647
 6106SOL     OW19216   3.191   5.161   5.695
 6106SOL    HW119217   3.210   5.113   5.781
 6106SOL    HW219218   3.252   5.240   5.687
 6107SOL     OW19219   1.929   4.638   5.197
 6107SOL    HW119220   1.950   4.724   5.243
 6107SOL    HW219221   2.013   4.600   5.157
 6108SOL     OW19222   0.479   2.140   4.887
 6108SOL    HW119223   0.395   2.186   4.856
 6108SOL    HW219224   0.486   2.050   4.843
 6109SOL     OW19225   5.720   4.149   1.104
 6109SOL    HW119226   5.763   4.208   1.036
 6109SOL    HW219227   5.683   4.068   1.059
 6110SOL     OW19228   3.594   1.342   4.603
 6110SOL    HW119229   3.643   1.357   4.517
 6110SOL    HW219230   3.654   1.366   4.680
 6111SOL     OW19231   1.542   5.055   3.138
 6111SOL    HW119232   1.584   5.020   3.222
 6111SOL    HW219233   1.613   5.068   3.068
 6112SOL     OW19234   0.249   1.599   2.793
 6112SOL    HW119235   0.278   1.506   2.773
 6112SOL    HW219236   0.325   1.663   2.778
 6113SOL     OW19237   1.422   6.591   5.683
 6113SOL    HW119238   1.507   6.630   5.717
 6113SOL    HW219239   1.366   6.664   5.643
 6114SOL     OW19240   4.916   5.505   0.509
 6114SOL    HW119241   4.964   5.427   0.548
 6114SOL    HW219242   4.981   5.563   0.459
 6115SOL     OW19243   5.509   5.391   2.453
 6115SOL    HW119244   5.497   5.292   2.462
 6115SOL    HW219245   5.568   5.424   2.527
 6116SOL     OW19246   4.085   1.262   1.767
 6116SOL    HW119247   3.993   1.261   1.805
 6116SOL    HW219248   4.133   1.344   1.797
 6117SOL     OW19249   5.507   6.893   4.486
 6117SOL    HW119250   5.412   6.893   4.516
 6117SOL    HW219251   5.566   6.920   4.562
 6118SOL     OW19252   6.138   0.618   3.447
 6118SOL    HW119253   6.126   0.529   3.492
 6118SOL    HW219254   6.179   0.682   3.511
 6119SOL     OW19255   6.410   5.446   4.682
 6119SOL    HW119256   6.368   5.355   4.689
 6119SOL    HW219257   6.472   5.448   4.604
 6120SOL     OW19258   2.628   0.965   3.003
 6120SOL    HW119259   2.679   0.883   2.976
 6120SOL    HW219260   2.576   0.946   3.086
 6121SOL     OW19261   0.061   2.744   4.555
 6121SOL    HW119262   0.092   2.725   4.648
 6121SOL    HW219263   6.995   2.691   4.536
 6122SOL     OW19264   4.324   5.225   3.164
 6122SOL    HW119265   4.271   5.206   3.081
 6122SOL    HW219266   4.384   5.303   3.148
 6123SOL     OW19267   6.001   1.690   2.312
 6123SOL    HW119268   5.945   1.608   2.296
 6123SOL    HW219269   6.078   1.691   2.247
 6124SOL     OW19270   3.017   0.282   5.621
 6124SOL    HW119271   3.105   0.260   5.664
 6124SOL    HW219272   3.031   0.296   5.522
 6125SOL     OW19273   2.132   6.013   1.836
 6125SOL    HW119274   2.043   5.972   1.819
 6125SOL    HW219275   2.128   6.111   1.815
 6126SOL     OW19276   5.358   5.606   2.510
 6126SOL    HW119277   5.261   5.604   2.484
 6126SOL    HW219278   5.403   5.524   2.476
 6127SOL     OW19279   2.248   5.714   1.273
 6127SOL    HW119280   2.188   5.636   1.291
 6127SOL    HW219281   2.250   5.774   1.353
 6128SOL     OW19282   5.265   1.833   0.303
 6128SOL    HW119283   5.213   1.752   0.329
 6128SOL    HW219284   5.253   1.905   0.372
 6129SOL     OW19285   5.919   4.566   3.673
 6129SOL    HW119286   5.901   4.555   3.771
 6129SOL    HW219287   5.896   4.659   3.645
 6130SOL     OW19288   5.412   3.550   2.628
 6130SOL    HW119289   5.321   3.519   2.657
 6130SOL    HW219290   5.419   3.548   2.529
 6131SOL     OW19291   5.907   1.278   5.472
 6131SOL    HW119292   5.878   1.185   5.492
 6131SOL    HW219293   5.942   1.283   5.378
 6132SOL     OW19294   4.688   2.449   1.079
 6132SOL    HW119295   4.672   2.535   1.029
 6132SOL    HW219296   4.629   2.447   1.159
 6133SOL     OW19297   1.001   4.368   0.847
 6133SOL    HW119298   1.000   4.403   0.753
 6133SOL    HW219299   0.918   4.398   0.894
 6134SOL     OW19300   4.499   3.816   6.501
 6134SOL    HW119301   4.541   3.731   6.533
 6134SOL    HW219302   4.417   3.795   6.448
 6135SOL     OW19303   5.534   0.234   1.376
 6135SOL    HW119304   5.624   0.225   1.419
 6135SOL    HW219305   5.505   0.330   1.379
 6136SOL     OW19306   0.644   2.352   1.511
 6136SOL    HW119307   0.657   2.438   1.463
 6136SOL    HW219308   0.626   2.279   1.445
 6137SOL     OW19309   2.949   6.702   6.400
 6137SOL    HW119310   2.970   6.784   6.347
 6137SOL    HW219311   2.996   6.623   6.361
 6138SOL     OW19312   4.016   6.260   2.758
 6138SOL    HW119313   4.070   6.334   2.717
 6138SOL    HW219314   3.939   6.237   2.699
 6139SOL     OW19315   1.881   4.910   4.344
 6139SOL    HW119316   1.857   5.004   4.367
 6139SOL    HW219317   1.979   4.903   4.327
 6140SOL     OW19318   1.646   6.275   0.849
 6140SOL    HW119319   1.584   6.326   0.909
 6140SOL    HW219320   1.739   6.309   0.861
 6141SOL     OW19321   6.299   5.831   6.137
 6141SOL    HW119322   6.318   5.741   6.175
 6141SOL    HW219323   6.287   5.897   6.211
 6142SOL     OW19324   0.168   4.494   1.606
 6142SOL    HW119325   0.224   4.413   1.589
 6142SOL    HW219326   0.133   4.491   1.699
 6143SOL     OW19327   5.465   5.418   6.572
 6143SOL    HW119328   5.501   5.462   6.654
 6143SOL    HW219329   5.401   5.480   6.526
 6144SOL     OW19330   0.637   4.904   3.949
 6144SOL    HW119331   0.604   4.955   4.029
 6144SOL    HW219332   0.583   4.821   3.938
 6145SOL     OW19333   5.366   5.716   2.766
 6145SOL    HW119334   5.332   5.677   2.851
 6145SOL    HW219335   5.367   5.646   2.695
 6146SOL     OW19336   5.902   1.245   3.521
 6146SOL    HW119337   5.841   1.274   3.594
 6146SOL    HW219338   5.937   1.154   3.541
 6147SOL     OW19339   1.664   3.432   2.831
 6147SOL    HW119340   1.735   3.476   2.776
 6147SOL    HW219341   1.693   3.340   2.857
 6148SOL     OW19342   6.274   6.331   4.426
 6148SOL    HW119343   6.346   6.262   4.417
 6148SOL    HW219344   6.187   6.286   4.447
 6149SOL     OW19345   2.488   6.241   3.074
 6149SOL    HW119346   2.432   6.316   3.038
 6149SOL    HW219347   2.448   6.207   3.159
 6150SOL     OW19348   4.587   5.699   5.894
 6150SOL    HW119349   4.668   5.658   5.852
 6150SOL    HW219350   4.514   5.631   5.899
 6151SOL     OW19351   5.122   2.574   5.652
 6151SOL    HW119352   5.075   2.490   5.626
 6151SOL    HW219353   5.102   2.646   5.585
 6152SOL     OW19354   6.579   4.382   6.725
 6152SOL    HW119355   6.494   4.330   6.712
 6152SOL    HW219356   6.604   4.428   6.639
 6153SOL     OW19357   4.272   3.104   1.471
 6153SOL    HW119358   4.293   3.066   1.562
 6153SOL    HW219359   4.176   3.130   1.467
 6154SOL     OW19360   5.575   3.058   2.626
 6154SOL    HW119361   5.513   2.979   2.618
 6154SOL    HW219362   5.537   3.135   2.575
 6155SOL     OW19363   0.281   3.856   5.225
 6155SOL    HW119364   0.229   3.940   5.207
 6155SOL    HW219365   0.335   3.833   5.144
 6156SOL     OW19366   6.494   0.140   3.943
 6156SOL    HW119367   6.439   0.104   4.019
 6156SOL    HW219368   6.585   0.100   3.947
 6157SOL     OW19369   2.587   1.039   3.817
 6157SOL    HW119370   2.587   1.011   3.721
 6157SOL    HW219371   2.634   1.126   3.826
 6158SOL     OW19372   5.035   1.337   5.479
 6158SOL    HW119373   5.127   1.341   5.442
 6158SOL    HW219374   4.981   1.271   5.427
 6159SOL     OW19375   5.407   3.381   6.531
 6159SOL    HW119376   5.444   3.467   6.566
 6159SOL    HW219377   5.418   3.309   6.600
 6160SOL     OW19378   6.106   5.836   1.911
 6160SOL    HW119379   6.042   5.774   1.957
 6160SOL    HW219380   6.088   5.930   1.940
 6161SOL     OW19381   5.576   0.503   6.176
 6161SOL    HW119382   5.504   0.564   6.208
 6161SOL    HW219383   5.666   0.541   6.200
 6162SOL     OW19384   6.465   4.675   4.794
 6162SOL    HW119385   6.434   4.730   4.872
 6162SOL    HW219386   6.431   4.582   4.804
 6163SOL     OW19387   6.890   3.903   2.396
 6163SOL    HW119388   6.805   3.866   2.358
 6163SOL    HW219389   6.955   3.920   2.322
 6164SOL     OW19390   4.109   2.223   0.680
 6164SOL    HW119391   4.182   2.280   0.641
 6164SOL    HW219392   4.060   2.275   0.750
 6165SOL     OW19393   3.788   6.094   0.072
 6165SOL    HW119394   3.811   6.178   0.121
 6165SOL    HW219395   3.851   6.082   7.012
 6166SOL     OW19396   2.912   1.666   5.840
 6166SOL    HW119397   2.861   1.612   5.773
 6166SOL    HW219398   2.888   1.636   5.933
 6167SOL     OW19399   0.256   4.417   3.260
 6167SOL    HW119400   0.324   4.362   3.308
 6167SOL    HW219401   0.178   4.435   3.320
 6168SOL     OW19402   0.196   3.550   2.883
 6168SOL    HW119403   0.193   3.527   2.786
 6168SOL    HW219404   0.258   3.627   2.898
 6169SOL     OW19405   1.965   4.105   2.315
 6169SOL    HW119406   1.901   4.162   2.263
 6169SOL    HW219407   1.915   4.031   2.359
 6170SOL     OW19408   0.753   3.281   4.698
 6170SOL    HW119409   0.826   3.224   4.661
 6170SOL    HW219410   0.792   3.352   4.756
 6171SOL     OW19411   6.960   6.959   6.192
 6171SOL    HW119412   6.995   6.873   6.229
 6171SOL    HW219413   6.919   7.012   6.267
 6172SOL     OW19414   0.505   3.390   3.240
 6172SOL    HW119415   0.430   3.375   3.176
 6172SOL    HW219416   0.521   3.488   3.251
 6173SOL     OW19417   6.768   6.434   3.560
 6173SOL    HW119418   6.853   6.484   3.577
 6173SOL    HW219419   6.708   6.488   3.502
 6174SOL     OW19420   5.583   3.757   2.761
 6174SOL    HW119421   5.511   3.688   2.773
 6174SOL    HW219422   5.637   3.735   2.680
 6175SOL     OW19423   2.977   2.335   5.694
 6175SOL    HW119424   2.884   2.330   5.730
 6175SOL    HW219425   3.017   2.243   5.693
 6176SOL     OW19426   4.657   3.755   5.772
 6176SOL    HW119427   4.721   3.817   5.728
 6176SOL    HW219428   4.607   3.702   5.703
 6177SOL     OW19429   6.260   1.307   2.110
 6177SOL    HW119430   6.246   1.223   2.057
 6177SOL    HW219431   6.180   1.324   2.167
 6178SOL     OW19432   3.974   4.378   1.222
 6178SOL    HW119433   4.040   4.358   1.293
 6178SOL    HW219434   3.938   4.471   1.234
 6179SOL     OW19435   5.561   4.690   3.287
 6179SOL    HW119436   5.559   4.649   3.196
 6179SOL    HW219437   5.600   4.624   3.352
 6180SOL     OW19438   2.884   4.203   0.478
 6180SOL    HW119439   2.929   4.286   0.447
 6180SOL    HW219440   2.943   4.124   0.460
 6181SOL     OW19441   5.254   5.609   6.659
 6181SOL    HW119442   5.185   5.548   6.621
 6181SOL    HW219443   5.276   5.681   6.593
 6182SOL     OW19444   3.472   2.475   0.299
 6182SOL    HW119445   3.408   2.476   0.376
 6182SOL    HW219446   3.565   2.458   0.333
 6183SOL     OW19447   0.893   1.211   0.937
 6183SOL    HW119448   0.803   1.167   0.945
 6183SOL    HW219449   0.899   1.286   1.003
 6184SOL     OW19450   2.499   0.780   5.139
 6184SOL    HW119451   2.489   0.822   5.049
 6184SOL    HW219452   2.592   0.746   5.150
 6185SOL     OW19453   3.393   3.088   5.689
 6185SOL    HW119454   3.354   3.180   5.685
 6185SOL    HW219455   3.396   3.050   5.596
 6186SOL     OW19456   6.540   1.917   2.444
 6186SOL    HW119457   6.595   1.840   2.477
 6186SOL    HW219458   6.595   1.973   2.382
 6187SOL     OW19459   5.439   1.680   5.625
 6187SOL    HW119460   5.458   1.735   5.707
 6187SOL    HW219461   5.340   1.670   5.614
 6188SOL     OW19462   1.542   1.629   5.192
 6188SOL    HW119463   1.501   1.699   5.133
 6188SOL    HW219464   1.533   1.539   5.149
 6189SOL     OW19465   6.518   6.680   1.302
 6189SOL    HW119466   6.518   6.773   1.264
 6189SOL    HW219467   6.609   6.657   1.335
 6190SOL     OW19468   0.490   2.650   5.298
 6190SOL    HW119469   0.520   2.622   5.207
 6190SOL    HW219470   0.533   2.592   5.367
 6191SOL     OW19471   4.187   3.616   6.782
 6191SOL    HW119472   4.230   3.665   6.706
 6191SOL    HW219473   4.246   3.621   6.863
 6192SOL     OW19474   3.006   1.369   0.346
 6192SOL    HW119475   3.057   1.306   0.406
 6192SOL    HW219476   2.973   1.318   0.267
 6193SOL     OW19477   4.813   5.603   6.569
 6193SOL    HW119478   4.838   5.593   6.665
 6193SOL    HW219479   4.846   5.691   6.534
 6194SOL     OW19480   6.070   0.395   5.962
 6194SOL    HW119481   5.971   0.390   5.949
 6194SOL    HW219482   6.100   0.314   6.012
 6195SOL     OW19483   6.539   6.671   6.041
 6195SOL    HW119484   6.519   6.612   6.119
 6195SOL    HW219485   6.614   6.632   5.989
 6196SOL     OW19486   5.582   3.966   3.131
 6196SOL    HW119487   5.500   4.012   3.097
 6196SOL    HW219488   5.559   3.874   3.161
 6197SOL     OW19489   3.398   5.813   1.587
 6197SOL    HW119490   3.451   5.897   1.573
 6197SOL    HW219491   3.459   5.734   1.586
 6198SOL     OW19492   6.597   0.181   0.060
 6198SOL    HW119493   6.639   0.101   0.101
 6198SOL    HW219494   6.526   0.217   0.121
 6199SOL     OW19495   0.725   0.522   0.193
 6199SOL    HW119496   0.777   0.473   0.263
 6199SOL    HW219497   0.743   0.620   0.201
 6200SOL     OW19498   2.210   1.922   2.294
 6200SOL    HW119499   2.163   1.903   2.208
 6200SOL    HW219500   2.155   1.985   2.349
 6201SOL     OW19501   6.639   4.480   3.687
 6201SOL    HW119502   6.667   4.417   3.758
 6201SOL    HW219503   6.615   4.568   3.728
 6202SOL     OW19504   6.200   1.616   2.758
 6202SOL    HW119505   6.193   1.661   2.668
 6202SOL    HW219506   6.139   1.662   2.823
 6203SOL     OW19507   6.766   6.911   1.876
 6203SOL    HW119508   6.691   6.865   1.924
 6203SOL    HW219509   6.853   6.867   1.899
 6204SOL     OW19510   2.289   0.548   4.894
 6204SOL    HW119511   2.253   0.476   4.834
 6204SOL    HW219512   2.223   0.566   4.967
 6205SOL     OW19513   4.667   4.730   3.082
 6205SOL    HW119514   4.611   4.764   3.007
 6205SOL    HW219515   4.716   4.805   3.125
 6206SOL     OW19516   5.696   1.822   3.544
 6206SOL    HW119517   5.690   1.781   3.635
 6206SOL    HW219518   5.779   1.878   3.538
 6207SOL     OW19519   2.213   4.688   4.656
 6207SOL    HW119520   2.265   4.603   4.667
 6207SOL    HW219521   2.276   4.765   4.644
 6208SOL     OW19522   3.947   3.532   5.577
 6208SOL    HW119523   3.858   3.491   5.556
 6208SOL    HW219524   4.009   3.517   5.500
 6209SOL     OW19525   3.718   2.148   1.410
 6209SOL    HW119526   3.644   2.158   1.344
 6209SOL    HW219527   3.681   2.156   1.503
 6210SOL     OW19528   4.684   2.052   4.203
 6210SOL    HW119529   4.669   1.966   4.253
 6210SOL    HW219530   4.774   2.051   4.160
 6211SOL     OW19531   5.518   4.928   5.407
 6211SOL    HW119532   5.483   4.970   5.323
 6211SOL    HW219533   5.507   4.828   5.401
 6212SOL     OW19534   4.633   5.156   5.001
 6212SOL    HW119535   4.664   5.149   4.906
 6212SOL    HW219536   4.583   5.242   5.013
 6213SOL     OW19537   4.062   6.044   0.310
 6213SOL    HW119538   4.122   6.026   0.387
 6213SOL    HW219539   4.084   6.132   0.269
 6214SOL     OW19540   6.084   5.603   6.405
 6214SOL    HW119541   6.176   5.612   6.365
 6214SOL    HW219542   6.072   5.672   6.477
 6215SOL     OW19543   5.660   2.712   5.797
 6215SOL    HW119544   5.717   2.787   5.764
 6215SOL    HW219545   5.703   2.624   5.775
 6216SOL     OW19546   4.301   2.375   3.448
 6216SOL    HW119547   4.286   2.381   3.349
 6216SOL    HW219548   4.217   2.345   3.493
 6217SOL     OW19549   0.559   4.405   2.328
 6217SOL    HW119550   0.623   4.338   2.366
 6217SOL    HW219551   0.537   4.473   2.397
 6218SOL     OW19552   4.347   6.785   0.173
 6218SOL    HW119553   4.364   6.841   0.092
 6218SOL    HW219554   4.259   6.810   0.213
 6219SOL     OW19555   1.022   0.519   6.022
 6219SOL    HW119556   1.096   0.586   6.023
 6219SOL    HW219557   1.039   0.452   5.950
 6220SOL     OW19558   4.117   0.751   1.038
 6220SOL    HW119559   4.069   0.683   0.983
 6220SOL    HW219560   4.080   0.751   1.130
 6221SOL     OW19561   5.581   5.538   0.107
 6221SOL    HW119562   5.504   5.569   0.163
 6221SOL    HW219563   5.551   5.526   0.012
 6222SOL     OW19564   6.269   1.823   2.193
 6222SOL    HW119565   6.331   1.781   2.259
 6222SOL    HW219566   6.295   1.919   2.178
 6223SOL     OW19567   0.408   5.116   3.740
 6223SOL    HW119568   0.425   5.189   3.805
 6223SOL    HW219569   0.444   5.141   3.651
 6224SOL     OW19570   4.004   1.012   6.925
 6224SOL    HW119571   3.986   1.034   0.004
 6224SOL    HW219572   4.092   0.964   6.918
 6225SOL     OW19573   4.686   6.176   6.502
 6225SOL    HW119574   4.737   6.190   6.587
 6225SOL    HW219575   4.590   6.159   6.524
 6226SOL     OW19576   1.510   1.182   4.603
 6226SOL    HW119577   1.545   1.249   4.538
 6226SOL    HW219578   1.556   1.193   4.691
 6227SOL     OW19579   2.733   4.567   5.387
 6227SOL    HW119580   2.650   4.577   5.333
 6227SOL    HW219581   2.805   4.527   5.331
 6228SOL     OW19582   1.432   3.574   3.766
 6228SOL    HW119583   1.468   3.481   3.750
 6228SOL    HW219584   1.335   3.576   3.744
 6229SOL     OW19585   0.700   3.533   4.197
 6229SOL    HW119586   0.782   3.534   4.139
 6229SOL    HW219587   0.723   3.568   4.288
 6230SOL     OW19588   7.005   0.876   2.190
 6230SOL    HW119589   0.062   0.854   2.253
 6230SOL    HW219590   0.027   0.904   2.102
 6231SOL     OW19591   1.249   5.189   6.662
 6231SOL    HW119592   1.169   5.130   6.659
 6231SOL    HW219593   1.332   5.133   6.666
 6232SOL     OW19594   4.482   1.130   6.182
 6232SOL    HW119595   4.511   1.121   6.277
 6232SOL    HW219596   4.523   1.057   6.127
 6233SOL     OW19597   6.882   3.770   1.267
 6233SOL    HW119598   6.962   3.721   1.302
 6233SOL    HW219599   6.812   3.774   1.338
 6234SOL     OW19600   4.527   5.509   4.737
 6234SOL    HW119601   4.540   5.605   4.712
 6234SOL    HW219602   4.429   5.492   4.749
 6235SOL     OW19603   6.370   0.611   2.783
 6235SOL    HW119604   6.367   0.582   2.878
 6235SOL    HW219605   6.277   0.615   2.746
 6236SOL     OW19606   0.793   5.370   1.247
 6236SOL    HW119607   0.855   5.400   1.319
 6236SOL    HW219608   0.810   5.424   1.164
 6237SOL     OW19609   3.643   1.506   0.267
 6237SOL    HW119610   3.617   1.586   0.212
 6237SOL    HW219611   3.594   1.509   0.355
 6238SOL     OW19612   2.217   0.154   4.169
 6238SOL    HW119613   2.248   0.086   4.103
 6238SOL    HW219614   2.244   0.245   4.139
 6239SOL     OW19615   4.380   1.183   3.836
 6239SOL    HW119616   4.338   1.200   3.747
 6239SOL    HW219617   4.383   1.269   3.888
 6240SOL     OW19618   3.941   3.170   3.584
 6240SOL    HW119619   4.017   3.234   3.576
 6240SOL    HW219620   3.895   3.185   3.672
 6241SOL     OW19621   3.585   0.288   2.701
 6241SOL    HW119622   3.521   0.314   2.629
 6241SOL    HW219623   3.600   0.365   2.763
 6242SOL     OW19624   2.775   1.830   3.231
 6242SOL    HW119625   2.859   1.791   3.267
 6242SOL    HW219626   2.745   1.777   3.151
 6243SOL     OW19627   4.765   1.353   6.447
 6243SOL    HW119628   4.671   1.335   6.478
 6243SOL    HW219629   4.805   1.425   6.503
 6244SOL     OW19630   5.165   4.100   2.383
 6244SOL    HW119631   5.227   4.025   2.358
 6244SOL    HW219632   5.070   4.071   2.369
 6245SOL     OW19633   0.164   4.449   2.590
 6245SOL    HW119634   0.137   4.353   2.578
 6245SOL    HW219635   0.198   4.485   2.504
 6246SOL     OW19636   6.842   6.558   4.274
 6246SOL    HW119637   6.839   6.594   4.180
 6246SOL    HW219638   6.931   6.579   4.315
 6247SOL     OW19639   6.682   6.679   3.112
 6247SOL    HW119640   6.727   6.754   3.159
 6247SOL    HW219641   6.702   6.684   3.014
 6248SOL     OW19642   3.494   3.243   6.020
 6248SOL    HW119643   3.545   3.171   5.971
 6248SOL    HW219644   3.436   3.202   6.090
 6249SOL     OW19645   5.885   2.823   1.471
 6249SOL    HW119646   5.931   2.870   1.396
 6249SOL    HW219647   5.805   2.876   1.500
 6250SOL     OW19648   6.344   0.554   0.607
 6250SOL    HW119649   6.393   0.597   0.683
 6250SOL    HW219650   6.254   0.597   0.597
 6251SOL     OW19651   2.495   6.895   4.121
 6251SOL    HW119652   2.500   6.962   4.195
 6251SOL    HW219653   2.410   6.908   4.069
 6252SOL     OW19654   3.144   5.594   6.889
 6252SOL    HW119655   3.176   5.684   6.919
 6252SOL    HW219656   3.049   5.581   6.918
 6253SOL     OW19657   3.277   5.113   4.881
 6253SOL    HW119658   3.374   5.107   4.858
 6253SOL    HW219659   3.224   5.136   4.799
 6254SOL     OW19660   0.727   6.976   1.274
 6254SOL    HW119661   0.652   0.009   1.318
 6254SOL    HW219662   0.803   0.023   1.257
 6255SOL     OW19663   0.301   1.510   2.068
 6255SOL    HW119664   0.374   1.572   2.039
 6255SOL    HW219665   0.341   1.428   2.109
 6256SOL     OW19666   5.007   5.725   2.537
 6256SOL    HW119667   4.994   5.777   2.622
 6256SOL    HW219668   4.925   5.733   2.481
 6257SOL     OW19669   3.175   3.856   1.271
 6257SOL    HW119670   3.095   3.913   1.292
 6257SOL    HW219671   3.186   3.851   1.172
 6258SOL     OW19672   3.545   5.084   4.776
 6258SOL    HW119673   3.631   5.130   4.799
 6258SOL    HW219674   3.555   5.040   4.687
 6259SOL     OW19675   3.511   0.639   4.610
 6259SOL    HW119676   3.478   0.629   4.516
 6259SOL    HW219677   3.437   0.615   4.674
 6260SOL     OW19678   1.499   1.525   7.004
 6260SOL    HW119679   1.427   1.568   6.951
 6260SOL    HW219680   1.588   1.560   6.976
 6261SOL     OW19681   3.509   0.311   1.012
 6261SOL    HW119682   3.417   0.274   1.022
 6261SOL    HW219683   3.537   0.357   1.096
 6262SOL     OW19684   5.594   0.288   2.620
 6262SOL    HW119685   5.648   0.252   2.544
 6262SOL    HW219686   5.497   0.275   2.602
 6263SOL     OW19687   6.023   6.179   6.031
 6263SOL    HW119688   6.033   6.081   6.046
 6263SOL    HW219689   5.946   6.214   6.084
 6264SOL     OW19690   2.431   0.232   0.066
 6264SOL    HW119691   2.368   0.163   0.031
 6264SOL    HW219692   2.416   0.245   0.164
 6265SOL     OW19693   4.927   0.678   6.527
 6265SOL    HW119694   5.026   0.664   6.520
 6265SOL    HW219695   4.885   0.595   6.565
 6266SOL     OW19696   2.557   5.025   2.963
 6266SOL    HW119697   2.572   4.930   2.989
 6266SOL    HW219698   2.580   5.037   2.866
 6267SOL     OW19699   2.555   6.085   4.886
 6267SOL    HW119700   2.496   6.089   4.967
 6267SOL    HW219701   2.641   6.039   4.909
 6268SOL     OW19702   3.266   1.344   1.106
 6268SOL    HW119703   3.316   1.328   1.191
 6268SOL    HW219704   3.202   1.269   1.090
 6269SOL     OW19705   6.027   4.811   0.163
 6269SOL    HW119706   6.021   4.763   0.251
 6269SOL    HW219707   5.955   4.880   0.157
 6270SOL     OW19708   2.121   5.703   0.710
 6270SOL    HW119709   2.105   5.737   0.617
 6270SOL    HW219710   2.097   5.606   0.714
 6271SOL     OW19711   6.060   3.264   6.097
 6271SOL    HW119712   5.982   3.263   6.035
 6271SOL    HW219713   6.124   3.191   6.073
 6272SOL     OW19714   0.375   6.866   0.655
 6272SOL    HW119715   0.330   6.952   0.679
 6272SOL    HW219716   0.318   6.816   0.590
 6273SOL     OW19717   0.662   6.680   1.325
 6273SOL    HW119718   0.755   6.652   1.347
 6273SOL    HW219719   0.660   6.779   1.308
 6274SOL     OW19720   2.993   5.366   3.188
 6274SOL    HW119721   3.080   5.327   3.161
 6274SOL    HW219722   2.965   5.330   3.276
 6275SOL     OW19723   1.855   5.302   6.791
 6275SOL    HW119724   1.818   5.390   6.759
 6275SOL    HW219725   1.954   5.301   6.779
 6276SOL     OW19726   2.024   5.394   2.934
 6276SOL    HW119727   1.985   5.423   3.021
 6276SOL    HW219728   2.115   5.434   2.923
 6277SOL     OW19729   5.117   3.313   1.381
 6277SOL    HW119730   5.079   3.220   1.383
 6277SOL    HW219731   5.104   3.355   1.471
 6278SOL     OW19732   2.804   1.188   6.613
 6278SOL    HW119733   2.708   1.215   6.620
 6278SOL    HW219734   2.813   1.089   6.628
 6279SOL     OW19735   2.931   6.854   2.097
 6279SOL    HW119736   2.945   6.893   2.006
 6279SOL    HW219737   2.836   6.825   2.107
 6280SOL     OW19738   6.192   2.526   6.963
 6280SOL    HW119739   6.138   2.476   0.015
 6280SOL    HW219740   6.212   2.466   6.885
 6281SOL     OW19741   5.497   3.803   6.207
 6281SOL    HW119742   5.427   3.733   6.222
 6281SOL    HW219743   5.533   3.833   6.296
 6282SOL     OW19744   0.130   3.497   6.399
 6282SOL    HW119745   0.034   3.491   6.375
 6282SOL    HW219746   0.149   3.586   6.440
 6283SOL     OW19747   1.528   6.195   5.134
 6283SOL    HW119748   1.449   6.154   5.088
 6283SOL    HW219749   1.588   6.238   5.067
 6284SOL     OW19750   1.430   4.193   6.014
 6284SOL    HW119751   1.488   4.273   6.027
 6284SOL    HW219752   1.334   4.220   6.021
 6285SOL     OW19753   1.173   3.661   2.939
 6285SOL    HW119754   1.177   3.707   3.027
 6285SOL    HW219755   1.196   3.726   2.866
 6286SOL     OW19756   0.747   2.324   0.391
 6286SOL    HW119757   0.814   2.250   0.396
 6286SOL    HW219758   0.674   2.299   0.327
 6287SOL     OW19759   4.920   4.961   4.987
 6287SOL    HW119760   4.851   4.909   4.936
 6287SOL    HW219761   4.940   5.046   4.938
 6288SOL     OW19762   3.321   3.444   6.471
 6288SOL    HW119763   3.338   3.382   6.547
 6288SOL    HW219764   3.376   3.526   6.482
 6289SOL     OW19765   2.698   4.619   5.847
 6289SOL    HW119766   2.760   4.604   5.925
 6289SOL    HW219767   2.744   4.592   5.762
 6290SOL     OW19768   5.680   5.813   4.284
 6290SOL    HW119769   5.627   5.894   4.259
 6290SOL    HW219770   5.681   5.749   4.207
 6291SOL     OW19771   3.779   3.354   2.848
 6291SOL    HW119772   3.702   3.400   2.805
 6291SOL    HW219773   3.749   3.310   2.933
 6292SOL     OW19774   1.607   3.349   4.597
 6292SOL    HW119775   1.656   3.430   4.565
 6292SOL    HW219776   1.511   3.374   4.615
 6293SOL     OW19777   3.254   1.026   6.608
 6293SOL    HW119778   3.180   1.083   6.574
 6293SOL    HW219779   3.319   1.008   6.534
 6294SOL     OW19780   1.550   1.580   2.912
 6294SOL    HW119781   1.639   1.623   2.930
 6294SOL    HW219782   1.477   1.646   2.931
 6295SOL     OW19783   5.185   3.741   6.026
 6295SOL    HW119784   5.201   3.714   6.121
 6295SOL    HW219785   5.105   3.693   5.991
 6296SOL     OW19786   0.911   2.961   0.560
 6296SOL    HW119787   0.892   2.986   0.465
 6296SOL    HW219788   0.912   3.043   0.617
 6297SOL     OW19789   5.888   1.208   4.364
 6297SOL    HW119790   5.856   1.218   4.270
 6297SOL    HW219791   5.946   1.286   4.389
 6298SOL     OW19792   6.661   6.131   0.635
 6298SOL    HW119793   6.761   6.141   0.640
 6298SOL    HW219794   6.624   6.125   0.728
 6299SOL     OW19795   4.076   1.147   3.023
 6299SOL    HW119796   4.091   1.221   2.959
 6299SOL    HW219797   3.997   1.093   2.994
 6300SOL     OW19798   2.191   1.109   6.351
 6300SOL    HW119799   2.212   1.170   6.275
 6300SOL    HW219800   2.092   1.092   6.353
 6301SOL     OW19801   4.030   6.312   7.000
 6301SOL    HW119802   3.988   6.338   6.913
 6301SOL    HW219803   4.102   6.377   0.006
 6302SOL     OW19804   3.254   2.496   6.142
 6302SOL    HW119805   3.256   2.572   6.077
 6302SOL    HW219806   3.163   2.491   6.185
 6303SOL     OW19807   0.635   5.997   5.043
 6303SOL    HW119808   0.701   6.017   5.115
 6303SOL    HW219809   0.611   5.900   5.046
 6304SOL     OW19810   3.717   1.047   4.261
 6304SOL    HW119811   3.807   1.069   4.224
 6304SOL    HW219812   3.725   1.021   4.357
 6305SOL     OW19813   0.411   6.034   6.340
 6305SOL    HW119814   0.330   5.978   6.325
 6305SOL    HW219815   0.453   6.010   6.427
 6306SOL     OW19816   0.053   5.329   4.494
 6306SOL    HW119817   6.999   5.400   4.495
 6306SOL    HW219818   0.020   5.249   4.444
 6307SOL     OW19819   3.842   2.985   2.244
 6307SOL    HW119820   3.898   2.966   2.325
 6307SOL    HW219821   3.892   3.049   2.184
 6308SOL     OW19822   0.336   2.422   0.526
 6308SOL    HW119823   0.426   2.445   0.562
 6308SOL    HW219824   0.300   2.341   0.573
 6309SOL     OW19825   2.333   6.132   4.623
 6309SOL    HW119826   2.369   6.225   4.619
 6309SOL    HW219827   2.408   6.067   4.613
 6310SOL     OW19828   1.841   0.021   2.865
 6310SOL    HW119829   1.773   7.006   2.798
 6310SOL    HW219830   1.931   0.028   2.820
 6311SOL     OW19831   5.802   1.031   6.395
 6311SOL    HW119832   5.777   1.127   6.386
 6311SOL    HW219833   5.894   1.017   6.359
 6312SOL     OW19834   3.643   5.755   6.518
 6312SOL    HW119835   3.645   5.663   6.557
 6312SOL    HW219836   3.581   5.757   6.440
 6313SOL     OW19837   5.294   5.081   4.901
 6313SOL    HW119838   5.284   5.006   4.966
 6313SOL    HW219839   5.232   5.067   4.824
 6314SOL     OW19840   1.888   6.931   2.271
 6314SOL    HW119841   1.824   6.907   2.199
 6314SOL    HW219842   1.892   0.015   2.280
 6315SOL     OW19843   2.291   2.425   4.572
 6315SOL    HW119844   2.192   2.410   4.562
 6315SOL    HW219845   2.309   2.523   4.582
 6316SOL     OW19846   4.510   1.011   4.565
 6316SOL    HW119847   4.469   0.920   4.557
 6316SOL    HW219848   4.583   1.007   4.634
 6317SOL     OW19849   5.510   4.797   1.486
 6317SOL    HW119850   5.519   4.732   1.561
 6317SOL    HW219851   5.598   4.840   1.468
 6318SOL     OW19852   6.641   6.667   0.449
 6318SOL    HW119853   6.559   6.627   0.491
 6318SOL    HW219854   6.661   6.619   0.364
 6319SOL     OW19855   5.062   1.137   4.192
 6319SOL    HW119856   5.000   1.073   4.149
 6319SOL    HW219857   5.101   1.096   4.275
 6320SOL     OW19858   6.310   1.369   5.858
 6320SOL    HW119859   6.409   1.358   5.871
 6320SOL    HW219860   6.263   1.290   5.896
 6321SOL     OW19861   6.464   2.469   6.486
 6321SOL    HW119862   6.463   2.464   6.585
 6321SOL    HW219863   6.478   2.564   6.457
 6322SOL     OW19864   1.079   1.234   2.215
 6322SOL    HW119865   1.055   1.189   2.301
 6322SOL    HW219866   1.011   1.303   2.193
 6323SOL     OW19867   2.171   4.753   1.349
 6323SOL    HW119868   2.132   4.816   1.417
 6323SOL    HW219869   2.176   4.661   1.389
 6324SOL     OW19870   4.523   2.132   1.190
 6324SOL    HW119871   4.583   2.100   1.117
 6324SOL    HW219872   4.577   2.179   1.260
 6325SOL     OW19873   1.482   3.159   4.100
 6325SOL    HW119874   1.554   3.093   4.082
 6325SOL    HW219875   1.508   3.248   4.064
 6326SOL     OW19876   5.237   4.942   6.123
 6326SOL    HW119877   5.278   4.887   6.196
 6326SOL    HW219878   5.298   4.945   6.044
 6327SOL     OW19879   0.355   0.354   3.854
 6327SOL    HW119880   0.262   0.346   3.889
 6327SOL    HW219881   0.375   0.277   3.794
 6328SOL     OW19882   4.432   3.492   5.291
 6328SOL    HW119883   4.514   3.524   5.245
 6328SOL    HW219884   4.353   3.500   5.230
 6329SOL     OW19885   0.454   2.575   6.068
 6329SOL    HW119886   0.368   2.561   6.117
 6329SOL    HW219887   0.453   2.664   6.023
 6330SOL     OW19888   5.525   1.263   3.448
 6330SOL    HW119889   5.587   1.271   3.370
 6330SOL    HW219890   5.495   1.354   3.476
 6331SOL     OW19891   0.897   2.958   3.808
 6331SOL    HW119892   0.969   2.907   3.761
 6331SOL    HW219893   0.810   2.942   3.763
 6332SOL     OW19894   3.329   1.447   0.023
 6332SOL    HW119895   3.290   1.540   0.020
 6332SOL    HW219896   3.409   1.443   6.981
 6333SOL     OW19897   5.619   1.693   0.578
 6333SOL    HW119898   5.530   1.687   0.623
 6333SOL    HW219899   5.634   1.611   0.523
 6334SOL     OW19900   1.294   1.400   2.100
 6334SOL    HW119901   1.297   1.460   2.181
 6334SOL    HW219902   1.231   1.324   2.117
 6335SOL     OW19903   6.472   1.769   0.080
 6335SOL    HW119904   6.443   1.824   0.158
 6335SOL    HW219905   6.504   1.680   0.111
 6336SOL     OW19906   0.828   4.027   5.455
 6336SOL    HW119907   0.915   3.989   5.486
 6336SOL    HW219908   0.765   3.952   5.433
 6337SOL     OW19909   5.086   5.872   5.185
 6337SOL    HW119910   5.185   5.863   5.182
 6337SOL    HW219911   5.045   5.785   5.212
 6338SOL     OW19912   1.818   1.133   2.985
 6338SOL    HW119913   1.877   1.167   3.059
 6338SOL    HW219914   1.738   1.193   2.976
 6339SOL     OW19915   0.435   4.648   3.492
 6339SOL    HW119916   0.366   4.579   3.517
 6339SOL    HW219917   0.419   4.677   3.397
 6340SOL     OW19918   3.046   3.942   0.473
 6340SOL    HW119919   3.017   3.857   0.518
 6340SOL    HW219920   3.139   3.930   0.436
 6341SOL     OW19921   0.354   5.300   2.865
 6341SOL    HW119922   0.288   5.260   2.801
 6341SOL    HW219923   0.307   5.337   2.944
 6342SOL     OW19924   2.185   0.739   1.162
 6342SOL    HW119925   2.208   0.836   1.152
 6342SOL    HW219926   2.201   0.710   1.257
 6343SOL     OW19927   0.858   5.173   0.810
 6343SOL    HW119928   0.760   5.184   0.795
 6343SOL    HW219929   0.875   5.085   0.855
 6344SOL     OW19930   6.936   1.010   4.175
 6344SOL    HW119931   6.838   0.990   4.169
 6344SOL    HW219932   6.958   1.090   4.120
 6345SOL     OW19933   5.839   3.030   1.739
 6345SOL    HW119934   5.796   2.970   1.806
 6345SOL    HW219935   5.776   3.047   1.663
 6346SOL     OW19936   0.007   4.897   5.912
 6346SOL    HW119937   0.035   4.809   5.873
 6346SOL    HW219938   0.034   4.901   6.008
 6347SOL     OW19939   1.937   1.975   3.076
 6347SOL    HW119940   1.974   1.918   3.003
 6347SOL    HW219941   1.838   1.985   3.065
 6348SOL     OW19942   0.755   2.155   6.217
 6348SOL    HW119943   0.848   2.185   6.194
 6348SOL    HW219944   0.712   2.116   6.136
 6349SOL     OW19945   6.774   0.872   0.228
 6349SOL    HW119946   6.817   0.954   0.190
 6349SOL    HW219947   6.828   0.840   0.306
 6350SOL     OW19948   0.992   5.410   2.100
 6350SOL    HW119949   1.008   5.408   2.001
 6350SOL    HW219950   1.036   5.491   2.139
 6351SOL     OW19951   5.449   3.074   1.851
 6351SOL    HW119952   5.388   3.027   1.914
 6351SOL    HW219953   5.535   3.023   1.844
 6352SOL     OW19954   3.127   0.524   3.859
 6352SOL    HW119955   3.162   0.603   3.809
 6352SOL    HW219956   3.052   0.552   3.918
 6353SOL     OW19957   3.573   6.559   5.519
 6353SOL    HW119958   3.566   6.463   5.495
 6353SOL    HW219959   3.600   6.567   5.615
 6354SOL     OW19960   4.794   5.635   1.178
 6354SOL    HW119961   4.715   5.578   1.157
 6354SOL    HW219962   4.830   5.675   1.093
 6355SOL     OW19963   2.729   4.676   0.866
 6355SOL    HW119964   2.766   4.622   0.791
 6355SOL    HW219965   2.648   4.631   0.903
 6356SOL     OW19966   6.294   5.184   6.298
 6356SOL    HW119967   6.272   5.127   6.218
 6356SOL    HW219968   6.394   5.191   6.307
 6357SOL     OW19969   5.724   1.357   2.094
 6357SOL    HW119970   5.803   1.378   2.038
 6357SOL    HW219971   5.715   1.425   2.167
 6358SOL     OW19972   1.407   1.987   5.721
 6358SOL    HW119973   1.489   2.038   5.745
 6358SOL    HW219974   1.394   1.912   5.785
 6359SOL     OW19975   5.521   6.809   0.677
 6359SOL    HW119976   5.503   6.850   0.766
 6359SOL    HW219977   5.570   6.875   0.619
 6360SOL     OW19978   0.463   1.800   2.517
 6360SOL    HW119979   0.543   1.842   2.474
 6360SOL    HW219980   0.380   1.840   2.478
 6361SOL     OW19981   0.035   1.103   6.634
 6361SOL    HW119982   0.061   1.025   6.576
 6361SOL    HW219983   6.964   1.083   6.678
 6362SOL     OW19984   1.257   5.593   0.419
 6362SOL    HW119985   1.261   5.608   0.320
 6362SOL    HW219986   1.163   5.602   0.451
 6363SOL     OW19987   2.410   4.422   3.033
 6363SOL    HW119988   2.455   4.418   2.944
 6363SOL    HW219989   2.392   4.329   3.066
 6364SOL     OW19990   2.582   2.512   4.140
 6364SOL    HW119991   2.567   2.496   4.238
 6364SOL    HW219992   2.535   2.596   4.112
 6365SOL     OW19993   5.138   6.583   3.114
 6365SOL    HW119994   5.151   6.509   3.179
 6365SOL    HW219995   5.224   6.631   3.100
 6366SOL     OW19996   6.177   0.254   5.121
 6366SOL    HW119997   6.231   0.176   5.088
 6366SOL    HW219998   6.135   0.230   5.208
 6367SOL     OW19999   1.630   1.926   2.389
 6367SOL    HW120000   1.719   1.969   2.376
 6367SOL    HW220001   1.637   1.853   2.457
 6368SOL     OW20002   4.879   3.290   4.771
 6368SOL    HW120003   4.974   3.261   4.761
 6368SOL    HW220004   4.850   3.276   4.866
 6369SOL     OW20005   4.284   5.243   0.252
 6369SOL    HW120006   4.288   5.323   0.311
 6369SOL    HW220007   4.286   5.160   0.308
 6370SOL     OW20008   5.406   3.980   4.499
 6370SOL    HW120009   5.320   3.953   4.457
 6370SOL    HW220010   5.477   3.913   4.478
 6371SOL     OW20011   5.433   4.081   0.869
 6371SOL    HW120012   5.403   4.115   0.958
 6371SOL    HW220013   5.354   4.055   0.815
 6372SOL     OW20014   6.450   1.660   2.340
 6372SOL    HW120015   6.438   1.565   2.313
 6372SOL    HW220016   6.490   1.664   2.432
 6373SOL     OW20017   5.092   4.471   1.757
 6373SOL    HW120018   5.003   4.491   1.798
 6373SOL    HW220019   5.121   4.549   1.702
 6374SOL     OW20020   4.254   3.958   6.676
 6374SOL    HW120021   4.272   3.874   6.625
 6374SOL    HW220022   4.299   4.035   6.630
 6375SOL     OW20023   5.264   2.312   2.103
 6375SOL    HW120024   5.296   2.232   2.154
 6375SOL    HW220025   5.168   2.330   2.126
 6376SOL     OW20026   3.326   0.742   6.881
 6376SOL    HW120027   3.266   0.722   6.959
 6376SOL    HW220028   3.287   0.703   6.798
 6377SOL     OW20029   0.378   0.352   0.702
 6377SOL    HW120030   0.423   0.263   0.708
 6377SOL    HW220031   0.305   0.348   0.633
 6378SOL     OW20032   5.074   4.742   1.876
 6378SOL    HW120033   4.986   4.778   1.906
 6378SOL    HW220034   5.083   4.753   1.777
 6379SOL     OW20035   2.125   5.302   6.500
 6379SOL    HW120036   2.144   5.249   6.417
 6379SOL    HW220037   2.027   5.321   6.506
 6380SOL     OW20038   1.448   3.695   4.940
 6380SOL    HW120039   1.523   3.754   4.969
 6380SOL    HW220040   1.444   3.692   4.840
 6381SOL     OW20041   4.315   2.344   0.531
 6381SOL    HW120042   4.355   2.300   0.451
 6381SOL    HW220043   4.370   2.424   0.555
 6382SOL     OW20044   1.472   1.415   0.684
 6382SOL    HW120045   1.377   1.446   0.686
 6382SOL    HW220046   1.518   1.445   0.768
 6383SOL     OW20047   2.125   2.414   1.783
 6383SOL    HW120048   2.179   2.491   1.817
 6383SOL    HW220049   2.121   2.343   1.853
 6384SOL     OW20050   6.720   2.721   2.558
 6384SOL    HW120051   6.743   2.641   2.502
 6384SOL    HW220052   6.798   2.784   2.560
 6385SOL     OW20053   0.419   2.901   0.977
 6385SOL    HW120054   0.413   2.961   0.897
 6385SOL    HW220055   0.434   2.957   1.059
 6386SOL     OW20056   2.694   3.582   0.221
 6386SOL    HW120057   2.701   3.492   0.265
 6386SOL    HW220058   2.687   3.652   0.292
 6387SOL     OW20059   6.984   0.085   6.865
 6387SOL    HW120060   6.898   0.106   6.819
 6387SOL    HW220061   6.970   0.089   6.965
 6388SOL     OW20062   6.450   5.567   2.369
 6388SOL    HW120063   6.471   5.590   2.274
 6388SOL    HW220064   6.525   5.513   2.407
 6389SOL     OW20065   0.355   0.564   0.358
 6389SOL    HW120066   0.347   0.507   0.277
 6389SOL    HW220067   0.446   0.554   0.398
 6390SOL     OW20068   5.265   0.276   6.552
 6390SOL    HW120069   5.278   0.251   6.456
 6390SOL    HW220070   5.313   0.361   6.572
 6391SOL     OW20071   1.186   1.604   4.893
 6391SOL    HW120072   1.128   1.632   4.970
 6391SOL    HW220073   1.235   1.684   4.858
 6392SOL     OW20074   3.748   6.809   3.569
 6392SOL    HW120075   3.761   6.908   3.573
 6392SOL    HW220076   3.837   6.764   3.563
 6393SOL     OW20077   0.523   5.105   6.950
 6393SOL    HW120078   0.496   5.012   6.927
 6393SOL    HW220079   0.620   5.108   6.973
 6394SOL     OW20080   1.584   6.011   1.628
 6394SOL    HW120081   1.512   5.996   1.696
 6394SOL    HW220082   1.550   5.989   1.537
 6395SOL     OW20083   2.311   4.190   3.171
 6395SOL    HW120084   2.333   4.107   3.119
 6395SOL    HW220085   2.212   4.197   3.181
 6396SOL     OW20086   1.225   3.625   5.917
 6396SOL    HW120087   1.223   3.562   5.995
 6396SOL    HW220088   1.229   3.719   5.951
 6397SOL     OW20089   5.424   3.861   4.194
 6397SOL    HW120090   5.419   3.763   4.208
 6397SOL    HW220091   5.331   3.898   4.188
 6398SOL     OW20092   2.257   0.262   1.236
 6398SOL    HW120093   2.276   0.165   1.218
 6398SOL    HW220094   2.172   0.270   1.288
 6399SOL     OW20095   3.036   0.623   6.081
 6399SOL    HW120096   3.014   0.697   6.145
 6399SOL    HW220097   3.133   0.626   6.059
 6400SOL     OW20098   1.229   6.375   3.094
 6400SOL    HW120099   1.306   6.313   3.112
 6400SOL    HW220100   1.202   6.420   3.179
 6401SOL     OW20101   3.756   5.375   3.269
 6401SOL    HW120102   3.750   5.447   3.339
 6401SOL    HW220103   3.849   5.340   3.266
 6402SOL     OW20104   2.252   4.561   5.188
 6402SOL    HW120105   2.286   4.600   5.274
 6402SOL    HW220106   2.268   4.463   5.187
 6403SOL     OW20107   4.926   5.395   5.412
 6403SOL    HW120108   4.909   5.452   5.493
 6403SOL    HW220109   4.922   5.452   5.330
 6404SOL     OW20110   4.408   6.484   1.775
 6404SOL    HW120111   4.429   6.535   1.858
 6404SOL    HW220112   4.484   6.492   1.710
 6405SOL     OW20113   5.528   1.796   2.966
 6405SOL    HW120114   5.548   1.862   3.039
 6405SOL    HW220115   5.480   1.717   3.003
 6406SOL     OW20116   6.860   3.313   3.611
 6406SOL    HW120117   6.918   3.385   3.650
 6406SOL    HW220118   6.766   3.345   3.606
 6407SOL     OW20119   0.605   5.876   2.014
 6407SOL    HW120120   0.650   5.897   2.101
 6407SOL    HW220121   0.674   5.852   1.946
 6408SOL     OW20122   6.418   0.591   2.307
 6408SOL    HW120123   6.424   0.559   2.401
 6408SOL    HW220124   6.502   0.566   2.258
 6409SOL     OW20125   5.306   5.360   3.451
 6409SOL    HW120126   5.327   5.456   3.430
 6409SOL    HW220127   5.264   5.318   3.371
 6410SOL     OW20128   1.661   1.452   6.681
 6410SOL    HW120129   1.574   1.461   6.633
 6410SOL    HW220130   1.646   1.406   6.769
 6411SOL     OW20131   0.541   2.648   1.935
 6411SOL    HW120132   0.584   2.710   2.001
 6411SOL    HW220133   0.585   2.559   1.939
 6412SOL     OW20134   3.426   0.960   0.059
 6412SOL    HW120135   3.445   0.914   0.145
 6412SOL    HW220136   3.428   1.059   0.072
 6413SOL     OW20137   4.891   6.331   3.064
 6413SOL    HW120138   4.919   6.353   2.971
 6413SOL    HW220139   4.846   6.410   3.105
 6414SOL     OW20140   1.338   0.286   0.047
 6414SOL    HW120141   1.276   0.364   0.052
 6414SOL    HW220142   1.414   0.306   7.002
 6415SOL     OW20143   0.418   2.415   3.676
 6415SOL    HW120144   0.356   2.490   3.701
 6415SOL    HW220145   0.369   2.328   3.680
 6416SOL     OW20146   2.257   6.606   0.427
 6416SOL    HW120147   2.198   6.533   0.392
 6416SOL    HW220148   2.352   6.577   0.424
 6417SOL     OW20149   4.495   2.512   6.721
 6417SOL    HW120150   4.512   2.578   6.648
 6417SOL    HW220151   4.464   2.561   6.803
 6418SOL     OW20152   5.016   4.318   0.202
 6418SOL    HW120153   5.107   4.349   0.174
 6418SOL    HW220154   5.019   4.284   0.296
 6419SOL     OW20155   1.231   6.355   5.998
 6419SOL    HW120156   1.323   6.354   5.960
 6419SOL    HW220157   1.187   6.267   5.979
 6420SOL     OW20158   2.012   4.114   4.625
 6420SOL    HW120159   2.051   4.197   4.666
 6420SOL    HW220160   2.042   4.107   4.530
 6421SOL     OW20161   4.011   0.467   2.048
 6421SOL    HW120162   3.961   0.521   2.116
 6421SOL    HW220163   4.109   0.480   2.060
 6422SOL     OW20164   5.799   2.138   4.316
 6422SOL    HW120165   5.839   2.096   4.398
 6422SOL    HW220166   5.714   2.090   4.293
 6423SOL     OW20167   1.729   4.340   4.563
 6423SOL    HW120168   1.783   4.402   4.621
 6423SOL    HW220169   1.776   4.252   4.555
 6424SOL     OW20170   6.335   4.744   5.326
 6424SOL    HW120171   6.340   4.821   5.262
 6424SOL    HW220172   6.239   4.724   5.348
 6425SOL     OW20173   6.586   5.251   4.252
 6425SOL    HW120174   6.635   5.334   4.225
 6425SOL    HW220175   6.574   5.193   4.172
 6426SOL     OW20176   4.935   3.791   5.093
 6426SOL    HW120177   4.889   3.704   5.081
 6426SOL    HW220178   4.947   3.835   5.004
 6427SOL     OW20179   3.798   3.092   2.628
 6427SOL    HW120180   3.746   3.177   2.625
 6427SOL    HW220181   3.737   3.016   2.650
 6428SOL     OW20182   5.568   2.835   0.358
 6428SOL    HW120183   5.591   2.930   0.376
 6428SOL    HW220184   5.478   2.830   0.315
 6429SOL     OW20185   2.093   1.143   5.057
 6429SOL    HW120186   2.027   1.124   5.130
 6429SOL    HW220187   2.182   1.104   5.082
 6430SOL     OW20188   6.325   0.296   5.401
 6430SOL    HW120189   6.279   0.327   5.485
 6430SOL    HW220190   6.313   0.365   5.330
 6431SOL     OW20191   3.579   4.833   1.617
 6431SOL    HW120192   3.568   4.770   1.694
 6431SOL    HW220193   3.570   4.927   1.650
 6432SOL     OW20194   5.008   4.274   6.007
 6432SOL    HW120195   4.996   4.176   6.026
 6432SOL    HW220196   5.097   4.288   5.963
 6433SOL     OW20197   3.107   4.463   6.675
 6433SOL    HW120198   3.130   4.556   6.645
 6433SOL    HW220199   3.162   4.440   6.755
 6434SOL     OW20200   4.643   5.408   6.441
 6434SOL    HW120201   4.600   5.427   6.352
 6434SOL    HW220202   4.695   5.488   6.471
 6435SOL     OW20203   5.165   2.047   1.526
 6435SOL    HW120204   5.242   2.086   1.577
 6435SOL    HW220205   5.126   1.971   1.577
 6436SOL     OW20206   6.260   3.942   4.156
 6436SOL    HW120207   6.221   3.934   4.065
 6436SOL    HW220208   6.305   4.031   4.165
 6437SOL     OW20209   1.193   2.253   5.588
 6437SOL    HW120210   1.266   2.196   5.626
 6437SOL    HW220211   1.221   2.349   5.592
 6438SOL     OW20212   0.733   4.615   0.060
 6438SOL    HW120213   0.715   4.517   0.065
 6438SOL    HW220214   0.792   4.642   0.136
 6439SOL     OW20215   5.002   0.003   3.165
 6439SOL    HW120216   4.937   0.070   3.130
 6439SOL    HW220217   5.078   0.050   3.210
 6440SOL     OW20218   3.113   1.933   6.246
 6440SOL    HW120219   3.152   1.988   6.319
 6440SOL    HW220220   3.078   1.993   6.174
 6441SOL     OW20221   0.176   1.685   2.270
 6441SOL    HW120222   0.240   1.645   2.204
 6441SOL    HW220223   0.208   1.776   2.296
 6442SOL     OW20224   2.674   2.393   4.621
 6442SOL    HW120225   2.749   2.329   4.605
 6442SOL    HW220226   2.596   2.344   4.661
 6443SOL     OW20227   4.530   2.937   0.092
 6443SOL    HW120228   4.598   2.995   0.137
 6443SOL    HW220229   4.442   2.947   0.137
 6444SOL     OW20230   6.453   3.597   4.512
 6444SOL    HW120231   6.474   3.695   4.504
 6444SOL    HW220232   6.506   3.546   4.444
 6445SOL     OW20233   3.109   3.080   3.496
 6445SOL    HW120234   3.196   3.105   3.453
 6445SOL    HW220235   3.053   3.030   3.430
 6446SOL     OW20236   1.739   1.266   6.195
 6446SOL    HW120237   1.725   1.343   6.133
 6446SOL    HW220238   1.707   1.291   6.287
 6447SOL     OW20239   5.872   3.626   1.470
 6447SOL    HW120240   5.790   3.605   1.417
 6447SOL    HW220241   5.940   3.554   1.455
 6448SOL     OW20242   3.151   5.254   1.630
 6448SOL    HW120243   3.153   5.308   1.546
 6448SOL    HW220244   3.057   5.226   1.650
 6449SOL     OW20245   2.640   5.543   1.019
 6449SOL    HW120246   2.638   5.642   1.004
 6449SOL    HW220247   2.549   5.511   1.045
 6450SOL     OW20248   0.840   4.669   0.542
 6450SOL    HW120249   0.764   4.670   0.477
 6450SOL    HW220250   0.806   4.693   0.633
 6451SOL     OW20251   4.712   2.569   1.435
 6451SOL    HW120252   4.727   2.522   1.522
 6451SOL    HW220253   4.800   2.587   1.391
 6452SOL     OW20254   4.720   1.731   3.791
 6452SOL    HW120255   4.779   1.681   3.727
 6452SOL    HW220256   4.692   1.670   3.865
 6453SOL     OW20257   2.488   0.660   1.734
 6453SOL    HW120258   2.408   0.705   1.774
 6453SOL    HW220259   2.537   0.726   1.677
 6454SOL     OW20260   4.897   2.168   3.494
 6454SOL    HW120261   4.847   2.235   3.548
 6454SOL    HW220262   4.867   2.076   3.519
 6455SOL     OW20263   6.380   3.469   3.497
 6455SOL    HW120264   6.448   3.406   3.459
 6455SOL    HW220265   6.343   3.430   3.582
 6456SOL     OW20266   6.230   1.162   2.684
 6456SOL    HW120267   6.298   1.105   2.729
 6456SOL    HW220268   6.250   1.167   2.586
 6457SOL     OW20269   3.407   0.149   1.694
 6457SOL    HW120270   3.467   0.204   1.753
 6457SOL    HW220271   3.383   0.064   1.742
 6458SOL     OW20272   6.861   5.231   3.861
 6458SOL    HW120273   6.767   5.262   3.840
 6458SOL    HW220274   6.902   5.294   3.926
 6459SOL     OW20275   0.049   2.929   3.010
 6459SOL    HW120276   0.090   2.996   3.073
 6459SOL    HW220277   0.027   2.845   3.060
 6460SOL     OW20278   0.641   5.656   6.636
 6460SOL    HW120279   0.707   5.644   6.562
 6460SOL    HW220280   0.635   5.572   6.690
 6461SOL     OW20281   1.154   5.618   1.119
 6461SOL    HW120282   1.060   5.637   1.095
 6461SOL    HW220283   1.216   5.663   1.055
 6462SOL     OW20284   1.852   4.242   5.530
 6462SOL    HW120285   1.789   4.181   5.481
 6462SOL    HW220286   1.805   4.327   5.553
 6463SOL     OW20287   4.817   1.865   1.370
 6463SOL    HW120288   4.770   1.860   1.282
 6463SOL    HW220289   4.897   1.924   1.362
 6464SOL     OW20290   1.031   4.361   3.592
 6464SOL    HW120291   1.050   4.302   3.513
 6464SOL    HW220292   1.030   4.305   3.675
 6465SOL     OW20293   3.561   1.620   3.747
 6465SOL    HW120294   3.509   1.631   3.831
 6465SOL    HW220295   3.508   1.653   3.669
 6466SOL     OW20296   6.592   3.833   0.412
 6466SOL    HW120297   6.518   3.826   0.478
 6466SOL    HW220298   6.576   3.912   0.353
 6467SOL     OW20299   2.527   2.949   0.494
 6467SOL    HW120300   2.515   2.883   0.569
 6467SOL    HW220301   2.451   3.014   0.495
 6468SOL     OW20302   2.672   1.157   0.876
 6468SOL    HW120303   2.728   1.128   0.953
 6468SOL    HW220304   2.731   1.198   0.806
 6469SOL     OW20305   2.688   1.561   2.292
 6469SOL    HW120306   2.627   1.630   2.253
 6469SOL    HW220307   2.686   1.478   2.235
 6470SOL     OW20308   0.174   1.908   6.870
 6470SOL    HW120309   0.079   1.881   6.858
 6470SOL    HW220310   0.196   1.909   6.968
 6471SOL     OW20311   1.087   6.428   5.768
 6471SOL    HW120312   1.168   6.423   5.826
 6471SOL    HW220313   1.007   6.446   5.825
 6472SOL     OW20314   6.549   6.333   2.962
 6472SOL    HW120315   6.561   6.253   2.903
 6472SOL    HW220316   6.470   6.319   3.021
 6473SOL     OW20317   2.707   1.397   3.495
 6473SOL    HW120318   2.675   1.492   3.494
 6473SOL    HW220319   2.633   1.337   3.526
 6474SOL     OW20320   3.840   5.446   4.978
 6474SOL    HW120321   3.870   5.530   4.935
 6474SOL    HW220322   3.743   5.454   5.003
 6475SOL     OW20323   5.908   5.594   2.618
 6475SOL    HW120324   5.936   5.521   2.556
 6475SOL    HW220325   5.906   5.559   2.712
 6476SOL     OW20326   3.638   2.028   6.627
 6476SOL    HW120327   3.622   1.962   6.554
 6476SOL    HW220328   3.734   2.056   6.625
 6477SOL     OW20329   6.140   6.055   1.412
 6477SOL    HW120330   6.167   6.027   1.505
 6477SOL    HW220331   6.207   6.022   1.346
 6478SOL     OW20332   3.294   5.703   0.919
 6478SOL    HW120333   3.256   5.705   1.011
 6478SOL    HW220334   3.299   5.797   0.883
 6479SOL     OW20335   3.381   6.223   3.309
 6479SOL    HW120336   3.284   6.213   3.284
 6479SOL    HW220337   3.404   6.158   3.380
 6480SOL     OW20338   3.871   2.143   6.717
 6480SOL    HW120339   3.850   2.230   6.672
 6480SOL    HW220340   3.955   2.106   6.677
 6481SOL     OW20341   3.624   2.601   1.556
 6481SOL    HW120342   3.589   2.628   1.646
 6481SOL    HW220343   3.714   2.558   1.566
 6482SOL     OW20344   5.829   4.024   6.009
 6482SOL    HW120345   5.791   4.077   6.085
 6482SOL    HW220346   5.755   3.974   5.964
 6483SOL     OW20347   1.889   6.518   4.881
 6483SOL    HW120348   1.812   6.474   4.929
 6483SOL    HW220349   1.854   6.583   4.814
 6484SOL     OW20350   2.660   1.022   3.551
 6484SOL    HW120351   2.699   0.945   3.498
 6484SOL    HW220352   2.570   1.045   3.515
 6485SOL     OW20353   2.548   6.413   5.205
 6485SOL    HW120354   2.468   6.430   5.263
 6485SOL    HW220355   2.534   6.454   5.115
 6486SOL     OW20356   1.225   5.238   2.945
 6486SOL    HW120357   1.306   5.284   2.982
 6486SOL    HW220358   1.165   5.304   2.902
 6487SOL     OW20359   5.614   4.768   4.350
 6487SOL    HW120360   5.552   4.846   4.350
 6487SOL    HW220361   5.708   4.800   4.367
 6488SOL     OW20362   3.804   5.220   4.797
 6488SOL    HW120363   3.881   5.191   4.740
 6488SOL    HW220364   3.838   5.279   4.870
 6489SOL     OW20365   4.773   2.463   5.285
 6489SOL    HW120366   4.831   2.484   5.206
 6489SOL    HW220367   4.734   2.372   5.274
 6490SOL     OW20368   2.189   2.189   6.823
 6490SOL    HW120369   2.284   2.211   6.845
 6490SOL    HW220370   2.128   2.231   6.891
 6491SOL     OW20371   2.611   6.985   1.708
 6491SOL    HW120372   2.658   6.941   1.784
 6491SOL    HW220373   2.627   6.935   1.624
 6492SOL     OW20374   3.864   3.561   4.912
 6492SOL    HW120375   3.835   3.652   4.940
 6492SOL    HW220376   3.959   3.564   4.880
 6493SOL     OW20377   0.796   4.355   4.998
 6493SOL    HW120378   0.725   4.364   5.068
 6493SOL    HW220379   0.878   4.314   5.038
 6494SOL     OW20380   6.121   0.518   1.546
 6494SOL    HW120381   6.161   0.598   1.589
 6494SOL    HW220382   6.028   0.505   1.580
 6495SOL     OW20383   6.207   0.364   3.556
 6495SOL    HW120384   6.296   0.381   3.599
 6495SOL    HW220385   6.146   0.320   3.622
 6496SOL     OW20386   3.513   1.426   1.553
 6496SOL    HW120387   3.470   1.505   1.595
 6496SOL    HW220388   3.600   1.453   1.512
 6497SOL     OW20389   0.172   1.307   0.786
 6497SOL    HW120390   0.202   1.260   0.703
 6497SOL    HW220391   0.145   1.401   0.764
 6498SOL     OW20392   0.706   4.425   4.019
 6498SOL    HW120393   0.660   4.377   4.093
 6498SOL    HW220394   0.804   4.405   4.021
 6499SOL     OW20395   4.896   3.302   3.335
 6499SOL    HW120396   4.860   3.213   3.306
 6499SOL    HW220397   4.909   3.360   3.255
 6500SOL     OW20398   1.295   4.425   2.862
 6500SOL    HW120399   1.386   4.467   2.865
 6500SOL    HW220400   1.287   4.358   2.935
 6501SOL     OW20401   6.077   1.888   1.891
 6501SOL    HW120402   6.027   1.835   1.823
 6501SOL    HW220403   6.158   1.930   1.849
 6502SOL     OW20404   6.823   3.515   2.190
 6502SOL    HW120405   6.817   3.604   2.145
 6502SOL    HW220406   6.875   3.524   2.276
 6503SOL     OW20407   6.815   3.463   5.406
 6503SOL    HW120408   6.786   3.409   5.328
 6503SOL    HW220409   6.735   3.497   5.455
 6504SOL     OW20410   4.777   5.919   6.380
 6504SOL    HW120411   4.756   5.985   6.452
 6504SOL    HW220412   4.700   5.914   6.317
 6505SOL     OW20413   6.956   5.619   6.934
 6505SOL    HW120414   6.883   5.678   6.968
 6505SOL    HW220415   6.996   5.567   7.010
 6506SOL     OW20416   0.322   3.517   2.094
 6506SOL    HW120417   0.358   3.522   2.187
 6506SOL    HW220418   0.398   3.506   2.029
 6507SOL     OW20419   3.412   5.012   6.882
 6507SOL    HW120420   3.421   5.076   6.805
 6507SOL    HW220421   3.337   5.041   6.941
 6508SOL     OW20422   0.790   0.027   2.510
 6508SOL    HW120423   0.723   0.101   2.507
 6508SOL    HW220424   0.816   0.010   2.605
 6509SOL     OW20425   2.584   1.737   6.329
 6509SOL    HW120426   2.632   1.678   6.394
 6509SOL    HW220427   2.581   1.830   6.365
 6510SOL     OW20428   3.011   6.080   5.729
 6510SOL    HW120429   3.007   5.984   5.755
 6510SOL    HW220430   3.103   6.115   5.748
 6511SOL     OW20431   3.191   1.527   0.619
 6511SOL    HW120432   3.236   1.602   0.667
 6511SOL    HW220433   3.102   1.509   0.662
 6512SOL     OW20434   3.666   1.764   0.042
 6512SOL    HW120435   3.721   1.791   0.121
 6512SOL    HW220436   3.702   1.805   6.975
 6513SOL     OW20437   2.641   4.787   3.068
 6513SOL    HW120438   2.665   4.760   3.161
 6513SOL    HW220439   2.723   4.785   3.011
 6514SOL     OW20440   5.176   6.411   5.613
 6514SOL    HW120441   5.214   6.321   5.593
 6514SOL    HW220442   5.087   6.421   5.569
 6515SOL     OW20443   1.410   4.773   2.209
 6515SOL    HW120444   1.486   4.717   2.241
 6515SOL    HW220445   1.382   4.742   2.118
 6516SOL     OW20446   6.688   3.870   1.498
 6516SOL    HW120447   6.714   3.779   1.532
 6516SOL    HW220448   6.682   3.934   1.574
 6517SOL     OW20449   0.389   3.841   1.006
 6517SOL    HW120450   0.317   3.862   0.940
 6517SOL    HW220451   0.478   3.851   0.962
 6518SOL     OW20452   0.452   1.766   2.785
 6518SOL    HW120453   0.453   1.768   2.685
 6518SOL    HW220454   0.527   1.823   2.820
 6519SOL     OW20455   1.170   1.561   3.061
 6519SOL    HW120456   1.157   1.522   3.152
 6519SOL    HW220457   1.083   1.600   3.029
 6520SOL     OW20458   6.964   5.267   6.868
 6520SOL    HW120459   6.962   5.171   6.838
 6520SOL    HW220460   0.033   5.310   6.837
 6521SOL     OW20461   1.583   3.995   3.583
 6521SOL    HW120462   1.532   4.021   3.665
 6521SOL    HW220463   1.538   3.918   3.539
 6522SOL     OW20464   2.696   2.968   5.334
 6522SOL    HW120465   2.618   2.972   5.271
 6522SOL    HW220466   2.686   2.890   5.395
 6523SOL     OW20467   6.069   0.399   0.367
 6523SOL    HW120468   6.156   0.384   0.321
 6523SOL    HW220469   5.999   0.338   0.328
 6524SOL     OW20470   2.495   2.509   0.785
 6524SOL    HW120471   2.538   2.467   0.864
 6524SOL    HW220472   2.500   2.446   0.707
 6525SOL     OW20473   1.167   5.362   3.567
 6525SOL    HW120474   1.070   5.384   3.557
 6525SOL    HW220475   1.206   5.419   3.639
 6526SOL     OW20476   0.621   5.718   0.131
 6526SOL    HW120477   0.543   5.750   0.076
 6526SOL    HW220478   0.694   5.689   0.069
 6527SOL     OW20479   6.832   1.618   0.111
 6527SOL    HW120480   6.865   1.690   0.171
 6527SOL    HW220481   6.908   1.556   0.089
 6528SOL     OW20482   4.332   6.780   6.677
 6528SOL    HW120483   4.243   6.800   6.637
 6528SOL    HW220484   4.401   6.777   6.606
 6529SOL     OW20485   5.821   0.699   2.923
 6529SOL    HW120486   5.827   0.764   2.847
 6529SOL    HW220487   5.808   0.607   2.887
 6530SOL     OW20488   0.645   3.650   2.738
 6530SOL    HW120489   0.739   3.620   2.722
 6530SOL    HW220490   0.582   3.574   2.720
 6531SOL     OW20491   3.615   4.203   4.943
 6531SOL    HW120492   3.524   4.161   4.932
 6531SOL    HW220493   3.668   4.188   4.859
 6532SOL     OW20494   1.058   0.225   0.579
 6532SOL    HW120495   1.060   0.133   0.619
 6532SOL    HW220496   1.136   0.278   0.612
 6533SOL     OW20497   4.975   3.619   1.037
 6533SOL    HW120498   5.013   3.708   1.062
 6533SOL    HW220499   4.908   3.590   1.106
 6534SOL     OW20500   6.948   4.568   3.047
 6534SOL    HW120501   6.959   4.486   3.102
 6534SOL    HW220502   6.962   4.649   3.104
 6535SOL     OW20503   5.288   2.982   5.344
 6535SOL    HW120504   5.203   3.006   5.391
 6535SOL    HW220505   5.365   2.994   5.408
 6536SOL     OW20506   0.350   4.721   5.031
 6536SOL    HW120507   0.346   4.641   5.090
 6536SOL    HW220508   0.258   4.759   5.019
 6537SOL     OW20509   6.266   5.418   4.067
 6537SOL    HW120510   6.315   5.505   4.057
 6537SOL    HW220511   6.185   5.418   4.009
 6538SOL     OW20512   1.807   3.042   5.651
 6538SOL    HW120513   1.813   3.109   5.576
 6538SOL    HW220514   1.895   3.037   5.698
 6539SOL     OW20515   5.091   0.783   5.943
 6539SOL    HW120516   5.129   0.873   5.925
 6539SOL    HW220517   5.151   0.713   5.905
 6540SOL     OW20518   6.417   2.667   5.568
 6540SOL    HW120519   6.485   2.731   5.605
 6540SOL    HW220520   6.389   2.698   5.478
 6541SOL     OW20521   6.037   1.557   5.510
 6541SOL    HW120522   6.083   1.542   5.597
 6541SOL    HW220523   5.962   1.492   5.500
 6542SOL     OW20524   1.712   4.374   3.006
 6542SOL    HW120525   1.654   4.426   3.068
 6542SOL    HW220526   1.662   4.358   2.920
 6543SOL     OW20527   3.788   1.526   4.733
 6543SOL    HW120528   3.877   1.542   4.690
 6543SOL    HW220529   3.751   1.613   4.767
 6544SOL     OW20530   1.004   6.729   1.666
 6544SOL    HW120531   0.913   6.693   1.689
 6544SOL    HW220532   1.057   6.742   1.750
 6545SOL     OW20533   4.701   6.580   0.739
 6545SOL    HW120534   4.784   6.592   0.686
 6545SOL    HW220535   4.724   6.542   0.829
 6546SOL     OW20536   4.917   3.722   6.388
 6546SOL    HW120537   4.930   3.821   6.391
 6546SOL    HW220538   5.005   3.676   6.396
 6547SOL     OW20539   0.225   5.849   6.252
 6547SOL    HW120540   0.213   5.835   6.153
 6547SOL    HW220541   0.224   5.761   6.298
 6548SOL     OW20542   0.323   1.406   5.390
 6548SOL    HW120543   0.306   1.319   5.342
 6548SOL    HW220544   0.249   1.470   5.369
 6549SOL     OW20545   4.755   1.161   2.272
 6549SOL    HW120546   4.831   1.108   2.307
 6549SOL    HW220547   4.785   1.255   2.255
 6550SOL     OW20548   5.836   6.457   3.276
 6550SOL    HW120549   5.863   6.415   3.190
 6550SOL    HW220550   5.902   6.434   3.347
 6551SOL     OW20551   3.646   3.919   0.680
 6551SOL    HW120552   3.572   3.864   0.717
 6551SOL    HW220553   3.640   3.920   0.580
 6552SOL     OW20554   2.014   5.940   0.522
 6552SOL    HW120555   2.007   5.945   0.422
 6552SOL    HW220556   1.938   5.886   0.557
 6553SOL     OW20557   0.798   1.198   4.068
 6553SOL    HW120558   0.712   1.241   4.094
 6553SOL    HW220559   0.868   1.268   4.057
 6554SOL     OW20560   2.048   1.302   3.942
 6554SOL    HW120561   1.959   1.317   3.900
 6554SOL    HW220562   2.108   1.379   3.920
 6555SOL     OW20563   6.497   3.703   3.552
 6555SOL    HW120564   6.432   3.751   3.611
 6555SOL    HW220565   6.450   3.627   3.507
 6556SOL     OW20566   4.876   3.161   2.760
 6556SOL    HW120567   4.871   3.085   2.695
 6556SOL    HW220568   4.885   3.247   2.709
 6557SOL     OW20569   2.428   0.558   2.157
 6557SOL    HW120570   2.498   0.486   2.152
 6557SOL    HW220571   2.457   0.637   2.103
 6558SOL     OW20572   5.721   5.710   6.550
 6558SOL    HW120573   5.697   5.681   6.457
 6558SOL    HW220574   5.655   5.779   6.581
 6559SOL     OW20575   0.218   2.290   6.122
 6559SOL    HW120576   0.223   2.328   6.029
 6559SOL    HW220577   0.299   2.235   6.141
 6560SOL     OW20578   5.372   4.621   0.407
 6560SOL    HW120579   5.286   4.619   0.355
 6560SOL    HW220580   5.381   4.535   0.459
 6561SOL     OW20581   3.696   4.550   6.987
 6561SOL    HW120582   3.662   4.639   7.016
 6561SOL    HW220583   3.629   4.507   6.927
 6562SOL     OW20584   5.500   2.656   1.284
 6562SOL    HW120585   5.529   2.725   1.350
 6562SOL    HW220586   5.565   2.580   1.284
 6563SOL     OW20587   5.309   5.791   4.979
 6563SOL    HW120588   5.354   5.703   4.966
 6563SOL    HW220589   5.243   5.806   4.905
 6564SOL     OW20590   6.154   3.741   2.874
 6564SOL    HW120591   6.191   3.685   2.799
 6564SOL    HW220592   6.100   3.683   2.934
 6565SOL     OW20593   5.390   0.763   3.344
 6565SOL    HW120594   5.475   0.716   3.321
 6565SOL    HW220595   5.407   0.861   3.352
 6566SOL     OW20596   4.622   6.157   2.852
 6566SOL    HW120597   4.575   6.076   2.818
 6566SOL    HW220598   4.660   6.138   2.943
 6567SOL     OW20599   4.269   0.785   1.324
 6567SOL    HW120600   4.355   0.768   1.371
 6567SOL    HW220601   4.219   0.699   1.313
 6568SOL     OW20602   4.351   1.803   1.268
 6568SOL    HW120603   4.346   1.857   1.184
 6568SOL    HW220604   4.258   1.780   1.299
 6569SOL     OW20605   0.378   4.473   5.159
 6569SOL    HW120606   0.391   4.384   5.205
 6569SOL    HW220607   0.467   4.507   5.129
 6570SOL     OW20608   4.218   0.260   1.916
 6570SOL    HW120609   4.220   0.175   1.968
 6570SOL    HW220610   4.131   0.267   1.867
 6571SOL     OW20611   3.501   5.147   2.956
 6571SOL    HW120612   3.498   5.178   3.051
 6571SOL    HW220613   3.409   5.150   2.918
 6572SOL     OW20614   1.374   5.604   4.205
 6572SOL    HW120615   1.454   5.579   4.150
 6572SOL    HW220616   1.341   5.524   4.254
 6573SOL     OW20617   1.484   1.028   3.497
 6573SOL    HW120618   1.510   0.993   3.587
 6573SOL    HW220619   1.553   1.093   3.465
 6574SOL     OW20620   1.960   5.582   1.987
 6574SOL    HW120621   2.005   5.596   2.075
 6574SOL    HW220622   1.869   5.541   2.002
 6575SOL     OW20623   6.838   1.199   3.026
 6575SOL    HW120624   6.765   1.241   2.971
 6575SOL    HW220625   6.918   1.259   3.025
 6576SOL     OW20626   4.578   6.041   0.878
 6576SOL    HW120627   4.673   6.056   0.905
 6576SOL    HW220628   4.524   6.121   0.902
 6577SOL     OW20629   2.960   0.914   3.527
 6577SOL    HW120630   2.924   1.006   3.510
 6577SOL    HW220631   3.051   0.922   3.568
 6578SOL     OW20632   1.628   4.841   1.563
 6578SOL    HW120633   1.726   4.840   1.581
 6578SOL    HW220634   1.587   4.757   1.598
 6579SOL     OW20635   6.680   1.008   4.123
 6579SOL    HW120636   6.655   1.090   4.176
 6579SOL    HW220637   6.600   0.976   4.073
 6580SOL     OW20638   2.342   1.553   0.013
 6580SOL    HW120639   2.262   1.603   6.997
 6580SOL    HW220640   2.339   1.459   6.995
 6581SOL     OW20641   0.501   1.967   1.080
 6581SOL    HW120642   0.555   1.979   1.163
 6581SOL    HW220643   0.409   1.935   1.104
 6582SOL     OW20644   6.764   1.167   3.301
 6582SOL    HW120645   6.742   1.070   3.299
 6582SOL    HW220646   6.796   1.196   3.211
 6583SOL     OW20647   3.634   5.499   6.636
 6583SOL    HW120648   3.545   5.538   6.658
 6583SOL    HW220649   3.700   5.524   6.708
 6584SOL     OW20650   3.714   2.687   0.693
 6584SOL    HW120651   3.713   2.712   0.596
 6584SOL    HW220652   3.621   2.670   0.725
 6585SOL     OW20653   5.836   6.576   1.004
 6585SOL    HW120654   5.913   6.620   1.050
 6585SOL    HW220655   5.773   6.538   1.071
 6586SOL     OW20656   6.977   2.075   6.466
 6586SOL    HW120657   6.905   2.134   6.504
 6586SOL    HW220658   6.969   1.983   6.505
 6587SOL     OW20659   1.700   4.441   5.579
 6587SOL    HW120660   1.627   4.484   5.527
 6587SOL    HW220661   1.744   4.509   5.638
 6588SOL     OW20662   6.690   2.848   0.546
 6588SOL    HW120663   6.769   2.837   0.607
 6588SOL    HW220664   6.719   2.835   0.451
 6589SOL     OW20665   6.637   0.237   2.298
 6589SOL    HW120666   6.576   0.184   2.238
 6589SOL    HW220667   6.626   0.334   2.280
 6590SOL     OW20668   1.435   6.437   3.717
 6590SOL    HW120669   1.486   6.485   3.788
 6590SOL    HW220670   1.473   6.459   3.628
 6591SOL     OW20671   5.797   4.433   4.189
 6591SOL    HW120672   5.837   4.468   4.273
 6591SOL    HW220673   5.705   4.400   4.207
 6592SOL     OW20674   6.028   0.067   3.388
 6592SOL    HW120675   6.109   0.029   3.432
 6592SOL    HW220676   6.052   0.153   3.343
 6593SOL     OW20677   2.854   2.012   2.083
 6593SOL    HW120678   2.847   2.111   2.090
 6593SOL    HW220679   2.816   1.969   2.165
 6594SOL     OW20680   5.129   0.524   6.209
 6594SOL    HW120681   5.085   0.599   6.159
 6594SOL    HW220682   5.155   0.453   6.144
 6595SOL     OW20683   0.860   2.362   5.433
 6595SOL    HW120684   0.941   2.399   5.387
 6595SOL    HW220685   0.858   2.262   5.421
 6596SOL     OW20686   5.930   6.820   2.710
 6596SOL    HW120687   5.965   6.730   2.737
 6596SOL    HW220688   5.899   6.869   2.792
 6597SOL     OW20689   0.921   4.576   2.044
 6597SOL    HW120690   0.972   4.621   1.971
 6597SOL    HW220691   0.941   4.620   2.132
 6598SOL     OW20692   1.461   4.576   4.266
 6598SOL    HW120693   1.421   4.607   4.352
 6598SOL    HW220694   1.531   4.641   4.237
 6599SOL     OW20695   5.937   5.446   6.260
 6599SOL    HW120696   5.852   5.438   6.313
 6599SOL    HW220697   6.000   5.508   6.307
 6600SOL     OW20698   4.435   0.343   5.043
 6600SOL    HW120699   4.495   0.322   4.966
 6600SOL    HW220700   4.453   0.279   5.118
 6601SOL     OW20701   1.471   2.101   1.696
 6601SOL    HW120702   1.514   2.011   1.692
 6601SOL    HW220703   1.538   2.171   1.674
 6602SOL     OW20704   1.031   6.070   1.798
 6602SOL    HW120705   0.987   5.984   1.823
 6602SOL    HW220706   1.000   6.099   1.707
 6603SOL     OW20707   0.449   3.680   2.917
 6603SOL    HW120708   0.468   3.749   2.986
 6603SOL    HW220709   0.523   3.677   2.850
 6604SOL     OW20710   2.501   6.200   2.637
 6604SOL    HW120711   2.550   6.214   2.551
 6604SOL    HW220712   2.447   6.281   2.659
 6605SOL     OW20713   6.820   5.088   0.884
 6605SOL    HW120714   6.845   5.155   0.954
 6605SOL    HW220715   6.880   5.099   0.805
 6606SOL     OW20716   1.808   3.262   3.280
 6606SOL    HW120717   1.861   3.283   3.362
 6606SOL    HW220718   1.721   3.311   3.283
 6607SOL     OW20719   5.914   3.883   3.236
 6607SOL    HW120720   5.900   3.945   3.314
 6607SOL    HW220721   6.009   3.851   3.236
 6608SOL     OW20722   1.574   5.971   5.933
 6608SOL    HW120723   1.662   5.966   5.887
 6608SOL    HW220724   1.554   6.066   5.957
 6609SOL     OW20725   4.734   1.638   6.060
 6609SOL    HW120726   4.655   1.593   6.102
 6609SOL    HW220727   4.704   1.720   6.012
 6610SOL     OW20728   2.805   5.263   0.765
 6610SOL    HW120729   2.804   5.164   0.746
 6610SOL    HW220730   2.897   5.290   0.792
 6611SOL     OW20731   4.088   1.858   4.470
 6611SOL    HW120732   4.131   1.906   4.394
 6611SOL    HW220733   3.995   1.832   4.445
 6612SOL     OW20734   0.278   0.497   6.190
 6612SOL    HW120735   0.356   0.547   6.152
 6612SOL    HW220736   0.195   0.524   6.142
 6613SOL     OW20737   4.551   6.596   0.337
 6613SOL    HW120738   4.487   6.637   0.272
 6613SOL    HW220739   4.504   6.581   0.424
 6614SOL     OW20740   4.432   5.802   0.952
 6614SOL    HW120741   4.484   5.885   0.930
 6614SOL    HW220742   4.391   5.811   1.042
 6615SOL     OW20743   3.418   4.686   6.494
 6615SOL    HW120744   3.428   4.767   6.437
 6615SOL    HW220745   3.380   4.612   6.440
 6616SOL     OW20746   4.263   1.183   5.544
 6616SOL    HW120747   4.215   1.173   5.457
 6616SOL    HW220748   4.199   1.217   5.613
 6617SOL     OW20749   4.073   0.562   4.123
 6617SOL    HW120750   4.040   0.487   4.180
 6617SOL    HW220751   4.156   0.534   4.076
 6618SOL     OW20752   6.754   2.684   3.768
 6618SOL    HW120753   6.661   2.695   3.733
 6618SOL    HW220754   6.759   2.600   3.821
 6619SOL     OW20755   4.704   6.029   4.286
 6619SOL    HW120756   4.771   6.059   4.353
 6619SOL    HW220757   4.624   6.090   4.289
 6620SOL     OW20758   0.445   3.308   3.572
 6620SOL    HW120759   0.364   3.365   3.585
 6620SOL    HW220760   0.488   3.330   3.484
 6621SOL     OW20761   4.013   3.285   4.882
 6621SOL    HW120762   4.064   3.254   4.962
 6621SOL    HW220763   3.970   3.373   4.902
 6622SOL     OW20764   0.798   5.540   0.657
 6622SOL    HW120765   0.754   5.506   0.740
 6622SOL    HW220766   0.771   5.484   0.579
 6623SOL     OW20767   3.306   3.335   5.672
 6623SOL    HW120768   3.260   3.405   5.618
 6623SOL    HW220769   3.286   3.349   5.769
 6624SOL     OW20770   1.863   1.897   3.588
 6624SOL    HW120771   1.804   1.818   3.571
 6624SOL    HW220772   1.922   1.912   3.509
 6625SOL     OW20773   6.031   4.071   5.841
 6625SOL    HW120774   6.083   3.990   5.866
 6625SOL    HW220775   5.955   4.083   5.905
 6626SOL     OW20776   2.636   6.249   5.441
 6626SOL    HW120777   2.656   6.161   5.485
 6626SOL    HW220778   2.555   6.240   5.384
 6627SOL     OW20779   1.979   5.915   4.406
 6627SOL    HW120780   1.908   5.897   4.338
 6627SOL    HW220781   1.982   5.841   4.473
 6628SOL     OW20782   4.086   5.980   4.834
 6628SOL    HW120783   4.136   5.894   4.822
 6628SOL    HW220784   4.024   5.993   4.757
 6629SOL     OW20785   4.958   6.151   6.274
 6629SOL    HW120786   4.882   6.089   6.257
 6629SOL    HW220787   4.925   6.245   6.278
 6630SOL     OW20788   1.685   0.536   1.175
 6630SOL    HW120789   1.765   0.583   1.138
 6630SOL    HW220790   1.616   0.602   1.202
 6631SOL     OW20791   1.312   3.889   5.965
 6631SOL    HW120792   1.291   3.964   5.902
 6631SOL    HW220793   1.387   3.835   5.929
 6632SOL     OW20794   1.133   1.112   1.013
 6632SOL    HW120795   1.043   1.118   0.970
 6632SOL    HW220796   1.202   1.145   0.948
 6633SOL     OW20797   3.711   5.385   5.663
 6633SOL    HW120798   3.740   5.306   5.718
 6633SOL    HW220799   3.709   5.467   5.721
 6634SOL     OW20800   4.162   1.697   4.197
 6634SOL    HW120801   4.141   1.792   4.219
 6634SOL    HW220802   4.109   1.668   4.117
 6635SOL     OW20803   5.217   5.067   3.927
 6635SOL    HW120804   5.233   4.970   3.906
 6635SOL    HW220805   5.224   5.121   3.844
 6636SOL     OW20806   4.046   0.742   6.614
 6636SOL    HW120807   4.080   0.770   6.525
 6636SOL    HW220808   3.969   0.800   6.641
 6637SOL     OW20809   1.351   1.722   1.581
 6637SOL    HW120810   1.381   1.760   1.493
 6637SOL    HW220811   1.414   1.751   1.653
 6638SOL     OW20812   3.176   3.447   3.669
 6638SOL    HW120813   3.113   3.514   3.631
 6638SOL    HW220814   3.130   3.359   3.679
 6639SOL     OW20815   4.944   2.723   1.249
 6639SOL    HW120816   4.969   2.732   1.346
 6639SOL    HW220817   5.010   2.664   1.203
 6640SOL     OW20818   1.561   3.417   5.009
 6640SOL    HW120819   1.564   3.342   4.943
 6640SOL    HW220820   1.496   3.487   4.977
 6641SOL     OW20821   5.064   2.004   1.283
 6641SOL    HW120822   5.097   2.044   1.369
 6641SOL    HW220823   5.133   1.940   1.248
 6642SOL     OW20824   0.990   5.781   0.223
 6642SOL    HW120825   0.983   5.775   0.322
 6642SOL    HW220826   1.061   5.719   0.191
 6643SOL     OW20827   3.958   5.644   6.260
 6643SOL    HW120828   3.865   5.674   6.236
 6643SOL    HW220829   4.021   5.721   6.256
 6644SOL     OW20830   1.750   6.598   3.505
 6644SOL    HW120831   1.808   6.654   3.446
 6644SOL    HW220832   1.721   6.516   3.456
 6645SOL     OW20833   5.800   2.610   0.584
 6645SOL    HW120834   5.721   2.556   0.614
 6645SOL    HW220835   5.789   2.636   0.488
 6646SOL     OW20836   4.387   0.013   5.939
 6646SOL    HW120837   4.428   6.946   5.902
 6646SOL    HW220838   4.289   7.016   5.950
 6647SOL     OW20839   4.348   5.323   0.910
 6647SOL    HW120840   4.395   5.367   0.833
 6647SOL    HW220841   4.406   5.327   0.991
 6648SOL     OW20842   2.769   6.340   6.284
 6648SOL    HW120843   2.721   6.375   6.364
 6648SOL    HW220844   2.867   6.359   6.293
 6649SOL     OW20845   5.237   3.498   6.922
 6649SOL    HW120846   5.274   3.430   6.985
 6649SOL    HW220847   5.311   3.556   6.887
 6650SOL     OW20848   2.210   1.906   4.977
 6650SOL    HW120849   2.157   1.874   4.897
 6650SOL    HW220850   2.306   1.917   4.951
 6651SOL     OW20851   6.510   1.369   6.534
 6651SOL    HW120852   6.484   1.464   6.522
 6651SOL    HW220853   6.549   1.357   6.626
 6652SOL     OW20854   0.461   4.352   0.274
 6652SOL    HW120855   0.390   4.282   0.271
 6652SOL    HW220856   0.419   4.442   0.279
 6653SOL     OW20857   5.609   4.667   0.612
 6653SOL    HW120858   5.525   4.612   0.609
 6653SOL    HW220859   5.601   4.737   0.684
 6654SOL     OW20860   6.688   4.397   3.068
 6654SOL    HW120861   6.643   4.443   3.144
 6654SOL    HW220862   6.665   4.444   2.982
 6655SOL     OW20863   0.016   4.970   2.092
 6655SOL    HW120864   0.017   5.034   2.169
 6655SOL    HW220865   6.996   4.882   2.123
 6656SOL     OW20866   4.513   1.317   3.187
 6656SOL    HW120867   4.491   1.411   3.164
 6656SOL    HW220868   4.572   1.315   3.269
 6657SOL     OW20869   5.225   2.341   3.590
 6657SOL    HW120870   5.308   2.380   3.630
 6657SOL    HW220871   5.233   2.342   3.490
 6658SOL     OW20872   6.759   5.795   5.537
 6658SOL    HW120873   6.844   5.746   5.556
 6658SOL    HW220874   6.779   5.891   5.517
 6659SOL     OW20875   0.837   5.080   2.430
 6659SOL    HW120876   0.886   5.165   2.410
 6659SOL    HW220877   0.774   5.060   2.355
 6660SOL     OW20878   6.744   6.143   3.874
 6660SOL    HW120879   6.680   6.207   3.830
 6660SOL    HW220880   6.824   6.132   3.815
 6661SOL     OW20881   3.534   5.720   4.075
 6661SOL    HW120882   3.599   5.643   4.074
 6661SOL    HW220883   3.465   5.703   4.145
 6662SOL     OW20884   4.130   6.824   2.254
 6662SOL    HW120885   4.056   6.766   2.221
 6662SOL    HW220886   4.198   6.769   2.302
 6663SOL     OW20887   1.221   4.073   5.766
 6663SOL    HW120888   1.129   4.036   5.754
 6663SOL    HW220889   1.220   4.143   5.838
 6664SOL     OW20890   3.226   0.218   1.183
 6664SOL    HW120891   3.279   0.245   1.263
 6664SOL    HW220892   3.132   0.196   1.212
 6665SOL     OW20893   2.436   0.483   5.920
 6665SOL    HW120894   2.501   0.511   5.991
 6665SOL    HW220895   2.346   0.522   5.940
 6666SOL     OW20896   3.811   6.615   5.119
 6666SOL    HW120897   3.816   6.516   5.122
 6666SOL    HW220898   3.888   6.651   5.065
 6667SOL     OW20899   0.008   6.364   0.081
 6667SOL    HW120900   6.951   6.340   0.017
 6667SOL    HW220901   0.094   6.374   0.031
 6668SOL     OW20902   0.401   4.890   0.502
 6668SOL    HW120903   0.315   4.931   0.473
 6668SOL    HW220904   0.463   4.962   0.534
 6669SOL     OW20905   1.326   1.234   3.187
 6669SOL    HW120906   1.315   1.141   3.152
 6669SOL    HW220907   1.272   1.297   3.131
 6670SOL     OW20908   4.085   2.371   1.146
 6670SOL    HW120909   4.017   2.360   1.218
 6670SOL    HW220910   4.176   2.379   1.188
 6671SOL     OW20911   4.736   5.682   0.658
 6671SOL    HW120912   4.702   5.696   0.565
 6671SOL    HW220913   4.810   5.614   0.657
 6672SOL     OW20914   1.967   2.261   0.915
 6672SOL    HW120915   2.027   2.340   0.903
 6672SOL    HW220916   1.942   2.252   1.011
 6673SOL     OW20917   6.101   3.357   3.689
 6673SOL    HW120918   6.069   3.291   3.620
 6673SOL    HW220919   6.051   3.443   3.677
 6674SOL     OW20920   0.394   1.742   0.139
 6674SOL    HW120921   0.333   1.820   0.125
 6674SOL    HW220922   0.489   1.774   0.144
 6675SOL     OW20923   5.607   1.541   6.539
 6675SOL    HW120924   5.544   1.467   6.518
 6675SOL    HW220925   5.611   1.555   6.638
 6676SOL     OW20926   1.472   3.824   3.389
 6676SOL    HW120927   1.407   3.780   3.327
 6676SOL    HW220928   1.553   3.851   3.338
 6677SOL     OW20929   0.563   1.619   6.709
 6677SOL    HW120930   0.642   1.650   6.657
 6677SOL    HW220931   0.545   1.682   6.784
 6678SOL     OW20932   2.056   4.179   6.979
 6678SOL    HW120933   2.111   4.133   6.909
 6678SOL    HW220934   2.074   4.137   0.052
 6679SOL     OW20935   1.801   0.868   3.889
 6679SOL    HW120936   1.747   0.783   3.891
 6679SOL    HW220937   1.780   0.918   3.805
 6680SOL     OW20938   5.840   6.955   1.181
 6680SOL    HW120939   5.874   6.925   1.270
 6680SOL    HW220940   5.744   6.983   1.190
 6681SOL     OW20941   3.106   6.300   1.790
 6681SOL    HW120942   3.108   6.223   1.726
 6681SOL    HW220943   3.169   6.283   1.866
 6682SOL     OW20944   3.170   4.700   5.974
 6682SOL    HW120945   3.142   4.673   5.882
 6682SOL    HW220946   3.180   4.619   6.032
 6683SOL     OW20947   6.678   3.951   6.535
 6683SOL    HW120948   6.758   3.981   6.483
 6683SOL    HW220949   6.595   3.992   6.496
 6684SOL     OW20950   2.890   6.394   0.714
 6684SOL    HW120951   2.988   6.404   0.696
 6684SOL    HW220952   2.863   6.457   0.786
 6685SOL     OW20953   4.966   3.301   6.875
 6685SOL    HW120954   5.033   3.373   6.862
 6685SOL    HW220955   4.953   3.284   6.973
 6686SOL     OW20956   4.702   5.022   3.868
 6686SOL    HW120957   4.771   4.964   3.912
 6686SOL    HW220958   4.745   5.076   3.796
 6687SOL     OW20959   6.820   2.175   1.863
 6687SOL    HW120960   6.885   2.223   1.803
 6687SOL    HW220961   6.811   2.227   1.948
 6688SOL     OW20962   4.504   5.269   0.471
 6688SOL    HW120963   4.565   5.326   0.416
 6688SOL    HW220964   4.556   5.193   0.511
 6689SOL     OW20965   1.883   4.549   5.816
 6689SOL    HW120966   1.929   4.461   5.805
 6689SOL    HW220967   1.947   4.623   5.793
 6690SOL     OW20968   0.697   6.874   5.766
 6690SOL    HW120969   0.629   6.852   5.697
 6690SOL    HW220970   0.652   6.914   5.846
 6691SOL     OW20971   2.544   2.513   2.962
 6691SOL    HW120972   2.607   2.472   2.896
 6691SOL    HW220973   2.579   2.497   3.055
 6692SOL     OW20974   4.731   4.934   1.655
 6692SOL    HW120975   4.739   4.845   1.609
 6692SOL    HW220976   4.746   5.007   1.588
 6693SOL     OW20977   4.357   1.760   4.452
 6693SOL    HW120978   4.257   1.771   4.447
 6693SOL    HW220979   4.379   1.664   4.468
 6694SOL     OW20980   3.307   4.304   1.289
 6694SOL    HW120981   3.250   4.334   1.366
 6694SOL    HW220982   3.400   4.337   1.303
 6695SOL     OW20983   2.360   2.015   6.211
 6695SOL    HW120984   2.390   1.940   6.152
 6695SOL    HW220985   2.422   2.023   6.290
 6696SOL     OW20986   4.125   3.616   4.553
 6696SOL    HW120987   4.150   3.521   4.575
 6696SOL    HW220988   4.128   3.629   4.454
 6697SOL     OW20989   4.440   2.344   2.750
 6697SOL    HW120990   4.364   2.341   2.685
 6697SOL    HW220991   4.406   2.377   2.838
 6698SOL     OW20992   3.491   3.949   1.038
 6698SOL    HW120993   3.517   3.990   1.126
 6698SOL    HW220994   3.568   3.956   0.974
 6699SOL     OW20995   1.235   4.383   5.546
 6699SOL    HW120996   1.285   4.354   5.464
 6699SOL    HW220997   1.140   4.403   5.522
 6700SOL     OW20998   5.610   6.919   6.749
 6700SOL    HW120999   5.632   6.874   6.836
 6700SOL    HW221000   5.695   6.946   6.703
 6701SOL     OW21001   5.839   0.615   1.352
 6701SOL    HW121002   5.858   0.538   1.292
 6701SOL    HW221003   5.857   0.701   1.303
 6702SOL     OW21004   2.930   2.502   0.928
 6702SOL    HW121005   2.941   2.507   1.028
 6702SOL    HW221006   2.957   2.589   0.887
 6703SOL     OW21007   0.233   1.211   6.926
 6703SOL    HW121008   0.245   1.180   0.004
 6703SOL    HW221009   0.301   1.281   6.904
 6704SOL     OW21010   2.760   0.546   5.473
 6704SOL    HW121011   2.844   0.562   5.524
 6704SOL    HW221012   2.696   0.494   5.531
 6705SOL     OW21013   6.405   3.799   2.108
 6705SOL    HW121014   6.374   3.705   2.126
 6705SOL    HW221015   6.452   3.801   2.020
 6706SOL     OW21016   0.254   6.918   1.665
 6706SOL    HW121017   0.159   6.941   1.641
 6706SOL    HW221018   0.264   6.916   1.764
 6707SOL     OW21019   5.442   0.408   2.014
 6707SOL    HW121020   5.421   0.505   2.023
 6707SOL    HW221021   5.369   0.354   2.057
 6708SOL     OW21022   0.989   4.227   1.274
 6708SOL    HW121023   0.994   4.131   1.246
 6708SOL    HW221024   1.060   4.279   1.227
 6709SOL     OW21025   1.989   5.146   2.825
 6709SOL    HW121026   2.000   5.239   2.859
 6709SOL    HW221027   2.063   5.089   2.861
 6710SOL     OW21028   4.018   0.926   0.603
 6710SOL    HW121029   4.097   0.985   0.621
 6710SOL    HW221030   3.940   0.983   0.575
 6711SOL     OW21031   3.348   5.512   6.359
 6711SOL    HW121032   3.315   5.464   6.441
 6711SOL    HW221033   3.271   5.528   6.297
 6712SOL     OW21034   5.988   3.854   1.539
 6712SOL    HW121035   5.935   3.794   1.480
 6712SOL    HW221036   6.081   3.819   1.548
 6713SOL     OW21037   1.762   6.278   4.475
 6713SOL    HW121038   1.690   6.299   4.541
 6713SOL    HW221039   1.843   6.243   4.523
 6714SOL     OW21040   5.161   1.389   1.048
 6714SOL    HW121041   5.115   1.302   1.031
 6714SOL    HW221042   5.247   1.391   0.998
 6715SOL     OW21043   1.488   1.029   0.364
 6715SOL    HW121044   1.458   1.123   0.380
 6715SOL    HW221045   1.421   0.965   0.403
 6716SOL     OW21046   6.753   5.427   2.776
 6716SOL    HW121047   6.813   5.473   2.841
 6716SOL    HW221048   6.660   5.464   2.784
 6717SOL     OW21049   4.709   1.774   5.464
 6717SOL    HW121050   4.780   1.841   5.483
 6717SOL    HW221051   4.746   1.682   5.477
 6718SOL     OW21052   3.283   0.596   1.936
 6718SOL    HW121053   3.230   0.511   1.943
 6718SOL    HW221054   3.243   0.665   1.996
 6719SOL     OW21055   1.851   0.540   0.124
 6719SOL    HW121056   1.874   0.546   0.221
 6719SOL    HW221057   1.906   0.606   0.072
 6720SOL     OW21058   1.305   0.699   6.059
 6720SOL    HW121059   1.397   0.680   6.024
 6720SOL    HW221060   1.297   0.665   6.153
 6721SOL     OW21061   0.260   1.367   0.345
 6721SOL    HW121062   0.327   1.440   0.334
 6721SOL    HW221063   0.171   1.398   0.313
 6722SOL     OW21064   6.529   3.065   0.602
 6722SOL    HW121065   6.586   2.983   0.601
 6722SOL    HW221066   6.552   3.123   0.523
 6723SOL     OW21067   1.765   2.417   6.387
 6723SOL    HW121068   1.782   2.422   6.289
 6723SOL    HW221069   1.826   2.479   6.436
 6724SOL     OW21070   1.825   3.441   5.699
 6724SOL    HW121071   1.852   3.425   5.794
 6724SOL    HW221072   1.857   3.365   5.642
 6725SOL     OW21073   5.127   2.707   3.753
 6725SOL    HW121074   5.067   2.637   3.715
 6725SOL    HW221075   5.193   2.736   3.683
 6726SOL     OW21076   0.137   0.867   5.479
 6726SOL    HW121077   0.223   0.906   5.511
 6726SOL    HW221078   0.069   0.940   5.469
 6727SOL     OW21079   1.044   5.187   5.987
 6727SOL    HW121080   1.116   5.253   5.969
 6727SOL    HW221081   1.079   5.094   5.976
 6728SOL     OW21082   3.833   2.027   3.739
 6728SOL    HW121083   3.742   1.995   3.765
 6728SOL    HW221084   3.843   2.021   3.640
 6729SOL     OW21085   4.624   1.525   2.062
 6729SOL    HW121086   4.711   1.506   2.109
 6729SOL    HW221087   4.641   1.582   1.982
 6730SOL     OW21088   0.358   1.468   1.766
 6730SOL    HW121089   0.273   1.418   1.785
 6730SOL    HW221090   0.343   1.529   1.688
 6731SOL     OW21091   3.581   6.687   6.646
 6731SOL    HW121092   3.586   6.641   6.735
 6731SOL    HW221093   3.521   6.636   6.585
 6732SOL     OW21094   6.888   6.072   4.798
 6732SOL    HW121095   6.810   6.092   4.857
 6732SOL    HW221096   6.856   6.042   4.709
 6733SOL     OW21097   4.706   5.173   6.309
 6733SOL    HW121098   4.687   5.249   6.371
 6733SOL    HW221099   4.737   5.209   6.221
 6734SOL     OW21100   6.218   1.212   4.562
 6734SOL    HW121101   6.246   1.304   4.589
 6734SOL    HW221102   6.130   1.189   4.604
 6735SOL     OW21103   5.993   3.142   3.560
 6735SOL    HW121104   5.966   3.087   3.481
 6735SOL    HW221105   5.912   3.184   3.600
 6736SOL     OW21106   3.631   3.926   0.399
 6736SOL    HW121107   3.643   3.909   0.302
 6736SOL    HW221108   3.566   4.001   0.413
 6737SOL     OW21109   0.411   4.116   1.089
 6737SOL    HW121110   0.449   4.087   1.001
 6737SOL    HW221111   0.312   4.101   1.089
 6738SOL     OW21112   1.881   5.711   3.669
 6738SOL    HW121113   1.819   5.633   3.680
 6738SOL    HW221114   1.829   5.796   3.677
 6739SOL     OW21115   6.454   6.826   4.721
 6739SOL    HW121116   6.373   6.766   4.713
 6739SOL    HW221117   6.537   6.771   4.714
 6740SOL     OW21118   0.416   6.703   3.607
 6740SOL    HW121119   0.409   6.776   3.539
 6740SOL    HW221120   0.493   6.721   3.668
 6741SOL     OW21121   4.258   2.091   6.153
 6741SOL    HW121122   4.345   2.047   6.133
 6741SOL    HW221123   4.200   2.026   6.204
 6742SOL     OW21124   5.705   4.524   3.446
 6742SOL    HW121125   5.655   4.551   3.528
 6742SOL    HW221126   5.766   4.448   3.467
 6743SOL     OW21127   4.575   4.014   0.955
 6743SOL    HW121128   4.496   4.032   0.897
 6743SOL    HW221129   4.636   3.949   0.910
 6744SOL     OW21130   0.305   5.999   5.838
 6744SOL    HW121131   0.269   5.914   5.799
 6744SOL    HW221132   0.235   6.042   5.894
 6745SOL     OW21133   6.919   5.634   4.734
 6745SOL    HW121134   6.871   5.667   4.816
 6745SOL    HW221135   6.982   5.561   4.760
 6746SOL     OW21136   1.779   1.460   2.483
 6746SOL    HW121137   1.713   1.425   2.416
 6746SOL    HW221138   1.872   1.451   2.446
 6747SOL     OW21139   1.504   6.451   6.018
 6747SOL    HW121140   1.428   6.500   6.061
 6747SOL    HW221141   1.590   6.478   6.062
 6748SOL     OW21142   2.329   1.277   4.521
 6748SOL    HW121143   2.372   1.188   4.537
 6748SOL    HW221144   2.231   1.265   4.508
 6749SOL     OW21145   3.544   4.906   0.895
 6749SOL    HW121146   3.635   4.944   0.885
 6749SOL    HW221147   3.534   4.870   0.988
 6750SOL     OW21148   3.225   0.984   4.677
 6750SOL    HW121149   3.319   1.019   4.672
 6750SOL    HW221150   3.216   0.905   4.616
 6751SOL     OW21151   4.072   0.229   3.749
 6751SOL    HW121152   4.026   0.178   3.822
 6751SOL    HW221153   4.170   0.231   3.767
 6752SOL     OW21154   2.253   6.149   2.216
 6752SOL    HW121155   2.351   6.128   2.219
 6752SOL    HW221156   2.222   6.178   2.307
 6753SOL     OW21157   4.076   3.004   5.412
 6753SOL    HW121158   4.004   3.010   5.343
 6753SOL    HW221159   4.034   2.998   5.503
 6754SOL     OW21160   5.914   1.936   1.455
 6754SOL    HW121161   5.836   1.997   1.474
 6754SOL    HW221162   5.940   1.889   1.540
 6755SOL     OW21163   2.254   5.517   6.602
 6755SOL    HW121164   2.189   5.449   6.566
 6755SOL    HW221165   2.299   5.562   6.525
 6756SOL     OW21166   2.479   2.642   5.281
 6756SOL    HW121167   2.438   2.724   5.319
 6756SOL    HW221168   2.459   2.636   5.184
 6757SOL     OW21169   3.466   0.284   0.531
 6757SOL    HW121170   3.390   0.259   0.591
 6757SOL    HW221171   3.525   0.349   0.578
 6758SOL     OW21172   5.976   2.335   2.636
 6758SOL    HW121173   5.924   2.348   2.552
 6758SOL    HW221174   5.944   2.253   2.683
 6759SOL     OW21175   0.549   3.180   2.837
 6759SOL    HW121176   0.544   3.084   2.810
 6759SOL    HW221177   0.458   3.211   2.866
 6760SOL     OW21178   5.371   2.505   2.840
 6760SOL    HW121179   5.430   2.582   2.861
 6760SOL    HW221180   5.275   2.534   2.843
 6761SOL     OW21181   4.950   2.123   4.704
 6761SOL    HW121182   4.904   2.202   4.746
 6761SOL    HW221183   4.898   2.094   4.624
 6762SOL     OW21184   6.675   5.487   4.172
 6762SOL    HW121185   6.764   5.509   4.134
 6762SOL    HW221186   6.638   5.565   4.222
 6763SOL     OW21187   4.972   5.305   5.111
 6763SOL    HW121188   4.940   5.280   5.019
 6763SOL    HW221189   4.906   5.273   5.179
 6764SOL     OW21190   1.908   5.671   0.904
 6764SOL    HW121191   1.823   5.717   0.878
 6764SOL    HW221192   1.887   5.579   0.937
 6765SOL     OW21193   6.514   4.828   2.787
 6765SOL    HW121194   6.573   4.810   2.866
 6765SOL    HW221195   6.418   4.823   2.815
 6766SOL     OW21196   4.988   0.461   0.544
 6766SOL    HW121197   4.912   0.525   0.545
 6766SOL    HW221198   4.976   0.393   0.617
 6767SOL     OW21199   3.111   1.133   0.753
 6767SOL    HW121200   3.140   1.174   0.666
 6767SOL    HW221201   3.043   1.062   0.735
 6768SOL     OW21202   1.544   0.813   0.930
 6768SOL    HW121203   1.519   0.875   0.855
 6768SOL    HW221204   1.587   0.865   1.003
 6769SOL     OW21205   4.152   2.683   1.722
 6769SOL    HW121206   4.141   2.775   1.760
 6769SOL    HW221207   4.063   2.638   1.718
 6770SOL     OW21208   6.847   0.137   1.876
 6770SOL    HW121209   6.810   0.045   1.863
 6770SOL    HW221210   6.853   0.156   1.974
 6771SOL     OW21211   4.035   2.192   3.155
 6771SOL    HW121212   4.090   2.110   3.172
 6771SOL    HW221213   3.958   2.194   3.219
 6772SOL     OW21214   2.837   1.946   2.676
 6772SOL    HW121215   2.758   1.931   2.736
 6772SOL    HW221216   2.838   1.877   2.604
 6773SOL     OW21217   0.118   4.190   2.282
 6773SOL    HW121218   0.201   4.146   2.249
 6773SOL    HW221219   0.104   4.166   2.379
 6774SOL     OW21220   0.734   2.411   6.874
 6774SOL    HW121221   0.783   2.336   6.830
 6774SOL    HW221222   0.669   2.450   6.810
 6775SOL     OW21223   2.531   4.541   1.331
 6775SOL    HW121224   2.448   4.498   1.366
 6775SOL    HW221225   2.515   4.573   1.238
 6776SOL     OW21226   5.938   5.268   6.926
 6776SOL    HW121227   5.991   5.314   6.855
 6776SOL    HW221228   5.901   5.335   6.989
 6777SOL     OW21229   4.676   4.509   6.299
 6777SOL    HW121230   4.649   4.491   6.204
 6777SOL    HW221231   4.717   4.600   6.306
 6778SOL     OW21232   0.789   5.211   2.984
 6778SOL    HW121233   0.697   5.201   3.020
 6778SOL    HW221234   0.855   5.209   3.060
 6779SOL     OW21235   0.390   4.849   0.159
 6779SOL    HW121236   0.409   4.918   0.229
 6779SOL    HW221237   0.468   4.843   0.096
 6780SOL     OW21238   0.394   3.006   2.560
 6780SOL    HW121239   0.309   3.057   2.565
 6780SOL    HW221240   0.408   2.972   2.467
 6781SOL     OW21241   5.300   6.166   5.952
 6781SOL    HW121242   5.224   6.126   6.002
 6781SOL    HW221243   5.279   6.261   5.930
 6782SOL     OW21244   7.013   1.331   2.691
 6782SOL    HW121245   6.980   1.426   2.690
 6782SOL    HW221246   6.935   1.269   2.689
 6783SOL     OW21247   6.926   6.304   6.853
 6783SOL    HW121248   6.879   6.321   6.767
 6783SOL    HW221249   6.945   6.206   6.862
 6784SOL     OW21250   3.940   3.981   0.282
 6784SOL    HW121251   4.003   3.986   0.359
 6784SOL    HW221252   3.875   3.906   0.296
 6785SOL     OW21253   5.931   5.618   1.975
 6785SOL    HW121254   5.905   5.575   2.061
 6785SOL    HW221255   5.966   5.549   1.912
 6786SOL     OW21256   1.402   2.804   6.278
 6786SOL    HW121257   1.411   2.704   6.283
 6786SOL    HW221258   1.369   2.839   6.365
 6787SOL     OW21259   1.529   3.647   2.143
 6787SOL    HW121260   1.493   3.741   2.143
 6787SOL    HW221261   1.537   3.614   2.049
 6788SOL     OW21262   3.012   3.660   1.404
 6788SOL    HW121263   3.067   3.722   1.348
 6788SOL    HW221264   2.985   3.706   1.488
 6789SOL     OW21265   1.104   6.714   2.418
 6789SOL    HW121266   1.192   6.711   2.465
 6789SOL    HW221267   1.073   6.809   2.411
 6790SOL     OW21268   1.775   2.707   6.990
 6790SOL    HW121269   1.825   2.710   0.060
 6790SOL    HW221270   1.789   2.793   6.941
 6791SOL     OW21271   4.462   3.013   6.847
 6791SOL    HW121272   4.382   2.955   6.866
 6791SOL    HW221273   4.528   3.004   6.922
 6792SOL     OW21274   5.960   6.707   6.932
 6792SOL    HW121275   5.987   6.612   6.923
 6792SOL    HW221276   5.990   6.759   6.852
 6793SOL     OW21277   1.300   2.426   0.885
 6793SOL    HW121278   1.307   2.407   0.983
 6793SOL    HW221279   1.364   2.368   0.835
 6794SOL     OW21280   4.954   1.068   4.589
 6794SOL    HW121281   4.993   1.160   4.591
 6794SOL    HW221282   5.027   1.001   4.574
 6795SOL     OW21283   2.811   5.779   0.656
 6795SOL    HW121284   2.835   5.693   0.612
 6795SOL    HW221285   2.890   5.813   0.708
 6796SOL     OW21286   5.132   1.474   2.786
 6796SOL    HW121287   5.221   1.517   2.803
 6796SOL    HW221288   5.062   1.545   2.774
 6797SOL     OW21289   5.836   3.550   1.977
 6797SOL    HW121290   5.833   3.620   1.906
 6797SOL    HW221291   5.839   3.593   2.067
 6798SOL     OW21292   5.396   5.715   2.173
 6798SOL    HW121293   5.330   5.723   2.248
 6798SOL    HW221294   5.347   5.709   2.086
 6799SOL     OW21295   5.116   5.681   0.435
 6799SOL    HW121296   5.181   5.635   0.495
 6799SOL    HW221297   5.119   5.780   0.452
 6800SOL     OW21298   2.016   4.599   0.437
 6800SOL    HW121299   1.927   4.607   0.483
 6800SOL    HW221300   2.046   4.504   0.438
 6801SOL     OW21301   1.581   2.755   2.273
 6801SOL    HW121302   1.560   2.853   2.273
 6801SOL    HW221303   1.649   2.735   2.202
 6802SOL     OW21304   2.035   6.550   1.436
 6802SOL    HW121305   2.088   6.622   1.391
 6802SOL    HW221306   2.079   6.462   1.421
 6803SOL     OW21307   5.157   2.092   6.464
 6803SOL    HW121308   5.214   2.042   6.399
 6803SOL    HW221309   5.189   2.186   6.470
 6804SOL     OW21310   1.891   5.708   3.403
 6804SOL    HW121311   1.881   5.725   3.501
 6804SOL    HW221312   1.940   5.623   3.389
 6805SOL     OW21313   6.312   0.369   4.700
 6805SOL    HW121314   6.273   0.398   4.788
 6805SOL    HW221315   6.324   0.270   4.700
 6806SOL     OW21316   4.093   0.945   4.762
 6806SOL    HW121317   4.058   0.960   4.670
 6806SOL    HW221318   4.193   0.938   4.759
 6807SOL     OW21319   2.905   2.752   0.125
 6807SOL    HW121320   2.916   2.682   0.054
 6807SOL    HW221321   2.923   2.842   0.086
 6808SOL     OW21322   0.232   2.738   5.184
 6808SOL    HW121323   0.208   2.820   5.236
 6808SOL    HW221324   0.303   2.687   5.231
 6809SOL     OW21325   2.483   3.924   6.532
 6809SOL    HW121326   2.531   3.927   6.620
 6809SOL    HW221327   2.548   3.902   6.459
 6810SOL     OW21328   0.223   0.865   2.347
 6810SOL    HW121329   0.292   0.812   2.297
 6810SOL    HW221330   0.244   0.864   2.445
 6811SOL     OW21331   6.150   5.063   1.013
 6811SOL    HW121332   6.224   5.123   1.043
 6811SOL    HW221333   6.166   4.970   1.045
 6812SOL     OW21334   4.075   3.218   3.063
 6812SOL    HW121335   4.100   3.213   2.966
 6812SOL    HW221336   3.977   3.234   3.072
 6813SOL     OW21337   4.950   2.272   0.824
 6813SOL    HW121338   4.871   2.286   0.884
 6813SOL    HW221339   4.920   2.225   0.741
 6814SOL     OW21340   2.607   3.637   1.238
 6814SOL    HW121341   2.598   3.679   1.329
 6814SOL    HW221342   2.519   3.642   1.191
 6815SOL     OW21343   2.687   0.460   1.764
 6815SOL    HW121344   2.773   0.511   1.763
 6815SOL    HW221345   2.610   0.523   1.777
 6816SOL     OW21346   6.728   4.599   6.950
 6816SOL    HW121347   6.706   4.546   6.868
 6816SOL    HW221348   6.759   4.690   6.924
 6817SOL     OW21349   6.860   1.740   5.642
 6817SOL    HW121350   6.834   1.740   5.545
 6817SOL    HW221351   6.900   1.828   5.666
 6818SOL     OW21352   3.748   6.551   2.208
 6818SOL    HW121353   3.675   6.515   2.267
 6818SOL    HW221354   3.758   6.492   2.128
 6819SOL     OW21355   3.183   0.709   3.646
 6819SOL    HW121356   3.223   0.693   3.556
 6819SOL    HW221357   3.193   0.805   3.671
 6820SOL     OW21358   1.235   4.294   3.097
 6820SOL    HW121359   1.307   4.296   3.166
 6820SOL    HW221360   1.150   4.327   3.137
 6821SOL     OW21361   2.457   2.475   4.907
 6821SOL    HW121362   2.556   2.466   4.900
 6821SOL    HW221363   2.435   2.557   4.960
 6822SOL     OW21364   5.577   1.866   5.824
 6822SOL    HW121365   5.649   1.812   5.869
 6822SOL    HW221366   5.604   1.886   5.730
 6823SOL     OW21367   3.235   3.228   2.950
 6823SOL    HW121368   3.205   3.292   3.021
 6823SOL    HW221369   3.249   3.277   2.864
 6824SOL     OW21370   0.757   4.099   6.416
 6824SOL    HW121371   0.779   4.147   6.331
 6824SOL    HW221372   0.828   4.118   6.484
 6825SOL     OW21373   5.096   0.041   2.326
 6825SOL    HW121374   5.025   0.010   2.263
 6825SOL    HW221375   5.053   0.090   2.402
 6826SOL     OW21376   2.021   3.385   2.790
 6826SOL    HW121377   2.062   3.322   2.724
 6826SOL    HW221378   2.012   3.339   2.879
 6827SOL     OW21379   5.548   5.941   6.598
 6827SOL    HW121380   5.515   5.922   6.691
 6827SOL    HW221381   5.487   5.898   6.531
 6828SOL     OW21382   1.150   2.379   1.563
 6828SOL    HW121383   1.198   2.316   1.623
 6828SOL    HW221384   1.053   2.353   1.557
 6829SOL     OW21385   5.113   6.135   3.657
 6829SOL    HW121386   5.201   6.117   3.614
 6829SOL    HW221387   5.113   6.099   3.750
 6830SOL     OW21388   5.418   1.615   3.350
 6830SOL    HW121389   5.499   1.666   3.321
 6830SOL    HW221390   5.440   1.562   3.432
 6831SOL     OW21391   0.847   0.831   5.565
 6831SOL    HW121392   0.778   0.769   5.602
 6831SOL    HW221393   0.912   0.780   5.509
 6832SOL     OW21394   2.922   4.779   2.354
 6832SOL    HW121395   2.858   4.825   2.293
 6832SOL    HW221396   3.012   4.776   2.311
 6833SOL     OW21397   3.560   4.823   6.715
 6833SOL    HW121398   3.512   4.765   6.649
 6833SOL    HW221399   3.494   4.875   6.768
 6834SOL     OW21400   4.069   6.507   1.945
 6834SOL    HW121401   4.037   6.597   1.973
 6834SOL    HW221402   4.042   6.439   2.013
 6835SOL     OW21403   3.723   6.681   4.539
 6835SOL    HW121404   3.759   6.705   4.629
 6835SOL    HW221405   3.623   6.688   4.541
 6836SOL     OW21406   3.637   6.450   0.151
 6836SOL    HW121407   3.560   6.490   0.201
 6836SOL    HW221408   3.703   6.412   0.216
 6837SOL     OW21409   1.803   3.655   1.945
 6837SOL    HW121410   1.792   3.578   2.008
 6837SOL    HW221411   1.900   3.671   1.928
 6838SOL     OW21412   2.290   1.296   6.936
 6838SOL    HW121413   2.200   1.266   6.968
 6838SOL    HW221414   2.290   1.297   6.836
 6839SOL     OW21415   4.381   1.467   0.642
 6839SOL    HW121416   4.406   1.373   0.665
 6839SOL    HW221417   4.394   1.526   0.721
 6840SOL     OW21418   2.035   1.429   6.493
 6840SOL    HW121419   1.986   1.499   6.544
 6840SOL    HW221420   2.123   1.411   6.538
 6841SOL     OW21421   6.728   3.023   6.142
 6841SOL    HW121422   6.764   3.110   6.174
 6841SOL    HW221423   6.667   2.984   6.211
 6842SOL     OW21424   2.162   5.141   2.033
 6842SOL    HW121425   2.166   5.215   1.966
 6842SOL    HW221426   2.252   5.127   2.073
 6843SOL     OW21427   4.829   6.769   6.701
 6843SOL    HW121428   4.760   6.767   6.774
 6843SOL    HW221429   4.844   6.677   6.667
 6844SOL     OW21430   5.117   0.810   4.601
 6844SOL    HW121431   5.058   0.730   4.610
 6844SOL    HW221432   5.151   0.837   4.691
 6845SOL     OW21433   4.764   2.871   2.910
 6845SOL    HW121434   4.789   2.868   2.814
 6845SOL    HW221435   4.683   2.815   2.926
 6846SOL     OW21436   2.933   3.619   0.366
 6846SOL    HW121437   2.944   3.679   0.287
 6846SOL    HW221438   2.945   3.671   0.450
 6847SOL     OW21439   6.030   4.267   4.110
 6847SOL    HW121440   5.985   4.196   4.056
 6847SOL    HW221441   5.961   4.327   4.150
 6848SOL     OW21442   5.155   4.562   3.643
 6848SOL    HW121443   5.164   4.467   3.675
 6848SOL    HW221444   5.082   4.607   3.695
 6849SOL     OW21445   3.722   3.709   6.656
 6849SOL    HW121446   3.787   3.783   6.675
 6849SOL    HW221447   3.738   3.675   6.564
 6850SOL     OW21448   3.996   1.445   3.468
 6850SOL    HW121449   4.082   1.444   3.417
 6850SOL    HW221450   4.000   1.378   3.542
 6851SOL     OW21451   1.753   2.984   3.315
 6851SOL    HW121452   1.787   3.071   3.281
 6851SOL    HW221453   1.828   2.934   3.360
 6852SOL     OW21454   2.721   5.381   0.473
 6852SOL    HW121455   2.734   5.366   0.571
 6852SOL    HW221456   2.810   5.401   0.431
 6853SOL     OW21457   5.077   2.716   6.779
 6853SOL    HW121458   4.981   2.726   6.805
 6853SOL    HW221459   5.093   2.766   6.694
 6854SOL     OW21460   5.587   6.201   6.053
 6854SOL    HW121461   5.541   6.179   6.138
 6854SOL    HW221462   5.520   6.226   5.983
 6855SOL     OW21463   3.828   4.935   3.331
 6855SOL    HW121464   3.907   4.911   3.274
 6855SOL    HW221465   3.745   4.936   3.276
 6856SOL     OW21466   1.219   1.788   0.115
 6856SOL    HW121467   1.300   1.809   0.170
 6856SOL    HW221468   1.244   1.783   0.018
 6857SOL     OW21469   1.051   3.921   5.540
 6857SOL    HW121470   1.057   3.932   5.640
 6857SOL    HW221471   1.029   3.825   5.519
 6858SOL     OW21472   2.822   4.090   1.564
 6858SOL    HW121473   2.769   4.145   1.499
 6858SOL    HW221474   2.872   4.152   1.625
 6859SOL     OW21475   0.552   1.311   2.601
 6859SOL    HW121476   0.614   1.337   2.527
 6859SOL    HW221477   0.457   1.320   2.570
 6860SOL     OW21478   0.626   6.690   1.953
 6860SOL    HW121479   0.686   6.681   1.874
 6860SOL    HW221480   0.681   6.707   2.035
 6861SOL     OW21481   4.916   2.501   5.053
 6861SOL    HW121482   4.983   2.436   5.089
 6861SOL    HW221483   4.950   2.594   5.064
 6862SOL     OW21484   0.706   5.079   5.650
 6862SOL    HW121485   0.742   5.127   5.731
 6862SOL    HW221486   0.761   5.103   5.570
 6863SOL     OW21487   6.686   0.062   5.271
 6863SOL    HW121488   6.710   6.999   5.327
 6863SOL    HW221489   6.634   0.032   5.191
 6864SOL     OW21490   1.755   3.852   5.661
 6864SOL    HW121491   1.710   3.884   5.744
 6864SOL    HW221492   1.843   3.809   5.685
 6865SOL     OW21493   2.139   6.929   4.547
 6865SOL    HW121494   2.142   0.013   4.545
 6865SOL    HW221495   2.045   6.899   4.566
 6866SOL     OW21496   0.454   4.330   1.780
 6866SOL    HW121497   0.540   4.307   1.825
 6866SOL    HW221498   0.433   4.426   1.795
 6867SOL     OW21499   2.230   3.516   0.387
 6867SOL    HW121500   2.208   3.605   0.427
 6867SOL    HW221501   2.291   3.528   0.309
 6868SOL     OW21502   2.370   4.908   4.654
 6868SOL    HW121503   2.400   4.946   4.741
 6868SOL    HW221504   2.327   4.979   4.599
 6869SOL     OW21505   3.654   0.191   5.882
 6869SOL    HW121506   3.719   0.255   5.923
 6869SOL    HW221507   3.688   0.162   5.792
 6870SOL     OW21508   0.099   2.853   0.515
 6870SOL    HW121509   0.151   2.935   0.540
 6870SOL    HW221510   0.159   2.773   0.519
 6871SOL     OW21511   0.573   3.894   2.649
 6871SOL    HW121512   0.596   3.973   2.707
 6871SOL    HW221513   0.590   3.810   2.700
 6872SOL     OW21514   2.547   2.741   1.123
 6872SOL    HW121515   2.620   2.689   1.169
 6872SOL    HW221516   2.548   2.835   1.157
 6873SOL     OW21517   0.951   4.126   4.702
 6873SOL    HW121518   0.863   4.096   4.741
 6873SOL    HW221519   1.025   4.071   4.741
 6874SOL     OW21520   5.686   5.996   3.011
 6874SOL    HW121521   5.621   6.047   3.066
 6874SOL    HW221522   5.761   5.963   3.069
 6875SOL     OW21523   1.322   2.698   1.371
 6875SOL    HW121524   1.306   2.734   1.279
 6875SOL    HW221525   1.314   2.599   1.371
 6876SOL     OW21526   4.455   5.455   3.123
 6876SOL    HW121527   4.430   5.531   3.062
 6876SOL    HW221528   4.549   5.468   3.155
 6877SOL     OW21529   1.254   3.453   2.332
 6877SOL    HW121530   1.268   3.528   2.397
 6877SOL    HW221531   1.182   3.393   2.366
 6878SOL     OW21532   1.905   0.483   4.088
 6878SOL    HW121533   1.829   0.439   4.039
 6878SOL    HW221534   1.878   0.500   4.183
 6879SOL     OW21535   2.042   1.737   0.760
 6879SOL    HW121536   2.032   1.837   0.758
 6879SOL    HW221537   2.089   1.707   0.677
 6880SOL     OW21538   1.542   5.331   6.367
 6880SOL    HW121539   1.564   5.234   6.375
 6880SOL    HW221540   1.622   5.385   6.390
 6881SOL     OW21541   1.163   3.196   0.774
 6881SOL    HW121542   1.068   3.170   0.756
 6881SOL    HW221543   1.224   3.134   0.724
 6882SOL     OW21544   2.709   6.433   6.956
 6882SOL    HW121545   2.740   6.340   6.934
 6882SOL    HW221546   2.718   6.448   0.038
 6883SOL     OW21547   4.904   0.240   6.840
 6883SOL    HW121548   4.925   0.146   6.868
 6883SOL    HW221549   4.817   0.268   6.881
 6884SOL     OW21550   2.203   3.990   2.960
 6884SOL    HW121551   2.118   4.022   3.002
 6884SOL    HW221552   2.183   3.920   2.892
 6885SOL     OW21553   5.571   6.047   4.213
 6885SOL    HW121554   5.572   6.124   4.277
 6885SOL    HW221555   5.621   6.072   4.130
 6886SOL     OW21556   4.886   1.586   6.537
 6886SOL    HW121557   4.928   1.664   6.584
 6886SOL    HW221558   4.924   1.579   6.445
 6887SOL     OW21559   5.353   5.836   6.442
 6887SOL    HW121560   5.280   5.889   6.486
 6887SOL    HW221561   5.336   5.830   6.344
 6888SOL     OW21562   5.831   5.259   6.590
 6888SOL    HW121563   5.788   5.318   6.522
 6888SOL    HW221564   5.787   5.169   6.589
 6889SOL     OW21565   0.779   2.630   0.012
 6889SOL    HW121566   0.851   2.678   6.979
 6889SOL    HW221567   0.726   2.573   6.964
 6890SOL     OW21568   4.345   5.258   2.752
 6890SOL    HW121569   4.431   5.286   2.794
 6890SOL    HW221570   4.362   5.218   2.663
 6891SOL     OW21571   2.050   1.424   0.943
 6891SOL    HW121572   2.015   1.425   0.849
 6891SOL    HW221573   2.056   1.518   0.977
 6892SOL     OW21574   3.312   0.809   4.001
 6892SOL    HW121575   3.334   0.847   4.091
 6892SOL    HW221576   3.361   0.723   3.988
 6893SOL     OW21577   6.714   2.701   6.783
 6893SOL    HW121578   6.807   2.694   6.748
 6893SOL    HW221579   6.716   2.750   6.871
 6894SOL     OW21580   5.403   5.412   0.735
 6894SOL    HW121581   5.368   5.356   0.660
 6894SOL    HW221582   5.492   5.378   0.764
 6895SOL     OW21583   0.816   6.290   1.772
 6895SOL    HW121584   0.890   6.266   1.835
 6895SOL    HW221585   0.829   6.384   1.739
 6896SOL     OW21586   4.536   2.079   4.725
 6896SOL    HW121587   4.573   2.117   4.810
 6896SOL    HW221588   4.469   2.007   4.747
 6897SOL     OW21589   5.193   3.564   5.086
 6897SOL    HW121590   5.188   3.528   5.179
 6897SOL    HW221591   5.102   3.593   5.056
 6898SOL     OW21592   2.224   1.266   1.092
 6898SOL    HW121593   2.154   1.333   1.068
 6898SOL    HW221594   2.314   1.309   1.091
 6899SOL     OW21595   6.153   5.872   2.838
 6899SOL    HW121596   6.227   5.892   2.775
 6899SOL    HW221597   6.076   5.933   2.820
 6900SOL     OW21598   6.801   4.380   5.520
 6900SOL    HW121599   6.706   4.384   5.490
 6900SOL    HW221600   6.861   4.375   5.440
 6901SOL     OW21601   4.528   4.431   6.956
 6901SOL    HW121602   4.450   4.466   7.008
 6901SOL    HW221603   4.536   4.481   6.870
 6902SOL     OW21604   0.576   5.908   6.542
 6902SOL    HW121605   0.594   5.810   6.537
 6902SOL    HW221606   0.660   5.956   6.567
 6903SOL     OW21607   2.238   5.116   4.514
 6903SOL    HW121608   2.154   5.160   4.546
 6903SOL    HW221609   2.221   5.071   4.426
 6904SOL     OW21610   7.013   6.669   4.832
 6904SOL    HW121611   7.007   6.731   4.754
 6904SOL    HW221612   6.947   6.695   4.901
 6905SOL     OW21613   5.071   6.029   6.053
 6905SOL    HW121614   4.994   6.011   5.992
 6905SOL    HW221615   5.039   6.085   6.130
 6906SOL     OW21616   3.819   1.632   3.769
 6906SOL    HW121617   3.720   1.631   3.783
 6906SOL    HW221618   3.841   1.695   3.694
 6907SOL     OW21619   6.214   1.650   0.842
 6907SOL    HW121620   6.139   1.653   0.907
 6907SOL    HW221621   6.208   1.728   0.780
 6908SOL     OW21622   2.753   4.389   0.133
 6908SOL    HW121623   2.700   4.312   0.168
 6908SOL    HW221624   2.841   4.356   0.100
 6909SOL     OW21625   6.182   5.547   2.214
 6909SOL    HW121626   6.253   5.482   2.185
 6909SOL    HW221627   6.100   5.498   2.241
 6910SOL     OW21628   1.553   2.856   3.725
 6910SOL    HW121629   1.537   2.902   3.638
 6910SOL    HW221630   1.533   2.759   3.716
 6911SOL     OW21631   2.663   6.945   5.826
 6911SOL    HW121632   2.679   6.910   5.919
 6911SOL    HW221633   2.616   0.017   5.831
 6912SOL     OW21634   2.325   3.679   5.950
 6912SOL    HW121635   2.392   3.720   6.012
 6912SOL    HW221636   2.331   3.724   5.861
 6913SOL     OW21637   4.587   6.316   6.087
 6913SOL    HW121638   4.564   6.220   6.078
 6913SOL    HW221639   4.669   6.326   6.144
 6914SOL     OW21640   6.727   3.612   1.582
 6914SOL    HW121641   6.644   3.565   1.551
 6914SOL    HW221642   6.807   3.563   1.548
 6915SOL     OW21643   0.845   3.430   2.811
 6915SOL    HW121644   0.866   3.490   2.888
 6915SOL    HW221645   0.747   3.410   2.811
 6916SOL     OW21646   4.450   6.291   6.991
 6916SOL    HW121647   4.533   6.235   6.990
 6916SOL    HW221648   4.376   6.243   6.944
 6917SOL     OW21649   5.746   5.430   1.591
 6917SOL    HW121650   5.756   5.334   1.615
 6917SOL    HW221651   5.818   5.457   1.528
 6918SOL     OW21652   2.108   3.060   1.588
 6918SOL    HW121653   2.096   3.085   1.684
 6918SOL    HW221654   2.127   3.143   1.534
 6919SOL     OW21655   6.300   6.325   3.081
 6919SOL    HW121656   6.278   6.281   3.168
 6919SOL    HW221657   6.265   6.419   3.082
 6920SOL     OW21658   5.430   0.589   5.417
 6920SOL    HW121659   5.391   0.680   5.429
 6920SOL    HW221660   5.405   0.531   5.494
 6921SOL     OW21661   3.893   0.114   4.117
 6921SOL    HW121662   3.796   0.128   4.136
 6921SOL    HW221663   3.904   0.081   4.023
 6922SOL     OW21664   1.100   5.730   5.859
 6922SOL    HW121665   1.007   5.751   5.830
 6922SOL    HW221666   1.137   5.807   5.911
 6923SOL     OW21667   6.082   0.160   2.636
 6923SOL    HW121668   5.996   0.117   2.609
 6923SOL    HW221669   6.146   0.157   2.560
 6924SOL     OW21670   3.717   6.458   0.837
 6924SOL    HW121671   3.627   6.482   0.801
 6924SOL    HW221672   3.761   6.393   0.775
 6925SOL     OW21673   5.854   6.055   6.365
 6925SOL    HW121674   5.805   5.982   6.318
 6925SOL    HW221675   5.918   6.015   6.431
 6926SOL     OW21676   2.872   2.124   0.147
 6926SOL    HW121677   2.808   2.053   0.176
 6926SOL    HW221678   2.944   2.133   0.215
 6927SOL     OW21679   4.803   0.940   0.504
 6927SOL    HW121680   4.705   0.926   0.493
 6927SOL    HW221681   4.846   0.854   0.532
 6928SOL     OW21682   4.275   5.022   0.987
 6928SOL    HW121683   4.360   5.007   0.936
 6928SOL    HW221684   4.204   5.057   0.926
 6929SOL     OW21685   6.259   5.580   1.373
 6929SOL    HW121686   6.212   5.622   1.295
 6929SOL    HW221687   6.321   5.646   1.414
 6930SOL     OW21688   0.876   0.517   0.482
 6930SOL    HW121689   0.873   0.427   0.527
 6930SOL    HW221690   0.971   0.546   0.474
 6931SOL     OW21691   2.755   2.673   1.299
 6931SOL    HW121692   2.823   2.746   1.303
 6931SOL    HW221693   2.799   2.588   1.269
 6932SOL     OW21694   4.477   5.419   0.064
 6932SOL    HW121695   4.451   5.344   0.125
 6932SOL    HW221696   4.515   5.494   0.118
 6933SOL     OW21697   2.969   5.116   6.346
 6933SOL    HW121698   2.925   5.108   6.257
 6933SOL    HW221699   2.930   5.194   6.395
 6934SOL     OW21700   5.220   4.063   6.775
 6934SOL    HW121701   5.198   3.977   6.730
 6934SOL    HW221702   5.138   4.099   6.820
 6935SOL     OW21703   5.400   5.406   1.363
 6935SOL    HW121704   5.397   5.504   1.386
 6935SOL    HW221705   5.307   5.370   1.360
 6936SOL     OW21706   0.958   1.804   4.572
 6936SOL    HW121707   1.052   1.823   4.542
 6936SOL    HW221708   0.894   1.845   4.507
 6937SOL     OW21709   5.400   5.362   0.327
 6937SOL    HW121710   5.424   5.457   0.345
 6937SOL    HW221711   5.460   5.325   0.257
 6938SOL     OW21712   1.380   0.502   4.762
 6938SOL    HW121713   1.440   0.578   4.738
 6938SOL    HW221714   1.291   0.536   4.789
 6939SOL     OW21715   5.889   4.484   3.940
 6939SOL    HW121716   5.853   4.441   4.023
 6939SOL    HW221717   5.951   4.558   3.965
 6940SOL     OW21718   3.537   6.632   0.642
 6940SOL    HW121719   3.476   6.710   0.657
 6940SOL    HW221720   3.619   6.663   0.593
 6941SOL     OW21721   3.492   3.553   2.257
 6941SOL    HW121722   3.464   3.458   2.252
 6941SOL    HW221723   3.590   3.559   2.279
 6942SOL     OW21724   5.976   6.809   1.979
 6942SOL    HW121725   6.044   6.737   1.987
 6942SOL    HW221726   5.953   6.844   2.070
 6943SOL     OW21727   4.581   4.929   6.293
 6943SOL    HW121728   4.487   4.962   6.292
 6943SOL    HW221729   4.644   5.007   6.296
 6944SOL     OW21730   1.072   4.233   5.110
 6944SOL    HW121731   1.146   4.205   5.049
 6944SOL    HW221732   1.100   4.218   5.205
 6945SOL     OW21733   5.597   2.717   0.934
 6945SOL    HW121734   5.506   2.688   0.905
 6945SOL    HW221735   5.599   2.725   1.033
 6946SOL     OW21736   4.537   5.783   2.414
 6946SOL    HW121737   4.455   5.786   2.356
 6946SOL    HW221738   4.516   5.734   2.499
 6947SOL     OW21739   4.823   5.313   5.704
 6947SOL    HW121740   4.910   5.278   5.739
 6947SOL    HW221741   4.798   5.263   5.621
 6948SOL     OW21742   0.536   4.808   6.942
 6948SOL    HW121743   0.595   4.731   6.966
 6948SOL    HW221744   0.502   4.796   6.848
 6949SOL     OW21745   2.554   1.772   3.880
 6949SOL    HW121746   2.461   1.780   3.915
 6949SOL    HW221747   2.619   1.806   3.949
 6950SOL     OW21748   0.776   0.424   4.777
 6950SOL    HW121749   0.694   0.377   4.809
 6950SOL    HW221750   0.821   0.469   4.854
 6951SOL     OW21751   7.012   5.247   6.325
 6951SOL    HW121752   6.993   5.346   6.321
 6951SOL    HW221753   6.991   5.206   6.236
 6952SOL     OW21754   3.699   5.494   3.029
 6952SOL    HW121755   3.675   5.591   3.022
 6952SOL    HW221756   3.719   5.471   3.124
 6953SOL     OW21757   4.964   1.297   1.251
 6953SOL    HW121758   4.992   1.227   1.185
 6953SOL    HW221759   5.043   1.326   1.305
 6954SOL     OW21760   6.410   3.602   0.249
 6954SOL    HW121761   6.434   3.603   0.152
 6954SOL    HW221762   6.488   3.571   0.302
 6955SOL     OW21763   4.940   6.938   2.103
 6955SOL    HW121764   4.945   6.838   2.103
 6955SOL    HW221765   4.968   6.973   2.013
 6956SOL     OW21766   5.509   5.456   2.180
 6956SOL    HW121767   5.519   5.432   2.277
 6956SOL    HW221768   5.493   5.555   2.172
 6957SOL     OW21769   5.398   5.554   6.310
 6957SOL    HW121770   5.409   5.465   6.267
 6957SOL    HW221771   5.301   5.580   6.309
 6958SOL     OW21772   3.022   3.320   3.973
 6958SOL    HW121773   3.059   3.289   3.886
 6958SOL    HW221774   2.982   3.411   3.961
 6959SOL     OW21775   1.047   4.283   2.816
 6959SOL    HW121776   1.140   4.319   2.828
 6959SOL    HW221777   1.029   4.213   2.886
 6960SOL     OW21778   2.970   4.818   0.485
 6960SOL    HW121779   2.932   4.736   0.443
 6960SOL    HW221780   2.974   4.807   0.584
 6961SOL     OW21781   4.580   1.997   5.662
 6961SOL    HW121782   4.587   2.096   5.666
 6961SOL    HW221783   4.520   1.971   5.586
 6962SOL     OW21784   2.871   0.047   6.445
 6962SOL    HW121785   2.854   6.988   6.508
 6962SOL    HW221786   2.785   0.079   6.406
 6963SOL     OW21787   5.054   6.404   0.876
 6963SOL    HW121788   5.046   6.435   0.781
 6963SOL    HW221789   5.136   6.443   0.918
 6964SOL     OW21790   1.704   0.137   5.667
 6964SOL    HW121791   1.752   0.225   5.670
 6964SOL    HW221792   1.752   0.076   5.605
 6965SOL     OW21793   0.544   1.833   6.911
 6965SOL    HW121794   0.629   1.836   6.964
 6965SOL    HW221795   0.479   1.900   6.948
 6966SOL     OW21796   1.356   0.125   1.679
 6966SOL    HW121797   1.267   0.089   1.709
 6966SOL    HW221798   1.416   0.138   1.758
 6967SOL     OW21799   4.611   1.281   5.906
 6967SOL    HW121800   4.552   1.276   5.825
 6967SOL    HW221801   4.562   1.244   5.985
 6968SOL     OW21802   4.034   6.484   2.390
 6968SOL    HW121803   4.049   6.583   2.390
 6968SOL    HW221804   4.111   6.438   2.435
 6969SOL     OW21805   1.849   1.632   1.850
 6969SOL    HW121806   1.757   1.602   1.825
 6969SOL    HW221807   1.907   1.551   1.863
 6970SOL     OW21808   3.602   4.687   5.871
 6970SOL    HW121809   3.590   4.648   5.780
 6970SOL    HW221810   3.531   4.653   5.932
 6971SOL     OW21811   0.148   4.404   0.148
 6971SOL    HW121812   0.165   4.370   0.241
 6971SOL    HW221813   0.052   4.431   0.139
 6972SOL     OW21814   5.380   3.608   2.003
 6972SOL    HW121815   5.406   3.560   1.919
 6972SOL    HW221816   5.302   3.561   2.046
 6973SOL     OW21817   1.178   3.572   3.452
 6973SOL    HW121818   1.218   3.534   3.369
 6973SOL    HW221819   1.088   3.610   3.432
 6974SOL     OW21820   3.716   3.863   2.549
 6974SOL    HW121821   3.726   3.949   2.499
 6974SOL    HW221822   3.701   3.882   2.646
 6975SOL     OW21823   3.067   5.617   4.824
 6975SOL    HW121824   3.002   5.602   4.750
 6975SOL    HW221825   3.034   5.573   4.908
 6976SOL     OW21826   4.681   3.903   6.166
 6976SOL    HW121827   4.724   3.936   6.249
 6976SOL    HW221828   4.583   3.886   6.183
 6977SOL     OW21829   3.924   4.779   1.030
 6977SOL    HW121830   4.016   4.781   0.991
 6977SOL    HW221831   3.917   4.847   1.103
 6978SOL     OW21832   5.745   3.958   2.039
 6978SOL    HW121833   5.760   4.003   1.951
 6978SOL    HW221834   5.649   3.929   2.046
 6979SOL     OW21835   1.384   4.080   1.691
 6979SOL    HW121836   1.406   4.088   1.788
 6979SOL    HW221837   1.402   3.986   1.660
 6980SOL     OW21838   1.807   6.047   3.073
 6980SOL    HW121839   1.771   5.956   3.095
 6980SOL    HW221840   1.905   6.042   3.056
 6981SOL     OW21841   3.830   3.014   6.822
 6981SOL    HW121842   3.848   2.916   6.811
 6981SOL    HW221843   3.904   3.055   6.876
 6982SOL     OW21844   1.776   0.816   3.504
 6982SOL    HW121845   1.795   0.718   3.497
 6982SOL    HW221846   1.751   0.839   3.598
 6983SOL     OW21847   4.858   0.357   4.442
 6983SOL    HW121848   4.768   0.330   4.476
 6983SOL    HW221849   4.846   0.425   4.369
 6984SOL     OW21850   0.611   2.777   3.309
 6984SOL    HW121851   0.579   2.872   3.310
 6984SOL    HW221852   0.564   2.725   3.380
 6985SOL     OW21853   6.529   3.203   0.311
 6985SOL    HW121854   6.444   3.158   0.283
 6985SOL    HW221855   6.607   3.150   0.279
 6986SOL     OW21856   4.013   4.919   5.652
 6986SOL    HW121857   4.028   4.829   5.613
 6986SOL    HW221858   3.985   4.910   5.747
 6987SOL     OW21859   0.740   1.908   5.846
 6987SOL    HW121860   0.830   1.945   5.824
 6987SOL    HW221861   0.743   1.808   5.839
 6988SOL     OW21862   3.499   1.369   6.511
 6988SOL    HW121863   3.515   1.294   6.447
 6988SOL    HW221864   3.493   1.334   6.604
 6989SOL     OW21865   0.215   5.238   2.631
 6989SOL    HW121866   0.131   5.286   2.606
 6989SOL    HW221867   0.258   5.199   2.549
 6990SOL     OW21868   3.476   2.574   1.331
 6990SOL    HW121869   3.514   2.499   1.276
 6990SOL    HW221870   3.535   2.591   1.410
 6991SOL     OW21871   6.100   3.857   1.914
 6991SOL    HW121872   6.080   3.797   1.991
 6991SOL    HW221873   6.045   3.831   1.835
 6992SOL     OW21874   0.562   6.172   0.302
 6992SOL    HW121875   0.620   6.091   0.310
 6992SOL    HW221876   0.500   6.177   0.380
 6993SOL     OW21877   4.731   1.048   1.687
 6993SOL    HW121878   4.815   1.093   1.716
 6993SOL    HW221879   4.660   1.117   1.672
 6994SOL     OW21880   2.328   0.191   3.526
 6994SOL    HW121881   2.425   0.207   3.543
 6994SOL    HW221882   2.273   0.240   3.594
 6995SOL     OW21883   0.052   4.105   1.071
 6995SOL    HW121884   0.025   4.121   1.166
 6995SOL    HW221885   0.044   4.007   1.050
 6996SOL     OW21886   0.872   1.362   0.100
 6996SOL    HW121887   0.882   1.443   0.159
 6996SOL    HW221888   0.776   1.350   0.077
 6997SOL     OW21889   5.880   5.307   5.466
 6997SOL    HW121890   5.795   5.270   5.427
 6997SOL    HW221891   5.868   5.405   5.482
 6998SOL     OW21892   6.482   1.254   0.269
 6998SOL    HW121893   6.397   1.246   0.322
 6998SOL    HW221894   6.556   1.280   0.330
 6999SOL     OW21895   0.630   3.577   0.591
 6999SOL    HW121896   0.532   3.596   0.587
 6999SOL    HW221897   0.663   3.592   0.685
 7000SOL     OW21898   6.818   6.801   3.497
 7000SOL    HW121899   6.741   6.861   3.519
 7000SOL    HW221900   6.843   6.813   3.401
 7001SOL     OW21901   0.321   1.766   4.294
 7001SOL    HW121902   0.272   1.845   4.258
 7001SOL    HW221903   0.419   1.788   4.301
 7002SOL     OW21904   6.955   5.309   2.587
 7002SOL    HW121905   6.883   5.373   2.612
 7002SOL    HW221906   6.939   5.277   2.493
 7003SOL     OW21907   6.611   4.846   1.163
 7003SOL    HW121908   6.633   4.868   1.068
 7003SOL    HW221909   6.655   4.912   1.223
 7004SOL     OW21910   2.106   6.375   0.325
 7004SOL    HW121911   2.082   6.343   0.417
 7004SOL    HW221912   2.180   6.319   0.289
 7005SOL     OW21913   1.126   6.731   0.059
 7005SOL    HW121914   1.203   6.697   0.004
 7005SOL    HW221915   1.126   6.685   0.148
 7006SOL     OW21916   1.272   0.063   4.577
 7006SOL    HW121917   1.236   0.064   4.483
 7006SOL    HW221918   1.351   0.124   4.583
 7007SOL     OW21919   3.063   6.989   5.729
 7007SOL    HW121920   3.058   6.908   5.787
 7007SOL    HW221921   3.052   6.962   5.633
 7008SOL     OW21922   5.919   4.019   3.502
 7008SOL    HW121923   5.888   3.941   3.557
 7008SOL    HW221924   5.853   4.094   3.510
 7009SOL     OW21925   4.506   5.243   1.414
 7009SOL    HW121926   4.498   5.148   1.443
 7009SOL    HW221927   4.602   5.272   1.417
 7010SOL     OW21928   5.451   4.375   1.905
 7010SOL    HW121929   5.513   4.318   1.851
 7010SOL    HW221930   5.358   4.343   1.893
 7011SOL     OW21931   3.247   6.075   6.968
 7011SOL    HW121932   3.162   6.032   6.938
 7011SOL    HW221933   3.251   6.074   0.052
 7012SOL     OW21934   6.921   2.198   0.397
 7012SOL    HW121935   6.839   2.184   0.341
 7012SOL    HW221936   6.935   2.296   0.410
 7013SOL     OW21937   2.708   1.428   0.009
 7013SOL    HW121938   2.625   1.396   0.053
 7013SOL    HW221939   2.762   1.481   0.074
 7014SOL     OW21940   6.498   2.883   1.451
 7014SOL    HW121941   6.514   2.940   1.532
 7014SOL    HW221942   6.402   2.889   1.424
 7015SOL     OW21943   5.442   6.205   0.843
 7015SOL    HW121944   5.461   6.107   0.856
 7015SOL    HW221945   5.528   6.256   0.846
 7016SOL     OW21946   3.266   4.855   0.443
 7016SOL    HW121947   3.324   4.908   0.505
 7016SOL    HW221948   3.173   4.852   0.479
 7017SOL     OW21949   4.526   5.169   4.261
 7017SOL    HW121950   4.441   5.144   4.216
 7017SOL    HW221951   4.580   5.227   4.200
 7018SOL     OW21952   4.859   2.982   4.386
 7018SOL    HW121953   4.783   2.920   4.365
 7018SOL    HW221954   4.940   2.928   4.410
 7019SOL     OW21955   4.840   4.904   1.953
 7019SOL    HW121956   4.799   4.916   1.863
 7019SOL    HW221957   4.787   4.838   2.006
 7020SOL     OW21958   0.617   2.866   6.674
 7020SOL    HW121959   0.671   2.866   6.589
 7020SOL    HW221960   0.668   2.913   6.746
 7021SOL     OW21961   0.770   1.946   5.339
 7021SOL    HW121962   0.748   1.937   5.242
 7021SOL    HW221963   0.856   1.994   5.350
 7022SOL     OW21964   3.559   1.728   0.703
 7022SOL    HW121965   3.491   1.680   0.648
 7022SOL    HW221966   3.598   1.803   0.649
 7023SOL     OW21967   0.682   1.891   1.267
 7023SOL    HW121968   0.597   1.883   1.320
 7023SOL    HW221969   0.721   1.982   1.281
 7024SOL     OW21970   3.824   3.236   3.834
 7024SOL    HW121971   3.819   3.150   3.884
 7024SOL    HW221972   3.743   3.291   3.855
 7025SOL     OW21973   4.101   6.397   0.562
 7025SOL    HW121974   4.133   6.486   0.594
 7025SOL    HW221975   4.003   6.389   0.578
 7026SOL     OW21976   3.899   2.388   1.360
 7026SOL    HW121977   3.858   2.479   1.353
 7026SOL    HW221978   3.831   2.319   1.337
 7027SOL     OW21979   2.078   4.893   1.995
 7027SOL    HW121980   2.099   4.866   1.901
 7027SOL    HW221981   2.125   4.979   2.016
 7028SOL     OW21982   3.210   0.385   3.430
 7028SOL    HW121983   3.153   0.343   3.358
 7028SOL    HW221984   3.210   0.484   3.418
 7029SOL     OW21985   3.064   3.613   5.071
 7029SOL    HW121986   3.039   3.615   5.168
 7029SOL    HW221987   3.044   3.702   5.030
 7030SOL     OW21988   6.252   1.645   5.369
 7030SOL    HW121989   6.306   1.582   5.313
 7030SOL    HW221990   6.177   1.597   5.412
 7031SOL     OW21991   4.236   0.025   0.618
 7031SOL    HW121992   4.138   0.004   0.610
 7031SOL    HW221993   4.286   6.957   0.638
 7032SOL     OW21994   3.803   6.374   4.631
 7032SOL    HW121995   3.879   6.409   4.685
 7032SOL    HW221996   3.716   6.402   4.673
 7033SOL     OW21997   1.498   2.027   5.332
 7033SOL    HW121998   1.437   1.967   5.384
 7033SOL    HW221999   1.450   2.060   5.250
 7034SOL     OW22000   6.753   1.576   3.313
 7034SOL    HW122001   6.775   1.534   3.401
 7034SOL    HW222002   6.659   1.553   3.287
 7035SOL     OW22003   1.912   0.570   0.750
 7035SOL    HW122004   1.818   0.602   0.738
 7035SOL    HW222005   1.915   0.500   0.821
 7036SOL     OW22006   6.985   1.146   1.677
 7036SOL    HW122007   6.978   1.075   1.607
 7036SOL    HW222008   6.975   1.105   1.767
 7037SOL     OW22009   0.819   0.650   6.154
 7037SOL    HW122010   0.742   0.615   6.207
 7037SOL    HW222011   0.880   0.575   6.128
 7038SOL     OW22012   1.581   3.194   6.555
 7038SOL    HW122013   1.624   3.113   6.517
 7038SOL    HW222014   1.610   3.206   6.650
 7039SOL     OW22015   0.271   6.311   2.804
 7039SOL    HW122016   0.226   6.359   2.879
 7039SOL    HW222017   0.270   6.212   2.821
 7040SOL     OW22018   4.520   2.537   5.219
 7040SOL    HW122019   4.612   2.523   5.255
 7040SOL    HW222020   4.496   2.634   5.226
 7041SOL     OW22021   1.833   0.412   3.587
 7041SOL    HW122022   1.920   0.415   3.538
 7041SOL    HW222023   1.760   0.385   3.524
 7042SOL     OW22024   4.599   6.093   5.469
 7042SOL    HW122025   4.562   6.041   5.546
 7042SOL    HW222026   4.525   6.143   5.424
 7043SOL     OW22027   1.843   4.770   2.499
 7043SOL    HW122028   1.916   4.774   2.432
 7043SOL    HW222029   1.864   4.830   2.576
 7044SOL     OW22030   5.069   6.355   3.985
 7044SOL    HW122031   5.152   6.408   3.973
 7044SOL    HW222032   5.076   6.270   3.933
 7045SOL     OW22033   6.305   5.919   2.633
 7045SOL    HW122034   6.346   5.992   2.578
 7045SOL    HW222035   6.266   5.850   2.572
 7046SOL     OW22036   2.880   2.243   4.526
 7046SOL    HW122037   2.842   2.151   4.517
 7046SOL    HW222038   2.978   2.240   4.509
 7047SOL     OW22039   0.902   6.926   0.532
 7047SOL    HW122040   0.987   6.876   0.551
 7047SOL    HW222041   0.895   7.005   0.592
 7048SOL     OW22042   6.561   5.899   4.879
 7048SOL    HW122043   6.647   5.902   4.930
 7048SOL    HW222044   6.536   5.803   4.862
 7049SOL     OW22045   3.657   1.234   2.834
 7049SOL    HW122046   3.636   1.315   2.780
 7049SOL    HW222047   3.573   1.181   2.850
 7050SOL     OW22048   3.961   3.976   1.141
 7050SOL    HW122049   4.007   3.891   1.166
 7050SOL    HW222050   4.022   4.053   1.157
 7051SOL     OW22051   0.392   0.794   1.360
 7051SOL    HW122052   0.343   0.734   1.423
 7051SOL    HW222053   0.334   0.872   1.337
 7052SOL     OW22054   5.295   6.909   2.469
 7052SOL    HW122055   5.218   6.959   2.430
 7052SOL    HW222056   5.379   6.962   2.458
 7053SOL     OW22057   1.834   2.585   3.185
 7053SOL    HW122058   1.749   2.636   3.197
 7053SOL    HW222059   1.885   2.623   3.108
 7054SOL     OW22060   6.983   0.333   0.414
 7054SOL    HW122061   6.928   0.403   0.368
 7054SOL    HW222062   6.924   0.258   0.444
 7055SOL     OW22063   2.297   0.821   6.733
 7055SOL    HW122064   2.283   0.754   6.806
 7055SOL    HW222065   2.270   0.782   6.645
 7056SOL     OW22066   0.043   5.715   1.338
 7056SOL    HW122067   0.087   5.626   1.324
 7056SOL    HW222068   0.106   5.777   1.383
 7057SOL     OW22069   3.257   4.941   5.106
 7057SOL    HW122070   3.273   5.002   5.184
 7057SOL    HW222071   3.270   4.993   5.021
 7058SOL     OW22072   5.153   2.719   5.890
 7058SOL    HW122073   5.084   2.692   5.957
 7058SOL    HW222074   5.122   2.695   5.798
 7059SOL     OW22075   1.694   0.649   5.195
 7059SOL    HW122076   1.784   0.623   5.232
 7059SOL    HW222077   1.635   0.569   5.191
 7060SOL     OW22078   3.572   0.529   2.244
 7060SOL    HW122079   3.523   0.467   2.182
 7060SOL    HW222080   3.670   0.509   2.241
 7061SOL     OW22081   0.759   2.574   2.903
 7061SOL    HW122082   0.781   2.652   2.961
 7061SOL    HW222083   0.665   2.583   2.870
 7062SOL     OW22084   3.738   1.469   3.356
 7062SOL    HW122085   3.814   1.453   3.419
 7062SOL    HW222086   3.774   1.490   3.265
 7063SOL     OW22087   0.786   0.904   1.727
 7063SOL    HW122088   0.726   0.826   1.710
 7063SOL    HW222089   0.879   0.881   1.700
 7064SOL     OW22090   4.389   1.950   5.055
 7064SOL    HW122091   4.406   1.876   5.120
 7064SOL    HW222092   4.348   1.913   4.972
 7065SOL     OW22093   3.730   4.374   5.885
 7065SOL    HW122094   3.720   4.342   5.790
 7065SOL    HW222095   3.800   4.445   5.889
 7066SOL     OW22096   3.789   0.295   6.783
 7066SOL    HW122097   3.782   0.354   6.864
 7066SOL    HW222098   3.880   0.306   6.742
 7067SOL     OW22099   1.968   3.550   0.030
 7067SOL    HW122100   1.925   3.464   7.016
 7067SOL    HW222101   1.897   3.618   0.048
 7068SOL     OW22102   5.163   3.910   4.393
 7068SOL    HW122103   5.200   3.825   4.354
 7068SOL    HW222104   5.087   3.889   4.454
 7069SOL     OW22105   5.966   0.361   6.619
 7069SOL    HW122106   5.922   0.383   6.706
 7069SOL    HW222107   6.053   0.410   6.612
 7070SOL     OW22108   0.498   6.562   4.998
 7070SOL    HW122109   0.430   6.495   4.968
 7070SOL    HW222110   0.532   6.613   4.918
 7071SOL     OW22111   5.212   6.011   6.580
 7071SOL    HW122112   5.171   5.986   6.668
 7071SOL    HW222113   5.215   6.111   6.572
 7072SOL     OW22114   0.326   3.997   6.483
 7072SOL    HW122115   0.423   3.996   6.456
 7072SOL    HW222116   0.314   4.057   6.562
 7073SOL     OW22117   5.595   1.264   3.005
 7073SOL    HW122118   5.695   1.259   3.011
 7073SOL    HW222119   5.556   1.179   3.038
 7074SOL     OW22120   5.198   4.263   2.621
 7074SOL    HW122121   5.220   4.354   2.587
 7074SOL    HW222122   5.178   4.202   2.544
 7075SOL     OW22123   3.327   5.614   3.922
 7075SOL    HW122124   3.296   5.519   3.929
 7075SOL    HW222125   3.416   5.623   3.967
 7076SOL     OW22126   5.822   2.421   2.400
 7076SOL    HW122127   5.797   2.516   2.418
 7076SOL    HW222128   5.741   2.371   2.369
 7077SOL     OW22129   3.778   5.755   1.036
 7077SOL    HW122130   3.714   5.678   1.025
 7077SOL    HW222131   3.855   5.743   0.973
 7078SOL     OW22132   5.091   0.364   0.166
 7078SOL    HW122133   5.106   0.444   0.224
 7078SOL    HW222134   5.019   0.307   0.207
 7079SOL     OW22135   1.709   6.653   4.658
 7079SOL    HW122136   1.701   6.610   4.568
 7079SOL    HW222137   1.618   6.676   4.692
 7080SOL     OW22138   4.275   1.874   5.382
 7080SOL    HW122139   4.337   1.834   5.449
 7080SOL    HW222140   4.260   1.808   5.308
 7081SOL     OW22141   1.221   0.709   0.217
 7081SOL    HW122142   1.311   0.746   0.196
 7081SOL    HW222143   1.150   0.768   0.177
 7082SOL     OW22144   6.356   4.472   2.670
 7082SOL    HW122145   6.308   4.384   2.672
 7082SOL    HW222146   6.295   4.542   2.635
 7083SOL     OW22147   6.759   3.094   3.099
 7083SOL    HW122148   6.737   3.021   3.164
 7083SOL    HW222149   6.834   3.149   3.136
 7084SOL     OW22150   0.438   5.413   0.143
 7084SOL    HW122151   0.406   5.320   0.161
 7084SOL    HW222152   0.471   5.453   0.229
 7085SOL     OW22153   0.740   3.280   1.832
 7085SOL    HW122154   0.784   3.298   1.744
 7085SOL    HW222155   0.693   3.362   1.864
 7086SOL     OW22156   5.661   1.064   3.956
 7086SOL    HW122157   5.599   0.986   3.947
 7086SOL    HW222158   5.673   1.087   4.052
 7087SOL     OW22159   5.372   3.165   3.235
 7087SOL    HW122160   5.331   3.221   3.307
 7087SOL    HW222161   5.431   3.222   3.178
 7088SOL     OW22162   6.207   2.259   4.355
 7088SOL    HW122163   6.124   2.315   4.355
 7088SOL    HW222164   6.226   2.228   4.263
 7089SOL     OW22165   3.192   5.777   1.937
 7089SOL    HW122166   3.188   5.681   1.911
 7089SOL    HW222167   3.278   5.794   1.986
 7090SOL     OW22168   4.636   2.287   1.408
 7090SOL    HW122169   4.635   2.386   1.423
 7090SOL    HW222170   4.611   2.240   1.493
 7091SOL     OW22171   6.934   6.640   6.575
 7091SOL    HW122172   0.017   6.649   6.566
 7091SOL    HW222173   6.907   6.547   6.549
 7092SOL     OW22174   4.521   1.536   6.177
 7092SOL    HW122175   4.436   1.574   6.140
 7092SOL    HW222176   4.507   1.510   6.272
 7093SOL     OW22177   3.505   3.286   1.307
 7093SOL    HW122178   3.408   3.264   1.294
 7093SOL    HW222179   3.527   3.282   1.404
 7094SOL     OW22180   2.928   6.993   5.092
 7094SOL    HW122181   2.888   6.945   5.014
 7094SOL    HW222182   2.977   0.058   5.060
 7095SOL     OW22183   2.387   4.724   5.019
 7095SOL    HW122184   2.332   4.773   4.951
 7095SOL    HW222185   2.328   4.662   5.071
 7096SOL     OW22186   6.956   0.931   0.982
 7096SOL    HW122187   0.024   0.974   0.952
 7096SOL    HW222188   6.940   0.950   1.079
 7097SOL     OW22189   4.645   0.891   1.277
 7097SOL    HW122190   4.594   0.820   1.326
 7097SOL    HW222191   4.602   0.980   1.293
 7098SOL     OW22192   0.930   6.709   3.966
 7098SOL    HW122193   0.854   6.671   4.018
 7098SOL    HW222194   0.897   6.785   3.909
 7099SOL     OW22195   2.978   2.193   4.086
 7099SOL    HW122196   3.072   2.188   4.119
 7099SOL    HW222197   2.919   2.227   4.160
 7100SOL     OW22198   5.855   3.814   1.194
 7100SOL    HW122199   5.897   3.903   1.214
 7100SOL    HW222200   5.755   3.824   1.193
 7101SOL     OW22201   2.390   6.064   5.662
 7101SOL    HW122202   2.488   6.063   5.642
 7101SOL    HW222203   2.340   6.024   5.585
 7102SOL     OW22204   5.428   0.954   1.895
 7102SOL    HW122205   5.481   1.027   1.938
 7102SOL    HW222206   5.487   0.875   1.879
 7103SOL     OW22207   4.859   4.073   2.662
 7103SOL    HW122208   4.830   4.168   2.648
 7103SOL    HW222209   4.833   4.044   2.754
 7104SOL     OW22210   5.164   4.032   3.580
 7104SOL    HW122211   5.252   3.986   3.591
 7104SOL    HW222212   5.096   3.990   3.640
 7105SOL     OW22213   3.366   4.169   4.255
 7105SOL    HW122214   3.439   4.230   4.286
 7105SOL    HW222215   3.358   4.175   4.155
 7106SOL     OW22216   3.057   2.700   0.797
 7106SOL    HW122217   3.139   2.694   0.854
 7106SOL    HW222218   3.072   2.768   0.725
 7107SOL     OW22219   3.895   0.814   6.176
 7107SOL    HW122220   3.856   0.725   6.152
 7107SOL    HW222221   3.825   0.871   6.218
 7108SOL     OW22222   4.433   0.889   1.946
 7108SOL    HW122223   4.489   0.819   1.989
 7108SOL    HW222224   4.336   0.872   1.966
 7109SOL     OW22225   2.489   6.126   6.154
 7109SOL    HW122226   2.558   6.111   6.225
 7109SOL    HW222227   2.403   6.082   6.182
 7110SOL     OW22228   3.286   6.389   4.269
 7110SOL    HW122229   3.346   6.387   4.349
 7110SOL    HW222230   3.320   6.456   4.203
 7111SOL     OW22231   0.041   0.245   4.682
 7111SOL    HW122232   0.030   0.180   4.758
 7111SOL    HW222233   0.138   0.269   4.674
 7112SOL     OW22234   1.682   5.059   4.695
 7112SOL    HW122235   1.647   4.967   4.673
 7112SOL    HW222236   1.689   5.069   4.794
 7113SOL     OW22237   3.989   5.501   5.622
 7113SOL    HW122238   3.912   5.478   5.682
 7113SOL    HW222239   3.959   5.502   5.527
 7114SOL     OW22240   5.307   5.198   0.520
 7114SOL    HW122241   5.337   5.233   0.431
 7114SOL    HW222242   5.338   5.103   0.530
 7115SOL     OW22243   6.456   3.610   6.974
 7115SOL    HW122244   6.471   3.709   6.978
 7115SOL    HW222245   6.529   3.567   6.920
 7116SOL     OW22246   6.539   4.094   4.059
 7116SOL    HW122247   6.481   4.164   4.102
 7116SOL    HW222248   6.592   4.047   4.129
 7117SOL     OW22249   5.767   6.864   3.199
 7117SOL    HW122250   5.800   6.889   3.108
 7117SOL    HW222251   5.845   6.841   3.258
 7118SOL     OW22252   4.140   4.327   5.384
 7118SOL    HW122253   4.068   4.258   5.379
 7118SOL    HW222254   4.164   4.357   5.292
 7119SOL     OW22255   3.755   6.232   5.453
 7119SOL    HW122256   3.808   6.317   5.457
 7119SOL    HW222257   3.752   6.200   5.358
 7120SOL     OW22258   4.977   0.781   0.085
 7120SOL    HW122259   5.059   0.809   0.135
 7120SOL    HW222260   4.962   0.843   0.008
 7121SOL     OW22261   1.524   6.182   2.343
 7121SOL    HW122262   1.480   6.140   2.422
 7121SOL    HW222263   1.594   6.121   2.306
 7122SOL     OW22264   2.751   0.819   6.422
 7122SOL    HW122265   2.656   0.847   6.409
 7122SOL    HW222266   2.803   0.836   6.338
 7123SOL     OW22267   5.391   5.288   6.202
 7123SOL    HW122268   5.361   5.320   6.112
 7123SOL    HW222269   5.314   5.247   6.249
 7124SOL     OW22270   1.569   2.269   1.346
 7124SOL    HW122271   1.537   2.180   1.379
 7124SOL    HW222272   1.492   2.333   1.344
 7125SOL     OW22273   0.931   6.260   1.217
 7125SOL    HW122274   0.905   6.309   1.133
 7125SOL    HW222275   0.936   6.325   1.293
 7126SOL     OW22276   3.533   5.601   0.991
 7126SOL    HW122277   3.544   5.603   1.090
 7126SOL    HW222278   3.438   5.623   0.968
 7127SOL     OW22279   2.585   6.906   5.037
 7127SOL    HW122280   2.668   6.901   4.982
 7127SOL    HW222281   2.533   6.822   5.027
 7128SOL     OW22282   4.384   3.788   6.247
 7128SOL    HW122283   4.368   3.833   6.159
 7128SOL    HW222284   4.396   3.690   6.234
 7129SOL     OW22285   0.727   6.978   0.930
 7129SOL    HW122286   0.711   6.966   0.832
 7129SOL    HW222287   0.794   6.912   0.962
 7130SOL     OW22288   3.435   6.686   4.292
 7130SOL    HW122289   3.505   6.639   4.239
 7130SOL    HW222290   3.467   6.779   4.312
 7131SOL     OW22291   3.364   1.284   3.089
 7131SOL    HW122292   3.312   1.310   3.170
 7131SOL    HW222293   3.307   1.229   3.028
 7132SOL     OW22294   5.342   4.660   0.738
 7132SOL    HW122295   5.286   4.587   0.775
 7132SOL    HW222296   5.325   4.669   0.640
 7133SOL     OW22297   4.579   5.320   2.860
 7133SOL    HW122298   4.592   5.399   2.920
 7133SOL    HW222299   4.631   5.242   2.895
 7134SOL     OW22300   5.616   5.254   0.840
 7134SOL    HW122301   5.641   5.209   0.755
 7134SOL    HW222302   5.698   5.289   0.884
 7135SOL     OW22303   1.981   2.754   1.074
 7135SOL    HW122304   2.068   2.736   1.120
 7135SOL    HW222305   1.905   2.728   1.134
 7136SOL     OW22306   1.925   1.884   1.804
 7136SOL    HW122307   1.919   1.786   1.823
 7136SOL    HW222308   1.869   1.935   1.870
 7137SOL     OW22309   2.837   1.795   1.437
 7137SOL    HW122310   2.783   1.834   1.511
 7137SOL    HW222311   2.912   1.741   1.475
 7138SOL     OW22312   0.845   2.181   0.865
 7138SOL    HW122313   0.750   2.185   0.836
 7138SOL    HW222314   0.854   2.116   0.941
 7139SOL     OW22315   6.296   6.223   0.800
 7139SOL    HW122316   6.251   6.229   0.889
 7139SOL    HW222317   6.384   6.176   0.811
 7140SOL     OW22318   6.890   3.523   0.460
 7140SOL    HW122319   6.918   3.604   0.409
 7140SOL    HW222320   6.833   3.550   0.538
 7141SOL     OW22321   3.533   0.620   0.960
 7141SOL    HW122322   3.464   0.547   0.959
 7141SOL    HW222323   3.520   0.676   1.042
 7142SOL     OW22324   3.292   6.960   4.820
 7142SOL    HW122325   3.252   6.921   4.903
 7142SOL    HW222326   3.315   0.039   4.835
 7143SOL     OW22327   3.184   4.257   6.504
 7143SOL    HW122328   3.109   4.202   6.469
 7143SOL    HW222329   3.148   4.329   6.563
 7144SOL     OW22330   6.577   0.411   5.602
 7144SOL    HW122331   6.533   0.322   5.589
 7144SOL    HW222332   6.674   0.398   5.622
 7145SOL     OW22333   4.910   2.082   6.629
 7145SOL    HW122334   4.913   2.005   6.565
 7145SOL    HW222335   5.002   2.100   6.665
 7146SOL     OW22336   1.931   2.152   5.138
 7146SOL    HW122337   1.921   2.247   5.111
 7146SOL    HW222338   2.022   2.119   5.114
 7147SOL     OW22339   6.099   6.550   1.972
 7147SOL    HW122340   6.103   6.494   1.889
 7147SOL    HW222341   6.053   6.498   2.045
 7148SOL     OW22342   6.622   6.934   0.940
 7148SOL    HW122343   6.625   7.008   1.008
 7148SOL    HW222344   6.537   6.882   0.952
 7149SOL     OW22345   5.963   4.654   5.581
 7149SOL    HW122346   5.964   4.665   5.481
 7149SOL    HW222347   6.056   4.634   5.612
 7150SOL     OW22348   3.571   3.185   6.932
 7150SOL    HW122349   3.545   3.271   6.888
 7150SOL    HW222350   3.658   3.196   6.980
 7151SOL     OW22351   3.844   1.099   0.812
 7151SOL    HW122352   3.942   1.086   0.804
 7151SOL    HW222353   3.797   1.043   0.745
 7152SOL     OW22354   6.254   1.284   6.178
 7152SOL    HW122355   6.231   1.361   6.237
 7152SOL    HW222356   6.342   1.246   6.207
 7153SOL     OW22357   3.351   5.965   0.864
 7153SOL    HW122358   3.449   5.977   0.882
 7153SOL    HW222359   3.319   6.040   0.806
 7154SOL     OW22360   4.385   1.752   1.757
 7154SOL    HW122361   4.447   1.820   1.796
 7154SOL    HW222362   4.428   1.708   1.678
 7155SOL     OW22363   2.787   1.588   1.961
 7155SOL    HW122364   2.838   1.668   1.927
 7155SOL    HW222365   2.705   1.618   2.009
 7156SOL     OW22366   6.178   3.472   6.452
 7156SOL    HW122367   6.277   3.475   6.466
 7156SOL    HW222368   6.131   3.465   6.540
 7157SOL     OW22369   6.636   4.675   6.537
 7157SOL    HW122370   6.730   4.705   6.553
 7157SOL    HW222371   6.636   4.583   6.498
 7158SOL     OW22372   4.370   6.615   3.781
 7158SOL    HW122373   4.424   6.553   3.725
 7158SOL    HW222374   4.411   6.622   3.872
 7159SOL     OW22375   0.753   6.347   2.834
 7159SOL    HW122376   0.735   6.435   2.789
 7159SOL    HW222377   0.741   6.273   2.769
 7160SOL     OW22378   6.972   0.137   3.376
 7160SOL    HW122379   6.932   0.130   3.468
 7160SOL    HW222380   6.933   0.216   3.329
 7161SOL     OW22381   3.786   3.062   3.380
 7161SOL    HW122382   3.722   2.987   3.365
 7161SOL    HW222383   3.826   3.053   3.471
 7162SOL     OW22384   0.477   5.620   1.393
 7162SOL    HW122385   0.478   5.529   1.352
 7162SOL    HW222386   0.453   5.612   1.490
 7163SOL     OW22387   6.827   1.593   2.170
 7163SOL    HW122388   6.820   1.561   2.076
 7163SOL    HW222389   6.839   1.693   2.170
 7164SOL     OW22390   1.909   1.083   6.334
 7164SOL    HW122391   1.871   1.101   6.425
 7164SOL    HW222392   1.881   1.155   6.271
 7165SOL     OW22393   5.565   1.453   0.410
 7165SOL    HW122394   5.587   1.363   0.448
 7165SOL    HW222395   5.466   1.461   0.397
 7166SOL     OW22396   6.555   6.282   6.369
 7166SOL    HW122397   6.475   6.312   6.317
 7166SOL    HW222398   6.639   6.305   6.319
 7167SOL     OW22399   5.787   2.581   4.669
 7167SOL    HW122400   5.756   2.676   4.664
 7167SOL    HW222401   5.853   2.572   4.744
 7168SOL     OW22402   2.924   1.351   2.059
 7168SOL    HW122403   2.884   1.437   2.027
 7168SOL    HW222404   2.860   1.276   2.041
 7169SOL     OW22405   1.630   3.617   6.983
 7169SOL    HW122406   1.635   3.580   0.060
 7169SOL    HW222407   1.710   3.587   6.931
 7170SOL     OW22408   3.805   1.366   0.470
 7170SOL    HW122409   3.814   1.412   0.559
 7170SOL    HW222410   3.771   1.431   0.402
 7171SOL     OW22411   0.108   4.752   0.402
 7171SOL    HW122412   0.111   4.844   0.364
 7171SOL    HW222413   0.188   4.701   0.372
 7172SOL     OW22414   1.390   1.576   4.190
 7172SOL    HW122415   1.329   1.501   4.218
 7172SOL    HW222416   1.474   1.537   4.152
 7173SOL     OW22417   4.953   5.576   6.066
 7173SOL    HW122418   5.013   5.614   5.996
 7173SOL    HW222419   4.868   5.628   6.068
 7174SOL     OW22420   6.811   4.173   1.936
 7174SOL    HW122421   6.763   4.182   2.023
 7174SOL    HW222422   6.908   4.155   1.952
 7175SOL     OW22423   6.086   3.442   6.704
 7175SOL    HW122424   6.116   3.458   6.798
 7175SOL    HW222425   5.987   3.452   6.698
 7176SOL     OW22426   0.996   0.714   5.360
 7176SOL    HW122427   0.908   0.672   5.336
 7176SOL    HW222428   1.061   0.643   5.387
 7177SOL     OW22429   1.429   5.536   3.394
 7177SOL    HW122430   1.436   5.437   3.405
 7177SOL    HW222431   1.508   5.569   3.341
 7178SOL     OW22432   1.942   0.372   4.993
 7178SOL    HW122433   1.997   0.297   4.956
 7178SOL    HW222434   1.882   0.336   5.065
 7179SOL     OW22435   3.128   5.581   6.176
 7179SOL    HW122436   3.048   5.641   6.187
 7179SOL    HW222437   3.171   5.599   6.088
 7180SOL     OW22438   1.763   4.067   1.301
 7180SOL    HW122439   1.801   4.101   1.387
 7180SOL    HW222440   1.663   4.080   1.302
 7181SOL     OW22441   2.236   1.671   5.498
 7181SOL    HW122442   2.258   1.737   5.569
 7181SOL    HW222443   2.149   1.696   5.455
 7182SOL     OW22444   1.868   1.662   4.563
 7182SOL    HW122445   1.852   1.572   4.604
 7182SOL    HW222446   1.967   1.679   4.556
 7183SOL     OW22447   0.851   6.954   1.994
 7183SOL    HW122448   0.923   0.007   1.998
 7183SOL    HW222449   0.893   6.864   1.985
 7184SOL     OW22450   6.329   0.040   4.140
 7184SOL    HW122451   6.368   0.118   4.189
 7184SOL    HW222452   6.263   7.010   4.198
 7185SOL     OW22453   4.204   1.131   4.431
 7185SOL    HW122454   4.123   1.171   4.474
 7185SOL    HW222455   4.286   1.177   4.465
 7186SOL     OW22456   0.279   0.229   6.511
 7186SOL    HW122457   0.355   0.241   6.447
 7186SOL    HW222458   0.200   0.281   6.478
 7187SOL     OW22459   3.244   2.904   4.211
 7187SOL    HW122460   3.167   2.840   4.221
 7187SOL    HW222461   3.214   2.982   4.156
 7188SOL     OW22462   3.608   4.175   6.948
 7188SOL    HW122463   3.520   4.138   6.918
 7188SOL    HW222464   3.680   4.142   6.888
 7189SOL     OW22465   6.579   2.788   5.924
 7189SOL    HW122466   6.658   2.812   5.867
 7189SOL    HW222467   6.497   2.786   5.867
 7190SOL     OW22468   6.022   5.319   1.638
 7190SOL    HW122469   6.076   5.374   1.703
 7190SOL    HW222470   5.961   5.259   1.689
 7191SOL     OW22471   0.177   4.801   4.189
 7191SOL    HW122472   0.245   4.785   4.117
 7191SOL    HW222473   0.085   4.792   4.150
 7192SOL     OW22474   2.065   4.277   6.640
 7192SOL    HW122475   2.039   4.231   6.556
 7192SOL    HW222476   1.985   4.321   6.681
 7193SOL     OW22477   2.694   2.131   2.514
 7193SOL    HW122478   2.714   2.095   2.606
 7193SOL    HW222479   2.596   2.147   2.506
 7194SOL     OW22480   2.962   2.795   6.282
 7194SOL    HW122481   2.920   2.855   6.351
 7194SOL    HW222482   2.975   2.846   6.197
 7195SOL     OW22483   0.109   4.480   5.034
 7195SOL    HW122484   0.098   4.551   4.964
 7195SOL    HW222485   0.207   4.464   5.050
 7196SOL     OW22486   3.426   4.046   1.652
 7196SOL    HW122487   3.515   4.077   1.687
 7196SOL    HW222488   3.422   4.063   1.553
 7197SOL     OW22489   2.700   4.206   5.765
 7197SOL    HW122490   2.700   4.205   5.665
 7197SOL    HW222491   2.606   4.200   5.798
 7198SOL     OW22492   0.417   0.735   1.759
 7198SOL    HW122493   0.492   0.713   1.696
 7198SOL    HW222494   0.392   0.831   1.748
 7199SOL     OW22495   0.105   1.157   2.315
 7199SOL    HW122496   0.130   1.062   2.294
 7199SOL    HW222497   0.018   1.158   2.364
 7200SOL     OW22498   0.895   2.447   0.957
 7200SOL    HW122499   0.937   2.392   1.029
 7200SOL    HW222500   0.850   2.387   0.890
 7201SOL     OW22501   5.539   5.718   3.930
 7201SOL    HW122502   5.473   5.756   3.865
 7201SOL    HW222503   5.549   5.620   3.914
 7202SOL     OW22504   4.684   0.891   5.801
 7202SOL    HW122505   4.754   0.821   5.790
 7202SOL    HW222506   4.704   0.968   5.740
 7203SOL     OW22507   0.303   1.750   1.138
 7203SOL    HW122508   0.353   1.705   1.212
 7203SOL    HW222509   0.225   1.693   1.111
 7204SOL     OW22510   6.180   6.883   1.800
 7204SOL    HW122511   6.154   6.963   1.746
 7204SOL    HW222512   6.116   6.872   1.876
 7205SOL     OW22513   3.065   1.460   4.308
 7205SOL    HW122514   2.968   1.445   4.288
 7205SOL    HW222515   3.103   1.523   4.240
 7206SOL     OW22516   2.193   3.571   0.678
 7206SOL    HW122517   2.116   3.612   0.727
 7206SOL    HW222518   2.230   3.638   0.613
 7207SOL     OW22519   1.849   1.083   3.690
 7207SOL    HW122520   1.851   1.089   3.590
 7207SOL    HW222521   1.811   1.167   3.728
 7208SOL     OW22522   2.927   0.254   4.337
 7208SOL    HW122523   2.847   0.257   4.277
 7208SOL    HW222524   2.977   0.169   4.321
 7209SOL     OW22525   3.327   2.074   2.250
 7209SOL    HW122526   3.277   2.101   2.333
 7209SOL    HW222527   3.261   2.049   2.179
 7210SOL     OW22528   2.623   1.439   3.134
 7210SOL    HW122529   2.676   1.376   3.190
 7210SOL    HW222530   2.589   1.391   3.053
 7211SOL     OW22531   3.797   5.670   4.827
 7211SOL    HW122532   3.794   5.715   4.916
 7211SOL    HW222533   3.703   5.656   4.794
 7212SOL     OW22534   6.848   4.254   6.053
 7212SOL    HW122535   6.851   4.273   5.956
 7212SOL    HW222536   6.917   4.185   6.076
 7213SOL     OW22537   3.987   2.000   0.580
 7213SOL    HW122538   4.039   2.081   0.609
 7213SOL    HW222539   3.957   1.949   0.660
 7214SOL     OW22540   0.056   0.920   6.409
 7214SOL    HW122541   0.096   0.931   6.318
 7214SOL    HW222542   6.974   0.900   6.399
 7215SOL     OW22543   6.766   2.886   2.785
 7215SOL    HW122544   6.854   2.839   2.791
 7215SOL    HW222545   6.780   2.985   2.795
 7216SOL     OW22546   3.426   6.448   2.785
 7216SOL    HW122547   3.436   6.527   2.724
 7216SOL    HW222548   3.484   6.462   2.866
 7217SOL     OW22549   1.557   3.024   3.484
 7217SOL    HW122550   1.545   3.122   3.503
 7217SOL    HW222551   1.644   3.010   3.438
 7218SOL     OW22552   6.301   4.287   4.528
 7218SOL    HW122553   6.341   4.330   4.610
 7218SOL    HW222554   6.373   4.265   4.463
 7219SOL     OW22555   3.507   5.928   2.306
 7219SOL    HW122556   3.527   5.831   2.289
 7219SOL    HW222557   3.457   5.966   2.228
 7220SOL     OW22558   5.896   4.465   5.084
 7220SOL    HW122559   5.880   4.553   5.039
 7220SOL    HW222560   5.808   4.420   5.102
 7221SOL     OW22561   3.701   5.882   4.482
 7221SOL    HW122562   3.646   5.809   4.521
 7221SOL    HW222563   3.717   5.864   4.385
 7222SOL     OW22564   0.314   6.102   4.606
 7222SOL    HW122565   0.317   6.199   4.631
 7222SOL    HW222566   0.249   6.089   4.531
 7223SOL     OW22567   0.197   3.736   1.817
 7223SOL    HW122568   0.269   3.765   1.879
 7223SOL    HW222569   0.168   3.644   1.840
 7224SOL     OW22570   3.900   1.879   3.277
 7224SOL    HW122571   3.903   1.967   3.325
 7224SOL    HW222572   3.823   1.878   3.214
 7225SOL     OW22573   1.166   6.733   0.637
 7225SOL    HW122574   1.249   6.729   0.581
 7225SOL    HW222575   1.153   6.825   0.672
 7226SOL     OW22576   6.153   6.279   1.024
 7226SOL    HW122577   6.082   6.253   1.090
 7226SOL    HW222578   6.123   6.360   0.973
 7227SOL     OW22579   2.296   1.095   2.073
 7227SOL    HW122580   2.209   1.085   2.023
 7227SOL    HW222581   2.309   1.191   2.098
 7228SOL     OW22582   6.855   3.364   2.651
 7228SOL    HW122583   6.797   3.363   2.732
 7228SOL    HW222584   6.885   3.458   2.633
 7229SOL     OW22585   6.951   0.512   4.997
 7229SOL    HW122586   6.858   0.535   5.025
 7229SOL    HW222587   7.013   0.586   5.022
 7230SOL     OW22588   2.246   5.262   4.162
 7230SOL    HW122589   2.240   5.357   4.192
 7230SOL    HW222590   2.154   5.221   4.161
 7231SOL     OW22591   4.949   1.447   6.268
 7231SOL    HW122592   4.873   1.404   6.316
 7231SOL    HW222593   5.025   1.462   6.331
 7232SOL     OW22594   5.298   6.786   3.477
 7232SOL    HW122595   5.355   6.863   3.448
 7232SOL    HW222596   5.339   6.700   3.444
 7233SOL     OW22597   6.525   1.213   4.786
 7233SOL    HW122598   6.589   1.280   4.823
 7233SOL    HW222599   6.563   1.173   4.703
 7234SOL     OW22600   5.008   4.287   2.841
 7234SOL    HW122601   4.926   4.332   2.806
 7234SOL    HW222602   5.073   4.272   2.767
 7235SOL     OW22603   0.085   6.027   1.278
 7235SOL    HW122604   0.160   5.987   1.329
 7235SOL    HW222605   0.040   5.956   1.223
 7236SOL     OW22606   2.092   2.454   3.046
 7236SOL    HW122607   2.048   2.367   3.073
 7236SOL    HW222608   2.115   2.451   2.949
 7237SOL     OW22609   5.293   1.244   0.149
 7237SOL    HW122610   5.368   1.284   0.097
 7237SOL    HW222611   5.319   1.152   0.179
 7238SOL     OW22612   4.062   2.941   0.779
 7238SOL    HW122613   4.124   3.017   0.794
 7238SOL    HW222614   3.967   2.971   0.792
 7239SOL     OW22615   6.997   2.823   2.471
 7239SOL    HW122616   6.976   2.832   2.374
 7239SOL    HW222617   6.992   2.912   2.515
 7240SOL     OW22618   6.756   2.025   6.296
 7240SOL    HW122619   6.739   2.122   6.278
 7240SOL    HW222620   6.843   2.016   6.344
 7241SOL     OW22621   2.904   1.816   1.873
 7241SOL    HW122622   2.925   1.895   1.931
 7241SOL    HW222623   2.878   1.848   1.781
 7242SOL     OW22624   6.213   5.312   4.945
 7242SOL    HW122625   6.273   5.263   4.882
 7242SOL    HW222626   6.261   5.328   5.031
 7243SOL     OW22627   6.358   4.115   6.732
 7243SOL    HW122628   6.286   4.045   6.741
 7243SOL    HW222629   6.337   4.192   6.792
 7244SOL     OW22630   0.085   6.621   6.973
 7244SOL    HW122631   0.027   6.674   6.911
 7244SOL    HW222632   0.030   6.554   0.005
 7245SOL     OW22633   1.161   3.285   6.934
 7245SOL    HW122634   1.096   3.309   6.863
 7245SOL    HW222635   1.238   3.349   6.932
 7246SOL     OW22636   3.150   0.386   4.135
 7246SOL    HW122637   3.127   0.295   4.168
 7246SOL    HW222638   3.137   0.391   4.036
 7247SOL     OW22639   2.663   2.719   5.481
 7247SOL    HW122640   2.710   2.669   5.553
 7247SOL    HW222641   2.602   2.657   5.432
 7248SOL     OW22642   3.574   0.903   4.470
 7248SOL    HW122643   3.574   0.826   4.533
 7248SOL    HW222644   3.563   0.989   4.521
 7249SOL     OW22645   3.834   5.402   1.738
 7249SOL    HW122646   3.749   5.360   1.769
 7249SOL    HW222647   3.869   5.463   1.809
 7250SOL     OW22648   4.984   5.983   5.696
 7250SOL    HW122649   5.079   6.010   5.707
 7250SOL    HW222650   4.930   6.018   5.773
 7251SOL     OW22651   0.359   5.747   5.550
 7251SOL    HW122652   0.364   5.648   5.564
 7251SOL    HW222653   0.437   5.791   5.594
 7252SOL     OW22654   3.394   4.135   1.927
 7252SOL    HW122655   3.355   4.046   1.904
 7252SOL    HW222656   3.470   4.156   1.865
 7253SOL     OW22657   1.367   5.621   5.456
 7253SOL    HW122658   1.272   5.641   5.432
 7253SOL    HW222659   1.426   5.640   5.378
 7254SOL     OW22660   5.052   3.811   3.814
 7254SOL    HW122661   5.032   3.716   3.790
 7254SOL    HW222662   4.975   3.869   3.787
 7255SOL     OW22663   5.452   3.637   6.874
 7255SOL    HW122664   5.443   3.629   6.774
 7255SOL    HW222665   5.549   3.636   6.899
 7256SOL     OW22666   3.380   6.302   6.225
 7256SOL    HW122667   3.423   6.221   6.266
 7256SOL    HW222668   3.429   6.326   6.141
 7257SOL     OW22669   0.931   1.013   4.534
 7257SOL    HW122670   1.000   1.070   4.578
 7257SOL    HW222671   0.929   1.033   4.436
 7258SOL     OW22672   6.045   1.786   3.174
 7258SOL    HW122673   5.951   1.755   3.157
 7258SOL    HW222674   6.043   1.875   3.219
 7259SOL     OW22675   0.977   4.127   3.026
 7259SOL    HW122676   0.945   4.033   3.010
 7259SOL    HW222677   0.899   4.185   3.047
 7260SOL     OW22678   5.400   3.381   0.968
 7260SOL    HW122679   5.310   3.406   1.003
 7260SOL    HW222680   5.389   3.332   0.881
 7261SOL     OW22681   0.216   4.236   0.372
 7261SOL    HW122682   0.259   4.215   0.460
 7261SOL    HW222683   0.119   4.210   0.376
 7262SOL     OW22684   6.322   1.890   6.217
 7262SOL    HW122685   6.323   1.868   6.120
 7262SOL    HW222686   6.306   1.988   6.229
 7263SOL     OW22687   0.208   5.508   0.054
 7263SOL    HW122688   0.197   5.607   0.051
 7263SOL    HW222689   0.302   5.486   0.081
 7264SOL     OW22690   5.575   1.143   0.296
 7264SOL    HW122691   5.574   1.198   0.212
 7264SOL    HW222692   5.642   1.181   0.359
 7265SOL     OW22693   4.340   5.965   5.159
 7265SOL    HW122694   4.383   5.875   5.152
 7265SOL    HW222695   4.337   6.008   5.069
 7266SOL     OW22696   0.094   0.358   3.889
 7266SOL    HW122697   0.065   0.378   3.795
 7266SOL    HW222698   0.055   0.426   3.951
 7267SOL     OW22699   5.935   5.385   5.199
 7267SOL    HW122700   6.034   5.367   5.200
 7267SOL    HW222701   5.895   5.355   5.285
 7268SOL     OW22702   6.315   5.917   4.349
 7268SOL    HW122703   6.356   5.946   4.436
 7268SOL    HW222704   6.216   5.928   4.354
 7269SOL     OW22705   2.395   5.209   5.185
 7269SOL    HW122706   2.469   5.223   5.118
 7269SOL    HW222707   2.375   5.112   5.194
 7270SOL     OW22708   0.611   1.553   3.752
 7270SOL    HW122709   0.563   1.537   3.839
 7270SOL    HW222710   0.659   1.641   3.757
 7271SOL     OW22711   0.553   4.045   3.519
 7271SOL    HW122712   0.508   4.129   3.490
 7271SOL    HW222713   0.493   3.967   3.500
 7272SOL     OW22714   6.229   5.510   2.674
 7272SOL    HW122715   6.190   5.597   2.643
 7272SOL    HW222716   6.238   5.512   2.773
 7273SOL     OW22717   6.913   2.670   5.627
 7273SOL    HW122718   6.981   2.717   5.571
 7273SOL    HW222719   6.872   2.734   5.692
 7274SOL     OW22720   0.683   4.349   0.106
 7274SOL    HW122721   0.605   4.345   0.169
 7274SOL    HW222722   0.726   4.259   0.100
 7275SOL     OW22723   6.314   0.013   3.055
 7275SOL    HW122724   6.387   6.979   3.009
 7275SOL    HW222725   6.229   0.004   3.004
 7276SOL     OW22726   4.740   6.661   3.739
 7276SOL    HW122727   4.663   6.613   3.696
 7276SOL    HW222728   4.824   6.608   3.726
 7277SOL     OW22729   4.804   0.449   5.468
 7277SOL    HW122730   4.734   0.479   5.404
 7277SOL    HW222731   4.768   0.377   5.526
 7278SOL     OW22732   3.372   3.900   2.620
 7278SOL    HW122733   3.351   3.805   2.596
 7278SOL    HW222734   3.305   3.961   2.579
 7279SOL     OW22735   4.007   5.857   0.089
 7279SOL    HW122736   4.038   5.881   7.013
 7279SOL    HW222737   4.024   5.934   0.150
 7280SOL     OW22738   4.654   0.235   5.641
 7280SOL    HW122739   4.562   0.226   5.678
 7280SOL    HW222740   4.716   0.177   5.694
 7281SOL     OW22741   3.937   1.620   6.382
 7281SOL    HW122742   4.023   1.668   6.364
 7281SOL    HW222743   3.951   1.550   6.452
 7282SOL     OW22744   5.907   5.473   2.202
 7282SOL    HW122745   5.845   5.533   2.253
 7282SOL    HW222746   5.856   5.394   2.168
 7283SOL     OW22747   2.736   0.872   3.300
 7283SOL    HW122748   2.640   0.847   3.282
 7283SOL    HW222749   2.796   0.810   3.251
 7284SOL     OW22750   6.601   3.435   5.131
 7284SOL    HW122751   6.665   3.373   5.087
 7284SOL    HW222752   6.508   3.410   5.107
 7285SOL     OW22753   4.864   5.487   2.041
 7285SOL    HW122754   4.808   5.479   1.959
 7285SOL    HW222755   4.956   5.516   2.016
 7286SOL     OW22756   2.370   2.381   1.056
 7286SOL    HW122757   2.467   2.399   1.042
 7286SOL    HW222758   2.350   2.384   1.154
 7287SOL     OW22759   6.499   0.620   6.560
 7287SOL    HW122760   6.450   0.648   6.643
 7287SOL    HW222761   6.580   0.677   6.548
 7288SOL     OW22762   3.990   0.032   6.440
 7288SOL    HW122763   4.050   0.037   6.360
 7288SOL    HW222764   3.895   0.031   6.411
 7289SOL     OW22765   5.810   1.707   3.032
 7289SOL    HW122766   5.783   1.653   2.952
 7289SOL    HW222767   5.743   1.694   3.105
 7290SOL     OW22768   2.534   5.299   4.953
 7290SOL    HW122769   2.619   5.298   4.900
 7290SOL    HW222770   2.459   5.264   4.897
 7291SOL     OW22771   2.400   6.346   1.128
 7291SOL    HW122772   2.329   6.416   1.121
 7291SOL    HW222773   2.402   6.311   1.222
 7292SOL     OW22774   2.800   6.833   3.469
 7292SOL    HW122775   2.753   6.897   3.407
 7292SOL    HW222776   2.876   6.791   3.421
 7293SOL     OW22777   1.474   1.825   5.006
 7293SOL    HW122778   1.427   1.780   4.931
 7293SOL    HW222779   1.565   1.854   4.976
 7294SOL     OW22780   2.483   5.318   0.341
 7294SOL    HW122781   2.539   5.346   0.419
 7294SOL    HW222782   2.477   5.218   0.338
 7295SOL     OW22783   0.300   1.782   0.685
 7295SOL    HW122784   0.234   1.856   0.687
 7295SOL    HW222785   0.382   1.809   0.735
 7296SOL     OW22786   3.005   4.870   0.773
 7296SOL    HW122787   3.087   4.905   0.818
 7296SOL    HW222788   2.929   4.869   0.838
 7297SOL     OW22789   4.447   6.569   0.589
 7297SOL    HW122790   4.532   6.585   0.639
 7297SOL    HW222791   4.394   6.653   0.585
 7298SOL     OW22792   5.739   3.970   4.633
 7298SOL    HW122793   5.826   3.974   4.680
 7298SOL    HW222794   5.707   4.063   4.614
 7299SOL     OW22795   6.636   2.621   0.799
 7299SOL    HW122796   6.733   2.616   0.776
 7299SOL    HW222797   6.584   2.649   0.719
 7300SOL     OW22798   4.863   5.955   0.996
 7300SOL    HW122799   4.898   5.865   0.971
 7300SOL    HW222800   4.787   5.944   1.060
 7301SOL     OW22801   6.771   6.890   6.016
 7301SOL    HW122802   6.842   6.944   6.061
 7301SOL    HW222803   6.681   6.920   6.049
 7302SOL     OW22804   0.111   1.165   0.217
 7302SOL    HW122805   0.163   1.227   0.276
 7302SOL    HW222806   0.054   1.106   0.272
 7303SOL     OW22807   3.612   0.389   6.596
 7303SOL    HW122808   3.696   0.349   6.633
 7303SOL    HW222809   3.618   0.390   6.496
 7304SOL     OW22810   4.449   3.551   6.214
 7304SOL    HW122811   4.407   3.460   6.212
 7304SOL    HW222812   4.521   3.556   6.146
 7305SOL     OW22813   5.581   1.840   0.193
 7305SOL    HW122814   5.523   1.793   0.126
 7305SOL    HW222815   5.539   1.927   0.218
 7306SOL     OW22816   5.078   4.153   1.427
 7306SOL    HW122817   4.994   4.153   1.373
 7306SOL    HW222818   5.145   4.214   1.383
 7307SOL     OW22819   3.009   6.609   1.870
 7307SOL    HW122820   3.089   6.569   1.915
 7307SOL    HW222821   2.931   6.609   1.934
 7308SOL     OW22822   6.809   3.555   4.160
 7308SOL    HW122823   6.844   3.515   4.075
 7308SOL    HW222824   6.862   3.519   4.237
 7309SOL     OW22825   5.160   6.454   0.471
 7309SOL    HW122826   5.197   6.376   0.421
 7309SOL    HW222827   5.233   6.521   0.487
 7310SOL     OW22828   2.463   5.769   1.114
 7310SOL    HW122829   2.393   5.741   1.179
 7310SOL    HW222830   2.550   5.781   1.161
 7311SOL     OW22831   2.616   2.210   2.039
 7311SOL    HW122832   2.572   2.174   2.121
 7311SOL    HW222833   2.696   2.264   2.065
 7312SOL     OW22834   0.025   2.220   5.420
 7312SOL    HW122835   0.027   2.315   5.452
 7312SOL    HW222836   0.083   2.164   5.479
 7313SOL     OW22837   4.312   2.340   6.394
 7313SOL    HW122838   4.401   2.384   6.382
 7313SOL    HW222839   4.310   2.254   6.344
 7314SOL     OW22840   6.593   3.717   5.136
 7314SOL    HW122841   6.587   3.677   5.228
 7314SOL    HW222842   6.586   3.645   5.068
 7315SOL     OW22843   6.091   0.009   3.996
 7315SOL    HW122844   6.062   0.100   4.026
 7315SOL    HW222845   6.186   7.010   4.025
 7316SOL     OW22846   3.649   3.184   5.718
 7316SOL    HW122847   3.556   3.148   5.718
 7316SOL    HW222848   3.709   3.124   5.771
 7317SOL     OW22849   3.609   0.928   2.732
 7317SOL    HW122850   3.642   0.934   2.637
 7317SOL    HW222851   3.533   0.991   2.744
 7318SOL     OW22852   0.905   1.557   1.629
 7318SOL    HW122853   0.859   1.609   1.701
 7318SOL    HW222854   0.980   1.505   1.668
 7319SOL     OW22855   6.193   4.070   6.992
 7319SOL    HW122856   6.246   4.148   0.009
 7319SOL    HW222857   6.130   4.101   6.921
 7320SOL     OW22858   0.433   3.563   2.336
 7320SOL    HW122859   0.507   3.630   2.343
 7320SOL    HW222860   0.461   3.478   2.381
 7321SOL     OW22861   2.605   1.349   4.424
 7321SOL    HW122862   2.611   1.255   4.391
 7321SOL    HW222863   2.510   1.371   4.444
 7322SOL     OW22864   1.190   3.755   3.190
 7322SOL    HW122865   1.218   3.849   3.168
 7322SOL    HW222866   1.098   3.757   3.231
 7323SOL     OW22867   1.661   2.225   3.306
 7323SOL    HW122868   1.574   2.234   3.258
 7323SOL    HW222869   1.736   2.247   3.243
 7324SOL     OW22870   5.703   0.891   3.593
 7324SOL    HW122871   5.734   0.800   3.563
 7324SOL    HW222872   5.604   0.890   3.605
 7325SOL     OW22873   4.074   6.327   6.071
 7325SOL    HW122874   3.992   6.348   6.126
 7325SOL    HW222875   4.153   6.320   6.132
 7326SOL     OW22876   2.590   6.338   5.770
 7326SOL    HW122877   2.579   6.265   5.839
 7326SOL    HW222878   2.683   6.374   5.774
 7327SOL     OW22879   0.996   3.026   6.080
 7327SOL    HW122880   0.905   3.051   6.112
 7327SOL    HW222881   1.056   3.012   6.159
 7328SOL     OW22882   3.350   7.010   7.000
 7328SOL    HW122883   3.382   6.994   6.907
 7328SOL    HW222884   3.317   0.088   7.009
 7329SOL     OW22885   4.555   3.263   0.894
 7329SOL    HW122886   4.473   3.299   0.940
 7329SOL    HW222887   4.579   3.175   0.934
 7330SOL     OW22888   3.404   1.820   6.626
 7330SOL    HW122889   3.426   1.854   6.535
 7330SOL    HW222890   3.474   1.755   6.656
 7331SOL     OW22891   5.240   0.631   2.262
 7331SOL    HW122892   5.211   0.711   2.316
 7331SOL    HW222893   5.283   0.564   2.323
 7332SOL     OW22894   2.514   6.252   0.087
 7332SOL    HW122895   2.613   6.254   0.100
 7332SOL    HW222896   2.494   6.215   7.012
 7333SOL     OW22897   0.624   4.746   3.118
 7333SOL    HW122898   0.566   4.763   3.038
 7333SOL    HW222899   0.707   4.801   3.112
 7334SOL     OW22900   3.808   5.835   5.298
 7334SOL    HW122901   3.746   5.769   5.341
 7334SOL    HW222902   3.847   5.895   5.367
 7335SOL     OW22903   1.469   2.495   2.321
 7335SOL    HW122904   1.498   2.591   2.322
 7335SOL    HW222905   1.416   2.477   2.238
 7336SOL     OW22906   1.625   5.810   3.964
 7336SOL    HW122907   1.718   5.777   3.952
 7336SOL    HW222908   1.564   5.732   3.980
 7337SOL     OW22909   1.126   3.099   2.182
 7337SOL    HW122910   1.045   3.065   2.229
 7337SOL    HW222911   1.137   3.197   2.203
 7338SOL     OW22912   6.988   2.391   1.689
 7338SOL    HW122913   0.061   2.402   1.645
 7338SOL    HW222914   6.916   2.404   1.621
 7339SOL     OW22915   6.464   6.035   4.162
 7339SOL    HW122916   6.420   5.978   4.231
 7339SOL    HW222917   6.421   6.019   4.073
 7340SOL     OW22918   2.523   0.487   6.947
 7340SOL    HW122919   2.622   0.490   6.934
 7340SOL    HW222920   2.500   0.408   7.005
 7341SOL     OW22921   6.422   1.965   0.259
 7341SOL    HW122922   6.488   2.033   0.290
 7341SOL    HW222923   6.330   2.001   0.266
 7342SOL     OW22924   6.595   6.600   2.869
 7342SOL    HW122925   6.582   6.511   2.913
 7342SOL    HW222926   6.512   6.625   2.818
 7343SOL     OW22927   5.197   2.922   0.628
 7343SOL    HW122928   5.122   2.911   0.563
 7343SOL    HW222929   5.278   2.955   0.580
 7344SOL     OW22930   1.114   6.105   5.918
 7344SOL    HW122931   1.170   6.032   5.955
 7344SOL    HW222932   1.109   6.095   5.818
 7345SOL     OW22933   4.008   3.300   6.227
 7345SOL    HW122934   4.018   3.375   6.162
 7345SOL    HW222935   3.924   3.249   6.206
 7346SOL     OW22936   3.932   5.645   2.649
 7346SOL    HW122937   3.927   5.680   2.742
 7346SOL    HW222938   4.027   5.644   2.618
 7347SOL     OW22939   6.758   1.936   0.314
 7347SOL    HW122940   6.683   1.987   0.273
 7347SOL    HW222941   6.768   1.963   0.410
 7348SOL     OW22942   1.785   4.454   2.698
 7348SOL    HW122943   1.694   4.462   2.656
 7348SOL    HW222944   1.825   4.366   2.674
 7349SOL     OW22945   3.999   0.521   1.299
 7349SOL    HW122946   3.956   0.609   1.280
 7349SOL    HW222947   3.962   0.452   1.237
 7350SOL     OW22948   2.751   0.342   5.046
 7350SOL    HW122949   2.828   0.344   4.982
 7350SOL    HW222950   2.677   0.288   5.007
 7351SOL     OW22951   4.464   5.171   3.842
 7351SOL    HW122952   4.521   5.106   3.892
 7351SOL    HW222953   4.446   5.136   3.750
 7352SOL     OW22954   0.436   2.442   3.168
 7352SOL    HW122955   0.365   2.491   3.218
 7352SOL    HW222956   0.522   2.445   3.220
 7353SOL     OW22957   6.084   0.114   6.809
 7353SOL    HW122958   6.078   0.202   6.763
 7353SOL    HW222959   6.179   0.084   6.812
 7354SOL     OW22960   1.152   1.970   2.902
 7354SOL    HW122961   1.076   1.979   2.965
 7354SOL    HW222962   1.119   1.935   2.814
 7355SOL     OW22963   0.068   1.870   6.037
 7355SOL    HW122964   0.051   1.944   6.102
 7355SOL    HW222965   0.031   1.895   5.947
 7356SOL     OW22966   3.926   3.415   6.462
 7356SOL    HW122967   3.972   3.373   6.540
 7356SOL    HW222968   3.936   3.357   6.381
 7357SOL     OW22969   5.182   5.492   1.674
 7357SOL    HW122970   5.153   5.545   1.595
 7357SOL    HW222971   5.265   5.440   1.653
 7358SOL     OW22972   5.872   2.093   2.739
 7358SOL    HW122973   5.948   2.040   2.701
 7358SOL    HW222974   5.831   2.043   2.815
 7359SOL     OW22975   4.596   0.663   6.332
 7359SOL    HW122976   4.689   0.646   6.299
 7359SOL    HW222977   4.600   0.691   6.428
 7360SOL     OW22978   2.478   3.191   5.428
 7360SOL    HW122979   2.492   3.139   5.344
 7360SOL    HW222980   2.459   3.287   5.406
 7361SOL     OW22981   4.793   0.197   2.216
 7361SOL    HW122982   4.849   0.175   2.295
 7361SOL    HW222983   4.808   0.129   2.144
 7362SOL     OW22984   4.004   5.337   6.802
 7362SOL    HW122985   3.969   5.279   6.729
 7362SOL    HW222986   4.102   5.317   6.816
 7363SOL     OW22987   3.897   0.702   0.713
 7363SOL    HW122988   3.802   0.731   0.727
 7363SOL    HW222989   3.952   0.780   0.684
 7364SOL     OW22990   4.488   0.123   1.823
 7364SOL    HW122991   4.580   0.114   1.785
 7364SOL    HW222992   4.482   0.208   1.876
 7365SOL     OW22993   6.108   4.748   2.272
 7365SOL    HW122994   6.165   4.824   2.242
 7365SOL    HW222995   6.086   4.690   2.194
 7366SOL     OW22996   2.450   1.309   3.860
 7366SOL    HW122997   2.546   1.336   3.861
 7366SOL    HW222998   2.423   1.281   3.952
 7367SOL     OW22999   5.322   1.044   6.386
 7367SOL    HW123000   5.307   1.005   6.477
 7367SOL    HW223001   5.237   1.038   6.333
 7368SOL     OW23002   4.023   3.180   2.490
 7368SOL    HW123003   3.946   3.238   2.465
 7368SOL    HW223004   3.990   3.103   2.545
 7369SOL     OW23005   4.889   2.771   0.451
 7369SOL    HW123006   4.821   2.740   0.384
 7369SOL    HW223007   4.916   2.694   0.509
 7370SOL     OW23008   2.271   1.538   4.756
 7370SOL    HW123009   2.322   1.618   4.725
 7370SOL    HW223010   2.335   1.464   4.777
 7371SOL     OW23011   4.330   7.014   3.553
 7371SOL    HW123012   4.244   0.048   3.546
 7371SOL    HW223013   4.405   0.056   3.523
 7372SOL     OW23014   4.037   6.979   4.839
 7372SOL    HW123015   3.999   0.054   4.823
 7372SOL    HW223016   4.075   6.943   4.754
 7373SOL     OW23017   5.006   2.516   4.563
 7373SOL    HW123018   4.907   2.520   4.547
 7373SOL    HW223019   5.024   2.488   4.658
 7374SOL     OW23020   0.743   1.593   4.964
 7374SOL    HW123021   0.734   1.535   5.045
 7374SOL    HW223022   0.826   1.648   4.971
 7375SOL     OW23023   1.806   2.982   2.147
 7375SOL    HW123024   1.782   3.046   2.074
 7375SOL    HW223025   1.805   2.889   2.111
 7376SOL     OW23026   0.489   4.199   0.772
 7376SOL    HW123027   0.556   4.186   0.845
 7376SOL    HW223028   0.438   4.284   0.788
 7377SOL     OW23029   3.012   5.826   0.153
 7377SOL    HW123030   3.061   5.910   0.131
 7377SOL    HW223031   2.970   5.835   0.243
 7378SOL     OW23032   1.400   6.209   3.992
 7378SOL    HW123033   1.481   6.170   3.946
 7378SOL    HW223034   1.427   6.291   4.042
 7379SOL     OW23035   4.295   0.795   0.793
 7379SOL    HW123036   4.219   0.757   0.845
 7379SOL    HW223037   4.367   0.824   0.856
 7380SOL     OW23038   5.623   3.824   3.514
 7380SOL    HW123039   5.558   3.878   3.566
 7380SOL    HW223040   5.713   3.828   3.558
 7381SOL     OW23041   3.769   1.103   0.217
 7381SOL    HW123042   3.808   1.083   0.307
 7381SOL    HW223043   3.671   1.122   0.226
 7382SOL     OW23044   6.908   1.423   5.888
 7382SOL    HW123045   6.915   1.485   5.966
 7382SOL    HW223046   6.837   1.457   5.826
 7383SOL     OW23047   1.666   6.663   1.625
 7383SOL    HW123048   1.589   6.637   1.684
 7383SOL    HW223049   1.751   6.628   1.664
 7384SOL     OW23050   0.474   0.209   1.172
 7384SOL    HW123051   0.396   0.267   1.147
 7384SOL    HW223052   0.485   0.138   1.102
 7385SOL     OW23053   4.411   4.844   2.582
 7385SOL    HW123054   4.373   4.897   2.658
 7385SOL    HW223055   4.337   4.799   2.532
 7386SOL     OW23056   6.097   3.280   0.869
 7386SOL    HW123057   6.139   3.218   0.802
 7386SOL    HW223058   6.164   3.351   0.894
 7387SOL     OW23059   6.507   4.534   5.449
 7387SOL    HW123060   6.525   4.588   5.532
 7387SOL    HW223061   6.429   4.574   5.400
 7388SOL     OW23062   1.811   6.370   2.254
 7388SOL    HW123063   1.711   6.367   2.263
 7388SOL    HW223064   1.838   6.315   2.175
 7389SOL     OW23065   6.897   2.877   0.334
 7389SOL    HW123066   6.962   2.884   0.410
 7389SOL    HW223067   6.898   2.783   0.299
 7390SOL     OW23068   2.431   2.279   2.448
 7390SOL    HW123069   2.470   2.370   2.431
 7390SOL    HW223070   2.359   2.286   2.516
 7391SOL     OW23071   3.344   3.271   2.682
 7391SOL    HW123072   3.363   3.184   2.728
 7391SOL    HW223073   3.315   3.252   2.588
 7392SOL     OW23074   3.930   5.176   6.593
 7392SOL    HW123075   3.856   5.108   6.598
 7392SOL    HW223076   3.936   5.212   6.500
 7393SOL     OW23077   5.956   5.220   4.207
 7393SOL    HW123078   6.011   5.276   4.268
 7393SOL    HW223079   5.951   5.264   4.117
 7394SOL     OW23080   2.155   2.388   6.354
 7394SOL    HW123081   2.231   2.452   6.368
 7394SOL    HW223082   2.113   2.367   6.443
 7395SOL     OW23083   2.732   4.251   0.826
 7395SOL    HW123084   2.795   4.193   0.878
 7395SOL    HW223085   2.784   4.323   0.780
 7396SOL     OW23086   2.505   5.432   1.845
 7396SOL    HW123087   2.568   5.464   1.774
 7396SOL    HW223088   2.526   5.337   1.868
 7397SOL     OW23089   5.492   4.063   3.925
 7397SOL    HW123090   5.564   4.043   3.991
 7397SOL    HW223091   5.412   4.005   3.942
 7398SOL     OW23092   1.909   4.617   2.948
 7398SOL    HW123093   1.988   4.557   2.948
 7398SOL    HW223094   1.833   4.574   2.900
 7399SOL     OW23095   5.471   1.737   4.821
 7399SOL    HW123096   5.471   1.832   4.851
 7399SOL    HW223097   5.539   1.725   4.748
 7400SOL     OW23098   5.338   2.485   5.366
 7400SOL    HW123099   5.333   2.395   5.409
 7400SOL    HW223100   5.300   2.554   5.428
 7401SOL     OW23101   1.035   2.830   3.627
 7401SOL    HW123102   1.108   2.779   3.581
 7401SOL    HW223103   0.966   2.856   3.559
 7402SOL     OW23104   2.971   6.040   5.474
 7402SOL    HW123105   2.975   6.123   5.419
 7402SOL    HW223106   2.972   6.063   5.571
 7403SOL     OW23107   1.519   2.944   4.608
 7403SOL    HW123108   1.567   2.859   4.588
 7403SOL    HW223109   1.546   3.014   4.541
 7404SOL     OW23110   3.351   3.541   0.991
 7404SOL    HW123111   3.376   3.556   1.087
 7404SOL    HW223112   3.321   3.446   0.979
 7405SOL     OW23113   3.084   5.810   5.342
 7405SOL    HW123114   3.040   5.886   5.391
 7405SOL    HW223115   3.125   5.844   5.257
 7406SOL     OW23116   0.807   0.817   5.002
 7406SOL    HW123117   0.709   0.798   5.010
 7406SOL    HW223118   0.835   0.879   5.075
 7407SOL     OW23119   0.959   6.487   6.040
 7407SOL    HW123120   0.911   6.422   6.099
 7407SOL    HW223121   1.054   6.459   6.031
 7408SOL     OW23122   3.569   3.705   5.282
 7408SOL    HW123123   3.530   3.780   5.336
 7408SOL    HW223124   3.625   3.743   5.209
 7409SOL     OW23125   6.133   4.186   0.497
 7409SOL    HW123126   6.171   4.271   0.462
 7409SOL    HW223127   6.108   4.198   0.593
 7410SOL     OW23128   6.788   0.338   1.672
 7410SOL    HW123129   6.701   0.333   1.623
 7410SOL    HW223130   6.785   0.276   1.751
 7411SOL     OW23131   0.993   2.108   5.384
 7411SOL    HW123132   1.062   2.151   5.442
 7411SOL    HW223133   1.024   2.110   5.289
 7412SOL     OW23134   4.164   6.990   6.956
 7412SOL    HW123135   4.105   6.991   6.876
 7412SOL    HW223136   4.159   0.062   7.003
 7413SOL     OW23137   4.156   6.423   2.977
 7413SOL    HW123138   4.082   6.358   2.992
 7413SOL    HW223139   4.226   6.382   2.917
 7414SOL     OW23140   2.166   2.212   4.133
 7414SOL    HW123141   2.193   2.220   4.230
 7414SOL    HW223142   2.238   2.166   4.082
 7415SOL     OW23143   4.410   6.081   6.565
 7415SOL    HW123144   4.368   6.074   6.474
 7415SOL    HW223145   4.429   5.989   6.600
 7416SOL     OW23146   1.045   1.812   2.697
 7416SOL    HW123147   1.030   1.871   2.617
 7416SOL    HW223148   1.088   1.727   2.667
 7417SOL     OW23149   0.862   1.781   3.864
 7417SOL    HW123150   0.771   1.815   3.886
 7417SOL    HW223151   0.876   1.786   3.765
 7418SOL     OW23152   1.730   3.615   6.286
 7418SOL    HW123153   1.694   3.525   6.308
 7418SOL    HW223154   1.662   3.685   6.306
 7419SOL     OW23155   6.583   3.895   3.860
 7419SOL    HW123156   6.568   3.975   3.918
 7419SOL    HW223157   6.499   3.873   3.811
 7420SOL     OW23158   6.439   6.971   1.898
 7420SOL    HW123159   6.480   0.014   1.829
 7420SOL    HW223160   6.355   6.931   1.861
 7421SOL     OW23161   5.146   3.958   1.588
 7421SOL    HW123162   5.129   4.031   1.522
 7421SOL    HW223163   5.070   3.953   1.653
 7422SOL     OW23164   5.647   2.853   1.871
 7422SOL    HW123165   5.565   2.796   1.872
 7422SOL    HW223166   5.707   2.826   1.946
 7423SOL     OW23167   5.337   1.828   5.987
 7423SOL    HW123168   5.434   1.835   5.964
 7423SOL    HW223169   5.283   1.834   5.903
 7424SOL     OW23170   0.577   1.344   4.409
 7424SOL    HW123171   0.529   1.276   4.354
 7424SOL    HW223172   0.676   1.337   4.391
 7425SOL     OW23173   5.590   7.016   0.058
 7425SOL    HW123174   5.547   0.065   7.013
 7425SOL    HW223175   5.587   6.924   0.018
 7426SOL     OW23176   3.466   2.871   5.847
 7426SOL    HW123177   3.541   2.841   5.788
 7426SOL    HW223178   3.403   2.928   5.795
 7427SOL     OW23179   3.729   1.790   4.180
 7427SOL    HW123180   3.768   1.854   4.114
 7427SOL    HW223181   3.705   1.704   4.134
 7428SOL     OW23182   4.316   5.990   5.458
 7428SOL    HW123183   4.316   5.977   5.359
 7428SOL    HW223184   4.243   6.054   5.484
 7429SOL     OW23185   1.782   0.270   2.276
 7429SOL    HW123186   1.694   0.243   2.237
 7429SOL    HW223187   1.835   0.321   2.208
 7430SOL     OW23188   6.197   5.184   2.989
 7430SOL    HW123189   6.146   5.257   2.944
 7430SOL    HW223190   6.159   5.096   2.963
 7431SOL     OW23191   1.678   2.105   4.678
 7431SOL    HW123192   1.651   2.029   4.619
 7431SOL    HW223193   1.689   2.188   4.623
 7432SOL     OW23194   2.093   0.130   3.050
 7432SOL    HW123195   2.091   0.144   2.951
 7432SOL    HW223196   2.000   0.117   3.084
 7433SOL     OW23197   2.172   0.503   6.547
 7433SOL    HW123198   2.089   0.489   6.601
 7433SOL    HW223199   2.183   0.600   6.527
 7434SOL     OW23200   3.950   5.840   5.791
 7434SOL    HW123201   3.928   5.865   5.696
 7434SOL    HW223202   4.038   5.793   5.793
 7435SOL     OW23203   4.778   5.826   3.105
 7435SOL    HW123204   4.741   5.817   3.197
 7435SOL    HW223205   4.764   5.920   3.072
 7436SOL     OW23206   5.423   3.170   6.732
 7436SOL    HW123207   5.465   3.110   6.665
 7436SOL    HW223208   5.450   3.141   6.824
 7437SOL     OW23209   4.141   6.158   1.433
 7437SOL    HW123210   4.088   6.241   1.453
 7437SOL    HW223211   4.131   6.135   1.336
 7438SOL     OW23212   2.679   0.606   0.217
 7438SOL    HW123213   2.712   0.544   0.146
 7438SOL    HW223214   2.649   0.692   0.175
 7439SOL     OW23215   0.671   4.853   6.309
 7439SOL    HW123216   0.659   4.932   6.369
 7439SOL    HW223217   0.721   4.781   6.357
 7440SOL     OW23218   5.163   3.269   4.245
 7440SOL    HW123219   5.064   3.262   4.232
 7440SOL    HW223220   5.209   3.217   4.173
 7441SOL     OW23221   6.085   6.528   1.623
 7441SOL    HW123222   6.091   6.444   1.677
 7441SOL    HW223223   6.156   6.528   1.553
 7442SOL     OW23224   5.190   0.663   5.180
 7442SOL    HW123225   5.116   0.619   5.128
 7442SOL    HW223226   5.162   0.755   5.206
 7443SOL     OW23227   0.113   0.508   2.148
 7443SOL    HW123228   0.026   0.545   2.179
 7443SOL    HW223229   0.122   0.413   2.178
 7444SOL     OW23230   0.581   6.254   6.632
 7444SOL    HW123231   0.618   6.219   6.546
 7444SOL    HW223232   0.484   6.234   6.637
 7445SOL     OW23233   4.510   5.803   1.476
 7445SOL    HW123234   4.512   5.747   1.558
 7445SOL    HW223235   4.586   5.778   1.416
 7446SOL     OW23236   4.999   3.940   0.249
 7446SOL    HW123237   4.911   3.982   0.271
 7446SOL    HW223238   5.014   3.862   0.309
 7447SOL     OW23239   1.096   5.088   1.524
 7447SOL    HW123240   1.033   5.104   1.448
 7447SOL    HW223241   1.053   5.027   1.591
 7448SOL     OW23242   4.901   5.120   5.938
 7448SOL    HW123243   4.815   5.105   5.890
 7448SOL    HW223244   4.896   5.204   5.992
 7449SOL     OW23245   0.473   4.503   6.757
 7449SOL    HW123246   0.526   4.512   6.673
 7449SOL    HW223247   0.481   4.410   6.792
 7450SOL     OW23248   5.166   1.668   5.641
 7450SOL    HW123249   5.133   1.678   5.547
 7450SOL    HW223250   5.110   1.601   5.689
 7451SOL     OW23251   5.479   5.116   2.554
 7451SOL    HW123252   5.519   5.070   2.633
 7451SOL    HW223253   5.506   5.069   2.470
 7452SOL     OW23254   5.759   5.312   4.982
 7452SOL    HW123255   5.730   5.218   5.001
 7452SOL    HW223256   5.817   5.345   5.056
 7453SOL     OW23257   4.083   5.500   0.175
 7453SOL    HW123258   4.006   5.481   0.113
 7453SOL    HW223259   4.169   5.491   0.125
 7454SOL     OW23260   3.736   2.470   0.392
 7454SOL    HW123261   3.737   2.426   0.482
 7454SOL    HW223262   3.818   2.444   0.341
 7455SOL     OW23263   6.651   2.884   3.229
 7455SOL    HW123264   6.654   2.808   3.164
 7455SOL    HW223265   6.617   2.852   3.317
 7456SOL     OW23266   2.835   2.021   5.383
 7456SOL    HW123267   2.741   2.051   5.401
 7456SOL    HW223268   2.838   1.977   5.293
 7457SOL     OW23269   2.862   0.179   3.059
 7457SOL    HW123270   2.854   0.256   2.995
 7457SOL    HW223271   2.945   0.190   3.113
 7458SOL     OW23272   1.524   6.012   5.510
 7458SOL    HW123273   1.447   5.981   5.455
 7458SOL    HW223274   1.575   6.082   5.460
 7459SOL     OW23275   6.052   0.881   2.868
 7459SOL    HW123276   5.988   0.947   2.908
 7459SOL    HW223277   6.055   0.799   2.925
 7460SOL     OW23278   1.438   6.947   0.777
 7460SOL    HW123279   1.488   7.012   0.834
 7460SOL    HW223280   1.410   6.869   0.832
 7461SOL     OW23281   1.184   5.558   6.059
 7461SOL    HW123282   1.254   5.489   6.043
 7461SOL    HW223283   1.173   5.614   5.977
 7462SOL     OW23284   1.113   5.024   1.094
 7462SOL    HW123285   1.147   5.088   1.025
 7462SOL    HW223286   1.066   5.076   1.166
 7463SOL     OW23287   3.703   4.297   0.420
 7463SOL    HW123288   3.657   4.381   0.392
 7463SOL    HW223289   3.707   4.234   0.343
 7464SOL     OW23290   6.336   6.147   5.624
 7464SOL    HW123291   6.412   6.164   5.562
 7464SOL    HW223292   6.250   6.149   5.574
 7465SOL     OW23293   2.143   5.003   0.231
 7465SOL    HW123294   2.059   5.052   0.208
 7465SOL    HW223295   2.219   5.041   0.178
 7466SOL     OW23296   0.571   6.720   4.765
 7466SOL    HW123297   0.512   6.754   4.692
 7466SOL    HW223298   0.635   6.652   4.728
 7467SOL     OW23299   0.268   3.596   5.870
 7467SOL    HW123300   0.348   3.644   5.903
 7467SOL    HW223301   0.274   3.499   5.896
 7468SOL     OW23302   5.949   3.558   5.925
 7468SOL    HW123303   5.931   3.470   5.967
 7468SOL    HW223304   5.864   3.596   5.887
 7469SOL     OW23305   0.092   2.494   1.336
 7469SOL    HW123306   0.096   2.440   1.253
 7469SOL    HW223307   0.120   2.588   1.316
 7470SOL     OW23308   5.315   3.218   3.800
 7470SOL    HW123309   5.357   3.185   3.715
 7470SOL    HW223310   5.216   3.207   3.795
 7471SOL     OW23311   5.267   5.838   6.196
 7471SOL    HW123312   5.185   5.888   6.170
 7471SOL    HW223313   5.325   5.824   6.116
 7472SOL     OW23314   6.062   6.132   5.481
 7472SOL    HW123315   6.006   6.211   5.507
 7472SOL    HW223316   6.007   6.049   5.486
 7473SOL     OW23317   3.956   5.936   4.002
 7473SOL    HW123318   3.983   5.864   3.939
 7473SOL    HW223319   3.937   6.020   3.951
 7474SOL     OW23320   6.775   2.135   5.298
 7474SOL    HW123321   6.686   2.134   5.345
 7474SOL    HW223322   6.848   2.140   5.366
 7475SOL     OW23323   4.875   2.267   1.122
 7475SOL    HW123324   4.919   2.253   1.211
 7475SOL    HW223325   4.808   2.340   1.129
 7476SOL     OW23326   2.032   1.200   3.138
 7476SOL    HW123327   2.097   1.183   3.064
 7476SOL    HW223328   2.071   1.268   3.200
 7477SOL     OW23329   0.892   4.598   5.275
 7477SOL    HW123330   0.796   4.580   5.254
 7477SOL    HW223331   0.946   4.586   5.192
 7478SOL     OW23332   0.544   1.407   5.535
 7478SOL    HW123333   0.623   1.371   5.485
 7478SOL    HW223334   0.462   1.395   5.480
 7479SOL     OW23335   6.440   2.960   6.980
 7479SOL    HW123336   6.523   2.908   6.962
 7479SOL    HW223337   6.464   3.052   7.010
 7480SOL     OW23338   3.860   5.050   2.314
 7480SOL    HW123339   3.833   5.110   2.389
 7480SOL    HW223340   3.778   5.017   2.266
 7481SOL     OW23341   0.525   4.241   6.874
 7481SOL    HW123342   0.493   4.233   6.969
 7481SOL    HW223343   0.603   4.180   6.860
 7482SOL     OW23344   4.208   2.168   2.675
 7482SOL    HW123345   4.170   2.190   2.585
 7482SOL    HW223346   4.143   2.112   2.726
 7483SOL     OW23347   4.270   2.290   5.966
 7483SOL    HW123348   4.259   2.215   6.032
 7483SOL    HW223349   4.213   2.272   5.886
 7484SOL     OW23350   2.892   6.542   3.954
 7484SOL    HW123351   2.992   6.544   3.959
 7484SOL    HW223352   2.863   6.565   3.861
 7485SOL     OW23353   2.740   0.049   4.490
 7485SOL    HW123354   2.659   0.107   4.485
 7485SOL    HW223355   2.759   0.010   4.400
 7486SOL     OW23356   2.302   6.323   0.592
 7486SOL    HW123357   2.260   6.238   0.624
 7486SOL    HW223358   2.250   6.401   0.627
 7487SOL     OW23359   3.861   6.178   3.822
 7487SOL    HW123360   3.822   6.122   3.748
 7487SOL    HW223361   3.793   6.189   3.894
 7488SOL     OW23362   0.915   5.483   3.759
 7488SOL    HW123363   0.881   5.527   3.676
 7488SOL    HW223364   0.863   5.399   3.776
 7489SOL     OW23365   6.486   3.459   6.469
 7489SOL    HW123366   6.553   3.532   6.475
 7489SOL    HW223367   6.505   3.403   6.389
 7490SOL     OW23368   1.041   2.090   2.450
 7490SOL    HW123369   1.126   2.081   2.502
 7490SOL    HW223370   0.977   2.147   2.501
 7491SOL     OW23371   4.293   2.959   0.236
 7491SOL    HW123372   4.267   2.895   0.309
 7491SOL    HW223373   4.221   2.962   0.167
 7492SOL     OW23374   1.484   0.507   4.113
 7492SOL    HW123375   1.509   0.584   4.171
 7492SOL    HW223376   1.470   0.426   4.169
 7493SOL     OW23377   6.715   4.598   5.231
 7493SOL    HW123378   6.759   4.512   5.206
 7493SOL    HW223379   6.654   4.582   5.310
 7494SOL     OW23380   6.042   1.310   2.796
 7494SOL    HW123381   6.103   1.242   2.756
 7494SOL    HW223382   6.093   1.367   2.860
 7495SOL     OW23383   1.823   3.625   4.978
 7495SOL    HW123384   1.811   3.710   4.927
 7495SOL    HW223385   1.745   3.611   5.038
 7496SOL     OW23386   5.612   4.044   2.399
 7496SOL    HW123387   5.550   4.012   2.470
 7496SOL    HW223388   5.561   4.061   2.315
 7497SOL     OW23389   0.242   6.756   0.433
 7497SOL    HW123390   0.279   6.732   0.343
 7497SOL    HW223391   0.185   6.681   0.466
 7498SOL     OW23392   2.986   0.556   2.971
 7498SOL    HW123393   2.903   0.527   3.019
 7498SOL    HW223394   3.014   0.485   2.907
 7499SOL     OW23395   4.141   1.714   3.647
 7499SOL    HW123396   4.192   1.671   3.721
 7499SOL    HW223397   4.060   1.660   3.626
 7500SOL     OW23398   3.788   6.583   2.757
 7500SOL    HW123399   3.713   6.555   2.817
 7500SOL    HW223400   3.804   6.513   2.688
 7501SOL     OW23401   5.910   2.367   4.416
 7501SOL    HW123402   5.891   2.333   4.508
 7501SOL    HW223403   5.882   2.299   4.349
 7502SOL     OW23404   4.000   0.362   4.275
 7502SOL    HW123405   3.961   0.362   4.367
 7502SOL    HW223406   3.986   0.272   4.234
 7503SOL     OW23407   1.576   6.262   1.421
 7503SOL    HW123408   1.640   6.334   1.393
 7503SOL    HW223409   1.622   6.201   1.485
 7504SOL     OW23410   6.348   6.691   3.442
 7504SOL    HW123411   6.298   6.706   3.357
 7504SOL    HW223412   6.307   6.745   3.515
 7505SOL     OW23413   1.054   6.934   5.374
 7505SOL    HW123414   0.970   6.988   5.363
 7505SOL    HW223415   1.030   6.843   5.409
 7506SOL     OW23416   2.422   1.554   3.296
 7506SOL    HW123417   2.454   1.622   3.361
 7506SOL    HW223418   2.498   1.525   3.237
 7507SOL     OW23419   6.220   4.014   4.756
 7507SOL    HW123420   6.256   4.091   4.704
 7507SOL    HW223421   6.182   3.946   4.694
 7508SOL     OW23422   1.597   5.964   6.704
 7508SOL    HW123423   1.577   6.049   6.655
 7508SOL    HW223424   1.595   5.981   6.802
 7509SOL     OW23425   5.085   4.281   0.489
 7509SOL    HW123426   5.166   4.223   0.487
 7509SOL    HW223427   5.050   4.286   0.583
 7510SOL     OW23428   3.954   3.716   3.825
 7510SOL    HW123429   3.881   3.784   3.823
 7510SOL    HW223430   3.991   3.703   3.733
 7511SOL     OW23431   3.651   5.780   3.049
 7511SOL    HW123432   3.572   5.811   3.103
 7511SOL    HW223433   3.709   5.858   3.027
 7512SOL     OW23434   3.417   6.632   6.236
 7512SOL    HW123435   3.386   6.569   6.307
 7512SOL    HW223436   3.338   6.676   6.194
 7513SOL     OW23437   0.772   2.270   2.890
 7513SOL    HW123438   0.766   2.364   2.923
 7513SOL    HW223439   0.848   2.224   2.936
 7514SOL     OW23440   2.242   4.238   2.788
 7514SOL    HW123441   2.191   4.213   2.706
 7514SOL    HW223442   2.246   4.160   2.850
 7515SOL     OW23443   0.463   4.599   4.401
 7515SOL    HW123444   0.485   4.527   4.466
 7515SOL    HW223445   0.506   4.685   4.429
 7516SOL     OW23446   1.259   5.934   5.388
 7516SOL    HW123447   1.191   6.004   5.408
 7516SOL    HW223448   1.214   5.845   5.380
 7517SOL     OW23449   0.232   1.543   0.008
 7517SOL    HW123450   0.284   1.552   6.939
 7517SOL    HW223451   0.246   1.624   0.065
 7518SOL     OW23452   4.792   2.872   3.657
 7518SOL    HW123453   4.734   2.798   3.691
 7518SOL    HW223454   4.801   2.866   3.558
 7519SOL     OW23455   3.561   6.456   4.765
 7519SOL    HW123456   3.503   6.534   4.745
 7519SOL    HW223457   3.507   6.383   4.808
 7520SOL     OW23458   1.708   1.973   1.180
 7520SOL    HW123459   1.724   1.878   1.152
 7520SOL    HW223460   1.687   2.028   1.100
 7521SOL     OW23461   4.178   1.422   5.686
 7521SOL    HW123462   4.171   1.521   5.696
 7521SOL    HW223463   4.248   1.400   5.618
 7522SOL     OW23464   1.815   6.747   2.527
 7522SOL    HW123465   1.865   6.775   2.446
 7522SOL    HW223466   1.769   6.826   2.568
 7523SOL     OW23467   5.448   1.233   6.183
 7523SOL    HW123468   5.437   1.162   6.253
 7523SOL    HW223469   5.399   1.315   6.211
 7524SOL     OW23470   0.294   3.526   4.996
 7524SOL    HW123471   0.355   3.449   4.977
 7524SOL    HW223472   0.298   3.548   5.094
 7525SOL     OW23473   4.345   5.622   6.209
 7525SOL    HW123474   4.294   5.676   6.276
 7525SOL    HW223475   4.280   5.572   6.152
 7526SOL     OW23476   2.516   3.318   1.663
 7526SOL    HW123477   2.464   3.374   1.728
 7526SOL    HW223478   2.514   3.361   1.573
 7527SOL     OW23479   4.025   5.773   3.804
 7527SOL    HW123480   3.951   5.712   3.777
 7527SOL    HW223481   4.112   5.736   3.773
 7528SOL     OW23482   6.767   3.234   6.464
 7528SOL    HW123483   6.697   3.271   6.403
 7528SOL    HW223484   6.726   3.165   6.524
 7529SOL     OW23485   6.486   2.875   3.924
 7529SOL    HW123486   6.574   2.894   3.968
 7529SOL    HW223487   6.420   2.845   3.993
 7530SOL     OW23488   6.406   2.089   2.185
 7530SOL    HW123489   6.445   2.040   2.106
 7530SOL    HW223490   6.472   2.156   2.218
 7531SOL     OW23491   4.091   1.960   3.766
 7531SOL    HW123492   4.000   1.994   3.740
 7531SOL    HW223493   4.104   1.868   3.730
 7532SOL     OW23494   4.310   5.278   6.428
 7532SOL    HW123495   4.219   5.312   6.452
 7532SOL    HW223496   4.361   5.258   6.511
 7533SOL     OW23497   4.793   3.760   1.816
 7533SOL    HW123498   4.705   3.725   1.782
 7533SOL    HW223499   4.821   3.707   1.896
 7534SOL     OW23500   4.639   6.964   4.309
 7534SOL    HW123501   4.544   6.969   4.341
 7534SOL    HW223502   4.660   6.870   4.282
 7535SOL     OW23503   0.663   5.526   4.005
 7535SOL    HW123504   0.699   5.433   4.011
 7535SOL    HW223505   0.618   5.538   3.917
 7536SOL     OW23506   4.693   5.564   4.454
 7536SOL    HW123507   4.616   5.501   4.449
 7536SOL    HW223508   4.670   5.650   4.408
 7537SOL     OW23509   2.935   6.415   3.289
 7537SOL    HW123510   2.983   6.327   3.293
 7537SOL    HW223511   2.996   6.484   3.250
 7538SOL     OW23512   0.998   4.108   0.857
 7538SOL    HW123513   1.096   4.099   0.877
 7538SOL    HW223514   0.973   4.204   0.860
 7539SOL     OW23515   0.573   6.051   3.651
 7539SOL    HW123516   0.589   6.142   3.691
 7539SOL    HW223517   0.594   5.981   3.719
 7540SOL     OW23518   5.987   5.119   3.750
 7540SOL    HW123519   5.908   5.135   3.691
 7540SOL    HW223520   5.959   5.065   3.829
 7541SOL     OW23521   1.408   3.972   0.102
 7541SOL    HW123522   1.409   3.916   0.185
 7541SOL    HW223523   1.334   4.039   0.108
 7542SOL     OW23524   6.054   5.897   6.018
 7542SOL    HW123525   6.007   5.820   5.974
 7542SOL    HW223526   6.140   5.866   6.057
 7543SOL     OW23527   2.850   1.043   5.875
 7543SOL    HW123528   2.860   1.084   5.785
 7543SOL    HW223529   2.869   0.945   5.870
 7544SOL     OW23530   0.272   3.006   4.209
 7544SOL    HW123531   0.252   2.987   4.305
 7544SOL    HW223532   0.323   3.092   4.202
 7545SOL     OW23533   0.853   5.101   6.915
 7545SOL    HW123534   0.900   5.025   6.960
 7545SOL    HW223535   0.893   5.188   6.945
 7546SOL     OW23536   3.387   2.947   1.760
 7546SOL    HW123537   3.327   2.992   1.825
 7546SOL    HW223538   3.340   2.870   1.717
 7547SOL     OW23539   4.184   0.409   2.378
 7547SOL    HW123540   4.228   0.431   2.465
 7547SOL    HW223541   4.205   0.480   2.311
 7548SOL     OW23542   4.292   2.341   6.675
 7548SOL    HW123543   4.279   2.348   6.576
 7548SOL    HW223544   4.366   2.403   6.703
 7549SOL     OW23545   4.259   2.734   5.328
 7549SOL    HW123546   4.214   2.823   5.335
 7549SOL    HW223547   4.202   2.673   5.274
 7550SOL     OW23548   2.128   4.137   4.364
 7550SOL    HW123549   2.183   4.219   4.381
 7550SOL    HW223550   2.045   4.162   4.314
 7551SOL     OW23551   5.997   2.529   5.854
 7551SOL    HW123552   6.036   2.533   5.762
 7551SOL    HW223553   6.039   2.598   5.912
 7552SOL     OW23554   2.719   5.867   4.929
 7552SOL    HW123555   2.643   5.825   4.879
 7552SOL    HW223556   2.803   5.856   4.876
 7553SOL     OW23557   5.713   6.209   5.789
 7553SOL    HW123558   5.647   6.261   5.735
 7553SOL    HW223559   5.675   6.192   5.880
 7554SOL     OW23560   5.262   0.662   1.025
 7554SOL    HW123561   5.199   0.609   0.968
 7554SOL    HW223562   5.218   0.683   1.112
 7555SOL     OW23563   3.507   4.950   5.864
 7555SOL    HW123564   3.560   4.866   5.875
 7555SOL    HW223565   3.473   4.955   5.770
 7556SOL     OW23566   0.217   6.933   1.087
 7556SOL    HW123567   0.301   6.960   1.040
 7556SOL    HW223568   0.186   7.009   1.145
 7557SOL     OW23569   4.850   0.583   6.983
 7557SOL    HW123570   4.893   0.661   0.012
 7557SOL    HW223571   4.921   0.527   6.940
 7558SOL     OW23572   1.385   2.036   4.210
 7558SOL    HW123573   1.375   1.957   4.271
 7558SOL    HW223574   1.302   2.092   4.215
 7559SOL     OW23575   4.111   1.859   4.776
 7559SOL    HW123576   4.204   1.830   4.755
 7559SOL    HW223577   4.057   1.862   4.692
 7560SOL     OW23578   0.374   0.780   6.062
 7560SOL    HW123579   0.397   0.799   6.157
 7560SOL    HW223580   0.453   0.797   6.004
 7561SOL     OW23581   5.888   2.082   4.590
 7561SOL    HW123582   5.837   2.002   4.622
 7561SOL    HW223583   5.865   2.162   4.646
 7562SOL     OW23584   1.314   4.487   4.042
 7562SOL    HW123585   1.295   4.578   4.007
 7562SOL    HW223586   1.358   4.494   4.132
 7563SOL     OW23587   3.669   5.589   2.197
 7563SOL    HW123588   3.717   5.501   2.196
 7563SOL    HW223589   3.700   5.643   2.275
 7564SOL     OW23590   4.503   1.533   4.559
 7564SOL    HW123591   4.581   1.583   4.596
 7564SOL    HW223592   4.524   1.502   4.466
 7565SOL     OW23593   5.452   3.667   6.564
 7565SOL    HW123594   5.507   3.616   6.498
 7565SOL    HW223595   5.478   3.763   6.562
 7566SOL     OW23596   4.032   4.069   1.446
 7566SOL    HW123597   4.024   4.115   1.534
 7566SOL    HW223598   4.066   4.134   1.378
 7567SOL     OW23599   1.798   0.546   4.784
 7567SOL    HW123600   1.831   0.477   4.848
 7567SOL    HW223601   1.769   0.628   4.833
 7568SOL     OW23602   6.471   5.266   1.455
 7568SOL    HW123603   6.410   5.193   1.485
 7568SOL    HW223604   6.419   5.334   1.403
 7569SOL     OW23605   4.621   3.723   6.984
 7569SOL    HW123606   4.692   3.760   0.028
 7569SOL    HW223607   4.614   3.779   6.902
 7570SOL     OW23608   6.247   2.893   3.160
 7570SOL    HW123609   6.310   2.895   3.082
 7570SOL    HW223610   6.222   2.798   3.180
 7571SOL     OW23611   4.744   2.155   3.262
 7571SOL    HW123612   4.661   2.119   3.303
 7571SOL    HW223613   4.811   2.175   3.334
 7572SOL     OW23614   4.874   6.018   2.218
 7572SOL    HW123615   4.886   6.077   2.298
 7572SOL    HW223616   4.963   5.993   2.181
 7573SOL     OW23617   4.940   6.399   5.498
 7573SOL    HW123618   4.888   6.470   5.545
 7573SOL    HW223619   4.905   6.309   5.525
 7574SOL     OW23620   6.629   1.229   4.260
 7574SOL    HW123621   6.651   1.271   4.173
 7574SOL    HW223622   6.584   1.295   4.320
 7575SOL     OW23623   6.851   6.694   2.342
 7575SOL    HW123624   6.776   6.685   2.408
 7575SOL    HW223625   6.854   6.612   2.284
 7576SOL     OW23626   5.607   3.091   0.410
 7576SOL    HW123627   5.674   3.128   0.345
 7576SOL    HW223628   5.632   3.119   0.503
 7577SOL     OW23629   1.306   0.310   0.628
 7577SOL    HW123630   1.398   0.344   0.645
 7577SOL    HW223631   1.310   0.236   0.561
 7578SOL     OW23632   0.254   5.841   3.258
 7578SOL    HW123633   0.182   5.901   3.293
 7578SOL    HW223634   0.343   5.872   3.293
 7579SOL     OW23635   6.750   1.146   0.140
 7579SOL    HW123636   6.751   1.183   0.233
 7579SOL    HW223637   6.685   1.197   0.084
 7580SOL     OW23638   2.420   4.783   3.651
 7580SOL    HW123639   2.507   4.785   3.602
 7580SOL    HW223640   2.432   4.822   3.742
 7581SOL     OW23641   6.353   1.066   2.410
 7581SOL    HW123642   6.290   0.988   2.410
 7581SOL    HW223643   6.425   1.051   2.343
 7582SOL     OW23644   3.479   1.110   4.700
 7582SOL    HW123645   3.521   1.189   4.656
 7582SOL    HW223646   3.482   1.121   4.799
 7583SOL     OW23647   5.432   2.949   3.376
 7583SOL    HW123648   5.433   3.013   3.300
 7583SOL    HW223649   5.503   2.879   3.361
 7584SOL     OW23650   0.184   0.522   2.769
 7584SOL    HW123651   0.255   0.581   2.807
 7584SOL    HW223652   0.223   0.431   2.751
 7585SOL     OW23653   1.060   1.560   0.227
 7585SOL    HW123654   1.110   1.484   0.269
 7585SOL    HW223655   1.118   1.641   0.222
 7586SOL     OW23656   1.311   2.208   2.795
 7586SOL    HW123657   1.402   2.235   2.826
 7586SOL    HW223658   1.295   2.112   2.817
 7587SOL     OW23659   3.293   0.826   0.744
 7587SOL    HW123660   3.318   0.890   0.817
 7587SOL    HW223661   3.312   0.868   0.656
 7588SOL     OW23662   1.909   2.505   4.389
 7588SOL    HW123663   1.924   2.534   4.295
 7588SOL    HW223664   1.938   2.578   4.451
 7589SOL     OW23665   0.243   0.743   3.106
 7589SOL    HW123666   0.279   0.693   3.184
 7589SOL    HW223667   0.169   0.803   3.136
 7590SOL     OW23668   0.175   1.652   6.601
 7590SOL    HW123669   0.242   1.709   6.553
 7590SOL    HW223670   0.134   1.589   6.536
 7591SOL     OW23671   4.093   3.431   5.385
 7591SOL    HW123672   4.175   3.462   5.337
 7591SOL    HW223673   4.027   3.394   5.319
 7592SOL     OW23674   6.695   6.330   4.929
 7592SOL    HW123675   6.732   6.346   4.837
 7592SOL    HW223676   6.691   6.417   4.978
 7593SOL     OW23677   1.054   1.678   5.807
 7593SOL    HW123678   0.964   1.721   5.816
 7593SOL    HW223679   1.056   1.593   5.860
 7594SOL     OW23680   0.607   4.271   0.504
 7594SOL    HW123681   0.557   4.296   0.421
 7594SOL    HW223682   0.543   4.253   0.578
 7595SOL     OW23683   6.889   2.834   6.065
 7595SOL    HW123684   6.821   2.907   6.079
 7595SOL    HW223685   6.915   2.795   6.154
 7596SOL     OW23686   3.135   0.741   4.969
 7596SOL    HW123687   3.182   0.742   4.880
 7596SOL    HW223688   3.038   0.762   4.956
 7597SOL     OW23689   1.551   4.404   2.310
 7597SOL    HW123690   1.454   4.384   2.324
 7597SOL    HW223691   1.568   4.502   2.319
 7598SOL     OW23692   6.441   1.302   3.326
 7598SOL    HW123693   6.421   1.395   3.295
 7598SOL    HW223694   6.539   1.285   3.317
 7599SOL     OW23695   3.980   3.627   1.016
 7599SOL    HW123696   3.892   3.655   0.979
 7599SOL    HW223697   3.966   3.579   1.103
 7600SOL     OW23698   1.436   0.290   4.304
 7600SOL    HW123699   1.523   0.294   4.256
 7600SOL    HW223700   1.452   0.279   4.402
 7601SOL     OW23701   3.738   5.845   2.066
 7601SOL    HW123702   3.805   5.798   2.009
 7601SOL    HW223703   3.715   5.787   2.144
 7602SOL     OW23704   6.900   1.688   0.640
 7602SOL    HW123705   6.836   1.765   0.638
 7602SOL    HW223706   6.882   1.628   0.561
 7603SOL     OW23707   2.424   0.471   5.162
 7603SOL    HW123708   2.496   0.538   5.178
 7603SOL    HW223709   2.385   0.484   5.071
 7604SOL     OW23710   0.756   2.896   4.669
 7604SOL    HW123711   0.784   2.965   4.603
 7604SOL    HW223712   0.669   2.855   4.640
 7605SOL     OW23713   2.358   6.768   0.705
 7605SOL    HW123714   2.331   6.716   0.624
 7605SOL    HW223715   2.431   6.832   0.680
 7606SOL     OW23716   6.663   1.506   3.683
 7606SOL    HW123717   6.622   1.472   3.768
 7606SOL    HW223718   6.711   1.432   3.637
 7607SOL     OW23719   2.667   5.725   5.605
 7607SOL    HW123720   2.733   5.655   5.630
 7607SOL    HW223721   2.579   5.682   5.583
 7608SOL     OW23722   6.151   2.818   6.077
 7608SOL    HW123723   6.215   2.773   6.015
 7608SOL    HW223724   6.114   2.750   6.141
 7609SOL     OW23725   1.056   1.522   4.642
 7609SOL    HW123726   0.993   1.599   4.631
 7609SOL    HW223727   1.098   1.526   4.733
 7610SOL     OW23728   3.749   4.598   5.617
 7610SOL    HW123729   3.732   4.696   5.606
 7610SOL    HW223730   3.681   4.547   5.566
 7611SOL     OW23731   4.787   3.553   1.295
 7611SOL    HW123732   4.825   3.480   1.240
 7611SOL    HW223733   4.802   3.533   1.392
 7612SOL     OW23734   2.316   1.769   3.127
 7612SOL    HW123735   2.357   1.839   3.185
 7612SOL    HW223736   2.323   1.680   3.173
 7613SOL     OW23737   0.392   1.100   2.454
 7613SOL    HW123738   0.347   1.123   2.368
 7613SOL    HW223739   0.336   1.132   2.531
 7614SOL     OW23740   5.158   3.557   0.809
 7614SOL    HW123741   5.114   3.543   0.720
 7614SOL    HW223742   5.089   3.582   0.877
 7615SOL     OW23743   5.729   3.553   4.713
 7615SOL    HW123744   5.675   3.628   4.676
 7615SOL    HW223745   5.803   3.589   4.769
 7616SOL     OW23746   6.225   6.825   3.631
 7616SOL    HW123747   6.137   6.778   3.632
 7616SOL    HW223748   6.277   6.800   3.713
 7617SOL     OW23749   5.538   5.446   3.631
 7617SOL    HW123750   5.606   5.468   3.561
 7617SOL    HW223751   5.449   5.432   3.588
 7618SOL     OW23752   2.729   3.023   0.352
 7618SOL    HW123753   2.698   2.992   0.262
 7618SOL    HW223754   2.656   3.009   0.419
 7619SOL     OW23755   0.911   2.221   4.225
 7619SOL    HW123756   0.873   2.243   4.315
 7619SOL    HW223757   0.839   2.182   4.167
 7620SOL     OW23758   4.084   3.804   1.342
 7620SOL    HW123759   4.046   3.741   1.411
 7620SOL    HW223760   4.074   3.898   1.375
 7621SOL     OW23761   0.354   4.699   0.711
 7621SOL    HW123762   0.256   4.705   0.730
 7621SOL    HW223763   0.381   4.772   0.649
 7622SOL     OW23764   2.825   3.489   1.284
 7622SOL    HW123765   2.736   3.535   1.274
 7622SOL    HW223766   2.892   3.555   1.318
 7623SOL     OW23767   4.774   4.614   1.181
 7623SOL    HW123768   4.785   4.575   1.273
 7623SOL    HW223769   4.682   4.654   1.173
 7624SOL     OW23770   0.636   2.800   2.157
 7624SOL    HW123771   0.667   2.879   2.103
 7624SOL    HW223772   0.693   2.792   2.239
 7625SOL     OW23773   5.378   1.616   0.698
 7625SOL    HW123774   5.281   1.608   0.673
 7625SOL    HW223775   5.398   1.552   0.773
 7626SOL     OW23776   5.572   0.932   5.277
 7626SOL    HW123777   5.630   0.857   5.244
 7626SOL    HW223778   5.572   0.932   5.377
 7627SOL     OW23779   3.349   2.400   6.547
 7627SOL    HW123780   3.424   2.346   6.508
 7627SOL    HW223781   3.380   2.445   6.631
 7628SOL     OW23782   3.293   2.895   6.983
 7628SOL    HW123783   3.265   2.903   0.062
 7628SOL    HW223784   3.393   2.890   6.978
 7629SOL     OW23785   5.875   2.990   3.853
 7629SOL    HW123786   5.824   3.052   3.914
 7629SOL    HW223787   5.950   3.040   3.810
 7630SOL     OW23788   1.294   6.777   5.551
 7630SOL    HW123789   1.301   6.741   5.458
 7630SOL    HW223790   1.284   6.877   5.547
 7631SOL     OW23791   1.655   6.690   5.758
 7631SOL    HW123792   1.754   6.687   5.764
 7631SOL    HW223793   1.617   6.727   5.843
 7632SOL     OW23794   5.022   5.226   0.473
 7632SOL    HW123795   5.031   5.272   0.385
 7632SOL    HW223796   5.112   5.196   0.504
 7633SOL     OW23797   6.217   1.405   1.135
 7633SOL    HW123798   6.180   1.390   1.043
 7633SOL    HW223799   6.178   1.337   1.198
 7634SOL     OW23800   0.182   2.128   0.344
 7634SOL    HW123801   0.096   2.178   0.346
 7634SOL    HW223802   0.247   2.175   0.285
 7635SOL     OW23803   2.380   4.504   6.240
 7635SOL    HW123804   2.449   4.465   6.179
 7635SOL    HW223805   2.307   4.544   6.185
 7636SOL     OW23806   0.461   3.484   4.498
 7636SOL    HW123807   0.377   3.518   4.455
 7636SOL    HW223808   0.450   3.386   4.517
 7637SOL     OW23809   0.711   6.340   4.647
 7637SOL    HW123810   0.667   6.404   4.585
 7637SOL    HW223811   0.769   6.277   4.595
 7638SOL     OW23812   0.469   5.621   1.661
 7638SOL    HW123813   0.564   5.595   1.674
 7638SOL    HW223814   0.459   5.719   1.675
 7639SOL     OW23815   1.509   0.801   0.156
 7639SOL    HW123816   1.497   0.897   0.182
 7639SOL    HW223817   1.561   0.754   0.228
 7640SOL     OW23818   3.224   0.585   6.653
 7640SOL    HW123819   3.279   0.519   6.603
 7640SOL    HW223820   3.137   0.600   6.606
 7641SOL     OW23821   0.722   3.858   3.119
 7641SOL    HW123822   0.785   3.836   3.045
 7641SOL    HW223823   0.632   3.881   3.081
 7642SOL     OW23824   6.215   0.590   3.824
 7642SOL    HW123825   6.256   0.642   3.749
 7642SOL    HW223826   6.255   0.620   3.911
 7643SOL     OW23827   5.475   3.381   3.128
 7643SOL    HW123828   5.556   3.400   3.184
 7643SOL    HW223829   5.423   3.465   3.115
 7644SOL     OW23830   5.404   3.894   1.743
 7644SOL    HW123831   5.315   3.918   1.704
 7644SOL    HW223832   5.443   3.816   1.693
 7645SOL     OW23833   3.182   4.178   5.906
 7645SOL    HW123834   3.206   4.145   5.997
 7645SOL    HW223835   3.084   4.194   5.901
 7646SOL     OW23836   0.289   2.494   2.239
 7646SOL    HW123837   0.389   2.493   2.231
 7646SOL    HW223838   0.257   2.589   2.240
 7647SOL     OW23839   6.705   2.702   5.378
 7647SOL    HW123840   6.645   2.761   5.432
 7647SOL    HW223841   6.779   2.756   5.339
 7648SOL     OW23842   2.449   1.718   1.633
 7648SOL    HW123843   2.480   1.628   1.603
 7648SOL    HW223844   2.395   1.709   1.716
 7649SOL     OW23845   4.801   1.172   5.355
 7649SOL    HW123846   4.850   1.183   5.268
 7649SOL    HW223847   4.703   1.165   5.338
 7650SOL     OW23848   4.133   1.843   0.414
 7650SOL    HW123849   4.067   1.886   0.475
 7650SOL    HW223850   4.134   1.744   0.430
 7651SOL     OW23851   2.510   4.817   5.951
 7651SOL    HW123852   2.558   4.905   5.948
 7651SOL    HW223853   2.577   4.743   5.941
 7652SOL     OW23854   6.481   1.073   3.917
 7652SOL    HW123855   6.469   1.158   3.864
 7652SOL    HW223856   6.541   1.011   3.867
 7653SOL     OW23857   0.709   1.587   6.250
 7653SOL    HW123858   0.781   1.645   6.212
 7653SOL    HW223859   0.657   1.640   6.317
 7654SOL     OW23860   5.961   2.341   6.147
 7654SOL    HW123861   5.886   2.388   6.194
 7654SOL    HW223862   5.939   2.333   6.050
 7655SOL     OW23863   3.048   0.968   3.216
 7655SOL    HW123864   3.120   1.032   3.244
 7655SOL    HW223865   2.993   0.943   3.295
 7656SOL     OW23866   6.951   3.199   6.783
 7656SOL    HW123867   6.967   3.117   6.729
 7656SOL    HW223868   6.919   3.272   6.723
 7657SOL     OW23869   1.364   3.946   4.591
 7657SOL    HW123870   1.328   3.997   4.512
 7657SOL    HW223871   1.413   3.866   4.558
 7658SOL     OW23872   2.397   1.524   1.241
 7658SOL    HW123873   2.393   1.596   1.172
 7658SOL    HW223874   2.490   1.521   1.279
 7659SOL     OW23875   4.478   3.679   5.537
 7659SOL    HW123876   4.541   3.694   5.461
 7659SOL    HW223877   4.387   3.711   5.512
 7660SOL     OW23878   0.293   5.761   4.598
 7660SOL    HW123879   0.263   5.815   4.677
 7660SOL    HW223880   0.261   5.804   4.514
 7661SOL     OW23881   4.769   2.421   5.977
 7661SOL    HW123882   4.683   2.371   5.990
 7661SOL    HW223883   4.755   2.497   5.913
 7662SOL     OW23884   0.566   1.543   1.920
 7662SOL    HW123885   0.493   1.522   1.855
 7662SOL    HW223886   0.625   1.463   1.932
 7663SOL     OW23887   6.343   5.318   5.179
 7663SOL    HW123888   6.443   5.322   5.181
 7663SOL    HW223889   6.308   5.308   5.272
 7664SOL     OW23890   3.607   2.102   2.265
 7664SOL    HW123891   3.508   2.088   2.270
 7664SOL    HW223892   3.627   2.172   2.197
 7665SOL     OW23893   4.330   0.933   4.936
 7665SOL    HW123894   4.366   0.844   4.965
 7665SOL    HW223895   4.405   0.999   4.933
 7666SOL     OW23896   5.721   5.040   4.167
 7666SOL    HW123897   5.795   5.105   4.181
 7666SOL    HW223898   5.749   4.950   4.202
 7667SOL     OW23899   4.651   5.986   1.186
 7667SOL    HW123900   4.551   5.985   1.178
 7667SOL    HW223901   4.680   5.912   1.246
 7668SOL     OW23902   2.228   5.065   1.113
 7668SOL    HW123903   2.292   5.130   1.073
 7668SOL    HW223904   2.274   5.012   1.184
 7669SOL     OW23905   2.774   6.787   5.608
 7669SOL    HW123906   2.807   6.864   5.553
 7669SOL    HW223907   2.725   6.822   5.688
 7670SOL     OW23908   0.345   6.653   0.186
 7670SOL    HW123909   0.378   6.629   0.095
 7670SOL    HW223910   0.271   6.591   0.212
 7671SOL     OW23911   4.347   0.150   0.920
 7671SOL    HW123912   4.292   0.233   0.913
 7671SOL    HW223913   4.398   0.151   1.006
 7672SOL     OW23914   4.837   4.490   3.093
 7672SOL    HW123915   4.771   4.565   3.099
 7672SOL    HW223916   4.792   4.408   3.058
 7673SOL     OW23917   0.866   6.154   4.560
 7673SOL    HW123918   0.889   6.117   4.469
 7673SOL    HW223919   0.895   6.090   4.630
 7674SOL     OW23920   3.775   6.410   4.358
 7674SOL    HW123921   3.818   6.374   4.441
 7674SOL    HW223922   3.733   6.499   4.378
 7675SOL     OW23923   4.216   6.819   3.191
 7675SOL    HW123924   4.298   6.804   3.246
 7675SOL    HW223925   4.225   6.769   3.104
 7676SOL     OW23926   2.980   3.001   5.314
 7676SOL    HW123927   2.881   3.007   5.323
 7676SOL    HW223928   3.010   3.054   5.235
 7677SOL     OW23929   5.652   4.939   1.013
 7677SOL    HW123930   5.621   5.032   1.031
 7677SOL    HW223931   5.750   4.939   0.993
 7678SOL     OW23932   1.720   1.018   5.533
 7678SOL    HW123933   1.630   1.028   5.574
 7678SOL    HW223934   1.715   0.956   5.454
 7679SOL     OW23935   1.878   5.287   5.377
 7679SOL    HW123936   1.803   5.345   5.344
 7679SOL    HW223937   1.959   5.301   5.320
 7680SOL     OW23938   2.007   7.012   5.143
 7680SOL    HW123939   2.040   0.071   5.087
 7680SOL    HW223940   1.951   0.031   5.217
 7681SOL     OW23941   2.636   3.581   6.679
 7681SOL    HW123942   2.568   3.529   6.731
 7681SOL    HW223943   2.655   3.667   6.725
 7682SOL     OW23944   3.107   1.882   2.344
 7682SOL    HW123945   3.133   1.834   2.260
 7682SOL    HW223946   3.016   1.922   2.332
 7683SOL     OW23947   1.034   0.606   4.381
 7683SOL    HW123948   0.962   0.558   4.331
 7683SOL    HW223949   0.993   0.673   4.442
 7684SOL     OW23950   4.403   2.277   1.893
 7684SOL    HW123951   4.326   2.214   1.905
 7684SOL    HW223952   4.369   2.369   1.880
 7685SOL     OW23953   2.289   0.638   6.960
 7685SOL    HW123954   2.233   0.616   0.024
 7685SOL    HW223955   2.372   0.583   6.962
 7686SOL     OW23956   5.919   0.164   4.635
 7686SOL    HW123957   5.887   0.236   4.696
 7686SOL    HW223958   5.946   0.084   4.689
 7687SOL     OW23959   5.210   4.810   4.960
 7687SOL    HW123960   5.178   4.737   4.900
 7687SOL    HW223961   5.185   4.789   5.054
 7688SOL     OW23962   0.644   5.079   6.454
 7688SOL    HW123963   0.713   5.151   6.449
 7688SOL    HW223964   0.627   5.056   6.550
 7689SOL     OW23965   4.561   0.234   1.491
 7689SOL    HW123966   4.525   0.327   1.490
 7689SOL    HW223967   4.485   0.169   1.483
 7690SOL     OW23968   6.412   5.766   1.523
 7690SOL    HW123969   6.414   5.841   1.456
 7690SOL    HW223970   6.503   5.750   1.559
 7691SOL     OW23971   4.684   4.333   2.946
 7691SOL    HW123972   4.716   4.335   2.851
 7691SOL    HW223973   4.591   4.370   2.950
 7692SOL     OW23974   2.332   6.891   2.017
 7692SOL    HW123975   2.333   6.965   2.084
 7692SOL    HW223976   2.239   6.877   1.984
 7693SOL     OW23977   2.737   1.904   0.803
 7693SOL    HW123978   2.837   1.910   0.801
 7693SOL    HW223979   2.710   1.809   0.815
 7694SOL     OW23980   5.771   2.022   5.676
 7694SOL    HW123981   5.685   2.074   5.677
 7694SOL    HW223982   5.834   2.066   5.612
 7695SOL     OW23983   5.269   0.312   2.639
 7695SOL    HW123984   5.180   0.347   2.669
 7695SOL    HW223985   5.298   0.239   2.701
 7696SOL     OW23986   0.395   3.016   6.594
 7696SOL    HW123987   0.473   2.954   6.601
 7696SOL    HW223988   0.406   3.076   6.515
 7697SOL     OW23989   4.545   6.907   2.747
 7697SOL    HW123990   4.456   6.951   2.757
 7697SOL    HW223991   4.585   6.932   2.659
 7698SOL     OW23992   6.298   2.069   6.747
 7698SOL    HW123993   6.380   2.062   6.691
 7698SOL    HW223994   6.293   1.990   6.809
 7699SOL     OW23995   4.119   5.481   6.097
 7699SOL    HW123996   4.069   5.395   6.083
 7699SOL    HW223997   4.060   5.547   6.144
 7700SOL     OW23998   4.920   5.430   2.602
 7700SOL    HW123999   4.860   5.358   2.568
 7700SOL    HW224000   4.968   5.472   2.526
 7701SOL     OW24001   0.116   2.945   6.099
 7701SOL    HW124002   0.043   2.916   6.037
 7701SOL    HW224003   0.203   2.906   6.071
 7702SOL     OW24004   4.623   0.198   4.881
 7702SOL    HW124005   4.687   0.146   4.937
 7702SOL    HW224006   4.604   0.147   4.797
 7703SOL     OW24007   6.228   6.677   5.172
 7703SOL    HW124008   6.317   6.691   5.128
 7703SOL    HW224009   6.229   6.719   5.262
 7704SOL     OW24010   6.657   2.017   4.500
 7704SOL    HW124011   6.568   2.027   4.544
 7704SOL    HW224012   6.667   2.085   4.428
 7705SOL     OW24013   1.720   4.896   0.625
 7705SOL    HW124014   1.727   4.980   0.679
 7705SOL    HW224015   1.681   4.917   0.535
 7706SOL     OW24016   3.601   2.872   2.217
 7706SOL    HW124017   3.697   2.899   2.230
 7706SOL    HW224018   3.578   2.876   2.119
 7707SOL     OW24019   6.500   4.925   6.252
 7707SOL    HW124020   6.509   4.938   6.351
 7707SOL    HW224021   6.522   4.830   6.229
 7708SOL     OW24022   2.490   0.089   4.644
 7708SOL    HW124023   2.415   0.100   4.579
 7708SOL    HW224024   2.529   7.014   4.634
 7709SOL     OW24025   0.228   5.175   1.371
 7709SOL    HW124026   0.131   5.155   1.363
 7709SOL    HW224027   0.266   5.126   1.450
 7710SOL     OW24028   0.771   3.824   0.982
 7710SOL    HW124029   0.816   3.862   1.063
 7710SOL    HW224030   0.713   3.894   0.940
 7711SOL     OW24031   0.014   5.118   4.919
 7711SOL    HW124032   0.081   5.128   4.993
 7711SOL    HW224033   6.954   5.062   4.951
 7712SOL     OW24034   6.853   4.369   5.791
 7712SOL    HW124035   6.941   4.323   5.784
 7712SOL    HW224036   6.806   4.365   5.703
 7713SOL     OW24037   2.218   4.650   0.202
 7713SOL    HW124038   2.176   4.562   0.179
 7713SOL    HW224039   2.317   4.637   0.214
 7714SOL     OW24040   6.509   0.667   5.696
 7714SOL    HW124041   6.526   0.570   5.678
 7714SOL    HW224042   6.558   0.722   5.629
 7715SOL     OW24043   2.783   2.770   5.898
 7715SOL    HW124044   2.823   2.839   5.957
 7715SOL    HW224045   2.684   2.765   5.913
 7716SOL     OW24046   1.269   5.558   5.698
 7716SOL    HW124047   1.296   5.608   5.616
 7716SOL    HW224048   1.207   5.613   5.753
 7717SOL     OW24049   0.907   1.926   6.519
 7717SOL    HW124050   0.942   1.933   6.613
 7717SOL    HW224051   0.832   1.990   6.506
 7718SOL     OW24052   1.385   3.795   2.796
 7718SOL    HW124053   1.368   3.736   2.717
 7718SOL    HW224054   1.460   3.758   2.850
 7719SOL     OW24055   2.036   4.429   5.041
 7719SOL    HW124056   2.085   4.347   5.071
 7719SOL    HW224057   1.938   4.411   5.045
 7720SOL     OW24058   5.640   1.618   6.816
 7720SOL    HW124059   5.562   1.660   6.864
 7720SOL    HW224060   5.717   1.681   6.819
 7721SOL     OW24061   0.372   0.622   2.218
 7721SOL    HW124062   0.412   0.576   2.297
 7721SOL    HW224063   0.274   0.603   2.214
 7722SOL     OW24064   2.160   6.265   3.206
 7722SOL    HW124065   2.190   6.344   3.152
 7722SOL    HW224066   2.233   6.239   3.269
 7723SOL     OW24067   4.729   4.266   0.876
 7723SOL    HW124068   4.682   4.204   0.814
 7723SOL    HW224069   4.678   4.274   0.962
 7724SOL     OW24070   2.168   3.854   2.103
 7724SOL    HW124071   2.201   3.913   2.177
 7724SOL    HW224072   2.137   3.767   2.142
 7725SOL     OW24073   5.391   3.163   3.548
 7725SOL    HW124074   5.411   3.093   3.480
 7725SOL    HW224075   5.341   3.238   3.505
 7726SOL     OW24076   0.319   3.358   6.247
 7726SOL    HW124077   0.320   3.258   6.252
 7726SOL    HW224078   0.246   3.393   6.307
 7727SOL     OW24079   5.381   2.081   2.239
 7727SOL    HW124080   5.446   2.041   2.304
 7727SOL    HW224081   5.384   2.029   2.153
 7728SOL     OW24082   2.066   3.540   4.487
 7728SOL    HW124083   2.087   3.592   4.569
 7728SOL    HW224084   2.038   3.447   4.513
 7729SOL     OW24085   6.711   2.292   4.316
 7729SOL    HW124086   6.725   2.310   4.219
 7729SOL    HW224087   6.793   2.252   4.355
 7730SOL     OW24088   6.503   4.339   5.004
 7730SOL    HW124089   6.535   4.321   5.098
 7730SOL    HW224090   6.461   4.257   4.966
 7731SOL     OW24091   6.519   6.635   6.829
 7731SOL    HW124092   6.568   6.674   6.751
 7731SOL    HW224093   6.521   6.699   6.906
 7732SOL     OW24094   4.155   0.088   6.226
 7732SOL    HW124095   4.234   0.125   6.274
 7732SOL    HW224096   4.177   0.076   6.129
 7733SOL     OW24097   6.455   5.852   2.252
 7733SOL    HW124098   6.517   5.811   2.186
 7733SOL    HW224099   6.414   5.781   2.308
 7734SOL     OW24100   3.448   3.864   5.035
 7734SOL    HW124101   3.366   3.873   4.980
 7734SOL    HW224102   3.423   3.848   5.131
 7735SOL     OW24103   6.989   6.065   0.808
 7735SOL    HW124104   6.901   6.036   0.847
 7735SOL    HW224105   7.016   6.152   0.850
 7736SOL     OW24106   2.680   3.260   0.829
 7736SOL    HW124107   2.717   3.192   0.893
 7736SOL    HW224108   2.600   3.222   0.783
 7737SOL     OW24109   3.848   4.610   1.255
 7737SOL    HW124110   3.864   4.652   1.165
 7737SOL    HW224111   3.767   4.652   1.297
 7738SOL     OW24112   2.589   6.681   6.864
 7738SOL    HW124113   2.634   6.593   6.876
 7738SOL    HW224114   2.512   6.689   6.928
 7739SOL     OW24115   1.452   1.871   0.261
 7739SOL    HW124116   1.452   1.826   0.351
 7739SOL    HW224117   1.546   1.893   0.235
 7740SOL     OW24118   1.972   0.751   4.771
 7740SOL    HW124119   2.053   0.737   4.715
 7740SOL    HW224120   1.910   0.673   4.761
 7741SOL     OW24121   1.562   4.019   6.202
 7741SOL    HW124122   1.505   4.082   6.149
 7741SOL    HW224123   1.655   4.019   6.164
 7742SOL     OW24124   4.164   1.466   4.371
 7742SOL    HW124125   4.177   1.531   4.297
 7742SOL    HW224126   4.228   1.389   4.360
 7743SOL     OW24127   4.873   1.929   5.618
 7743SOL    HW124128   4.776   1.914   5.632
 7743SOL    HW224129   4.920   1.928   5.706
 7744SOL     OW24130   0.256   6.504   4.676
 7744SOL    HW124131   0.170   6.464   4.708
 7744SOL    HW224132   0.332   6.441   4.696
 7745SOL     OW24133   2.351   6.991   0.933
 7745SOL    HW124134   2.440   0.021   0.938
 7745SOL    HW224135   2.319   6.990   0.838
 7746SOL     OW24136   1.239   6.159   0.901
 7746SOL    HW124137   1.333   6.168   0.867
 7746SOL    HW224138   1.212   6.242   0.948
 7747SOL     OW24139   1.093   6.263   0.343
 7747SOL    HW124140   1.116   6.333   0.411
 7747SOL    HW224141   1.113   6.297   0.252
 7748SOL     OW24142   4.115   2.264   5.741
 7748SOL    HW124143   4.112   2.176   5.694
 7748SOL    HW224144   4.034   2.318   5.716
 7749SOL     OW24145   3.623   3.435   3.844
 7749SOL    HW124146   3.527   3.461   3.847
 7749SOL    HW224147   3.660   3.452   3.752
 7750SOL     OW24148   6.102   4.025   5.448
 7750SOL    HW124149   6.027   3.982   5.398
 7750SOL    HW224150   6.173   4.053   5.383
 7751SOL     OW24151   6.736   0.820   5.402
 7751SOL    HW124152   6.823   0.772   5.415
 7751SOL    HW224153   6.754   0.918   5.387
 7752SOL     OW24154   6.220   5.543   5.475
 7752SOL    HW124155   6.180   5.633   5.495
 7752SOL    HW224156   6.317   5.544   5.501
 7753SOL     OW24157   2.432   1.029   4.572
 7753SOL    HW124158   2.366   1.030   4.647
 7753SOL    HW224159   2.525   1.042   4.608
 7754SOL     OW24160   5.834   1.021   1.782
 7754SOL    HW124161   5.789   0.942   1.825
 7754SOL    HW224162   5.781   1.049   1.702
 7755SOL     OW24163   0.864   5.871   5.761
 7755SOL    HW124164   0.792   5.864   5.830
 7755SOL    HW224165   0.908   5.960   5.766
 7756SOL     OW24166   3.899   5.477   2.014
 7756SOL    HW124167   3.941   5.566   1.995
 7756SOL    HW224168   3.896   5.462   2.113
 7757SOL     OW24169   4.614   6.354   5.685
 7757SOL    HW124170   4.544   6.334   5.753
 7757SOL    HW224171   4.689   6.288   5.695
 7758SOL     OW24172   2.302   1.943   5.789
 7758SOL    HW124173   2.398   1.918   5.775
 7758SOL    HW224174   2.294   2.042   5.799
 7759SOL     OW24175   2.071   1.117   4.287
 7759SOL    HW124176   2.170   1.110   4.289
 7759SOL    HW224177   2.036   1.074   4.204
 7760SOL     OW24178   5.151   3.046   2.201
 7760SOL    HW124179   5.208   3.063   2.281
 7760SOL    HW224180   5.153   2.949   2.178
 7761SOL     OW24181   3.410   6.524   6.993
 7761SOL    HW124182   3.504   6.511   6.962
 7761SOL    HW224183   3.403   6.499   0.073
 7762SOL     OW24184   3.851   1.348   0.163
 7762SOL    HW124185   3.776   1.395   0.210
 7762SOL    HW224186   3.847   1.250   0.182
 7763SOL     OW24187   1.653   1.625   0.327
 7763SOL    HW124188   1.730   1.682   0.355
 7763SOL    HW224189   1.681   1.566   0.250
 7764SOL     OW24190   3.425   2.885   2.453
 7764SOL    HW124191   3.362   2.956   2.420
 7764SOL    HW224192   3.496   2.869   2.385
 7765SOL     OW24193   6.999   2.344   2.994
 7765SOL    HW124194   7.007   2.253   2.954
 7765SOL    HW224195   6.961   2.407   2.926
 7766SOL     OW24196   6.608   2.236   6.920
 7766SOL    HW124197   6.672   2.171   6.881
 7766SOL    HW224198   6.553   2.191   6.990
 7767SOL     OW24199   4.319   5.696   4.374
 7767SOL    HW124200   4.296   5.656   4.463
 7767SOL    HW224201   4.406   5.744   4.381
 7768SOL     OW24202   3.940   4.964   1.888
 7768SOL    HW124203   3.860   5.021   1.907
 7768SOL    HW224204   3.912   4.882   1.839
 7769SOL     OW24205   5.497   2.007   1.259
 7769SOL    HW124206   5.469   2.079   1.196
 7769SOL    HW224207   5.539   2.048   1.340
 7770SOL     OW24208   3.019   5.011   1.343
 7770SOL    HW124209   3.038   4.922   1.303
 7770SOL    HW224210   2.949   5.002   1.414
 7771SOL     OW24211   2.618   2.319   6.069
 7771SOL    HW124212   2.594   2.372   6.150
 7771SOL    HW224213   2.600   2.222   6.086
 7772SOL     OW24214   4.821   0.557   4.258
 7772SOL    HW124215   4.815   0.649   4.297
 7772SOL    HW224216   4.895   0.555   4.191
 7773SOL     OW24217   4.323   3.765   5.796
 7773SOL    HW124218   4.393   3.730   5.733
 7773SOL    HW224219   4.367   3.813   5.872
 7774SOL     OW24220   4.948   1.714   6.202
 7774SOL    HW124221   4.983   1.621   6.214
 7774SOL    HW224222   4.879   1.714   6.130
 7775SOL     OW24223   3.129   6.659   2.184
 7775SOL    HW124224   3.052   6.698   2.134
 7775SOL    HW224225   3.167   6.582   2.133
 7776SOL     OW24226   3.664   3.478   6.864
 7776SOL    HW124227   3.609   3.518   6.938
 7776SOL    HW224228   3.760   3.480   6.890
 7777SOL     OW24229   2.238   0.756   6.470
 7777SOL    HW124230   2.171   0.798   6.408
 7777SOL    HW224231   2.319   0.730   6.418
 7778SOL     OW24232   5.618   0.458   0.066
 7778SOL    HW124233   5.552   0.518   0.021
 7778SOL    HW224234   5.686   0.514   0.115
 7779SOL     OW24235   3.954   2.661   0.782
 7779SOL    HW124236   4.000   2.750   0.783
 7779SOL    HW224237   3.863   2.670   0.743
 7780SOL     OW24238   2.321   5.856   5.115
 7780SOL    HW124239   2.222   5.868   5.116
 7780SOL    HW224240   2.345   5.789   5.044
 7781SOL     OW24241   1.280   4.456   4.767
 7781SOL    HW124242   1.282   4.538   4.823
 7781SOL    HW224243   1.188   4.441   4.731
 7782SOL     OW24244   2.386   4.134   6.139
 7782SOL    HW124245   2.368   4.201   6.067
 7782SOL    HW224246   2.316   4.142   6.210
 7783SOL     OW24247   2.498   5.583   6.776
 7783SOL    HW124248   2.570   5.614   6.714
 7783SOL    HW224249   2.413   5.631   6.755
 7784SOL     OW24250   0.296   2.669   6.981
 7784SOL    HW124251   0.299   2.752   6.925
 7784SOL    HW224252   0.349   2.683   0.049
 7785SOL     OW24253   2.349   6.455   4.176
 7785SOL    HW124254   2.314   6.367   4.144
 7785SOL    HW224255   2.313   6.475   4.267
 7786SOL     OW24256   3.128   4.332   5.302
 7786SOL    HW124257   3.186   4.384   5.365
 7786SOL    HW224258   3.038   4.374   5.296
 7787SOL     OW24259   2.101   2.859   5.023
 7787SOL    HW124260   2.168   2.927   5.055
 7787SOL    HW224261   2.021   2.907   4.986
 7788SOL     OW24262   1.041   1.700   0.739
 7788SOL    HW124263   1.038   1.628   0.669
 7788SOL    HW224264   1.048   1.659   0.830
 7789SOL     OW24265   2.311   0.973   1.698
 7789SOL    HW124266   2.376   0.961   1.773
 7789SOL    HW224267   2.315   1.067   1.665
 7790SOL     OW24268   5.351   3.082   2.805
 7790SOL    HW124269   5.435   3.127   2.834
 7790SOL    HW224270   5.299   3.053   2.886
 7791SOL     OW24271   1.779   5.157   4.439
 7791SOL    HW124272   1.715   5.200   4.375
 7791SOL    HW224273   1.729   5.096   4.500
 7792SOL     OW24274   2.909   5.742   6.155
 7792SOL    HW124275   2.839   5.702   6.214
 7792SOL    HW224276   2.865   5.807   6.092
 7793SOL     OW24277   1.291   1.191   6.022
 7793SOL    HW124278   1.228   1.114   6.021
 7793SOL    HW224279   1.383   1.159   6.042
 7794SOL     OW24280   5.379   5.625   4.415
 7794SOL    HW124281   5.400   5.647   4.511
 7794SOL    HW224282   5.365   5.710   4.364
 7795SOL     OW24283   2.242   4.485   5.600
 7795SOL    HW124284   2.208   4.395   5.572
 7795SOL    HW224285   2.165   4.544   5.623
 7796SOL     OW24286   3.498   4.133   3.225
 7796SOL    HW124287   3.555   4.174   3.154
 7796SOL    HW224288   3.476   4.039   3.200
 7797SOL     OW24289   6.924   6.705   2.946
 7797SOL    HW124290   6.969   6.685   3.034
 7797SOL    HW224291   6.945   6.798   2.918
 7798SOL     OW24292   3.333   5.802   0.354
 7798SOL    HW124293   3.292   5.722   0.310
 7798SOL    HW224294   3.401   5.843   0.293
 7799SOL     OW24295   0.624   4.635   1.597
 7799SOL    HW124296   0.570   4.617   1.680
 7799SOL    HW224297   0.686   4.558   1.580
 7800SOL     OW24298   0.384   5.397   1.873
 7800SOL    HW124299   0.377   5.439   1.782
 7800SOL    HW224300   0.466   5.431   1.919
 7801SOL     OW24301   2.770   2.004   6.608
 7801SOL    HW124302   2.810   1.914   6.596
 7801SOL    HW224303   2.816   2.070   6.548
 7802SOL     OW24304   5.624   2.484   1.802
 7802SOL    HW124305   5.665   2.523   1.719
 7802SOL    HW224306   5.683   2.504   1.881
 7803SOL     OW24307   4.104   4.000   5.523
 7803SOL    HW124308   4.110   4.056   5.606
 7803SOL    HW224309   4.042   4.044   5.458
 7804SOL     OW24310   5.147   1.875   5.794
 7804SOL    HW124311   5.197   1.940   5.737
 7804SOL    HW224312   5.141   1.787   5.747
 7805SOL     OW24313   5.192   3.457   2.155
 7805SOL    HW124314   5.093   3.444   2.162
 7805SOL    HW224315   5.238   3.381   2.201
 7806SOL     OW24316   5.508   3.034   6.453
 7806SOL    HW124317   5.452   3.068   6.378
 7806SOL    HW224318   5.589   2.988   6.416
 7807SOL     OW24319   0.115   3.988   6.052
 7807SOL    HW124320   0.119   3.916   5.984
 7807SOL    HW224321   0.074   3.953   6.136
 7808SOL     OW24322   1.019   0.892   4.848
 7808SOL    HW124323   0.986   0.911   4.756
 7808SOL    HW224324   0.942   0.894   4.912
 7809SOL     OW24325   2.886   5.609   4.621
 7809SOL    HW124326   2.797   5.566   4.639
 7809SOL    HW224327   2.874   5.682   4.554
 7810SOL     OW24328   2.610   0.608   6.093
 7810SOL    HW124329   2.681   0.609   6.022
 7810SOL    HW224330   2.630   0.536   6.160
 7811SOL     OW24331   5.619   4.557   4.503
 7811SOL    HW124332   5.622   4.635   4.441
 7811SOL    HW224333   5.701   4.501   4.490
 7812SOL     OW24334   1.667   1.462   3.662
 7812SOL    HW124335   1.689   1.398   3.588
 7812SOL    HW224336   1.580   1.435   3.705
 7813SOL     OW24337   6.713   2.895   7.002
 7813SOL    HW124338   6.806   2.858   6.995
 7813SOL    HW224339   6.704   2.947   0.070
 7814SOL     OW24340   6.904   3.656   3.172
 7814SOL    HW124341   6.895   3.596   3.093
 7814SOL    HW224342   6.878   3.749   3.147
 7815SOL     OW24343   6.236   1.523   6.321
 7815SOL    HW124344   6.311   1.569   6.367
 7815SOL    HW224345   6.155   1.582   6.322
 7816SOL     OW24346   1.186   4.065   5.363
 7816SOL    HW124347   1.171   4.164   5.372
 7816SOL    HW224348   1.140   4.017   5.437
 7817SOL     OW24349   5.198   4.433   5.036
 7817SOL    HW124350   5.193   4.479   4.948
 7817SOL    HW224351   5.159   4.341   5.028
 7818SOL     OW24352   5.604   6.253   1.889
 7818SOL    HW124353   5.697   6.241   1.856
 7818SOL    HW224354   5.539   6.234   1.816
 7819SOL     OW24355   6.847   2.445   1.473
 7819SOL    HW124356   6.778   2.513   1.451
 7819SOL    HW224357   6.926   2.456   1.412
 7820SOL     OW24358   1.761   1.309   6.476
 7820SOL    HW124359   1.715   1.382   6.528
 7820SOL    HW224360   1.854   1.297   6.510
 7821SOL     OW24361   3.116   5.358   1.367
 7821SOL    HW124362   3.113   5.456   1.387
 7821SOL    HW224363   3.027   5.328   1.332
 7822SOL     OW24364   1.502   5.624   5.226
 7822SOL    HW124365   1.521   5.722   5.212
 7822SOL    HW224366   1.445   5.591   5.151
 7823SOL     OW24367   1.509   4.628   4.948
 7823SOL    HW124368   1.602   4.650   4.978
 7823SOL    HW224369   1.504   4.532   4.923
 7824SOL     OW24370   0.784   3.071   4.871
 7824SOL    HW124371   0.832   3.008   4.810
 7824SOL    HW224372   0.745   3.145   4.818
 7825SOL     OW24373   2.951   1.513   6.453
 7825SOL    HW124374   3.046   1.521   6.486
 7825SOL    HW224375   2.944   1.434   6.392
 7826SOL     OW24376   6.987   2.614   6.773
 7826SOL    HW124377   7.010   2.647   6.681
 7826SOL    HW224378   6.996   2.514   6.776
 7827SOL     OW24379   0.064   6.252   4.390
 7827SOL    HW124380   0.002   6.259   4.311
 7827SOL    HW224381   0.011   6.237   4.473
 7828SOL     OW24382   0.786   4.042   6.892
 7828SOL    HW124383   0.828   3.952   6.902
 7828SOL    HW224384   0.774   4.084   6.982
 7829SOL     OW24385   3.742   2.335   1.004
 7829SOL    HW124386   3.726   2.238   0.989
 7829SOL    HW224387   3.837   2.357   0.985
 7830SOL     OW24388   2.885   4.778   4.245
 7830SOL    HW124389   2.825   4.832   4.187
 7830SOL    HW224390   2.858   4.681   4.240
 7831SOL     OW24391   1.427   1.493   0.255
 7831SOL    HW124392   1.498   1.536   0.309
 7831SOL    HW224393   1.444   1.509   0.158
 7832SOL     OW24394   5.922   0.757   4.301
 7832SOL    HW124395   5.891   0.662   4.301
 7832SOL    HW224396   5.926   0.790   4.396
 7833SOL     OW24397   2.343   0.988   4.328
 7833SOL    HW124398   2.367   0.990   4.425
 7833SOL    HW224399   2.409   0.932   4.278
 7834SOL     OW24400   6.006   3.327   4.306
 7834SOL    HW124401   6.036   3.282   4.390
 7834SOL    HW224402   5.908   3.311   4.292
 7835SOL     OW24403   3.962   1.820   5.063
 7835SOL    HW124404   3.997   1.829   4.969
 7835SOL    HW224405   3.909   1.901   5.087
 7836SOL     OW24406   3.894   3.959   4.830
 7836SOL    HW124407   3.902   3.887   4.760
 7836SOL    HW224408   3.864   4.044   4.787
 7837SOL     OW24409   5.968   5.728   6.660
 7837SOL    HW124410   5.998   5.649   6.713
 7837SOL    HW224411   5.880   5.708   6.617
 7838SOL     OW24412   5.668   5.512   1.170
 7838SOL    HW124413   5.728   5.473   1.100
 7838SOL    HW224414   5.601   5.443   1.198
 7839SOL     OW24415   5.846   3.843   3.692
 7839SOL    HW124416   5.889   3.753   3.696
 7839SOL    HW224417   5.787   3.856   3.771
 7840SOL     OW24418   2.003   2.923   3.900
 7840SOL    HW124419   1.945   2.987   3.851
 7840SOL    HW224420   1.947   2.868   3.962
 7841SOL     OW24421   4.815   2.216   6.372
 7841SOL    HW124422   4.806   2.130   6.321
 7841SOL    HW224423   4.882   2.204   6.445
 7842SOL     OW24424   2.013   1.471   2.241
 7842SOL    HW124425   1.938   1.414   2.206
 7842SOL    HW224426   2.003   1.564   2.206
 7843SOL     OW24427   0.185   6.512   3.058
 7843SOL    HW124428   0.262   6.574   3.071
 7843SOL    HW224429   0.113   6.535   3.124
 7844SOL     OW24430   3.286   1.432   2.824
 7844SOL    HW124431   3.343   1.458   2.746
 7844SOL    HW224432   3.341   1.382   2.891
 7845SOL     OW24433   6.498   2.579   1.035
 7845SOL    HW124434   6.551   2.580   0.950
 7845SOL    HW224435   6.524   2.658   1.091
 7846SOL     OW24436   0.957   2.648   0.528
 7846SOL    HW124437   0.893   2.658   0.452
 7846SOL    HW224438   0.995   2.737   0.552
 7847SOL     OW24439   5.552   3.263   4.889
 7847SOL    HW124440   5.554   3.163   4.884
 7847SOL    HW224441   5.530   3.300   4.798
 7848SOL     OW24442   3.222   4.956   0.931
 7848SOL    HW124443   3.237   4.984   1.026
 7848SOL    HW224444   3.303   4.910   0.896
 7849SOL     OW24445   4.457   4.203   6.224
 7849SOL    HW124446   4.520   4.279   6.204
 7849SOL    HW224447   4.486   4.158   6.309
 7850SOL     OW24448   0.242   0.827   3.952
 7850SOL    HW124449   0.273   0.813   3.858
 7850SOL    HW224450   0.289   0.907   3.991
 7851SOL     OW24451   0.672   4.188   1.919
 7851SOL    HW124452   0.630   4.238   1.994
 7851SOL    HW224453   0.771   4.187   1.930
 7852SOL     OW24454   1.395   2.292   6.513
 7852SOL    HW124455   1.363   2.197   6.508
 7852SOL    HW224456   1.487   2.298   6.473
 7853SOL     OW24457   4.024   2.972   1.820
 7853SOL    HW124458   3.990   2.984   1.914
 7853SOL    HW224459   4.069   3.057   1.790
 7854SOL     OW24460   5.274   2.651   6.459
 7854SOL    HW124461   5.213   2.582   6.419
 7854SOL    HW224462   5.220   2.725   6.498
 7855SOL     OW24463   4.955   6.847   4.364
 7855SOL    HW124464   4.956   6.945   4.346
 7855SOL    HW224465   4.919   6.830   4.456
 7856SOL     OW24466   2.153   6.135   4.814
 7856SOL    HW124467   2.225   6.124   4.746
 7856SOL    HW224468   2.190   6.115   4.905
 7857SOL     OW24469   5.363   3.725   0.914
 7857SOL    HW124470   5.335   3.700   1.007
 7857SOL    HW224471   5.323   3.662   0.848
 7858SOL     OW24472   0.857   5.418   5.746
 7858SOL    HW124473   0.891   5.424   5.840
 7858SOL    HW224474   0.764   5.383   5.747
 7859SOL     OW24475   5.270   2.715   0.319
 7859SOL    HW124476   5.206   2.687   0.248
 7859SOL    HW224477   5.256   2.658   0.401
 7860SOL     OW24478   2.674   0.632   4.343
 7860SOL    HW124479   2.667   0.560   4.411
 7860SOL    HW224480   2.761   0.623   4.294
 7861SOL     OW24481   2.825   6.145   0.802
 7861SOL    HW124482   2.839   6.237   0.765
 7861SOL    HW224483   2.727   6.128   0.813
 7862SOL     OW24484   2.729   6.176   0.454
 7862SOL    HW124485   2.665   6.247   0.483
 7862SOL    HW224486   2.823   6.207   0.468
 7863SOL     OW24487   6.797   4.477   3.456
 7863SOL    HW124488   6.838   4.386   3.461
 7863SOL    HW224489   6.740   4.493   3.536
 7864SOL     OW24490   2.167   6.776   5.182
 7864SOL    HW124491   2.233   6.788   5.108
 7864SOL    HW224492   2.095   6.844   5.173
 7865SOL     OW24493   6.030   5.695   3.551
 7865SOL    HW124494   6.037   5.665   3.456
 7865SOL    HW224495   6.011   5.616   3.610
 7866SOL     OW24496   0.928   6.715   5.805
 7866SOL    HW124497   0.840   6.761   5.819
 7866SOL    HW224498   0.950   6.713   5.708
 7867SOL     OW24499   5.372   6.160   3.594
 7867SOL    HW124500   5.458   6.132   3.637
 7867SOL    HW224501   5.390   6.198   3.504
 7868SOL     OW24502   3.555   6.368   1.198
 7868SOL    HW124503   3.632   6.339   1.255
 7868SOL    HW224504   3.580   6.450   1.147
 7869SOL     OW24505   5.287   4.299   5.930
 7869SOL    HW124506   5.334   4.211   5.940
 7869SOL    HW224507   5.235   4.300   5.844
 7870SOL     OW24508   5.471   6.170   5.233
 7870SOL    HW124509   5.519   6.232   5.171
 7870SOL    HW224510   5.415   6.223   5.296
 7871SOL     OW24511   4.909   1.600   1.821
 7871SOL    HW124512   4.820   1.646   1.823
 7871SOL    HW224513   4.959   1.627   1.739
 7872SOL     OW24514   1.780   6.149   2.509
 7872SOL    HW124515   1.681   6.155   2.500
 7872SOL    HW224516   1.823   6.219   2.452
 7873SOL     OW24517   6.505   0.952   0.197
 7873SOL    HW124518   6.522   1.050   0.204
 7873SOL    HW224519   6.585   0.902   0.229
 7874SOL     OW24520   5.572   2.161   0.989
 7874SOL    HW124521   5.476   2.155   0.963
 7874SOL    HW224522   5.629   2.158   0.907
 7875SOL     OW24523   4.826   3.967   6.904
 7875SOL    HW124524   4.843   3.914   6.821
 7875SOL    HW224525   4.741   4.019   6.894
 7876SOL     OW24526   0.980   0.160   2.046
 7876SOL    HW124527   0.912   0.159   2.119
 7876SOL    HW224528   1.044   0.236   2.060
 7877SOL     OW24529   0.068   2.372   3.421
 7877SOL    HW124530   0.124   2.453   3.403
 7877SOL    HW224531   0.032   2.377   3.514
 7878SOL     OW24532   4.344   4.991   3.658
 7878SOL    HW124533   4.251   4.956   3.671
 7878SOL    HW224534   4.394   4.930   3.597
 7879SOL     OW24535   2.448   4.814   3.364
 7879SOL    HW124536   2.527   4.867   3.334
 7879SOL    HW224537   2.376   4.819   3.294
 7880SOL     OW24538   1.495   4.100   1.932
 7880SOL    HW124539   1.519   4.177   1.991
 7880SOL    HW224540   1.445   4.031   1.985
 7881SOL     OW24541   5.109   4.173   4.064
 7881SOL    HW124542   5.074   4.216   3.982
 7881SOL    HW224543   5.076   4.079   4.070
 7882SOL     OW24544   1.507   2.597   0.789
 7882SOL    HW124545   1.423   2.544   0.792
 7882SOL    HW224546   1.487   2.692   0.813
 7883SOL     OW24547   1.382   1.252   5.384
 7883SOL    HW124548   1.459   1.206   5.340
 7883SOL    HW224549   1.348   1.196   5.459
 7884SOL     OW24550   0.745   3.175   4.273
 7884SOL    HW124551   0.834   3.219   4.261
 7884SOL    HW224552   0.673   3.237   4.240
 7885SOL     OW24553   5.851   6.107   0.159
 7885SOL    HW124554   5.815   6.200   0.154
 7885SOL    HW224555   5.948   6.107   0.133
 7886SOL     OW24556   4.612   5.025   6.902
 7886SOL    HW124557   4.593   5.006   6.806
 7886SOL    HW224558   4.526   5.032   6.953
 7887SOL     OW24559   4.979   1.709   0.019
 7887SOL    HW124560   4.968   1.673   0.112
 7887SOL    HW224561   5.001   1.633   6.973
 7888SOL     OW24562   4.890   0.798   4.404
 7888SOL    HW124563   4.910   0.726   4.470
 7888SOL    HW224564   4.846   0.875   4.451
 7889SOL     OW24565   0.639   6.877   2.285
 7889SOL    HW124566   0.692   6.893   2.368
 7889SOL    HW224567   0.669   6.941   2.214
 7890SOL     OW24568   1.449   3.356   3.028
 7890SOL    HW124569   1.533   3.393   2.988
 7890SOL    HW224570   1.406   3.293   2.963
 7891SOL     OW24571   2.133   5.212   2.504
 7891SOL    HW124572   2.209   5.151   2.481
 7891SOL    HW224573   2.167   5.306   2.512
 7892SOL     OW24574   1.727   2.403   5.849
 7892SOL    HW124575   1.657   2.332   5.837
 7892SOL    HW224576   1.807   2.362   5.893
 7893SOL     OW24577   6.215   6.458   1.219
 7893SOL    HW124578   6.177   6.385   1.163
 7893SOL    HW224579   6.313   6.443   1.231
 7894SOL     OW24580   2.974   6.885   1.452
 7894SOL    HW124581   2.889   6.927   1.480
 7894SOL    HW224582   2.982   6.794   1.494
 7895SOL     OW24583   6.979   1.395   4.449
 7895SOL    HW124584   0.053   1.403   4.491
 7895SOL    HW224585   6.956   1.299   4.437
 7896SOL     OW24586   4.666   2.906   5.709
 7896SOL    HW124587   4.663   2.818   5.755
 7896SOL    HW224588   4.628   2.977   5.769
 7897SOL     OW24589   2.856   3.036   6.426
 7897SOL    HW124590   2.769   3.065   6.465
 7897SOL    HW224591   2.931   3.071   6.482
 7898SOL     OW24592   4.307   2.333   3.845
 7898SOL    HW124593   4.210   2.310   3.846
 7898SOL    HW224594   4.358   2.259   3.799
 7899SOL     OW24595   5.827   2.015   3.035
 7899SOL    HW124596   5.736   2.009   3.075
 7899SOL    HW224597   5.851   1.928   2.991
 7900SOL     OW24598   1.669   5.275   0.844
 7900SOL    HW124599   1.763   5.270   0.811
 7900SOL    HW224600   1.607   5.232   0.779
 7901SOL     OW24601   6.019   6.431   6.932
 7901SOL    HW124602   6.108   6.439   6.977
 7901SOL    HW224603   6.033   6.418   6.834
 7902SOL     OW24604   4.367   3.639   6.982
 7902SOL    HW124605   4.457   3.680   6.993
 7902SOL    HW224606   4.339   3.595   0.051
 7903SOL     OW24607   6.992   1.788   6.737
 7903SOL    HW124608   6.920   1.804   6.670
 7903SOL    HW224609   0.054   1.745   6.692
 7904SOL     OW24610   6.764   0.887   2.592
 7904SOL    HW124611   6.843   0.832   2.617
 7904SOL    HW224612   6.756   0.892   2.492
 7905SOL     OW24613   4.086   1.015   0.953
 7905SOL    HW124614   4.102   0.918   0.974
 7905SOL    HW224615   4.174   1.064   0.953
 7906SOL     OW24616   6.028   5.804   6.972
 7906SOL    HW124617   5.937   5.773   6.949
 7906SOL    HW224618   6.037   5.902   6.951
 7907SOL     OW24619   6.821   2.517   2.416
 7907SOL    HW124620   6.828   2.436   2.473
 7907SOL    HW224621   6.884   2.509   2.339
 7908SOL     OW24622   6.388   2.356   4.075
 7908SOL    HW124623   6.391   2.260   4.100
 7908SOL    HW224624   6.300   2.377   4.034
 7909SOL     OW24625   4.618   4.740   5.236
 7909SOL    HW124626   4.628   4.763   5.139
 7909SOL    HW224627   4.702   4.764   5.284
 7910SOL     OW24628   5.472   3.004   5.811
 7910SOL    HW124629   5.470   2.946   5.730
 7910SOL    HW224630   5.562   3.047   5.821
 7911SOL     OW24631   5.705   4.647   0.203
 7911SOL    HW124632   5.732   4.552   0.224
 7911SOL    HW224633   5.733   4.706   0.279
 7912SOL     OW24634   6.191   4.988   6.102
 7912SOL    HW124635   6.158   4.976   6.008
 7912SOL    HW224636   6.114   4.985   6.165
 7913SOL     OW24637   6.606   5.459   6.180
 7913SOL    HW124638   6.612   5.389   6.109
 7913SOL    HW224639   6.692   5.510   6.184
 7914SOL     OW24640   6.671   4.311   1.467
 7914SOL    HW124641   6.616   4.323   1.549
 7914SOL    HW224642   6.667   4.394   1.411
 7915SOL     OW24643   3.420   1.551   3.295
 7915SOL    HW124644   3.504   1.500   3.313
 7915SOL    HW224645   3.414   1.573   3.198
 7916SOL     OW24646   5.409   3.840   5.535
 7916SOL    HW124647   5.367   3.782   5.605
 7916SOL    HW224648   5.338   3.870   5.470
 7917SOL     OW24649   3.194   3.752   3.945
 7917SOL    HW124650   3.271   3.712   3.994
 7917SOL    HW224651   3.112   3.696   3.961
 7918SOL     OW24652   6.333   2.082   2.778
 7918SOL    HW124653   6.350   2.071   2.680
 7918SOL    HW224654   6.261   2.019   2.807
 7919SOL     OW24655   6.122   5.185   2.004
 7919SOL    HW124656   6.073   5.152   2.085
 7919SOL    HW224657   6.108   5.119   1.929
 7920SOL     OW24658   1.018   5.367   1.824
 7920SOL    HW124659   0.968   5.338   1.742
 7920SOL    HW224660   1.071   5.291   1.860
 7921SOL     OW24661   2.656   6.841   1.474
 7921SOL    HW124662   2.697   6.757   1.440
 7921SOL    HW224663   2.561   6.823   1.501
 7922SOL     OW24664   0.814   5.418   6.699
 7922SOL    HW124665   0.762   5.335   6.718
 7922SOL    HW224666   0.893   5.423   6.761
 7923SOL     OW24667   1.667   1.970   3.089
 7923SOL    HW124668   1.649   2.051   3.144
 7923SOL    HW224669   1.658   1.888   3.146
 7924SOL     OW24670   2.287   6.985   3.945
 7924SOL    HW124671   2.231   6.924   3.889
 7924SOL    HW224672   2.362   0.006   3.889
 7925SOL     OW24673   6.430   1.161   6.347
 7925SOL    HW124674   6.379   1.084   6.385
 7925SOL    HW224675   6.478   1.209   6.421
 7926SOL     OW24676   3.967   0.204   1.774
 7926SOL    HW124677   3.960   0.131   1.706
 7926SOL    HW224678   3.878   0.217   1.818
 7927SOL     OW24679   4.942   5.196   4.779
 7927SOL    HW124680   4.862   5.141   4.754
 7927SOL    HW224681   4.914   5.291   4.790
 7928SOL     OW24682   1.676   5.500   1.246
 7928SOL    HW124683   1.646   5.534   1.157
 7928SOL    HW224684   1.716   5.575   1.299
 7929SOL     OW24685   3.492   3.907   4.024
 7929SOL    HW124686   3.556   3.831   4.011
 7929SOL    HW224687   3.441   3.893   4.110
 7930SOL     OW24688   4.852   6.007   4.037
 7930SOL    HW124689   4.788   6.025   3.963
 7930SOL    HW224690   4.805   6.016   4.125
 7931SOL     OW24691   2.349   1.565   0.483
 7931SOL    HW124692   2.434   1.511   0.476
 7931SOL    HW224693   2.296   1.554   0.398
 7932SOL     OW24694   2.590   0.108   0.962
 7932SOL    HW124695   2.686   0.088   0.940
 7932SOL    HW224696   2.586   0.187   1.022
 7933SOL     OW24697   1.647   0.879   6.955
 7933SOL    HW124698   1.603   0.823   0.008
 7933SOL    HW224699   1.622   0.975   6.968
 7934SOL     OW24700   2.670   3.494   6.220
 7934SOL    HW124701   2.603   3.532   6.284
 7934SOL    HW224702   2.624   3.468   6.135
 7935SOL     OW24703   4.423   6.232   1.478
 7935SOL    HW124704   4.446   6.227   1.381
 7935SOL    HW224705   4.326   6.209   1.490
 7936SOL     OW24706   4.375   6.002   3.326
 7936SOL    HW124707   4.442   6.075   3.327
 7936SOL    HW224708   4.370   5.960   3.416
 7937SOL     OW24709   6.362   6.597   5.682
 7937SOL    HW124710   6.277   6.552   5.711
 7937SOL    HW224711   6.407   6.540   5.613
 7938SOL     OW24712   5.133   5.006   4.671
 7938SOL    HW124713   5.183   5.019   4.585
 7938SOL    HW224714   5.062   5.075   4.678
 7939SOL     OW24715   1.103   1.125   5.183
 7939SOL    HW124716   1.119   1.117   5.085
 7939SOL    HW224717   1.088   1.221   5.206
 7940SOL     OW24718   1.444   5.821   1.143
 7940SOL    HW124719   1.508   5.838   1.068
 7940SOL    HW224720   1.370   5.889   1.141
 7941SOL     OW24721   0.599   0.558   0.483
 7941SOL    HW124722   0.691   0.568   0.444
 7941SOL    HW224723   0.595   0.474   0.536
 7942SOL     OW24724   0.680   0.856   1.414
 7942SOL    HW124725   0.673   0.954   1.434
 7942SOL    HW224726   0.598   0.827   1.365
 7943SOL     OW24727   5.214   1.380   1.341
 7943SOL    HW124728   5.218   1.423   1.431
 7943SOL    HW224729   5.191   1.448   1.272
 7944SOL     OW24730   0.945   4.691   1.729
 7944SOL    HW124731   1.040   4.711   1.755
 7944SOL    HW224732   0.935   4.592   1.716
 7945SOL     OW24733   4.994   6.645   2.255
 7945SOL    HW124734   4.915   6.648   2.318
 7945SOL    HW224735   5.060   6.577   2.289
 7946SOL     OW24736   1.440   2.603   5.903
 7946SOL    HW124737   1.503   2.680   5.905
 7946SOL    HW224738   1.462   2.540   5.977
 7947SOL     OW24739   3.797   3.650   6.402
 7947SOL    HW124740   3.856   3.570   6.408
 7947SOL    HW224741   3.721   3.631   6.340
 7948SOL     OW24742   0.026   6.092   0.495
 7948SOL    HW124743   7.000   6.001   0.497
 7948SOL    HW224744   0.079   6.105   0.578
 7949SOL     OW24745   5.519   4.380   4.290
 7949SOL    HW124746   5.443   4.357   4.230
 7949SOL    HW224747   5.487   4.445   4.360
 7950SOL     OW24748   3.359   4.940   4.219
 7950SOL    HW124749   3.348   5.040   4.214
 7950SOL    HW224750   3.417   4.917   4.298
 7951SOL     OW24751   3.373   3.254   1.035
 7951SOL    HW124752   3.306   3.248   1.109
 7951SOL    HW224753   3.453   3.198   1.058
 7952SOL     OW24754   5.428   3.126   1.080
 7952SOL    HW124755   5.344   3.075   1.062
 7952SOL    HW224756   5.419   3.220   1.046
 7953SOL     OW24757   1.963   2.708   2.973
 7953SOL    HW124758   2.015   2.793   2.973
 7953SOL    HW224759   2.026   2.631   2.983
 7954SOL     OW24760   3.927   4.946   4.983
 7954SOL    HW124761   3.902   5.031   5.029
 7954SOL    HW224762   4.026   4.943   4.968
 7955SOL     OW24763   0.943   6.750   6.150
 7955SOL    HW124764   0.844   6.735   6.146
 7955SOL    HW224765   0.989   6.683   6.091
 7956SOL     OW24766   5.787   6.714   3.854
 7956SOL    HW124767   5.747   6.785   3.912
 7956SOL    HW224768   5.886   6.725   3.852
 7957SOL     OW24769   0.963   2.358   1.204
 7957SOL    HW124770   1.006   2.283   1.254
 7957SOL    HW224771   0.939   2.432   1.267
 7958SOL     OW24772   2.918   5.285   2.739
 7958SOL    HW124773   2.928   5.322   2.646
 7958SOL    HW224774   2.966   5.344   2.803
 7959SOL     OW24775   5.889   5.008   0.876
 7959SOL    HW124776   5.951   5.081   0.904
 7959SOL    HW224777   5.923   4.965   0.793
 7960SOL     OW24778   2.777   2.167   1.094
 7960SOL    HW124779   2.697   2.111   1.114
 7960SOL    HW224780   2.822   2.193   1.179
 7961SOL     OW24781   1.870   5.476   6.440
 7961SOL    HW124782   1.884   5.480   6.341
 7961SOL    HW224783   1.841   5.384   6.466
 7962SOL     OW24784   0.928   0.942   2.245
 7962SOL    HW124785   0.848   0.994   2.273
 7962SOL    HW224786   0.958   0.972   2.155
 7963SOL     OW24787   0.489   0.501   5.144
 7963SOL    HW124788   0.435   0.473   5.224
 7963SOL    HW224789   0.533   0.421   5.105
 7964SOL     OW24790   6.131   5.561   3.311
 7964SOL    HW124791   6.155   5.464   3.316
 7964SOL    HW224792   6.200   5.609   3.257
 7965SOL     OW24793   5.442   1.774   6.973
 7965SOL    HW124794   5.462   1.851   6.912
 7965SOL    HW224795   5.351   1.786   7.013
 7966SOL     OW24796   0.139   4.622   3.682
 7966SOL    HW124797   0.049   4.643   3.720
 7966SOL    HW224798   0.197   4.704   3.686
 7967SOL     OW24799   3.264   6.096   2.414
 7967SOL    HW124800   3.348   6.044   2.397
 7967SOL    HW224801   3.274   6.151   2.497
 7968SOL     OW24802   2.107   2.319   2.358
 7968SOL    HW124803   2.180   2.342   2.294
 7968SOL    HW224804   2.057   2.239   2.324
 7969SOL     OW24805   3.019   2.094   3.401
 7969SOL    HW124806   3.019   2.044   3.488
 7969SOL    HW224807   2.936   2.149   3.395
 7970SOL     OW24808   0.764   4.259   3.119
 7970SOL    HW124809   0.665   4.275   3.118
 7970SOL    HW224810   0.789   4.214   3.205
 7971SOL     OW24811   2.669   1.549   1.319
 7971SOL    HW124812   2.765   1.537   1.344
 7971SOL    HW224813   2.663   1.596   1.231
 7972SOL     OW24814   0.421   4.579   1.766
 7972SOL    HW124815   0.422   4.659   1.825
 7972SOL    HW224816   0.339   4.580   1.709
 7973SOL     OW24817   4.787   3.062   3.236
 7973SOL    HW124818   4.817   2.972   3.269
 7973SOL    HW224819   4.688   3.069   3.245
 7974SOL     OW24820   5.375   0.270   4.028
 7974SOL    HW124821   5.328   0.337   3.972
 7974SOL    HW224822   5.309   0.216   4.080
 7975SOL     OW24823   3.261   1.176   4.219
 7975SOL    HW124824   3.183   1.205   4.164
 7975SOL    HW224825   3.269   1.234   4.300
 7976SOL     OW24826   1.015   5.640   6.243
 7976SOL    HW124827   0.993   5.729   6.202
 7976SOL    HW224828   1.100   5.605   6.202
 7977SOL     OW24829   5.619   5.918   1.771
 7977SOL    HW124830   5.656   5.976   1.844
 7977SOL    HW224831   5.648   5.824   1.785
 7978SOL     OW24832   4.613   3.090   5.899
 7978SOL    HW124833   4.548   3.050   5.963
 7978SOL    HW224834   4.675   3.151   5.948
 7979SOL     OW24835   3.544   6.936   4.375
 7979SOL    HW124836   3.610   6.948   4.449
 7979SOL    HW224837   3.480   7.013   4.374
 7980SOL     OW24838   3.424   6.394   0.923
 7980SOL    HW124839   3.452   6.374   0.829
 7980SOL    HW224840   3.453   6.319   0.983
 7981SOL     OW24841   1.021   5.073   2.837
 7981SOL    HW124842   0.937   5.125   2.853
 7981SOL    HW224843   1.100   5.127   2.868
 7982SOL     OW24844   6.513   3.188   0.893
 7982SOL    HW124845   6.516   3.134   0.809
 7982SOL    HW224846   6.571   3.269   0.883
 7983SOL     OW24847   5.122   2.194   2.738
 7983SOL    HW124848   5.084   2.284   2.762
 7983SOL    HW224849   5.053   2.140   2.690
 7984SOL     OW24850   0.324   1.949   2.109
 7984SOL    HW124851   0.358   2.035   2.072
 7984SOL    HW224852   0.224   1.947   2.103
 7985SOL     OW24853   0.073   1.581   1.973
 7985SOL    HW124854   0.169   1.569   1.997
 7985SOL    HW224855   0.019   1.594   2.056
 7986SOL     OW24856   3.764   1.248   6.883
 7986SOL    HW124857   3.831   1.281   6.816
 7986SOL    HW224858   3.812   1.217   6.965
 7987SOL     OW24859   0.881   3.082   4.532
 7987SOL    HW124860   0.865   3.122   4.442
 7987SOL    HW224861   0.979   3.071   4.547
 7988SOL     OW24862   2.939   1.603   4.683
 7988SOL    HW124863   2.851   1.558   4.669
 7988SOL    HW224864   2.986   1.560   4.760
 7989SOL     OW24865   2.998   2.702   5.417
 7989SOL    HW124866   2.934   2.696   5.494
 7989SOL    HW224867   3.009   2.797   5.389
 7990SOL     OW24868   1.324   2.252   4.932
 7990SOL    HW124869   1.295   2.268   4.838
 7990SOL    HW224870   1.315   2.338   4.984
 7991SOL     OW24871   0.548   3.032   5.615
 7991SOL    HW124872   0.614   2.976   5.664
 7991SOL    HW224873   0.507   3.099   5.678
 7992SOL     OW24874   2.917   0.955   0.717
 7992SOL    HW124875   2.900   0.869   0.764
 7992SOL    HW224876   2.843   0.974   0.652
 7993SOL     OW24877   1.952   6.381   6.797
 7993SOL    HW124878   1.864   6.342   6.767
 7993SOL    HW224879   1.936   6.441   6.875
 7994SOL     OW24880   5.896   0.950   3.388
 7994SOL    HW124881   5.921   0.868   3.338
 7994SOL    HW224882   5.814   0.933   3.442
 7995SOL     OW24883   2.949   5.166   3.516
 7995SOL    HW124884   2.965   5.108   3.437
 7995SOL    HW224885   3.031   5.168   3.573
 7996SOL     OW24886   3.901   6.935   5.409
 7996SOL    HW124887   3.837   6.878   5.358
 7996SOL    HW224888   3.894   0.013   5.377
 7997SOL     OW24889   5.690   2.458   1.288
 7997SOL    HW124890   5.773   2.506   1.259
 7997SOL    HW224891   5.692   2.364   1.255
 7998SOL     OW24892   5.850   5.049   0.090
 7998SOL    HW124893   5.900   5.124   0.045
 7998SOL    HW224894   5.784   5.011   0.027
 7999SOL     OW24895   2.118   0.224   5.300
 7999SOL    HW124896   2.167   0.309   5.318
 7999SOL    HW224897   2.183   0.152   5.276
 8000SOL     OW24898   6.089   6.999   5.479
 8000SOL    HW124899   6.109   0.007   5.574
 8000SOL    HW224900   6.159   6.935   5.446
 8001SOL     OW24901   1.639   0.007   1.380
 8001SOL    HW124902   1.614   0.005   1.284
 8001SOL    HW224903   1.714   6.959   1.397
 8002SOL     OW24904   5.901   2.749   5.069
 8002SOL    HW124905   5.889   2.658   5.028
 8002SOL    HW224906   5.812   2.784   5.099
 8003SOL     OW24907   3.132   4.900   3.367
 8003SOL    HW124908   3.095   4.953   3.292
 8003SOL    HW224909   3.231   4.912   3.371
 8004SOL     OW24910   2.097   3.821   2.722
 8004SOL    HW124911   2.038   3.901   2.714
 8004SOL    HW224912   2.132   3.796   2.631
 8005SOL     OW24913   3.029   0.618   1.648
 8005SOL    HW124914   3.031   0.716   1.630
 8005SOL    HW224915   3.121   0.580   1.639
 8006SOL     OW24916   3.130   5.884   0.505
 8006SOL    HW124917   3.050   5.865   0.448
 8006SOL    HW224918   3.211   5.841   0.466
 8007SOL     OW24919   0.596   0.063   4.414
 8007SOL    HW124920   0.576   0.159   4.434
 8007SOL    HW224921   0.610   0.051   4.316
 8008SOL     OW24922   6.202   6.848   0.637
 8008SOL    HW124923   6.166   6.935   0.671
 8008SOL    HW224924   6.138   6.774   0.657
 8009SOL     OW24925   6.939   6.751   3.744
 8009SOL    HW124926   0.006   6.698   3.730
 8009SOL    HW224927   6.909   6.789   3.657
 8010SOL     OW24928   2.089   2.587   6.767
 8010SOL    HW124929   2.166   2.559   6.825
 8010SOL    HW224930   2.093   2.685   6.750
 8011SOL     OW24931   3.469   2.092   0.393
 8011SOL    HW124932   3.377   2.082   0.431
 8011SOL    HW224933   3.524   2.151   0.452
 8012SOL     OW24934   2.569   6.554   1.802
 8012SOL    HW124935   2.639   6.591   1.863
 8012SOL    HW224936   2.613   6.519   1.719
 8013SOL     OW24937   6.414   4.100   4.934
 8013SOL    HW124938   6.432   4.035   5.008
 8013SOL    HW224939   6.337   4.068   4.879
 8014SOL     OW24940   2.212   6.878   0.386
 8014SOL    HW124941   2.178   6.903   0.295
 8014SOL    HW224942   2.227   6.780   0.391
 8015SOL     OW24943   2.421   2.999   0.139
 8015SOL    HW124944   2.357   2.989   0.063
 8015SOL    HW224945   2.500   2.940   0.124
 8016SOL     OW24946   4.070   6.733   0.581
 8016SOL    HW124947   4.022   6.820   0.574
 8016SOL    HW224948   4.158   6.747   0.626
 8017SOL     OW24949   5.847   4.714   4.832
 8017SOL    HW124950   5.830   4.808   4.804
 8017SOL    HW224951   5.943   4.692   4.820
 8018SOL     OW24952   5.518   2.022   4.869
 8018SOL    HW124953   5.517   2.122   4.876
 8018SOL    HW224954   5.604   1.987   4.905
 8019SOL     OW24955   3.029   5.942   0.777
 8019SOL    HW124956   3.088   5.939   0.696
 8019SOL    HW224957   2.971   6.023   0.774
 8020SOL     OW24958   5.016   5.316   6.960
 8020SOL    HW124959   5.106   5.329   6.917
 8020SOL    HW224960   4.949   5.292   6.890
 8021SOL     OW24961   0.525   0.419   0.938
 8021SOL    HW124962   0.594   0.354   0.972
 8021SOL    HW224963   0.482   0.382   0.856
 8022SOL     OW24964   4.321   6.395   3.225
 8022SOL    HW124965   4.235   6.392   3.175
 8022SOL    HW224966   4.386   6.452   3.175
 8023SOL     OW24967   6.020   6.534   2.767
 8023SOL    HW124968   6.118   6.525   2.783
 8023SOL    HW224969   5.984   6.448   2.730
 8024SOL     OW24970   4.803   5.087   5.197
 8024SOL    HW124971   4.868   5.028   5.148
 8024SOL    HW224972   4.735   5.121   5.133
 8025SOL     OW24973   4.077   5.626   6.805
 8025SOL    HW124974   4.123   5.541   6.827
 8025SOL    HW224975   4.045   5.623   6.710
 8026SOL     OW24976   1.401   3.050   0.706
 8026SOL    HW124977   1.466   2.989   0.751
 8026SOL    HW224978   1.380   3.015   0.615
 8027SOL     OW24979   4.795   2.060   5.178
 8027SOL    HW124980   4.753   2.111   5.253
 8027SOL    HW224981   4.741   2.073   5.094
 8028SOL     OW24982   5.446   4.535   6.829
 8028SOL    HW124983   5.401   4.447   6.815
 8028SOL    HW224984   5.472   4.545   6.925
 8029SOL     OW24985   4.083   4.061   0.787
 8029SOL    HW124986   4.013   4.022   0.847
 8029SOL    HW224987   4.088   4.160   0.803
 8030SOL     OW24988   5.888   4.351   6.574
 8030SOL    HW124989   5.832   4.417   6.524
 8030SOL    HW224990   5.927   4.394   6.655
 8031SOL     OW24991   3.750   5.277   1.434
 8031SOL    HW124992   3.731   5.372   1.410
 8031SOL    HW224993   3.665   5.231   1.457
 8032SOL     OW24994   5.613   3.928   5.862
 8032SOL    HW124995   5.619   3.915   5.763
 8032SOL    HW224996   5.536   3.874   5.897
 8033SOL     OW24997   6.017   2.637   6.759
 8033SOL    HW124998   5.924   2.675   6.756
 8033SOL    HW224999   6.045   2.626   6.854
 8034SOL     OW25000   5.509   0.058   4.999
 8034SOL    HW125001   5.579   0.031   4.933
 8034SOL    HW225002   5.511   0.158   5.011
 8035SOL     OW25003   5.655   0.253   6.583
 8035SOL    HW125004   5.647   0.273   6.681
 8035SOL    HW225005   5.752   0.247   6.558
 8036SOL     OW25006   1.743   4.548   2.041
 8036SOL    HW125007   1.778   4.454   2.035
 8036SOL    HW225008   1.644   4.548   2.025
 8037SOL     OW25009   1.673   2.946   1.086
 8037SOL    HW125010   1.651   2.850   1.099
 8037SOL    HW225011   1.771   2.961   1.101
 8038SOL     OW25012   0.178   2.252   4.308
 8038SOL    HW125013   0.169   2.277   4.212
 8038SOL    HW225014   0.271   2.272   4.339
 8039SOL     OW25015   2.619   0.041   3.401
 8039SOL    HW125016   2.648   0.125   3.447
 8039SOL    HW225017   2.534   0.008   3.442
 8040SOL     OW25018   6.943   5.844   1.128
 8040SOL    HW125019   7.001   5.803   1.057
 8040SOL    HW225020   6.975   5.815   1.218
 8041SOL     OW25021   4.481   1.309   0.238
 8041SOL    HW125022   4.559   1.355   0.281
 8041SOL    HW225023   4.427   1.375   0.186
 8042SOL     OW25024   3.115   3.112   1.706
 8042SOL    HW125025   3.131   3.024   1.752
 8042SOL    HW225026   3.018   3.135   1.710
 8043SOL     OW25027   2.317   6.672   1.757
 8043SOL    HW125028   2.392   6.626   1.803
 8043SOL    HW225029   2.250   6.703   1.825
 8044SOL     OW25030   2.992   3.786   1.672
 8044SOL    HW125031   2.997   3.692   1.706
 8044SOL    HW225032   3.084   3.818   1.649
 8045SOL     OW25033   5.486   2.717   3.002
 8045SOL    HW125034   5.539   2.801   2.994
 8045SOL    HW225035   5.403   2.736   3.055
 8046SOL     OW25036   6.542   5.170   6.086
 8046SOL    HW125037   6.455   5.219   6.078
 8046SOL    HW225038   6.527   5.086   6.139
 8047SOL     OW25039   3.607   6.172   4.588
 8047SOL    HW125040   3.573   6.090   4.635
 8047SOL    HW225041   3.697   6.195   4.623
 8048SOL     OW25042   6.553   0.166   5.477
 8048SOL    HW125043   6.475   0.219   5.444
 8048SOL    HW225044   6.612   0.141   5.401
 8049SOL     OW25045   1.339   6.213   0.584
 8049SOL    HW125046   1.435   6.240   0.579
 8049SOL    HW225047   1.332   6.113   0.582
 8050SOL     OW25048   1.929   3.016   1.144
 8050SOL    HW125049   1.958   3.098   1.095
 8050SOL    HW225050   1.978   2.937   1.108
 8051SOL     OW25051   4.613   0.905   3.647
 8051SOL    HW125052   4.524   0.912   3.602
 8051SOL    HW225053   4.656   0.818   3.622
 8052SOL     OW25054   2.779   1.336   2.688
 8052SOL    HW125055   2.859   1.388   2.718
 8052SOL    HW225056   2.739   1.289   2.767
 8053SOL     OW25057   3.766   3.564   2.353
 8053SOL    HW125058   3.829   3.618   2.297
 8053SOL    HW225059   3.761   3.604   2.445
 8054SOL     OW25060   4.245   6.542   4.863
 8054SOL    HW125061   4.264   6.634   4.897
 8054SOL    HW225062   4.146   6.530   4.853
 8055SOL     OW25063   1.665   6.786   6.282
 8055SOL    HW125064   1.756   6.798   6.244
 8055SOL    HW225065   1.643   6.862   6.343
 8056SOL     OW25066   4.363   1.667   2.717
 8056SOL    HW125067   4.460   1.684   2.702
 8056SOL    HW225068   4.340   1.574   2.689
 8057SOL     OW25069   3.213   6.764   2.928
 8057SOL    HW125070   3.268   6.762   2.845
 8057SOL    HW225071   3.272   6.772   3.008
 8058SOL     OW25072   2.874   1.339   2.438
 8058SOL    HW125073   2.843   1.344   2.534
 8058SOL    HW225074   2.839   1.418   2.388
 8059SOL     OW25075   3.032   1.548   4.002
 8059SOL    HW125076   3.058   1.645   3.996
 8059SOL    HW225077   2.958   1.529   3.937
 8060SOL     OW25078   0.215   1.029   4.451
 8060SOL    HW125079   0.145   0.968   4.413
 8060SOL    HW225080   0.213   1.116   4.402
 8061SOL     OW25081   0.043   5.120   2.333
 8061SOL    HW125082   6.993   5.057   2.373
 8061SOL    HW225083   0.131   5.109   2.380
 8062SOL     OW25084   1.947   4.132   3.371
 8062SOL    HW125085   1.931   4.211   3.312
 8062SOL    HW225086   1.973   4.163   3.462
 8063SOL     OW25087   3.268   3.062   6.779
 8063SOL    HW125088   3.259   2.979   6.833
 8063SOL    HW225089   3.247   3.142   6.837
 8064SOL     OW25090   6.793   3.704   0.069
 8064SOL    HW125091   6.841   3.669   7.005
 8064SOL    HW225092   6.701   3.732   0.043
 8065SOL     OW25093   4.771   0.311   5.187
 8065SOL    HW125094   4.764   0.238   5.118
 8065SOL    HW225095   4.762   0.271   5.278
 8066SOL     OW25096   1.762   0.628   1.527
 8066SOL    HW125097   1.696   0.655   1.456
 8066SOL    HW225098   1.855   0.638   1.492
 8067SOL     OW25099   4.902   2.559   2.414
 8067SOL    HW125100   4.926   2.485   2.351
 8067SOL    HW225101   4.816   2.536   2.461
 8068SOL     OW25102   1.063   4.383   4.642
 8068SOL    HW125103   1.094   4.375   4.547
 8068SOL    HW225104   1.026   4.296   4.673
 8069SOL     OW25105   1.185   6.749   1.874
 8069SOL    HW125106   1.158   6.784   1.964
 8069SOL    HW225107   1.283   6.764   1.860
 8070SOL     OW25108   3.808   6.825   1.098
 8070SOL    HW125109   3.869   6.817   1.019
 8070SOL    HW225110   3.785   6.921   1.113
 8071SOL     OW25111   3.847   6.337   6.690
 8071SOL    HW125112   3.768   6.300   6.639
 8071SOL    HW225113   3.876   6.423   6.649
 8072SOL     OW25114   5.442   1.243   0.518
 8072SOL    HW125115   5.471   1.164   0.464
 8072SOL    HW225116   5.380   1.299   0.463
 8073SOL     OW25117   3.993   6.288   5.796
 8073SOL    HW125118   3.893   6.289   5.796
 8073SOL    HW225119   4.026   6.313   5.887
 8074SOL     OW25120   3.538   3.580   0.088
 8074SOL    HW125121   3.465   3.531   0.135
 8074SOL    HW225122   3.627   3.541   0.112
 8075SOL     OW25123   0.240   1.870   3.258
 8075SOL    HW125124   0.201   1.958   3.232
 8075SOL    HW225125   0.167   1.807   3.284
 8076SOL     OW25126   6.227   3.055   5.998
 8076SOL    HW125127   6.189   2.963   6.002
 8076SOL    HW225128   6.222   3.089   5.904
 8077SOL     OW25129   1.762   0.321   1.332
 8077SOL    HW125130   1.750   0.398   1.269
 8077SOL    HW225131   1.676   0.302   1.379
 8078SOL     OW25132   6.277   3.199   0.607
 8078SOL    HW125133   6.206   3.131   0.589
 8078SOL    HW225134   6.367   3.156   0.600
 8079SOL     OW25135   6.555   2.376   2.555
 8079SOL    HW125136   6.549   2.430   2.640
 8079SOL    HW225137   6.588   2.285   2.577
 8080SOL     OW25138   3.509   4.796   0.017
 8080SOL    HW125139   3.434   4.800   0.083
 8080SOL    HW225140   3.492   4.863   6.961
 8081SOL     OW25141   5.847   0.823   5.263
 8081SOL    HW125142   5.931   0.827   5.209
 8081SOL    HW225143   5.816   0.916   5.283
 8082SOL     OW25144   6.967   2.840   3.832
 8082SOL    HW125145   6.891   2.779   3.809
 8082SOL    HW225146   6.957   2.873   3.925
 8083SOL     OW25147   4.813   2.505   4.307
 8083SOL    HW125148   4.878   2.450   4.359
 8083SOL    HW225149   4.745   2.543   4.369
 8084SOL     OW25150   6.844   0.467   1.251
 8084SOL    HW125151   6.915   0.533   1.226
 8084SOL    HW225152   6.863   0.379   1.207
 8085SOL     OW25153   5.535   1.120   1.105
 8085SOL    HW125154   5.503   1.091   1.195
 8085SOL    HW225155   5.605   1.191   1.116
 8086SOL     OW25156   3.367   0.101   5.566
 8086SOL    HW125157   3.343   0.148   5.652
 8086SOL    HW225158   3.418   0.018   5.587
 8087SOL     OW25159   2.762   2.445   1.491
 8087SOL    HW125160   2.684   2.500   1.462
 8087SOL    HW225161   2.847   2.495   1.472
 8088SOL     OW25162   4.291   1.102   2.783
 8088SOL    HW125163   4.356   1.103   2.859
 8088SOL    HW225164   4.198   1.097   2.820
 8089SOL     OW25165   6.201   2.878   6.921
 8089SOL    HW125166   6.217   2.823   6.839
 8089SOL    HW225167   6.289   2.914   6.954
 8090SOL     OW25168   4.245   2.067   5.585
 8090SOL    HW125169   4.303   2.148   5.589
 8090SOL    HW225170   4.263   2.017   5.500
 8091SOL     OW25171   3.061   4.841   5.665
 8091SOL    HW125172   3.009   4.825   5.581
 8091SOL    HW225173   3.116   4.924   5.656
 8092SOL     OW25174   1.545   1.540   4.678
 8092SOL    HW125175   1.620   1.539   4.744
 8092SOL    HW225176   1.574   1.497   4.593
 8093SOL     OW25177   5.469   5.972   1.528
 8093SOL    HW125178   5.475   6.055   1.584
 8093SOL    HW225179   5.519   5.898   1.572
 8094SOL     OW25180   0.954   3.968   5.788
 8094SOL    HW125181   0.909   3.880   5.772
 8094SOL    HW225182   0.885   4.040   5.796
 8095SOL     OW25183   5.179   3.663   4.060
 8095SOL    HW125184   5.218   3.619   4.141
 8095SOL    HW225185   5.107   3.606   4.022
 8096SOL     OW25186   3.419   6.262   1.625
 8096SOL    HW125187   3.384   6.353   1.650
 8096SOL    HW225188   3.369   6.193   1.677
 8097SOL     OW25189   4.976   0.958   3.718
 8097SOL    HW125190   4.956   1.023   3.644
 8097SOL    HW225191   4.999   0.869   3.678
 8098SOL     OW25192   2.861   6.699   3.713
 8098SOL    HW125193   2.787   6.705   3.645
 8098SOL    HW225194   2.883   6.791   3.745
 8099SOL     OW25195   4.804   6.521   4.929
 8099SOL    HW125196   4.868   6.479   4.993
 8099SOL    HW225197   4.775   6.454   4.861
 8100SOL     OW25198   0.347   6.436   1.076
 8100SOL    HW125199   0.356   6.440   1.176
 8100SOL    HW225200   0.298   6.517   1.044
 8101SOL     OW25201   1.449   5.956   3.215
 8101SOL    HW125202   1.460   6.043   3.167
 8101SOL    HW225203   1.535   5.905   3.212
 8102SOL     OW25204   6.909   6.000   5.943
 8102SOL    HW125205   6.999   5.967   5.972
 8102SOL    HW225206   6.845   5.922   5.939
 8103SOL     OW25207   3.407   1.254   2.532
 8103SOL    HW125208   3.418   1.194   2.453
 8103SOL    HW225209   3.490   1.308   2.545
 8104SOL     OW25210   2.663   6.748   6.356
 8104SOL    HW125211   2.601   6.749   6.435
 8104SOL    HW225212   2.748   6.703   6.381
 8105SOL     OW25213   2.549   2.103   3.625
 8105SOL    HW125214   2.575   2.093   3.721
 8105SOL    HW225215   2.469   2.163   3.618
 8106SOL     OW25216   1.277   4.162   4.337
 8106SOL    HW125217   1.228   4.249   4.334
 8106SOL    HW225218   1.375   4.180   4.332
 8107SOL     OW25219   2.173   6.271   6.323
 8107SOL    HW125220   2.172   6.235   6.230
 8107SOL    HW225221   2.263   6.257   6.364
 8108SOL     OW25222   0.979   2.962   4.060
 8108SOL    HW125223   0.915   2.993   4.130
 8108SOL    HW225224   0.941   2.979   3.970
 8109SOL     OW25225   1.677   5.469   4.996
 8109SOL    HW125226   1.620   5.387   4.990
 8109SOL    HW225227   1.766   5.450   4.955
 8110SOL     OW25228   1.942   5.193   0.341
 8110SOL    HW125229   2.031   5.238   0.333
 8110SOL    HW225230   1.952   5.109   0.395
 8111SOL     OW25231   2.635   5.452   4.075
 8111SOL    HW125232   2.589   5.375   4.119
 8111SOL    HW225233   2.690   5.501   4.143
 8112SOL     OW25234   3.191   0.799   4.495
 8112SOL    HW125235   3.099   0.809   4.458
 8112SOL    HW225236   3.248   0.752   4.427
 8113SOL     OW25237   3.679   2.444   6.051
 8113SOL    HW125238   3.607   2.482   6.108
 8113SOL    HW225239   3.752   2.408   6.110
 8114SOL     OW25240   2.582   3.052   1.710
 8114SOL    HW125241   2.537   3.141   1.704
 8114SOL    HW225242   2.514   2.980   1.696
 8115SOL     OW25243   3.629   1.163   1.192
 8115SOL    HW125244   3.643   1.247   1.139
 8115SOL    HW225245   3.714   1.110   1.194
 8116SOL     OW25246   5.811   0.532   5.237
 8116SOL    HW125247   5.796   0.515   5.140
 8116SOL    HW225248   5.839   0.627   5.251
 8117SOL     OW25249   1.502   1.677   5.661
 8117SOL    HW125250   1.570   1.666   5.589
 8117SOL    HW225251   1.421   1.622   5.639
 8118SOL     OW25252   1.043   3.693   4.983
 8118SOL    HW125253   1.103   3.769   5.010
 8118SOL    HW225254   0.949   3.714   5.009
 8119SOL     OW25255   0.889   6.344   2.385
 8119SOL    HW125256   0.913   6.275   2.453
 8119SOL    HW225257   0.968   6.364   2.327
 8120SOL     OW25258   4.426   3.965   1.683
 8120SOL    HW125259   4.518   3.934   1.658
 8120SOL    HW225260   4.432   4.057   1.724
 8121SOL     OW25261   6.007   0.400   2.916
 8121SOL    HW125262   5.911   0.382   2.897
 8121SOL    HW225263   6.061   0.387   2.832
 8122SOL     OW25264   6.795   6.203   2.402
 8122SOL    HW125265   6.737   6.122   2.395
 8122SOL    HW225266   6.765   6.258   2.480
 8123SOL     OW25267   1.340   6.535   6.886
 8123SOL    HW125268   1.395   6.550   6.804
 8123SOL    HW225269   1.256   6.488   6.862
 8124SOL     OW25270   0.710   5.854   2.626
 8124SOL    HW125271   0.759   5.823   2.708
 8124SOL    HW225272   0.750   5.812   2.545
 8125SOL     OW25273   5.457   5.175   3.216
 8125SOL    HW125274   5.478   5.186   3.119
 8125SOL    HW225275   5.427   5.263   3.254
 8126SOL     OW25276   5.511   4.912   2.251
 8126SOL    HW125277   5.450   4.833   2.259
 8126SOL    HW225278   5.605   4.884   2.272
 8127SOL     OW25279   2.503   4.648   0.237
 8127SOL    HW125280   2.598   4.624   0.255
 8127SOL    HW225281   2.499   4.717   0.164
 8128SOL     OW25282   4.020   2.354   5.314
 8128SOL    HW125283   4.059   2.279   5.262
 8128SOL    HW225284   4.049   2.441   5.275
 8129SOL     OW25285   4.870   0.424   6.603
 8129SOL    HW125286   4.955   0.391   6.562
 8129SOL    HW225287   4.850   0.372   6.686
 8130SOL     OW25288   2.093   6.517   0.090
 8130SOL    HW125289   2.076   6.444   0.156
 8130SOL    HW225290   2.098   6.605   0.137
 8131SOL     OW25291   2.036   1.308   0.488
 8131SOL    HW125292   2.016   1.362   0.570
 8131SOL    HW225293   2.021   1.364   0.406
 8132SOL     OW25294   6.314   4.924   3.852
 8132SOL    HW125295   6.237   4.866   3.876
 8132SOL    HW225296   6.330   4.990   3.925
 8133SOL     OW25297   1.011   5.639   1.763
 8133SOL    HW125298   1.077   5.653   1.690
 8133SOL    HW225299   1.034   5.555   1.813
 8134SOL     OW25300   2.165   2.476   2.767
 8134SOL    HW125301   2.177   2.392   2.716
 8134SOL    HW225302   2.080   2.521   2.738
 8135SOL     OW25303   4.395   5.909   2.169
 8135SOL    HW125304   4.345   5.914   2.256
 8135SOL    HW225305   4.471   5.974   2.170
 8136SOL     OW25306   4.527   5.562   1.170
 8136SOL    HW125307   4.482   5.474   1.155
 8136SOL    HW225308   4.457   5.632   1.187
 8137SOL     OW25309   2.209   4.046   5.373
 8137SOL    HW125310   2.120   4.004   5.359
 8137SOL    HW225311   2.272   4.016   5.301
 8138SOL     OW25312   4.822   1.107   3.526
 8138SOL    HW125313   4.844   1.191   3.477
 8138SOL    HW225314   4.732   1.073   3.497
 8139SOL     OW25315   1.857   2.666   3.771
 8139SOL    HW125316   1.830   2.661   3.675
 8139SOL    HW225317   1.830   2.582   3.818
 8140SOL     OW25318   4.151   0.323   1.044
 8140SOL    HW125319   4.201   0.376   1.111
 8140SOL    HW225320   4.083   0.381   0.999
 8141SOL     OW25321   4.775   1.225   4.949
 8141SOL    HW125322   4.754   1.313   4.908
 8141SOL    HW225323   4.864   1.230   4.995
 8142SOL     OW25324   1.856   6.051   0.889
 8142SOL    HW125325   1.879   6.148   0.898
 8142SOL    HW225326   1.937   5.996   0.906
 8143SOL     OW25327   6.416   4.606   0.317
 8143SOL    HW125328   6.413   4.607   0.217
 8143SOL    HW225329   6.441   4.698   0.349
 8144SOL     OW25330   6.834   4.889   6.209
 8144SOL    HW125331   6.800   4.941   6.288
 8144SOL    HW225332   6.870   4.801   6.240
 8145SOL     OW25333   5.377   5.648   6.920
 8145SOL    HW125334   5.366   5.592   7.002
 8145SOL    HW225335   5.294   5.645   6.866
 8146SOL     OW25336   6.119   0.540   4.535
 8146SOL    HW125337   6.084   0.486   4.459
 8146SOL    HW225338   6.168   0.480   4.599
 8147SOL     OW25339   1.574   0.655   5.975
 8147SOL    HW125340   1.626   0.632   6.057
 8147SOL    HW225341   1.635   0.698   5.908
 8148SOL     OW25342   4.514   4.727   0.120
 8148SOL    HW125343   4.463   4.686   0.044
 8148SOL    HW225344   4.479   4.819   0.138
 8149SOL     OW25345   1.293   5.867   5.132
 8149SOL    HW125346   1.320   5.930   5.060
 8149SOL    HW225347   1.293   5.914   5.220
 8150SOL     OW25348   0.417   3.144   1.125
 8150SOL    HW125349   0.492   3.203   1.153
 8150SOL    HW225350   0.360   3.192   1.058
 8151SOL     OW25351   6.561   5.552   3.475
 8151SOL    HW125352   6.533   5.461   3.506
 8151SOL    HW225353   6.532   5.565   3.380
 8152SOL     OW25354   4.904   1.671   3.596
 8152SOL    HW125355   4.977   1.633   3.653
 8152SOL    HW225356   4.910   1.632   3.504
 8153SOL     OW25357   0.262   1.053   2.948
 8153SOL    HW125358   0.185   0.994   2.972
 8153SOL    HW225359   0.340   1.032   3.008
 8154SOL     OW25360   1.958   0.646   3.274
 8154SOL    HW125361   2.032   0.623   3.211
 8154SOL    HW225362   1.875   0.666   3.221
 8155SOL     OW25363   1.794   5.380   2.376
 8155SOL    HW125364   1.869   5.327   2.338
 8155SOL    HW225365   1.725   5.318   2.413
 8156SOL     OW25366   6.947   5.267   1.593
 8156SOL    HW125367   6.882   5.343   1.583
 8156SOL    HW225368   6.953   5.218   1.506
 8157SOL     OW25369   0.221   3.164   5.574
 8157SOL    HW125370   0.304   3.211   5.546
 8157SOL    HW225371   0.142   3.205   5.528
 8158SOL     OW25372   5.681   5.382   6.402
 8158SOL    HW125373   5.602   5.409   6.457
 8158SOL    HW225374   5.653   5.310   6.338
 8159SOL     OW25375   3.375   6.301   5.566
 8159SOL    HW125376   3.301   6.350   5.613
 8159SOL    HW225377   3.338   6.249   5.489
 8160SOL     OW25378   4.834   1.288   3.269
 8160SOL    HW125379   4.923   1.249   3.291
 8160SOL    HW225380   4.804   1.256   3.179
 8161SOL     OW25381   5.663   3.032   1.513
 8161SOL    HW125382   5.678   3.117   1.463
 8161SOL    HW225383   5.564   3.016   1.524
 8162SOL     OW25384   0.276   5.478   6.138
 8162SOL    HW125385   0.240   5.545   6.203
 8162SOL    HW225386   0.221   5.479   6.055
 8163SOL     OW25387   4.347   4.613   5.445
 8163SOL    HW125388   4.332   4.534   5.504
 8163SOL    HW225389   4.400   4.682   5.495
 8164SOL     OW25390   4.708   1.707   0.501
 8164SOL    HW125391   4.625   1.742   0.457
 8164SOL    HW225392   4.740   1.772   0.569
 8165SOL     OW25393   6.734   1.344   6.738
 8165SOL    HW125394   6.742   1.424   6.797
 8165SOL    HW225395   6.820   1.329   6.689
 8166SOL     OW25396   1.948   1.817   4.916
 8166SOL    HW125397   1.973   1.787   5.008
 8166SOL    HW225398   1.861   1.867   4.920
 8167SOL     OW25399   0.935   2.712   4.414
 8167SOL    HW125400   0.863   2.760   4.363
 8167SOL    HW225401   0.994   2.663   4.350
 8168SOL     OW25402   2.759   1.150   1.986
 8168SOL    HW125403   2.777   1.066   2.038
 8168SOL    HW225404   2.687   1.202   2.032
 8169SOL     OW25405   5.460   2.381   0.549
 8169SOL    HW125406   5.536   2.316   0.552
 8169SOL    HW225407   5.492   2.471   0.581
 8170SOL     OW25408   6.156   5.076   2.557
 8170SOL    HW125409   6.205   4.989   2.568
 8170SOL    HW225410   6.221   5.150   2.543
 8171SOL     OW25411   2.069   1.007   0.890
 8171SOL    HW125412   2.124   1.018   0.973
 8171SOL    HW225413   2.019   1.091   0.872
 8172SOL     OW25414   0.722   2.710   1.153
 8172SOL    HW125415   0.652   2.710   1.224
 8172SOL    HW225416   0.798   2.651   1.181
 8173SOL     OW25417   5.993   1.301   2.209
 8173SOL    HW125418   5.935   1.380   2.231
 8173SOL    HW225419   5.982   1.231   2.280
 8174SOL     OW25420   2.582   5.096   2.707
 8174SOL    HW125421   2.594   5.021   2.642
 8174SOL    HW225422   2.505   5.153   2.678
 8175SOL     OW25423   0.510   1.579   4.796
 8175SOL    HW125424   0.603   1.573   4.832
 8175SOL    HW225425   0.445   1.556   4.868
 8176SOL     OW25426   2.751   3.908   0.583
 8176SOL    HW125427   2.676   3.946   0.637
 8176SOL    HW225428   2.829   3.971   0.586
 8177SOL     OW25429   3.660   1.003   3.188
 8177SOL    HW125430   3.636   1.091   3.229
 8177SOL    HW225431   3.720   0.953   3.250
 8178SOL     OW25432   2.212   6.544   1.097
 8178SOL    HW125433   2.127   6.594   1.082
 8178SOL    HW225434   2.290   6.602   1.070
 8179SOL     OW25435   5.672   1.226   3.686
 8179SOL    HW125436   5.661   1.157   3.758
 8179SOL    HW225437   5.627   1.195   3.602
 8180SOL     OW25438   4.840   6.331   7.014
 8180SOL    HW125439   4.809   6.421   0.028
 8180SOL    HW225440   4.893   6.287   0.070
 8181SOL     OW25441   0.821   0.963   0.534
 8181SOL    HW125442   0.817   0.887   0.599
 8181SOL    HW225443   0.730   0.999   0.518
 8182SOL     OW25444   2.928   3.419   4.957
 8182SOL    HW125445   2.857   3.398   5.024
 8182SOL    HW225446   2.995   3.481   4.997
 8183SOL     OW25447   0.544   0.150   4.877
 8183SOL    HW125448   0.510   0.083   4.943
 8183SOL    HW225449   0.467   0.192   4.830
 8184SOL     OW25450   6.943   5.942   6.639
 8184SOL    HW125451   6.957   5.843   6.634
 8184SOL    HW225452   6.947   5.980   6.547
 8185SOL     OW25453   0.890   6.422   6.972
 8185SOL    HW125454   0.848   6.446   0.043
 8185SOL    HW225455   0.840   6.345   6.931
 8186SOL     OW25456   1.155   5.633   6.829
 8186SOL    HW125457   1.233   5.677   6.784
 8186SOL    HW225458   1.093   5.703   6.864
 8187SOL     OW25459   0.366   0.727   5.747
 8187SOL    HW125460   0.388   0.795   5.677
 8187SOL    HW225461   0.267   0.718   5.755
 8188SOL     OW25462   2.499   2.488   3.372
 8188SOL    HW125463   2.418   2.546   3.370
 8188SOL    HW225464   2.541   2.492   3.463
 8189SOL     OW25465   5.392   4.731   3.644
 8189SOL    HW125466   5.471   4.673   3.665
 8189SOL    HW225467   5.330   4.681   3.584
 8190SOL     OW25468   6.142   3.511   3.392
 8190SOL    HW125469   6.228   3.487   3.438
 8190SOL    HW225470   6.163   3.557   3.306
 8191SOL     OW25471   3.646   5.409   0.807
 8191SOL    HW125472   3.600   5.329   0.767
 8191SOL    HW225473   3.587   5.449   0.877
 8192SOL     OW25474   1.083   4.894   3.741
 8192SOL    HW125475   1.077   4.903   3.641
 8192SOL    HW225476   1.016   4.826   3.773
 8193SOL     OW25477   0.731   4.377   4.735
 8193SOL    HW125478   0.771   4.463   4.703
 8193SOL    HW225479   0.757   4.362   4.830
 8194SOL     OW25480   5.023   6.376   1.654
 8194SOL    HW125481   4.990   6.282   1.649
 8194SOL    HW225482   5.096   6.383   1.722
 8195SOL     OW25483   5.418   6.121   3.102
 8195SOL    HW125484   5.348   6.168   3.049
 8195SOL    HW225485   5.414   6.150   3.197
 8196SOL     OW25486   5.088   0.619   0.324
 8196SOL    HW125487   5.062   0.551   0.393
 8196SOL    HW225488   5.099   0.708   0.367
 8197SOL     OW25489   4.611   1.449   2.542
 8197SOL    HW125490   4.533   1.397   2.574
 8197SOL    HW225491   4.598   1.476   2.447
 8198SOL     OW25492   1.636   0.686   2.689
 8198SOL    HW125493   1.653   0.611   2.752
 8198SOL    HW225494   1.538   0.704   2.684
 8199SOL     OW25495   5.238   2.977   5.939
 8199SOL    HW125496   5.326   2.993   5.894
 8199SOL    HW225497   5.203   2.886   5.913
 8200SOL     OW25498   4.162   2.886   1.189
 8200SOL    HW125499   4.210   2.878   1.276
 8200SOL    HW225500   4.221   2.932   1.122
 8201SOL     OW25501   6.726   6.821   5.427
 8201SOL    HW125502   6.670   6.840   5.508
 8201SOL    HW225503   6.809   6.773   5.455
 8202SOL     OW25504   0.574   6.274   1.908
 8202SOL    HW125505   0.625   6.261   1.993
 8202SOL    HW225506   0.637   6.280   1.831
 8203SOL     OW25507   1.010   3.521   1.409
 8203SOL    HW125508   0.946   3.470   1.466
 8203SOL    HW225509   1.009   3.485   1.316
 8204SOL     OW25510   3.593   3.044   1.036
 8204SOL    HW125511   3.659   2.975   1.006
 8204SOL    HW225512   3.620   3.134   1.001
 8205SOL     OW25513   1.304   3.633   1.101
 8205SOL    HW125514   1.327   3.584   1.017
 8205SOL    HW225515   1.372   3.705   1.116
 8206SOL     OW25516   3.499   0.622   0.025
 8206SOL    HW125517   3.523   0.687   0.097
 8206SOL    HW225518   3.439   0.666   6.974
 8207SOL     OW25519   3.876   3.055   4.762
 8207SOL    HW125520   3.922   3.144   4.765
 8207SOL    HW225521   3.913   2.997   4.835
 8208SOL     OW25522   2.139   0.731   0.789
 8208SOL    HW125523   2.117   0.814   0.840
 8208SOL    HW225524   2.056   0.678   0.774
 8209SOL     OW25525   6.399   0.956   5.537
 8209SOL    HW125526   6.424   1.009   5.618
 8209SOL    HW225527   6.390   0.860   5.561
 8210SOL     OW25528   1.312   2.906   6.936
 8210SOL    HW125529   1.272   2.986   6.890
 8210SOL    HW225530   1.326   2.927   0.016
 8211SOL     OW25531   3.164   4.634   0.809
 8211SOL    HW125532   3.187   4.640   0.906
 8211SOL    HW225533   3.096   4.703   0.786
 8212SOL     OW25534   1.433   2.572   3.335
 8212SOL    HW125535   1.506   2.514   3.371
 8212SOL    HW225536   1.472   2.642   3.274
 8213SOL     OW25537   0.148   5.425   1.335
 8213SOL    HW125538   0.178   5.430   1.240
 8213SOL    HW225539   0.176   5.338   1.374
 8214SOL     OW25540   4.975   4.371   3.321
 8214SOL    HW125541   4.926   4.389   3.236
 8214SOL    HW225542   4.974   4.273   3.340
 8215SOL     OW25543   3.238   5.222   4.561
 8215SOL    HW125544   3.237   5.122   4.562
 8215SOL    HW225545   3.153   5.256   4.520
 8216SOL     OW25546   4.452   4.513   3.607
 8216SOL    HW125547   4.476   4.609   3.616
 8216SOL    HW225548   4.473   4.465   3.692
 8217SOL     OW25549   2.515   6.511   0.428
 8217SOL    HW125550   2.475   6.423   0.455
 8217SOL    HW225551   2.615   6.506   0.437
 8218SOL     OW25552   0.604   1.389   0.040
 8218SOL    HW125553   0.591   1.321   6.985
 8218SOL    HW225554   0.521   1.444   0.051
 8219SOL     OW25555   6.052   2.045   6.568
 8219SOL    HW125556   6.131   2.070   6.624
 8219SOL    HW225557   6.002   1.971   6.613
 8220SOL     OW25558   3.537   3.364   2.998
 8220SOL    HW125559   3.527   3.399   2.905
 8220SOL    HW225560   3.507   3.433   3.063
 8221SOL     OW25561   5.210   5.837   3.542
 8221SOL    HW125562   5.245   5.751   3.503
 8221SOL    HW225563   5.134   5.871   3.487
 8222SOL     OW25564   5.533   1.604   2.203
 8222SOL    HW125565   5.504   1.525   2.257
 8222SOL    HW225566   5.608   1.651   2.250
 8223SOL     OW25567   0.383   4.841   5.917
 8223SOL    HW125568   0.420   4.757   5.878
 8223SOL    HW225569   0.309   4.819   5.980
 8224SOL     OW25570   1.357   2.869   3.947
 8224SOL    HW125571   1.420   2.836   3.877
 8224SOL    HW225572   1.342   2.967   3.935
 8225SOL     OW25573   4.696   1.535   6.948
 8225SOL    HW125574   4.691   1.505   0.027
 8225SOL    HW225575   4.777   1.495   6.905
 8226SOL     OW25576   5.072   0.937   0.777
 8226SOL    HW125577   5.006   0.999   0.733
 8226SOL    HW225578   5.026   0.851   0.800
 8227SOL     OW25579   6.411   2.892   3.422
 8227SOL    HW125580   6.423   2.795   3.402
 8227SOL    HW225581   6.394   2.942   3.337
 8228SOL     OW25582   6.755   2.958   5.039
 8228SOL    HW125583   6.766   2.946   5.137
 8228SOL    HW225584   6.723   3.051   5.020
 8229SOL     OW25585   3.631   5.088   7.016
 8229SOL    HW125586   3.725   5.060   6.997
 8229SOL    HW225587   3.568   5.032   6.963
 8230SOL     OW25588   5.483   0.426   4.507
 8230SOL    HW125589   5.392   0.465   4.495
 8230SOL    HW225590   5.488   0.381   4.596
 8231SOL     OW25591   5.327   5.652   0.640
 8231SOL    HW125592   5.282   5.731   0.683
 8231SOL    HW225593   5.353   5.587   0.711
 8232SOL     OW25594   3.760   1.782   6.773
 8232SOL    HW125595   3.698   1.723   6.722
 8232SOL    HW225596   3.721   1.874   6.779
 8233SOL     OW25597   0.716   5.358   6.198
 8233SOL    HW125598   0.629   5.325   6.163
 8233SOL    HW225599   0.728   5.329   6.293
 8234SOL     OW25600   2.949   2.496   6.933
 8234SOL    HW125601   3.008   2.449   6.999
 8234SOL    HW225602   3.003   2.562   6.881
 8235SOL     OW25603   4.305   3.435   1.351
 8235SOL    HW125604   4.337   3.482   1.433
 8235SOL    HW225605   4.224   3.380   1.372
 8236SOL     OW25606   6.346   2.697   0.122
 8236SOL    HW125607   6.288   2.640   0.064
 8236SOL    HW225608   6.363   2.784   0.076
 8237SOL     OW25609   3.839   5.954   5.536
 8237SOL    HW125610   3.815   6.051   5.544
 8237SOL    HW225611   3.762   5.898   5.568
 8238SOL     OW25612   1.913   3.131   6.522
 8238SOL    HW125613   1.942   3.185   6.443
 8238SOL    HW225614   1.853   3.058   6.491
 8239SOL     OW25615   6.891   1.276   5.588
 8239SOL    HW125616   6.869   1.365   5.628
 8239SOL    HW225617   6.816   1.247   5.529
 8240SOL     OW25618   3.644   4.151   2.992
 8240SOL    HW125619   3.682   4.059   3.003
 8240SOL    HW225620   3.611   4.163   2.899
 8241SOL     OW25621   3.513   6.859   0.266
 8241SOL    HW125622   3.431   6.901   0.303
 8241SOL    HW225623   3.550   6.916   0.193
 8242SOL     OW25624   0.934   4.776   5.485
 8242SOL    HW125625   0.928   4.734   5.394
 8242SOL    HW225626   0.848   4.760   5.534
 8243SOL     OW25627   0.616   3.199   5.374
 8243SOL    HW125628   0.632   3.143   5.455
 8243SOL    HW225629   0.595   3.140   5.296
 8244SOL     OW25630   0.773   6.381   3.902
 8244SOL    HW125631   0.840   6.307   3.906
 8244SOL    HW225632   0.787   6.443   3.979
 8245SOL     OW25633   4.277   1.970   1.063
 8245SOL    HW125634   4.340   2.041   1.095
 8245SOL    HW225635   4.302   1.943   0.970
 8246SOL     OW25636   5.591   3.339   6.131
 8246SOL    HW125637   5.522   3.353   6.202
 8246SOL    HW225638   5.610   3.426   6.085
 8247SOL     OW25639   0.870   0.098   1.587
 8247SOL    HW125640   0.913   0.180   1.625
 8247SOL    HW225641   0.922   0.067   1.508
 8248SOL     OW25642   5.464   4.306   3.788
 8248SOL    HW125643   5.478   4.217   3.830
 8248SOL    HW225644   5.381   4.304   3.732
 8249SOL     OW25645   1.685   4.607   4.061
 8249SOL    HW125646   1.739   4.546   4.118
 8249SOL    HW225647   1.665   4.691   4.111
 8250SOL     OW25648   4.068   3.830   2.932
 8250SOL    HW125649   4.035   3.772   3.006
 8250SOL    HW225650   4.154   3.794   2.896
 8251SOL     OW25651   5.675   1.687   5.032
 8251SOL    HW125652   5.588   1.640   5.012
 8251SOL    HW225653   5.666   1.737   5.118
 8252SOL     OW25654   1.871   2.695   5.854
 8252SOL    HW125655   1.876   2.638   5.772
 8252SOL    HW225656   1.931   2.774   5.843
 8253SOL     OW25657   3.348   2.800   5.185
 8253SOL    HW125658   3.289   2.721   5.202
 8253SOL    HW225659   3.305   2.860   5.117
 8254SOL     OW25660   4.098   4.855   3.686
 8254SOL    HW125661   4.159   4.799   3.743
 8254SOL    HW225662   4.007   4.856   3.728
 8255SOL     OW25663   4.220   5.729   4.131
 8255SOL    HW125664   4.124   5.700   4.124
 8255SOL    HW225665   4.252   5.715   4.224
 8256SOL     OW25666   5.957   1.451   4.470
 8256SOL    HW125667   5.949   1.536   4.419
 8256SOL    HW225668   6.000   1.469   4.559
 8257SOL     OW25669   5.426   4.941   3.319
 8257SOL    HW125670   5.462   5.028   3.283
 8257SOL    HW225671   5.501   4.875   3.326
 8258SOL     OW25672   4.164   1.430   0.322
 8258SOL    HW125673   4.070   1.402   0.302
 8258SOL    HW225674   4.164   1.492   0.401
 8259SOL     OW25675   3.586   2.061   3.520
 8259SOL    HW125676   3.493   2.052   3.486
 8259SOL    HW225677   3.590   2.033   3.616
 8260SOL     OW25678   2.960   6.726   0.699
 8260SOL    HW125679   2.897   6.765   0.632
 8260SOL    HW225680   2.937   6.758   0.790
 8261SOL     OW25681   5.450   1.278   1.670
 8261SOL    HW125682   5.402   1.191   1.664
 8261SOL    HW225683   5.507   1.291   1.589
 8262SOL     OW25684   1.043   2.999   1.952
 8262SOL    HW125685   1.125   2.948   1.925
 8262SOL    HW225686   1.052   3.029   2.046
 8263SOL     OW25687   6.468   1.415   1.215
 8263SOL    HW125688   6.371   1.422   1.191
 8263SOL    HW225689   6.486   1.327   1.259
 8264SOL     OW25690   1.524   5.582   2.738
 8264SOL    HW125691   1.620   5.581   2.767
 8264SOL    HW225692   1.517   5.546   2.645
 8265SOL     OW25693   1.622   0.474   2.021
 8265SOL    HW125694   1.700   0.496   2.079
 8265SOL    HW225695   1.596   0.556   1.969
 8266SOL     OW25696   3.119   6.599   2.542
 8266SOL    HW125697   3.161   6.684   2.511
 8266SOL    HW225698   3.021   6.602   2.524
 8267SOL     OW25699   1.417   3.277   1.481
 8267SOL    HW125700   1.453   3.214   1.413
 8267SOL    HW225701   1.405   3.368   1.440
 8268SOL     OW25702   2.125   6.758   5.933
 8268SOL    HW125703   2.224   6.770   5.932
 8268SOL    HW225704   2.081   6.848   5.936
 8269SOL     OW25705   5.639   1.401   1.056
 8269SOL    HW125706   5.714   1.357   1.106
 8269SOL    HW225707   5.592   1.466   1.116
 8270SOL     OW25708   3.452   6.367   3.934
 8270SOL    HW125709   3.494   6.457   3.948
 8270SOL    HW225710   3.353   6.377   3.924
 8271SOL     OW25711   0.038   1.674   3.276
 8271SOL    HW125712   6.992   1.660   3.353
 8271SOL    HW225713   0.066   1.585   3.240
 8272SOL     OW25714   3.950   0.844   2.619
 8272SOL    HW125715   4.026   0.860   2.557
 8272SOL    HW225716   3.880   0.913   2.605
 8273SOL     OW25717   2.857   0.128   0.954
 8273SOL    HW125718   2.846   0.221   0.920
 8273SOL    HW225719   2.864   0.128   1.053
 8274SOL     OW25720   4.868   5.272   3.001
 8274SOL    HW125721   4.840   5.186   2.959
 8274SOL    HW225722   4.957   5.300   2.964
 8275SOL     OW25723   4.807   1.979   6.230
 8275SOL    HW125724   4.836   1.890   6.265
 8275SOL    HW225725   4.845   1.993   6.138
 8276SOL     OW25726   1.092   2.118   4.425
 8276SOL    HW125727   1.095   2.216   4.403
 8276SOL    HW225728   1.006   2.079   4.392
 8277SOL     OW25729   6.929   6.969   6.548
 8277SOL    HW125730   0.009   6.974   6.573
 8277SOL    HW225731   6.905   6.874   6.526
 8278SOL     OW25732   2.530   1.725   0.112
 8278SOL    HW125733   2.459   1.656   0.096
 8278SOL    HW225734   2.620   1.682   0.111
 8279SOL     OW25735   0.656   6.512   4.408
 8279SOL    HW125736   0.593   6.587   4.385
 8279SOL    HW225737   0.618   6.426   4.376
 8280SOL     OW25738   3.263   2.709   5.978
 8280SOL    HW125739   3.331   2.782   5.970
 8280SOL    HW225740   3.283   2.638   5.910
 8281SOL     OW25741   0.256   6.188   1.606
 8281SOL    HW125742   0.285   6.141   1.690
 8281SOL    HW225743   0.245   6.121   1.532
 8282SOL     OW25744   5.135   2.868   6.247
 8282SOL    HW125745   5.225   2.847   6.285
 8282SOL    HW225746   5.085   2.783   6.232
 8283SOL     OW25747   1.340   3.842   6.219
 8283SOL    HW125748   1.332   3.867   6.122
 8283SOL    HW225749   1.428   3.872   6.254
 8284SOL     OW25750   6.764   4.490   2.181
 8284SOL    HW125751   6.732   4.512   2.274
 8284SOL    HW225752   6.702   4.530   2.114
 8285SOL     OW25753   4.104   3.236   5.146
 8285SOL    HW125754   4.042   3.202   5.217
 8285SOL    HW225755   4.198   3.227   5.177
 8286SOL     OW25756   6.451   2.337   6.175
 8286SOL    HW125757   6.431   2.299   6.084
 8286SOL    HW225758   6.458   2.437   6.168
 8287SOL     OW25759   1.037   6.052   4.334
 8287SOL    HW125760   0.993   5.992   4.268
 8287SOL    HW225761   1.124   6.012   4.364
 8288SOL     OW25762   2.076   3.015   2.747
 8288SOL    HW125763   2.096   2.976   2.837
 8288SOL    HW225764   1.976   3.021   2.735
 8289SOL     OW25765   0.841   0.379   0.758
 8289SOL    HW125766   0.938   0.395   0.740
 8289SOL    HW225767   0.826   0.375   0.857
 8290SOL     OW25768   6.239   1.880   0.690
 8290SOL    HW125769   6.273   1.934   0.767
 8290SOL    HW225770   6.151   1.917   0.660
 8291SOL     OW25771   4.039   6.754   6.275
 8291SOL    HW125772   4.121   6.699   6.261
 8291SOL    HW225773   4.065   6.851   6.282
 8292SOL     OW25774   3.219   6.353   6.895
 8292SOL    HW125775   3.244   6.258   6.916
 8292SOL    HW225776   3.293   6.414   6.922
 8293SOL     OW25777   4.426   6.512   5.912
 8293SOL    HW125778   4.360   6.447   5.875
 8293SOL    HW225779   4.499   6.462   5.958
 8294SOL     OW25780   5.949   2.764   6.436
 8294SOL    HW125781   6.018   2.819   6.485
 8294SOL    HW225782   5.987   2.673   6.416
 8295SOL     OW25783   5.395   4.203   1.522
 8295SOL    HW125784   5.463   4.220   1.451
 8295SOL    HW225785   5.442   4.190   1.610
 8296SOL     OW25786   1.655   5.656   6.997
 8296SOL    HW125787   1.602   5.719   6.939
 8296SOL    HW225788   1.713   5.709   0.042
 8297SOL     OW25789   6.150   2.577   3.449
 8297SOL    HW125790   6.192   2.546   3.535
 8297SOL    HW225791   6.052   2.559   3.452
 8298SOL     OW25792   4.898   1.267   1.745
 8298SOL    HW125793   4.823   1.265   1.812
 8298SOL    HW225794   4.966   1.334   1.774
 8299SOL     OW25795   6.418   3.337   1.918
 8299SOL    HW125796   6.475   3.311   1.841
 8299SOL    HW225797   6.364   3.418   1.894
 8300SOL     OW25798   0.759   4.643   4.938
 8300SOL    HW125799   0.677   4.629   4.882
 8300SOL    HW225800   0.827   4.573   4.916
 8301SOL     OW25801   4.328   2.834   1.428
 8301SOL    HW125802   4.263   2.812   1.501
 8301SOL    HW225803   4.420   2.842   1.468
 8302SOL     OW25804   6.405   6.523   6.552
 8302SOL    HW125805   6.496   6.564   6.555
 8302SOL    HW225806   6.412   6.425   6.571
 8303SOL     OW25807   0.717   0.106   4.656
 8303SOL    HW125808   0.648   0.107   4.728
 8303SOL    HW225809   0.679   0.063   4.574
 8304SOL     OW25810   0.569   3.902   6.409
 8304SOL    HW125811   0.644   3.965   6.427
 8304SOL    HW225812   0.593   3.842   6.333
 8305SOL     OW25813   3.557   5.276   3.989
 8305SOL    HW125814   3.607   5.190   3.977
 8305SOL    HW225815   3.492   5.265   4.064
 8306SOL     OW25816   0.978   3.192   5.075
 8306SOL    HW125817   1.012   3.167   5.166
 8306SOL    HW225818   0.953   3.110   5.025
 8307SOL     OW25819   3.471   5.488   0.419
 8307SOL    HW125820   3.522   5.556   0.366
 8307SOL    HW225821   3.462   5.521   0.513
 8308SOL     OW25822   4.189   6.536   1.630
 8308SOL    HW125823   4.257   6.526   1.703
 8308SOL    HW225824   4.196   6.628   1.591
 8309SOL     OW25825   5.670   6.217   2.363
 8309SOL    HW125826   5.739   6.146   2.348
 8309SOL    HW225827   5.714   6.306   2.366
 8310SOL     OW25828   0.672   5.050   0.422
 8310SOL    HW125829   0.658   5.050   0.522
 8310SOL    HW225830   0.635   4.966   0.383
 8311SOL     OW25831   6.760   0.737   6.591
 8311SOL    HW125832   6.723   0.775   6.675
 8311SOL    HW225833   6.846   0.691   6.610
 8312SOL     OW25834   5.444   6.628   1.844
 8312SOL    HW125835   5.471   6.579   1.762
 8312SOL    HW225836   5.501   6.598   1.921
 8313SOL     OW25837   3.892   1.518   3.118
 8313SOL    HW125838   3.964   1.559   3.176
 8313SOL    HW225839   3.935   1.466   3.044
 8314SOL     OW25840   5.674   0.021   1.869
 8314SOL    HW125841   5.759   0.046   1.916
 8314SOL    HW225842   5.645   0.096   1.810
 8315SOL     OW25843   4.744   3.383   0.605
 8315SOL    HW125844   4.656   3.337   0.595
 8315SOL    HW225845   4.746   3.431   0.693
 8316SOL     OW25846   1.353   4.558   0.812
 8316SOL    HW125847   1.275   4.586   0.868
 8316SOL    HW225848   1.412   4.638   0.795
 8317SOL     OW25849   1.879   4.209   2.642
 8317SOL    HW125850   1.951   4.168   2.587
 8317SOL    HW225851   1.853   4.147   2.716
 8318SOL     OW25852   3.823   1.363   4.940
 8318SOL    HW125853   3.911   1.397   4.974
 8318SOL    HW225854   3.800   1.409   4.855
 8319SOL     OW25855   3.473   0.892   5.283
 8319SOL    HW125856   3.452   0.841   5.199
 8319SOL    HW225857   3.559   0.942   5.270
 8320SOL     OW25858   2.832   4.729   1.253
 8320SOL    HW125859   2.803   4.634   1.264
 8320SOL    HW225860   2.767   4.789   1.298
 8321SOL     OW25861   0.831   0.772   0.279
 8321SOL    HW125862   0.776   0.855   0.288
 8321SOL    HW225863   0.926   0.797   0.257
 8322SOL     OW25864   0.232   0.012   0.376
 8322SOL    HW125865   0.204   6.942   0.418
 8322SOL    HW225866   0.283   7.010   0.292
 8323SOL     OW25867   0.819   0.792   2.799
 8323SOL    HW125868   0.820   0.741   2.885
 8323SOL    HW225869   0.866   0.880   2.812
 8324SOL     OW25870   5.935   0.897   2.188
 8324SOL    HW125871   5.992   0.947   2.254
 8324SOL    HW225872   5.921   0.952   2.106
 8325SOL     OW25873   3.580   2.894   3.916
 8325SOL    HW125874   3.554   2.822   3.981
 8325SOL    HW225875   3.586   2.981   3.964
 8326SOL     OW25876   4.269   3.386   5.892
 8326SOL    HW125877   4.194   3.371   5.828
 8326SOL    HW225878   4.328   3.459   5.858
 8327SOL     OW25879   5.771   2.524   6.249
 8327SOL    HW125880   5.715   2.528   6.332
 8327SOL    HW225881   5.745   2.597   6.187
 8328SOL     OW25882   2.251   3.000   6.357
 8328SOL    HW125883   2.312   2.992   6.278
 8328SOL    HW225884   2.301   3.038   6.434
 8329SOL     OW25885   6.988   3.192   5.013
 8329SOL    HW125886   0.029   3.249   4.955
 8329SOL    HW225887   7.011   3.096   5.000
 8330SOL     OW25888   1.547   6.404   0.565
 8330SOL    HW125889   1.559   6.433   0.660
 8330SOL    HW225890   1.611   6.454   0.507
 8331SOL     OW25891   2.992   0.617   1.295
 8331SOL    HW125892   2.975   0.581   1.203
 8331SOL    HW225893   3.012   0.542   1.357
 8332SOL     OW25894   4.542   5.046   1.845
 8332SOL    HW125895   4.484   4.985   1.899
 8332SOL    HW225896   4.577   4.997   1.766
 8333SOL     OW25897   0.751   5.948   0.239
 8333SOL    HW125898   0.808   5.962   0.158
 8333SOL    HW225899   0.703   5.860   0.232
 8334SOL     OW25900   6.752   1.785   3.683
 8334SOL    HW125901   6.703   1.698   3.690
 8334SOL    HW225902   6.687   1.857   3.657
 8335SOL     OW25903   6.112   5.967   5.736
 8335SOL    HW125904   6.082   5.934   5.825
 8335SOL    HW225905   6.088   6.063   5.726
 8336SOL     OW25906   0.486   1.728   2.125
 8336SOL    HW125907   0.572   1.769   2.096
 8336SOL    HW225908   0.412   1.794   2.111
 8337SOL     OW25909   0.643   5.991   2.241
 8337SOL    HW125910   0.584   6.055   2.290
 8337SOL    HW225911   0.732   6.033   2.224
 8338SOL     OW25912   1.964   5.093   1.153
 8338SOL    HW125913   1.950   5.081   1.252
 8338SOL    HW225914   2.060   5.074   1.131
 8339SOL     OW25915   5.578   1.279   2.693
 8339SOL    HW125916   5.562   1.285   2.791
 8339SOL    HW225917   5.497   1.243   2.648
 8340SOL     OW25918   4.908   4.047   0.549
 8340SOL    HW125919   4.954   3.958   0.549
 8340SOL    HW225920   4.975   4.119   0.529
 8341SOL     OW25921   1.627   6.821   1.136
 8341SOL    HW125922   1.716   6.833   1.092
 8341SOL    HW225923   1.620   6.728   1.172
 8342SOL     OW25924   3.618   0.726   0.735
 8342SOL    HW125925   3.585   0.705   0.827
 8342SOL    HW225926   3.549   0.699   0.668
 8343SOL     OW25927   1.265   5.813   6.656
 8343SOL    HW125928   1.223   5.903   6.646
 8343SOL    HW225929   1.253   5.760   6.571
 8344SOL     OW25930   4.307   6.305   6.199
 8344SOL    HW125931   4.387   6.334   6.146
 8344SOL    HW225932   4.327   6.315   6.297
 8345SOL     OW25933   5.966   1.104   3.171
 8345SOL    HW125934   6.061   1.134   3.180
 8345SOL    HW225935   5.935   1.063   3.257
 8346SOL     OW25936   2.505   4.846   0.985
 8346SOL    HW125937   2.441   4.856   1.061
 8346SOL    HW225938   2.596   4.876   1.013
 8347SOL     OW25939   2.735   6.656   5.182
 8347SOL    HW125940   2.683   6.607   5.111
 8347SOL    HW225941   2.672   6.708   5.240
 8348SOL     OW25942   1.177   0.378   1.141
 8348SOL    HW125943   1.084   0.384   1.106
 8348SOL    HW225944   1.175   0.343   1.235
 8349SOL     OW25945   6.069   3.400   0.524
 8349SOL    HW125946   6.155   3.364   0.560
 8349SOL    HW225947   6.076   3.500   0.514
 8350SOL     OW25948   6.173   1.057   5.436
 8350SOL    HW125949   6.085   1.048   5.483
 8350SOL    HW225950   6.243   1.004   5.486
 8351SOL     OW25951   3.192   6.309   3.897
 8351SOL    HW125952   3.148   6.398   3.913
 8351SOL    HW225953   3.150   6.265   3.817
 8352SOL     OW25954   6.642   6.827   2.154
 8352SOL    HW125955   6.728   6.833   2.204
 8352SOL    HW225956   6.587   6.909   2.172
 8353SOL     OW25957   6.315   3.562   1.767
 8353SOL    HW125958   6.242   3.552   1.835
 8353SOL    HW225959   6.361   3.650   1.780
 8354SOL     OW25960   2.895   1.251   6.872
 8354SOL    HW125961   2.844   1.329   6.908
 8354SOL    HW225962   2.855   1.222   6.785
 8355SOL     OW25963   3.239   0.204   0.144
 8355SOL    HW125964   3.326   0.250   0.130
 8355SOL    HW225965   3.167   0.271   0.157
 8356SOL     OW25966   1.470   6.122   0.207
 8356SOL    HW125967   1.543   6.055   0.218
 8356SOL    HW225968   1.387   6.090   0.252
 8357SOL     OW25969   3.963   5.701   4.593
 8357SOL    HW125970   3.977   5.800   4.590
 8357SOL    HW225971   3.911   5.677   4.675
 8358SOL     OW25972   1.948   2.861   5.460
 8358SOL    HW125973   1.947   2.901   5.368
 8358SOL    HW225974   1.876   2.904   5.515
 8359SOL     OW25975   4.219   5.348   4.284
 8359SOL    HW125976   4.183   5.441   4.282
 8359SOL    HW225977   4.247   5.320   4.192
 8360SOL     OW25978   4.608   0.008   3.091
 8360SOL    HW125979   4.659   0.075   3.144
 8360SOL    HW225980   4.522   0.048   3.060
 8361SOL     OW25981   1.620   1.353   2.798
 8361SOL    HW125982   1.590   1.432   2.852
 8361SOL    HW225983   1.719   1.354   2.791
 8362SOL     OW25984   2.118   2.413   0.263
 8362SOL    HW125985   2.045   2.391   0.328
 8362SOL    HW225986   2.207   2.390   0.305
 8363SOL     OW25987   0.726   2.632   0.738
 8363SOL    HW125988   0.726   2.732   0.746
 8363SOL    HW225989   0.814   2.601   0.702
 8364SOL     OW25990   5.936   3.574   3.094
 8364SOL    HW125991   5.947   3.666   3.131
 8364SOL    HW225992   6.024   3.526   3.099
 8365SOL     OW25993   1.441   3.317   0.387
 8365SOL    HW125994   1.509   3.333   0.459
 8365SOL    HW225995   1.474   3.246   0.325
 8366SOL     OW25996   4.673   6.234   2.592
 8366SOL    HW125997   4.650   6.149   2.545
 8366SOL    HW225998   4.671   6.219   2.691
 8367SOL     OW25999   4.785   6.326   3.829
 8367SOL    HW126000   4.746   6.241   3.866
 8367SOL    HW226001   4.844   6.368   3.898
 8368SOL     OW26002   2.377   5.206   5.983
 8368SOL    HW126003   2.347   5.293   5.944
 8368SOL    HW226004   2.321   5.132   5.945
 8369SOL     OW26005   2.498   1.188   0.068
 8369SOL    HW126006   2.433   1.249   0.023
 8369SOL    HW226007   2.494   1.098   0.025
 8370SOL     OW26008   1.115   2.074   6.397
 8370SOL    HW126009   1.184   2.050   6.466
 8370SOL    HW226010   1.028   2.030   6.420
 8371SOL     OW26011   1.355   2.880   0.502
 8371SOL    HW126012   1.287   2.886   0.429
 8371SOL    HW226013   1.324   2.813   0.570
 8372SOL     OW26014   6.986   0.506   2.511
 8372SOL    HW126015   6.942   0.487   2.598
 8372SOL    HW226016   0.039   0.578   2.523
 8373SOL     OW26017   1.306   6.081   5.673
 8373SOL    HW126018   1.369   6.041   5.607
 8373SOL    HW226019   1.355   6.148   5.729
 8374SOL     OW26020   6.647   0.695   6.987
 8374SOL    HW126021   6.721   0.641   6.947
 8374SOL    HW226022   6.682   0.748   0.048
 8375SOL     OW26023   3.185   6.740   6.172
 8375SOL    HW126024   3.112   6.805   6.150
 8375SOL    HW226025   3.172   6.656   6.118
 8376SOL     OW26026   2.997   0.397   3.640
 8376SOL    HW126027   3.063   0.392   3.565
 8376SOL    HW226028   3.043   0.431   3.722
 8377SOL     OW26029   6.617   5.051   1.651
 8377SOL    HW126030   6.519   5.058   1.634
 8377SOL    HW226031   6.641   5.105   1.731
 8378SOL     OW26032   5.617   3.237   2.929
 8378SOL    HW126033   5.701   3.280   2.897
 8378SOL    HW226034   5.569   3.299   2.991
 8379SOL     OW26035   6.472   3.482   1.547
 8379SOL    HW126036   6.515   3.392   1.551
 8379SOL    HW226037   6.401   3.488   1.617
 8380SOL     OW26038   5.462   1.567   2.703
 8380SOL    HW126039   5.489   1.661   2.684
 8380SOL    HW226040   5.442   1.557   2.800
 8381SOL     OW26041   1.044   5.403   4.650
 8381SOL    HW126042   1.021   5.467   4.577
 8381SOL    HW226043   0.972   5.404   4.719
 8382SOL     OW26044   1.158   2.588   2.525
 8382SOL    HW126045   1.210   2.671   2.542
 8382SOL    HW226046   1.154   2.571   2.426
 8383SOL     OW26047   2.650   2.205   6.759
 8383SOL    HW126048   2.736   2.252   6.740
 8383SOL    HW226049   2.649   2.117   6.711
 8384SOL     OW26050   6.965   6.354   1.864
 8384SOL    HW126051   0.029   6.371   1.921
 8384SOL    HW226052   6.944   6.436   1.810
 8385SOL     OW26053   4.754   2.290   2.436
 8385SOL    HW126054   4.804   2.240   2.365
 8385SOL    HW226055   4.756   2.238   2.521
 8386SOL     OW26056   0.663   4.071   2.811
 8386SOL    HW126057   0.590   4.138   2.802
 8386SOL    HW226058   0.719   4.093   2.891
 8387SOL     OW26059   0.838   1.802   1.514
 8387SOL    HW126060   0.865   1.706   1.513
 8387SOL    HW226061   0.740   1.810   1.530
 8388SOL     OW26062   3.009   6.647   1.602
 8388SOL    HW126063   3.022   6.561   1.552
 8388SOL    HW226064   3.026   6.632   1.699
 8389SOL     OW26065   5.191   3.187   1.983
 8389SOL    HW126066   5.166   3.156   2.075
 8389SOL    HW226067   5.288   3.210   1.982
 8390SOL     OW26068   4.629   1.824   5.896
 8390SOL    HW126069   4.531   1.804   5.895
 8390SOL    HW226070   4.653   1.880   5.817
 8391SOL     OW26071   6.213   0.817   0.861
 8391SOL    HW126072   6.142   0.779   0.801
 8391SOL    HW226073   6.291   0.755   0.865
 8392SOL     OW26074   5.760   3.349   4.259
 8392SOL    HW126075   5.682   3.286   4.268
 8392SOL    HW226076   5.743   3.431   4.313
 8393SOL     OW26077   4.755   0.141   1.668
 8393SOL    HW126078   4.812   0.076   1.618
 8393SOL    HW226079   4.683   0.175   1.607
 8394SOL     OW26080   6.205   3.805   2.487
 8394SOL    HW126081   6.193   3.706   2.484
 8394SOL    HW226082   6.293   3.827   2.530
 8395SOL     OW26083   2.621   1.005   4.930
 8395SOL    HW126084   2.566   1.088   4.936
 8395SOL    HW226085   2.562   0.927   4.911
 8396SOL     OW26086   4.265   5.460   4.753
 8396SOL    HW126087   4.202   5.441   4.677
 8396SOL    HW226088   4.283   5.375   4.803
 8397SOL     OW26089   6.289   0.786   3.640
 8397SOL    HW126090   6.376   0.825   3.609
 8397SOL    HW226091   6.228   0.860   3.669
 8398SOL     OW26092   5.371   2.330   5.817
 8398SOL    HW126093   5.353   2.264   5.890
 8398SOL    HW226094   5.325   2.416   5.838
 8399SOL     OW26095   0.196   5.649   0.585
 8399SOL    HW126096   0.150   5.564   0.610
 8399SOL    HW226097   0.162   5.680   0.496
 8400SOL     OW26098   1.158   2.194   4.130
 8400SOL    HW126099   1.071   2.221   4.172
 8400SOL    HW226100   1.221   2.271   4.131
 8401SOL     OW26101   2.813   0.558   5.941
 8401SOL    HW126102   2.814   0.463   5.911
 8401SOL    HW226103   2.902   0.583   5.978
 8402SOL     OW26104   4.257   0.778   5.906
 8402SOL    HW126105   4.303   0.811   5.988
 8402SOL    HW226106   4.326   0.756   5.836
 8403SOL     OW26107   6.093   4.595   4.874
 8403SOL    HW126108   6.088   4.501   4.841
 8403SOL    HW226109   6.136   4.596   4.964
 8404SOL     OW26110   1.836   1.960   6.715
 8404SOL    HW126111   1.827   2.039   6.655
 8404SOL    HW226112   1.830   1.876   6.661
 8405SOL     OW26113   3.702   1.008   5.226
 8405SOL    HW126114   3.739   1.036   5.138
 8405SOL    HW226115   3.739   1.066   5.299
 8406SOL     OW26116   5.208   0.627   6.519
 8406SOL    HW126117   5.269   0.605   6.443
 8406SOL    HW226118   5.246   0.591   6.604
 8407SOL     OW26119   3.706   6.762   3.830
 8407SOL    HW126120   3.806   6.756   3.828
 8407SOL    HW226121   3.672   6.781   3.738
 8408SOL     OW26122   5.208   0.393   1.385
 8408SOL    HW126123   5.275   0.381   1.313
 8408SOL    HW226124   5.138   0.321   1.378
 8409SOL     OW26125   4.537   2.451   2.403
 8409SOL    HW126126   4.529   2.525   2.469
 8409SOL    HW226127   4.615   2.393   2.427
 8410SOL     OW26128   6.984   2.018   1.710
 8410SOL    HW126129   6.892   2.043   1.741
 8410SOL    HW226130   7.011   1.932   1.753
 8411SOL     OW26131   1.164   5.808   0.802
 8411SOL    HW126132   1.089   5.868   0.775
 8411SOL    HW226133   1.133   5.713   0.799
 8412SOL     OW26134   2.635   2.846   0.053
 8412SOL    HW126135   2.715   2.870   7.015
 8412SOL    HW226136   2.645   2.753   0.088
 8413SOL     OW26137   4.113   5.175   5.538
 8413SOL    HW126138   4.088   5.083   5.569
 8413SOL    HW226139   4.179   5.215   5.602
 8414SOL     OW26140   1.079   1.290   2.714
 8414SOL    HW126141   0.987   1.288   2.753
 8414SOL    HW226142   1.103   1.199   2.680
 8415SOL     OW26143   2.695   0.442   4.752
 8415SOL    HW126144   2.788   0.435   4.790
 8415SOL    HW226145   2.630   0.400   4.815
 8416SOL     OW26146   6.459   1.787   5.155
 8416SOL    HW126147   6.460   1.687   5.154
 8416SOL    HW226148   6.423   1.819   5.242
 8417SOL     OW26149   1.264   3.870   5.038
 8417SOL    HW126150   1.316   3.922   5.105
 8417SOL    HW226151   1.321   3.796   5.001
 8418SOL     OW26152   0.840   5.760   2.833
 8418SOL    HW126153   0.749   5.753   2.874
 8418SOL    HW226154   0.893   5.831   2.878
 8419SOL     OW26155   5.228   0.880   4.152
 8419SOL    HW126156   5.151   0.849   4.097
 8419SOL    HW226157   5.304   0.816   4.141
 8420SOL     OW26158   3.200   6.855   2.410
 8420SOL    HW126159   3.176   6.944   2.373
 8420SOL    HW226160   3.186   6.785   2.339
 8421SOL     OW26161   3.901   6.002   6.327
 8421SOL    HW126162   3.822   6.064   6.327
 8421SOL    HW226163   3.885   5.928   6.262
 8422SOL     OW26164   4.587   2.616   3.131
 8422SOL    HW126165   4.564   2.522   3.104
 8422SOL    HW226166   4.614   2.617   3.228
 8423SOL     OW26167   5.684   4.513   6.198
 8423SOL    HW126168   5.627   4.433   6.184
 8423SOL    HW226169   5.732   4.536   6.114
 8424SOL     OW26170   2.217   6.955   3.461
 8424SOL    HW126171   2.237   0.034   3.485
 8424SOL    HW226172   2.121   6.935   3.481
 8425SOL     OW26173   3.157   3.710   3.262
 8425SOL    HW126174   3.202   3.677   3.179
 8425SOL    HW226175   3.110   3.796   3.242
 8426SOL     OW26176   3.610   2.923   1.902
 8426SOL    HW126177   3.529   2.924   1.844
 8426SOL    HW226178   3.625   3.014   1.940
 8427SOL     OW26179   2.883   3.728   3.672
 8427SOL    HW126180   2.936   3.679   3.602
 8427SOL    HW226181   2.788   3.699   3.668
 8428SOL     OW26182   6.966   0.556   1.001
 8428SOL    HW126183   0.027   0.603   1.044
 8428SOL    HW226184   7.000   0.481   0.944
 8429SOL     OW26185   1.557   5.662   6.585
 8429SOL    HW126186   1.569   5.683   6.488
 8429SOL    HW226187   1.538   5.746   6.635
 8430SOL     OW26188   4.476   6.506   4.681
 8430SOL    HW126189   4.447   6.472   4.591
 8430SOL    HW226190   4.397   6.508   4.743
 8431SOL     OW26191   3.285   3.829   5.844
 8431SOL    HW126192   3.287   3.811   5.746
 8431SOL    HW226193   3.346   3.766   5.891
 8432SOL     OW26194   6.442   5.894   6.826
 8432SOL    HW126195   6.446   5.913   6.728
 8432SOL    HW226196   6.366   5.832   6.845
 8433SOL     OW26197   5.205   2.396   0.687
 8433SOL    HW126198   5.300   2.402   0.658
 8433SOL    HW226199   5.201   2.394   0.787
 8434SOL     OW26200   2.085   5.304   5.207
 8434SOL    HW126201   2.167   5.252   5.232
 8434SOL    HW226202   2.109   5.401   5.197
 8435SOL     OW26203   5.194   1.026   2.946
 8435SOL    HW126204   5.229   0.933   2.952
 8435SOL    HW226205   5.139   1.046   3.027
 8436SOL     OW26206   2.248   6.750   2.900
 8436SOL    HW126207   2.173   6.741   2.966
 8436SOL    HW226208   2.333   6.716   2.940
 8437SOL     OW26209   2.135   3.092   2.181
 8437SOL    HW126210   2.218   3.139   2.212
 8437SOL    HW226211   2.063   3.160   2.164
 8438SOL     OW26212   1.537   4.409   2.591
 8438SOL    HW126213   1.547   4.405   2.491
 8438SOL    HW226214   1.475   4.337   2.621
 8439SOL     OW26215   5.844   5.995   3.590
 8439SOL    HW126216   5.857   5.897   3.576
 8439SOL    HW226217   5.922   6.032   3.641
 8440SOL     OW26218   1.658   1.226   3.448
 8440SOL    HW126219   1.620   1.276   3.370
 8440SOL    HW226220   1.755   1.208   3.433
 8441SOL     OW26221   5.733   0.264   5.511
 8441SOL    HW126222   5.666   0.221   5.450
 8441SOL    HW226223   5.822   0.222   5.497
 8442SOL     OW26224   3.724   1.398   5.573
 8442SOL    HW126225   3.759   1.309   5.543
 8442SOL    HW226226   3.795   1.467   5.560
 8443SOL     OW26227   1.671   4.571   3.446
 8443SOL    HW126228   1.771   4.571   3.442
 8443SOL    HW226229   1.638   4.477   3.455
 8444SOL     OW26230   4.897   5.455   3.381
 8444SOL    HW126231   4.803   5.427   3.364
 8444SOL    HW226232   4.904   5.494   3.473
 8445SOL     OW26233   4.278   6.125   6.821
 8445SOL    HW126234   4.205   6.059   6.834
 8445SOL    HW226235   4.334   6.098   6.742
 8446SOL     OW26236   0.680   6.108   5.465
 8446SOL    HW126237   0.631   6.148   5.387
 8446SOL    HW226238   0.702   6.180   5.531
 8447SOL     OW26239   4.154   1.550   2.995
 8447SOL    HW126240   4.223   1.520   3.061
 8447SOL    HW226241   4.183   1.636   2.954
 8448SOL     OW26242   4.507   6.491   3.024
 8448SOL    HW126243   4.498   6.581   3.068
 8448SOL    HW226244   4.590   6.489   2.969
 8449SOL     OW26245   1.795   2.265   2.792
 8449SOL    HW126246   1.822   2.189   2.732
 8449SOL    HW226247   1.819   2.352   2.749
 8450SOL     OW26248   6.860   0.447   0.181
 8450SOL    HW126249   6.895   0.354   0.175
 8450SOL    HW226250   6.906   0.504   0.113
 8451SOL     OW26251   4.946   2.313   1.413
 8451SOL    HW126252   4.851   2.321   1.440
 8451SOL    HW226253   5.001   2.283   1.491
 8452SOL     OW26254   5.343   1.852   5.169
 8452SOL    HW126255   5.289   1.929   5.133
 8452SOL    HW226256   5.301   1.766   5.138
 8453SOL     OW26257   0.494   5.564   0.342
 8453SOL    HW126258   0.539   5.627   0.278
 8453SOL    HW226259   0.505   5.599   0.435
 8454SOL     OW26260   0.875   4.202   0.429
 8454SOL    HW126261   0.854   4.178   0.334
 8454SOL    HW226262   0.789   4.215   0.479
 8455SOL     OW26263   0.990   0.421   2.640
 8455SOL    HW126264   0.952   0.450   2.728
 8455SOL    HW226265   0.929   0.449   2.566
 8456SOL     OW26266   5.736   1.490   3.731
 8456SOL    HW126267   5.704   1.532   3.816
 8456SOL    HW226268   5.696   1.399   3.721
 8457SOL     OW26269   5.987   5.834   4.498
 8457SOL    HW126270   5.996   5.737   4.522
 8457SOL    HW226271   5.897   5.867   4.528
 8458SOL     OW26272   0.204   0.219   6.915
 8458SOL    HW126273   0.127   0.162   6.886
 8458SOL    HW226274   0.208   0.301   6.858
 8459SOL     OW26275   1.608   5.532   3.072
 8459SOL    HW126276   1.524   5.479   3.071
 8459SOL    HW226277   1.643   5.540   2.978
 8460SOL     OW26278   3.185   3.886   5.007
 8460SOL    HW126279   3.151   3.936   4.927
 8460SOL    HW226280   3.186   3.947   5.086
 8461SOL     OW26281   6.110   3.851   3.959
 8461SOL    HW126282   6.016   3.885   3.968
 8461SOL    HW226283   6.108   3.751   3.948
 8462SOL     OW26284   2.204   2.545   1.491
 8462SOL    HW126285   2.218   2.644   1.486
 8462SOL    HW226286   2.195   2.517   1.586
 8463SOL     OW26287   5.765   0.834   2.616
 8463SOL    HW126288   5.803   0.745   2.590
 8463SOL    HW226289   5.735   0.883   2.535
 8464SOL     OW26290   5.747   2.856   4.708
 8464SOL    HW126291   5.822   2.888   4.765
 8464SOL    HW226292   5.757   2.895   4.616
 8465SOL     OW26293   1.423   2.552   0.376
 8465SOL    HW126294   1.365   2.605   0.437
 8465SOL    HW226295   1.517   2.553   0.410
 8466SOL     OW26296   1.049   6.178   3.329
 8466SOL    HW126297   1.096   6.103   3.282
 8466SOL    HW226298   1.046   6.258   3.269
 8467SOL     OW26299   3.089   5.522   0.812
 8467SOL    HW126300   3.032   5.486   0.886
 8467SOL    HW226301   3.146   5.596   0.846
 8468SOL     OW26302   4.441   1.797   6.644
 8468SOL    HW126303   4.412   1.837   6.557
 8468SOL    HW226304   4.532   1.831   6.668
 8469SOL     OW26305   3.396   2.593   6.805
 8469SOL    HW126306   3.440   2.592   6.895
 8469SOL    HW226307   3.441   2.661   6.747
 8470SOL     OW26308   2.729   3.181   6.810
 8470SOL    HW126309   2.775   3.235   6.880
 8470SOL    HW226310   2.740   3.225   6.721
 8471SOL     OW26311   3.626   0.866   4.107
 8471SOL    HW126312   3.636   0.929   4.184
 8471SOL    HW226313   3.659   0.910   4.023
 8472SOL     OW26314   1.511   6.584   4.470
 8472SOL    HW126315   1.515   6.660   4.535
 8472SOL    HW226316   1.430   6.594   4.413
 8473SOL     OW26317   6.548   5.138   6.943
 8473SOL    HW126318   6.639   5.126   6.904
 8473SOL    HW226319   6.479   5.115   6.874
 8474SOL     OW26320   3.497   3.793   1.422
 8474SOL    HW126321   3.445   3.871   1.386
 8474SOL    HW226322   3.466   3.772   1.514
 8475SOL     OW26323   5.801   1.499   2.711
 8475SOL    HW126324   5.707   1.466   2.709
 8475SOL    HW226325   5.861   1.430   2.671
 8476SOL     OW26326   4.505   0.514   2.159
 8476SOL    HW126327   4.534   0.446   2.226
 8476SOL    HW226328   4.555   0.599   2.174
 8477SOL     OW26329   2.939   0.843   1.492
 8477SOL    HW126330   2.880   0.915   1.454
 8477SOL    HW226331   2.969   0.783   1.418
 8478SOL     OW26332   1.317   0.253   5.313
 8478SOL    HW126333   1.336   0.155   5.303
 8478SOL    HW226334   1.326   0.279   5.409
 8479SOL     OW26335   5.920   1.049   1.044
 8479SOL    HW126336   5.948   1.130   0.993
 8479SOL    HW226337   5.830   1.020   1.013
 8480SOL     OW26338   2.788   1.187   1.509
 8480SOL    HW126339   2.875   1.218   1.547
 8480SOL    HW226340   2.784   1.210   1.412
 8481SOL     OW26341   3.722   0.679   4.356
 8481SOL    HW126342   3.760   0.737   4.283
 8481SOL    HW226343   3.627   0.705   4.374
 8482SOL     OW26344   1.736   6.903   2.037
 8482SOL    HW126345   1.722   6.938   1.944
 8482SOL    HW226346   1.667   6.833   2.056
 8483SOL     OW26347   4.100   6.121   0.903
 8483SOL    HW126348   4.093   6.148   0.999
 8483SOL    HW226349   4.009   6.115   0.863
 8484SOL     OW26350   0.546   5.246   4.555
 8484SOL    HW126351   0.526   5.317   4.623
 8484SOL    HW226352   0.477   5.174   4.561
 8485SOL     OW26353   2.227   3.284   7.003
 8485SOL    HW126354   2.187   3.318   6.918
 8485SOL    HW226355   2.312   3.234   6.983
 8486SOL     OW26356   5.524   0.833   2.304
 8486SOL    HW126357   5.594   0.895   2.339
 8486SOL    HW226358   5.433   0.870   2.321
 8487SOL     OW26359   4.602   0.078   0.769
 8487SOL    HW126360   4.515   0.095   0.815
 8487SOL    HW226361   4.604   0.128   0.682
 8488SOL     OW26362   4.894   3.188   4.216
 8488SOL    HW126363   4.857   3.136   4.139
 8488SOL    HW226364   4.891   3.132   4.299
 8489SOL     OW26365   4.676   4.713   1.521
 8489SOL    HW126366   4.751   4.646   1.520
 8489SOL    HW226367   4.588   4.664   1.526
 8490SOL     OW26368   4.427   5.125   2.482
 8490SOL    HW126369   4.422   5.028   2.503
 8490SOL    HW226370   4.369   5.145   2.403
 8491SOL     OW26371   2.382   0.780   2.550
 8491SOL    HW126372   2.330   0.755   2.468
 8491SOL    HW226373   2.451   0.848   2.526
 8492SOL     OW26374   6.145   3.152   4.879
 8492SOL    HW126375   6.221   3.127   4.819
 8492SOL    HW226376   6.119   3.247   4.861
 8493SOL     OW26377   4.430   1.534   6.753
 8493SOL    HW126378   4.484   1.522   6.836
 8493SOL    HW226379   4.451   1.624   6.713
 8494SOL     OW26380   3.594   5.415   6.356
 8494SOL    HW126381   3.641   5.453   6.436
 8494SOL    HW226382   3.503   5.457   6.349
 8495SOL     OW26383   6.887   2.827   1.313
 8495SOL    HW126384   6.865   2.793   1.404
 8495SOL    HW226385   6.884   2.752   1.248
 8496SOL     OW26386   0.214   2.768   4.025
 8496SOL    HW126387   0.262   2.831   4.087
 8496SOL    HW226388   0.281   2.724   3.965
 8497SOL     OW26389   5.757   5.724   2.920
 8497SOL    HW126390   5.811   5.766   2.993
 8497SOL    HW226391   5.709   5.795   2.868
 8498SOL     OW26392   0.455   0.988   0.961
 8498SOL    HW126393   0.493   0.924   0.894
 8498SOL    HW226394   0.415   0.936   1.037
 8499SOL     OW26395   3.212   4.184   6.182
 8499SOL    HW126396   3.298   4.143   6.212
 8499SOL    HW226397   3.145   4.177   6.256
 8500SOL     OW26398   2.823   6.498   6.056
 8500SOL    HW126399   2.830   6.439   5.976
 8500SOL    HW226400   2.793   6.445   6.135
 8501SOL     OW26401   1.573   3.499   6.643
 8501SOL    HW126402   1.500   3.565   6.662
 8501SOL    HW226403   1.562   3.461   6.552
 8502SOL     OW26404   6.121   0.127   1.709
 8502SOL    HW126405   6.091   0.211   1.755
 8502SOL    HW226406   6.118   0.140   1.610
 8503SOL     OW26407   2.732   4.720   3.304
 8503SOL    HW126408   2.806   4.763   3.356
 8503SOL    HW226409   2.704   4.635   3.350
 8504SOL     OW26410   1.443   5.311   3.120
 8504SOL    HW126411   1.502   5.231   3.110
 8504SOL    HW226412   1.427   5.328   3.218
 8505SOL     OW26413   5.000   3.280   3.580
 8505SOL    HW126414   4.965   3.188   3.599
 8505SOL    HW226415   4.958   3.314   3.495
 8506SOL     OW26416   1.648   6.533   0.272
 8506SOL    HW126417   1.744   6.560   0.278
 8506SOL    HW226418   1.605   6.580   0.196
 8507SOL     OW26419   1.318   0.897   5.596
 8507SOL    HW126420   1.224   0.918   5.569
 8507SOL    HW226421   1.357   0.975   5.645
 8508SOL     OW26422   0.516   2.130   5.859
 8508SOL    HW126423   0.614   2.111   5.853
 8508SOL    HW226424   0.469   2.048   5.894
 8509SOL     OW26425   6.422   2.052   4.650
 8509SOL    HW126426   6.428   1.986   4.725
 8509SOL    HW226427   6.376   2.135   4.683
 8510SOL     OW26428   5.424   6.133   2.363
 8510SOL    HW126429   5.520   6.161   2.363
 8510SOL    HW226430   5.412   6.055   2.425
 8511SOL     OW26431   6.480   4.817   1.860
 8511SOL    HW126432   6.552   4.886   1.873
 8511SOL    HW226433   6.470   4.797   1.763
 8512SOL     OW26434   5.508   2.557   0.053
 8512SOL    HW126435   5.476   2.556   0.148
 8512SOL    HW226436   5.447   2.613   7.014
 8513SOL     OW26437   6.325   4.706   1.200
 8513SOL    HW126438   6.423   4.720   1.183
 8513SOL    HW226439   6.303   4.734   1.293
 8514SOL     OW26440   2.772   1.981   5.105
 8514SOL    HW126441   2.864   2.019   5.107
 8514SOL    HW226442   2.729   2.004   5.018
 8515SOL     OW26443   0.994   0.810   0.812
 8515SOL    HW126444   0.939   0.748   0.756
 8515SOL    HW226445   0.935   0.855   0.879
 8516SOL     OW26446   6.253   2.574   2.126
 8516SOL    HW126447   6.214   2.663   2.102
 8516SOL    HW226448   6.178   2.511   2.151
 8517SOL     OW26449   1.378   2.595   5.329
 8517SOL    HW126450   1.415   2.658   5.261
 8517SOL    HW226451   1.399   2.501   5.303
 8518SOL     OW26452   5.332   4.790   6.359
 8518SOL    HW126453   5.418   4.788   6.307
 8518SOL    HW226454   5.287   4.701   6.352
 8519SOL     OW26455   1.555   3.768   1.154
 8519SOL    HW126456   1.642   3.764   1.202
 8519SOL    HW226457   1.524   3.863   1.149
 8520SOL     OW26458   4.124   3.615   4.877
 8520SOL    HW126459   4.165   3.683   4.937
 8520SOL    HW226460   4.180   3.605   4.795
 8521SOL     OW26461   1.695   5.813   5.622
 8521SOL    HW126462   1.678   5.730   5.570
 8521SOL    HW226463   1.634   5.886   5.591
 8522SOL     OW26464   1.114   6.345   0.664
 8522SOL    HW126465   1.151   6.438   0.668
 8522SOL    HW226466   1.186   6.282   0.634
 8523SOL     OW26467   2.579   0.176   6.376
 8523SOL    HW126468   2.546   0.090   6.339
 8523SOL    HW226469   2.501   0.230   6.409
 8524SOL     OW26470   1.540   5.623   4.632
 8524SOL    HW126471   1.464   5.560   4.649
 8524SOL    HW226472   1.552   5.683   4.711
 8525SOL     OW26473   0.285   5.020   1.584
 8525SOL    HW126474   0.347   4.951   1.545
 8525SOL    HW226475   0.233   4.979   1.660
 8526SOL     OW26476   2.789   6.794   0.477
 8526SOL    HW126477   2.855   6.844   0.420
 8526SOL    HW226478   2.722   6.858   0.515
 8527SOL     OW26479   3.547   0.245   6.178
 8527SOL    HW126480   3.465   0.289   6.139
 8527SOL    HW226481   3.529   0.148   6.193
 8528SOL     OW26482   5.283   2.323   0.321
 8528SOL    HW126483   5.226   2.393   0.364
 8528SOL    HW226484   5.366   2.310   0.375
 8529SOL     OW26485   1.094   6.309   6.545
 8529SOL    HW126486   1.071   6.368   6.623
 8529SOL    HW226487   1.049   6.343   6.463
 8530SOL     OW26488   2.966   3.772   4.152
 8530SOL    HW126489   2.998   3.867   4.155
 8530SOL    HW226490   2.955   3.738   4.245
 8531SOL     OW26491   6.772   5.865   3.210
 8531SOL    HW126492   6.850   5.876   3.271
 8531SOL    HW226493   6.770   5.771   3.176
 8532SOL     OW26494   3.365   6.110   4.204
 8532SOL    HW126495   3.304   6.188   4.191
 8532SOL    HW226496   3.451   6.143   4.243
 8533SOL     OW26497   1.160   6.494   6.320
 8533SOL    HW126498   1.232   6.490   6.389
 8533SOL    HW226499   1.190   6.552   6.244
 8534SOL     OW26500   4.417   2.386   4.112
 8534SOL    HW126501   4.364   2.371   4.029
 8534SOL    HW226502   4.467   2.473   4.105
 8535SOL     OW26503   6.084   1.030   3.562
 8535SOL    HW126504   6.036   1.003   3.645
 8535SOL    HW226505   6.030   1.005   3.481
 8536SOL     OW26506   0.032   0.833   4.423
 8536SOL    HW126507   0.106   0.779   4.381
 8536SOL    HW226508   6.964   0.821   4.371
 8537SOL     OW26509   0.028   0.956   3.072
 8537SOL    HW126510   0.017   0.987   3.167
 8537SOL    HW226511   7.002   1.022   3.011
 8538SOL     OW26512   1.287   2.456   0.147
 8538SOL    HW126513   1.345   2.484   0.223
 8538SOL    HW226514   1.341   2.407   0.079
 8539SOL     OW26515   6.742   2.726   3.022
 8539SOL    HW126516   6.758   2.789   2.946
 8539SOL    HW226517   6.680   2.654   2.992
 8540SOL     OW26518   4.277   0.079   0.349
 8540SOL    HW126519   4.193   0.033   0.322
 8540SOL    HW226520   4.286   0.079   0.449
 8541SOL     OW26521   2.152   2.426   3.649
 8541SOL    HW126522   2.242   2.462   3.623
 8541SOL    HW226523   2.148   2.328   3.629
 8542SOL     OW26524   3.989   3.951   6.616
 8542SOL    HW126525   4.079   3.940   6.659
 8542SOL    HW226526   3.989   3.905   6.527
 8543SOL     OW26527   1.843   2.487   6.833
 8543SOL    HW126528   1.921   2.531   6.789
 8543SOL    HW226529   1.806   2.548   6.903
 8544SOL     OW26530   5.542   2.519   4.062
 8544SOL    HW126531   5.528   2.459   3.984
 8544SOL    HW226532   5.614   2.585   4.041
 8545SOL     OW26533   5.252   6.492   5.039
 8545SOL    HW126534   5.312   6.473   4.962
 8545SOL    HW226535   5.307   6.516   5.119
 8546SOL     OW26536   4.789   1.390   4.502
 8546SOL    HW126537   4.829   1.481   4.491
 8546SOL    HW226538   4.817   1.332   4.426
 8547SOL     OW26539   1.048   4.898   3.459
 8547SOL    HW126540   1.090   4.981   3.422
 8547SOL    HW226541   1.104   4.819   3.433
 8548SOL     OW26542   5.691   1.370   5.120
 8548SOL    HW126543   5.635   1.440   5.164
 8548SOL    HW226544   5.674   1.371   5.021
 8549SOL     OW26545   6.488   3.332   4.367
 8549SOL    HW126546   6.402   3.309   4.413
 8549SOL    HW226547   6.476   3.326   4.268
 8550SOL     OW26548   1.325   4.870   6.438
 8550SOL    HW126549   1.232   4.880   6.403
 8550SOL    HW226550   1.376   4.808   6.379
 8551SOL     OW26551   3.322   4.023   6.961
 8551SOL    HW126552   3.366   4.019   6.871
 8551SOL    HW226553   3.332   3.935   7.007
 8552SOL     OW26554   2.185   6.623   4.047
 8552SOL    HW126555   2.272   6.591   4.086
 8552SOL    HW226556   2.133   6.545   4.012
 8553SOL     OW26557   5.093   6.778   0.763
 8553SOL    HW126558   5.151   6.725   0.825
 8553SOL    HW226559   5.149   6.844   0.713
 8554SOL     OW26560   6.884   4.011   0.016
 8554SOL    HW126561   6.834   4.098   0.019
 8554SOL    HW226562   6.819   3.936   0.013
 8555SOL     OW26563   1.655   6.636   3.912
 8555SOL    HW126564   1.602   6.718   3.890
 8555SOL    HW226565   1.698   6.647   4.001
 8556SOL     OW26566   6.268   0.318   3.859
 8556SOL    HW126567   6.362   0.285   3.860
 8556SOL    HW226568   6.265   0.411   3.824
 8557SOL     OW26569   6.915   0.212   1.139
 8557SOL    HW126570   7.007   0.220   1.176
 8557SOL    HW226571   6.917   0.163   1.052
 8558SOL     OW26572   1.201   4.976   1.995
 8558SOL    HW126573   1.288   4.957   2.040
 8558SOL    HW226574   1.216   5.035   1.916
 8559SOL     OW26575   1.392   6.939   1.493
 8559SOL    HW126576   1.377   7.004   1.568
 8559SOL    HW226577   1.478   6.962   1.446
 8560SOL     OW26578   6.395   1.774   0.479
 8560SOL    HW126579   6.359   1.822   0.400
 8560SOL    HW226580   6.354   1.811   0.562
 8561SOL     OW26581   4.547   6.122   3.558
 8561SOL    HW126582   4.614   6.056   3.592
 8561SOL    HW226583   4.595   6.200   3.518
 8562SOL     OW26584   3.495   6.629   3.949
 8562SOL    HW126585   3.468   6.664   4.039
 8562SOL    HW226586   3.550   6.698   3.902
 8563SOL     OW26587   2.837   2.415   6.678
 8563SOL    HW126588   2.773   2.481   6.638
 8563SOL    HW226589   2.875   2.452   6.762
 8564SOL     OW26590   1.176   6.767   3.312
 8564SOL    HW126591   1.254   6.795   3.368
 8564SOL    HW226592   1.202   6.767   3.216
 8565SOL     OW26593   3.659   6.616   1.081
 8565SOL    HW126594   3.655   6.608   0.982
 8565SOL    HW226595   3.698   6.705   1.105
 8566SOL     OW26596   1.618   2.419   3.506
 8566SOL    HW126597   1.633   2.344   3.442
 8566SOL    HW226598   1.698   2.479   3.508
 8567SOL     OW26599   5.267   1.108   1.341
 8567SOL    HW126600   5.361   1.090   1.370
 8567SOL    HW226601   5.254   1.207   1.331
 8568SOL     OW26602   5.541   1.364   0.067
 8568SOL    HW126603   5.571   1.280   0.021
 8568SOL    HW226604   5.605   1.438   0.045
 8569SOL     OW26605   4.240   1.492   4.704
 8569SOL    HW126606   4.299   1.481   4.624
 8569SOL    HW226607   4.170   1.560   4.684
 8570SOL     OW26608   0.385   4.099   0.051
 8570SOL    HW126609   0.437   4.117   0.134
 8570SOL    HW226610   0.293   4.068   0.075
 8571SOL     OW26611   6.975   4.275   4.906
 8571SOL    HW126612   0.006   4.354   4.946
 8571SOL    HW226613   6.962   4.205   4.976
 8572SOL     OW26614   2.495   4.938   5.184
 8572SOL    HW126615   2.469   4.913   5.277
 8572SOL    HW226616   2.463   4.867   5.121
 8573SOL     OW26617   3.343   5.671   5.591
 8573SOL    HW126618   3.375   5.756   5.634
 8573SOL    HW226619   3.346   5.682   5.492
 8574SOL     OW26620   0.931   3.694   5.763
 8574SOL    HW126621   1.021   3.702   5.720
 8574SOL    HW226622   0.903   3.598   5.763
 8575SOL     OW26623   3.304   2.570   0.543
 8575SOL    HW126624   3.297   2.664   0.508
 8575SOL    HW226625   3.214   2.540   0.575
 8576SOL     OW26626   1.791   0.133   1.576
 8576SOL    HW126627   1.781   0.222   1.620
 8576SOL    HW226628   1.726   0.126   1.501
 8577SOL     OW26629   6.378   5.940   3.237
 8577SOL    HW126630   6.442   5.935   3.160
 8577SOL    HW226631   6.365   6.036   3.264
 8578SOL     OW26632   4.398   6.768   3.413
 8578SOL    HW126633   4.391   6.840   3.482
 8578SOL    HW226634   4.367   6.681   3.453
 8579SOL     OW26635   1.380   5.260   3.438
 8579SOL    HW126636   1.296   5.298   3.477
 8579SOL    HW226637   1.435   5.218   3.510
 8580SOL     OW26638   1.918   5.411   0.513
 8580SOL    HW126639   1.828   5.424   0.471
 8580SOL    HW226640   1.979   5.485   0.486
 8581SOL     OW26641   3.249   1.687   1.314
 8581SOL    HW126642   3.326   1.627   1.336
 8581SOL    HW226643   3.273   1.782   1.333
 8582SOL     OW26644   3.962   4.255   1.635
 8582SOL    HW126645   3.863   4.271   1.632
 8582SOL    HW226646   4.009   4.327   1.584
 8583SOL     OW26647   6.137   0.093   6.036
 8583SOL    HW126648   6.196   0.111   6.115
 8583SOL    HW226649   6.042   0.117   6.059
 8584SOL     OW26650   6.812   5.922   0.330
 8584SOL    HW126651   6.827   6.021   0.330
 8584SOL    HW226652   6.819   5.887   0.236
 8585SOL     OW26653   0.144   0.871   7.009
 8585SOL    HW126654   0.178   0.904   0.080
 8585SOL    HW226655   0.080   0.937   6.971
 8586SOL     OW26656   3.831   5.253   2.946
 8586SOL    HW126657   3.900   5.249   3.019
 8586SOL    HW226658   3.767   5.327   2.967
 8587SOL     OW26659   0.065   2.053   2.169
 8587SOL    HW126660   0.138   2.049   2.238
 8587SOL    HW226661   0.075   2.137   2.116
 8588SOL     OW26662   4.797   2.562   0.119
 8588SOL    HW126663   4.757   2.471   0.112
 8588SOL    HW226664   4.777   2.614   0.036
 8589SOL     OW26665   3.472   1.841   4.532
 8589SOL    HW126666   3.428   1.875   4.615
 8589SOL    HW226667   3.440   1.748   4.512
 8590SOL     OW26668   5.959   4.876   5.175
 8590SOL    HW126669   5.970   4.925   5.261
 8590SOL    HW226670   5.976   4.939   5.099
 8591SOL     OW26671   1.364   3.450   6.889
 8591SOL    HW126672   1.458   3.476   6.865
 8591SOL    HW226673   1.300   3.496   6.828
 8592SOL     OW26674   5.758   4.311   0.038
 8592SOL    HW126675   5.777   4.330   0.135
 8592SOL    HW226676   5.826   4.246   0.004
 8593SOL     OW26677   1.130   0.654   2.816
 8593SOL    HW126678   1.096   0.712   2.743
 8593SOL    HW226679   1.053   0.608   2.861
 8594SOL     OW26680   3.363   3.872   4.279
 8594SOL    HW126681   3.363   3.848   4.376
 8594SOL    HW226682   3.280   3.924   4.257
 8595SOL     OW26683   1.467   1.841   2.662
 8595SOL    HW126684   1.436   1.750   2.689
 8595SOL    HW226685   1.538   1.873   2.724
 8596SOL     OW26686   6.678   5.408   1.555
 8596SOL    HW126687   6.611   5.344   1.518
 8596SOL    HW226688   6.643   5.501   1.550
 8597SOL     OW26689   3.015   1.419   0.814
 8597SOL    HW126690   3.042   1.324   0.831
 8597SOL    HW226691   2.952   1.449   0.886
 8598SOL     OW26692   5.849   5.353   0.982
 8598SOL    HW126693   5.943   5.381   0.964
 8598SOL    HW226694   5.845   5.300   1.067
 8599SOL     OW26695   1.439   3.125   2.876
 8599SOL    HW126696   1.439   3.027   2.896
 8599SOL    HW226697   1.366   3.145   2.810
 8600SOL     OW26698   6.455   4.880   6.519
 8600SOL    HW126699   6.363   4.839   6.518
 8600SOL    HW226700   6.524   4.809   6.530
 8601SOL     OW26701   0.409   6.908   4.561
 8601SOL    HW126702   0.318   6.946   4.545
 8601SOL    HW226703   0.478   6.972   4.529
 8602SOL     OW26704   2.652   5.668   2.203
 8602SOL    HW126705   2.686   5.760   2.187
 8602SOL    HW226706   2.561   5.658   2.162
 8603SOL     OW26707   3.936   3.098   0.297
 8603SOL    HW126708   3.925   2.999   0.299
 8603SOL    HW226709   3.964   3.131   0.387
 8604SOL     OW26710   5.351   2.797   3.609
 8604SOL    HW126711   5.361   2.819   3.512
 8604SOL    HW226712   5.384   2.874   3.664
 8605SOL     OW26713   2.353   6.431   2.709
 8605SOL    HW126714   2.423   6.500   2.725
 8605SOL    HW226715   2.267   6.475   2.683
 8606SOL     OW26716   4.018   4.595   5.510
 8606SOL    HW126717   4.051   4.503   5.490
 8606SOL    HW226718   3.920   4.592   5.532
 8607SOL     OW26719   4.528   5.621   1.691
 8607SOL    HW126720   4.476   5.620   1.776
 8607SOL    HW226721   4.624   5.600   1.710
 8608SOL     OW26722   4.551   5.511   2.035
 8608SOL    HW126723   4.597   5.470   2.113
 8608SOL    HW226724   4.569   5.610   2.033
 8609SOL     OW26725   3.259   0.570   5.490
 8609SOL    HW126726   3.343   0.545   5.442
 8609SOL    HW226727   3.258   0.526   5.580
 8610SOL     OW26728   0.669   6.058   4.014
 8610SOL    HW126729   0.693   5.988   3.946
 8610SOL    HW226730   0.613   6.017   4.086
 8611SOL     OW26731   1.631   2.144   4.137
 8611SOL    HW126732   1.633   2.238   4.171
 8611SOL    HW226733   1.550   2.097   4.172
 8612SOL     OW26734   4.247   2.911   5.649
 8612SOL    HW126735   4.161   2.961   5.659
 8612SOL    HW226736   4.323   2.976   5.651
 8613SOL     OW26737   1.860   1.163   0.873
 8613SOL    HW126738   1.821   1.236   0.929
 8613SOL    HW226739   1.796   1.140   0.800
 8614SOL     OW26740   1.004   2.123   3.369
 8614SOL    HW126741   1.042   2.173   3.447
 8614SOL    HW226742   0.929   2.176   3.329
 8615SOL     OW26743   4.418   2.165   5.346
 8615SOL    HW126744   4.364   2.092   5.303
 8615SOL    HW226745   4.361   2.247   5.356
 8616SOL     OW26746   1.295   4.644   0.433
 8616SOL    HW126747   1.284   4.557   0.481
 8616SOL    HW226748   1.232   4.711   0.471
 8617SOL     OW26749   6.284   2.940   0.826
 8617SOL    HW126750   6.382   2.950   0.808
 8617SOL    HW226751   6.250   2.857   0.781
 8618SOL     OW26752   4.535   6.705   3.184
 8618SOL    HW126753   4.488   6.702   3.272
 8618SOL    HW226754   4.575   6.796   3.171
 8619SOL     OW26755   4.388   4.968   0.091
 8619SOL    HW126756   4.350   5.035   0.154
 8619SOL    HW226757   4.333   4.965   0.008
 8620SOL     OW26758   6.515   6.925   2.920
 8620SOL    HW126759   6.455   6.884   2.852
 8620SOL    HW226760   6.547   6.855   2.984
 8621SOL     OW26761   5.788   0.652   3.501
 8621SOL    HW126762   5.814   0.636   3.405
 8621SOL    HW226763   5.848   0.599   3.561
 8622SOL     OW26764   4.708   5.090   0.512
 8622SOL    HW126765   4.783   5.025   0.523
 8622SOL    HW226766   4.744   5.183   0.510
 8623SOL     OW26767   0.147   3.798   3.103
 8623SOL    HW126768   0.116   3.834   3.015
 8623SOL    HW226769   0.075   3.741   3.143
 8624SOL     OW26770   0.497   4.354   3.067
 8624SOL    HW126771   0.522   4.426   3.130
 8624SOL    HW226772   0.433   4.291   3.111
 8625SOL     OW26773   3.667   0.671   4.861
 8625SOL    HW126774   3.673   0.622   4.948
 8625SOL    HW226775   3.629   0.610   4.791
 8626SOL     OW26776   3.075   3.936   3.631
 8626SOL    HW126777   2.994   3.878   3.639
 8626SOL    HW226778   3.154   3.879   3.606
 8627SOL     OW26779   1.375   0.426   0.354
 8627SOL    HW126780   1.383   0.348   0.291
 8627SOL    HW226781   1.279   0.439   0.378
 8628SOL     OW26782   5.462   0.648   6.943
 8628SOL    HW126783   5.412   0.640   6.857
 8628SOL    HW226784   5.552   0.687   6.926
 8629SOL     OW26785   1.458   3.909   4.055
 8629SOL    HW126786   1.487   3.996   4.096
 8629SOL    HW226787   1.472   3.835   4.120
 8630SOL     OW26788   5.576   4.548   3.709
 8630SOL    HW126789   5.629   4.603   3.774
 8630SOL    HW226790   5.552   4.460   3.751
 8631SOL     OW26791   3.691   5.799   5.058
 8631SOL    HW126792   3.625   5.724   5.057
 8631SOL    HW226793   3.729   5.809   5.150
 8632SOL     OW26794   4.051   0.348   3.243
 8632SOL    HW126795   4.070   0.430   3.190
 8632SOL    HW226796   3.996   0.285   3.187
 8633SOL     OW26797   5.898   1.202   4.095
 8633SOL    HW126798   5.962   1.270   4.059
 8633SOL    HW226799   5.938   1.111   4.088
 8634SOL     OW26800   6.946   5.133   1.875
 8634SOL    HW126801   6.986   5.079   1.948
 8634SOL    HW226802   6.992   5.222   1.869
 8635SOL     OW26803   6.082   3.525   5.348
 8635SOL    HW126804   6.009   3.581   5.307
 8635SOL    HW226805   6.045   3.472   5.424
 8636SOL     OW26806   6.724   5.398   0.687
 8636SOL    HW126807   6.682   5.373   0.774
 8636SOL    HW226808   6.693   5.336   0.616
 8637SOL     OW26809   2.211   0.373   1.009
 8637SOL    HW126810   2.286   0.438   0.997
 8637SOL    HW226811   2.216   0.333   1.101
 8638SOL     OW26812   3.288   4.890   0.157
 8638SOL    HW126813   3.318   4.895   0.252
 8638SOL    HW226814   3.256   4.980   0.127
 8639SOL     OW26815   6.214   3.656   1.537
 8639SOL    HW126816   6.263   3.616   1.614
 8639SOL    HW226817   6.193   3.585   1.470
 8640SOL     OW26818   4.721   5.209   1.090
 8640SOL    HW126819   4.768   5.140   1.035
 8640SOL    HW226820   4.696   5.287   1.033
 8641SOL     OW26821   6.039   4.083   3.033
 8641SOL    HW126822   6.058   4.127   3.121
 8641SOL    HW226823   6.113   4.019   3.012
 8642SOL     OW26824   4.426   1.291   1.654
 8642SOL    HW126825   4.401   1.208   1.604
 8642SOL    HW226826   4.498   1.339   1.604
 8643SOL     OW26827   4.901   0.451   5.984
 8643SOL    HW126828   4.996   0.423   5.970
 8643SOL    HW226829   4.855   0.459   5.895
 8644SOL     OW26830   5.947   2.956   4.854
 8644SOL    HW126831   5.952   2.911   4.943
 8644SOL    HW226832   6.012   3.032   4.851
 8645SOL     OW26833   5.824   4.699   1.341
 8645SOL    HW126834   5.828   4.685   1.242
 8645SOL    HW226835   5.871   4.785   1.364
 8646SOL     OW26836   5.648   0.881   0.315
 8646SOL    HW126837   5.603   0.839   0.394
 8646SOL    HW226838   5.613   0.974   0.304
 8647SOL     OW26839   4.296   4.963   0.346
 8647SOL    HW126840   4.202   4.945   0.374
 8647SOL    HW226841   4.359   4.926   0.414
 8648SOL     OW26842   5.400   1.302   3.794
 8648SOL    HW126843   5.493   1.276   3.767
 8648SOL    HW226844   5.388   1.289   3.892
 8649SOL     OW26845   6.558   3.992   5.472
 8649SOL    HW126846   6.627   3.968   5.404
 8649SOL    HW226847   6.521   4.083   5.451
 8650SOL     OW26848   2.060   5.015   3.331
 8650SOL    HW126849   2.120   5.000   3.409
 8650SOL    HW226850   2.085   4.952   3.257
 8651SOL     OW26851   3.500   1.208   0.096
 8651SOL    HW126852   3.575   1.246   0.041
 8651SOL    HW226853   3.437   1.281   0.121
 8652SOL     OW26854   1.928   3.736   3.558
 8652SOL    HW126855   1.976   3.683   3.488
 8652SOL    HW226856   1.987   3.809   3.590
 8653SOL     OW26857   6.954   2.781   6.989
 8653SOL    HW126858   0.007   2.816   0.035
 8653SOL    HW226859   6.997   2.721   6.921
 8654SOL     OW26860   0.742   0.208   3.249
 8654SOL    HW126861   0.728   0.194   3.346
 8654SOL    HW226862   0.811   0.280   3.235
 8655SOL     OW26863   6.001   6.234   4.700
 8655SOL    HW126864   5.924   6.270   4.753
 8655SOL    HW226865   6.036   6.151   4.743
 8656SOL     OW26866   6.459   1.163   1.067
 8656SOL    HW126867   6.368   1.122   1.055
 8656SOL    HW226868   6.454   1.260   1.042
 8657SOL     OW26869   4.514   4.162   6.882
 8657SOL    HW126870   4.507   4.260   6.896
 8657SOL    HW226871   4.439   4.116   6.931
 8658SOL     OW26872   5.604   5.565   6.765
 8658SOL    HW126873   5.515   5.595   6.800
 8658SOL    HW226874   5.638   5.632   6.699
 8659SOL     OW26875   5.026   0.587   4.062
 8659SOL    HW126876   5.080   0.539   3.993
 8659SOL    HW226877   5.047   0.685   4.057
 8660SOL     OW26878   5.566   3.720   0.690
 8660SOL    HW126879   5.528   3.748   0.778
 8660SOL    HW226880   5.574   3.620   0.688
 8661SOL     OW26881   0.137   3.933   1.612
 8661SOL    HW126882   0.221   3.937   1.558
 8661SOL    HW226883   0.150   3.869   1.688
 8662SOL     OW26884   6.806   6.701   0.978
 8662SOL    HW126885   6.890   6.753   0.991
 8662SOL    HW226886   6.728   6.763   0.980
 8663SOL     OW26887   2.533   5.590   0.642
 8663SOL    HW126888   2.485   5.645   0.710
 8663SOL    HW226889   2.629   5.581   0.669
 8664SOL     OW26890   4.412   5.925   7.003
 8664SOL    HW126891   4.491   5.986   7.000
 8664SOL    HW226892   4.357   5.936   6.921
 8665SOL     OW26893   4.940   5.728   5.478
 8665SOL    HW126894   4.953   5.825   5.498
 8665SOL    HW226895   5.029   5.685   5.461
 8666SOL     OW26896   5.165   2.748   4.776
 8666SOL    HW126897   5.188   2.781   4.867
 8666SOL    HW226898   5.067   2.728   4.772
 8667SOL     OW26899   5.120   1.392   4.236
 8667SOL    HW126900   5.117   1.299   4.198
 8667SOL    HW226901   5.119   1.458   4.161
 8668SOL     OW26902   4.741   2.092   4.528
 8668SOL    HW126903   4.679   2.103   4.606
 8668SOL    HW226904   4.694   2.045   4.454
 8669SOL     OW26905   3.970   0.149   5.745
 8669SOL    HW126906   3.937   0.232   5.790
 8669SOL    HW226907   3.898   0.112   5.685
 8670SOL     OW26908   3.385   5.614   4.338
 8670SOL    HW126909   3.483   5.592   4.344
 8670SOL    HW226910   3.333   5.529   4.327
 8671SOL     OW26911   5.985   6.710   3.640
 8671SOL    HW126912   5.926   6.791   3.648
 8671SOL    HW226913   5.933   6.628   3.665
 8672SOL     OW26914   3.609   5.231   4.317
 8672SOL    HW126915   3.626   5.282   4.402
 8672SOL    HW226916   3.664   5.148   4.316
 8673SOL     OW26917   6.139   2.261   0.846
 8673SOL    HW126918   6.177   2.334   0.902
 8673SOL    HW226919   6.143   2.174   0.896
 8674SOL     OW26920   6.955   0.272   3.022
 8674SOL    HW126921   6.857   0.287   3.036
 8674SOL    HW226922   6.970   0.231   2.932
 8675SOL     OW26923   2.178   1.201   2.934
 8675SOL    HW126924   2.228   1.115   2.943
 8675SOL    HW226925   2.090   1.184   2.888
 8676SOL     OW26926   4.365   0.166   2.970
 8676SOL    HW126927   4.329   0.118   3.050
 8676SOL    HW226928   4.347   0.112   2.887
 8677SOL     OW26929   2.564   4.420   6.074
 8677SOL    HW126930   2.605   4.330   6.084
 8677SOL    HW226931   2.628   4.481   6.026
 8678SOL     OW26932   1.213   0.225   6.702
 8678SOL    HW126933   1.238   0.317   6.672
 8678SOL    HW226934   1.123   0.201   6.665
 8679SOL     OW26935   6.164   2.278   5.625
 8679SOL    HW126936   6.152   2.377   5.619
 8679SOL    HW226937   6.095   2.233   5.569
 8680SOL     OW26938   1.312   3.578   0.365
 8680SOL    HW126939   1.341   3.488   0.398
 8680SOL    HW226940   1.280   3.571   0.270
 8681SOL     OW26941   4.183   3.976   0.480
 8681SOL    HW126942   4.199   4.035   0.559
 8681SOL    HW226943   4.130   3.896   0.508
 8682SOL     OW26944   2.606   6.113   2.874
 8682SOL    HW126945   2.570   6.161   2.794
 8682SOL    HW226946   2.574   6.159   2.957
 8683SOL     OW26947   0.123   3.184   1.027
 8683SOL    HW126948   0.074   3.157   0.944
 8683SOL    HW226949   0.111   3.114   1.098
 8684SOL     OW26950   6.081   3.416   4.794
 8684SOL    HW126951   6.121   3.503   4.825
 8684SOL    HW226952   6.075   3.416   4.694
 8685SOL     OW26953   0.497   2.228   6.581
 8685SOL    HW126954   0.403   2.202   6.557
 8685SOL    HW226955   0.506   2.228   6.681
 8686SOL     OW26956   0.077   2.014   2.549
 8686SOL    HW126957   0.061   2.100   2.597
 8686SOL    HW226958   0.094   1.941   2.615
 8687SOL     OW26959   3.711   6.844   2.565
 8687SOL    HW126960   3.801   6.825   2.526
 8687SOL    HW226961   3.697   6.943   2.571
 8688SOL     OW26962   2.524   0.417   1.536
 8688SOL    HW126963   2.472   0.333   1.546
 8688SOL    HW226964   2.582   0.431   1.616
 8689SOL     OW26965   4.715   5.895   0.287
 8689SOL    HW126966   4.617   5.916   0.287
 8689SOL    HW226967   4.743   5.863   0.378
 8690SOL     OW26968   0.572   1.544   3.274
 8690SOL    HW126969   0.515   1.595   3.209
 8690SOL    HW226970   0.542   1.563   3.367
 8691SOL     OW26971   5.120   2.336   6.639
 8691SOL    HW126972   5.045   2.335   6.705
 8691SOL    HW226973   5.194   2.278   6.672
 8692SOL     OW26974   2.343   2.048   3.983
 8692SOL    HW126975   2.312   2.026   3.890
 8692SOL    HW226976   2.348   1.964   4.037
 8693SOL     OW26977   5.673   1.838   1.112
 8693SOL    HW126978   5.675   1.848   1.012
 8693SOL    HW226979   5.614   1.909   1.151
 8694SOL     OW26980   4.706   6.835   5.918
 8694SOL    HW126981   4.729   6.838   6.015
 8694SOL    HW226982   4.608   6.819   5.906
 8695SOL     OW26983   5.080   4.002   5.957
 8695SOL    HW126984   5.111   3.915   5.996
 8695SOL    HW226985   5.134   4.023   5.876
 8696SOL     OW26986   2.252   6.249   0.895
 8696SOL    HW126987   2.311   6.169   0.882
 8696SOL    HW226988   2.274   6.293   0.982
 8697SOL     OW26989   6.596   3.876   0.773
 8697SOL    HW126990   6.599   3.968   0.815
 8697SOL    HW226991   6.526   3.874   0.703
 8698SOL     OW26992   5.182   6.038   4.530
 8698SOL    HW126993   5.235   6.122   4.513
 8698SOL    HW226994   5.130   6.015   4.448
 8699SOL     OW26995   1.137   1.650   5.529
 8699SOL    HW126996   1.220   1.601   5.503
 8699SOL    HW226997   1.106   1.617   5.618
 8700SOL     OW26998   2.885   1.027   5.040
 8700SOL    HW126999   2.957   1.077   4.992
 8700SOL    HW227000   2.799   1.036   4.990
 8701SOL     OW27001   0.680   1.162   4.762
 8701SOL    HW127002   0.668   1.161   4.861
 8701SOL    HW227003   0.775   1.184   4.740
 8702SOL     OW27004   5.494   5.206   0.104
 8702SOL    HW127005   5.511   5.108   0.103
 8702SOL    HW227006   5.525   5.246   0.018
 8703SOL     OW27007   2.726   5.800   0.918
 8703SOL    HW127008   2.804   5.833   0.971
 8703SOL    HW227009   2.744   5.812   0.821
 8704SOL     OW27010   0.005   4.694   2.167
 8704SOL    HW127011   6.941   4.655   2.122
 8704SOL    HW227012   0.088   4.655   2.128
 8705SOL     OW27013   4.967   0.331   6.291
 8705SOL    HW127014   5.031   0.405   6.313
 8705SOL    HW227015   4.923   0.350   6.203
 8706SOL     OW27016   5.192   1.905   0.048
 8706SOL    HW127017   5.127   1.831   0.030
 8706SOL    HW227018   5.206   1.914   0.147
 8707SOL     OW27019   4.782   2.873   6.068
 8707SOL    HW127020   4.746   2.874   6.161
 8707SOL    HW227021   4.842   2.952   6.056
 8708SOL     OW27022   4.014   1.192   1.345
 8708SOL    HW127023   4.043   1.110   1.395
 8708SOL    HW227024   3.957   1.249   1.404
 8709SOL     OW27025   6.970   4.414   0.667
 8709SOL    HW127026   6.873   4.398   0.688
 8709SOL    HW227027   6.995   4.364   0.584
 8710SOL     OW27028   2.059   3.647   2.945
 8710SOL    HW127029   2.087   3.721   2.885
 8710SOL    HW227030   2.062   3.560   2.895
 8711SOL     OW27031   6.532   0.825   3.336
 8711SOL    HW127032   6.631   0.841   3.332
 8711SOL    HW227033   6.491   0.887   3.403
 8712SOL     OW27034   3.393   1.357   4.981
 8712SOL    HW127035   3.455   1.430   5.010
 8712SOL    HW227036   3.428   1.269   5.013
 8713SOL     OW27037   6.603   4.715   3.805
 8713SOL    HW127038   6.607   4.749   3.899
 8713SOL    HW227039   6.528   4.760   3.756
 8714SOL     OW27040   1.317   0.660   5.728
 8714SOL    HW127041   1.260   0.656   5.810
 8714SOL    HW227042   1.306   0.749   5.684
 8715SOL     OW27043   6.600   2.055   1.589
 8715SOL    HW127044   6.571   2.114   1.664
 8715SOL    HW227045   6.652   2.108   1.522
 8716SOL     OW27046   1.063   1.231   1.500
 8716SOL    HW127047   1.126   1.283   1.558
 8716SOL    HW227048   1.110   1.152   1.462
 8717SOL     OW27049   4.207   3.748   1.759
 8717SOL    HW127050   4.248   3.837   1.739
 8717SOL    HW227051   4.162   3.752   1.848
 8718SOL     OW27052   0.068   2.937   4.969
 8718SOL    HW127053   0.000   2.871   4.937
 8718SOL    HW227054   0.103   2.988   4.891
 8719SOL     OW27055   1.119   0.470   5.261
 8719SOL    HW127056   1.197   0.408   5.272
 8719SOL    HW227057   1.041   0.419   5.225
 8720SOL     OW27058   5.705   4.125   5.504
 8720SOL    HW127059   5.776   4.169   5.558
 8720SOL    HW227060   5.729   4.130   5.407
 8721SOL     OW27061   0.041   2.461   4.700
 8721SOL    HW127062   0.030   2.389   4.768
 8721SOL    HW227063   0.103   2.531   4.735
 8722SOL     OW27064   3.793   2.402   0.659
 8722SOL    HW127065   3.742   2.481   0.692
 8722SOL    HW227066   3.864   2.378   0.726
 8723SOL     OW27067   6.899   5.314   1.008
 8723SOL    HW127068   6.827   5.381   1.029
 8723SOL    HW227069   6.988   5.359   1.013
 8724SOL     OW27070   5.490   0.421   5.687
 8724SOL    HW127071   5.464   0.325   5.699
 8724SOL    HW227072   5.589   0.428   5.675
 8725SOL     OW27073   2.043   6.942   0.604
 8725SOL    HW127074   1.982   6.864   0.589
 8725SOL    HW227075   2.124   6.933   0.546
 8726SOL     OW27076   5.806   0.305   1.418
 8726SOL    HW127077   5.838   0.214   1.447
 8726SOL    HW227078   5.804   0.366   1.497
 8727SOL     OW27079   6.747   6.569   1.464
 8727SOL    HW127080   6.679   6.553   1.536
 8727SOL    HW227081   6.761   6.668   1.453
 8728SOL     OW27082   2.700   6.564   4.739
 8728SOL    HW127083   2.689   6.483   4.681
 8728SOL    HW227084   2.789   6.561   4.785
 8729SOL     OW27085   4.230   5.609   3.686
 8729SOL    HW127086   4.287   5.575   3.760
 8729SOL    HW227087   4.204   5.533   3.626
 8730SOL     OW27088   0.120   6.070   2.005
 8730SOL    HW127089   0.192   6.014   2.048
 8730SOL    HW227090   0.158   6.158   1.979
 8731SOL     OW27091   1.255   1.940   3.203
 8731SOL    HW127092   1.299   1.871   3.145
 8731SOL    HW227093   1.157   1.924   3.205
 8732SOL     OW27094   5.605   3.549   1.365
 8732SOL    HW127095   5.601   3.451   1.385
 8732SOL    HW227096   5.607   3.562   1.266
 8733SOL     OW27097   1.291   6.499   1.866
 8733SOL    HW127098   1.253   6.590   1.880
 8733SOL    HW227099   1.345   6.498   1.782
 8734SOL     OW27100   6.787   6.002   0.968
 8734SOL    HW127101   6.845   5.973   1.044
 8734SOL    HW227102   6.716   6.064   1.002
 8735SOL     OW27103   6.793   1.812   6.532
 8735SOL    HW127104   6.704   1.846   6.502
 8735SOL    HW227105   6.811   1.723   6.489
 8736SOL     OW27106   0.851   4.733   6.825
 8736SOL    HW127107   0.935   4.754   6.877
 8736SOL    HW227108   0.788   4.682   6.884
 8737SOL     OW27109   3.473   6.083   6.363
 8737SOL    HW127110   3.495   6.017   6.435
 8737SOL    HW227111   3.400   6.047   6.306
 8738SOL     OW27112   1.597   3.752   3.851
 8738SOL    HW127113   1.551   3.675   3.808
 8738SOL    HW227114   1.532   3.802   3.908
 8739SOL     OW27115   0.059   3.565   5.365
 8739SOL    HW127116   6.987   3.520   5.378
 8739SOL    HW227117   0.106   3.572   5.454
 8740SOL     OW27118   2.996   7.002   0.027
 8740SOL    HW127119   2.966   6.908   0.015
 8740SOL    HW227120   3.084   7.014   6.997
 8741SOL     OW27121   1.622   3.259   2.554
 8741SOL    HW127122   1.531   3.237   2.520
 8741SOL    HW227123   1.614   3.309   2.641
 8742SOL     OW27124   4.545   6.823   1.670
 8742SOL    HW127125   4.457   6.839   1.714
 8742SOL    HW227126   4.618   6.823   1.738
 8743SOL     OW27127   2.817   5.529   2.395
 8743SOL    HW127128   2.741   5.554   2.335
 8743SOL    HW227129   2.866   5.611   2.423
 8744SOL     OW27130   4.052   2.681   6.488
 8744SOL    HW127131   4.046   2.774   6.525
 8744SOL    HW227132   4.055   2.616   6.564
 8745SOL     OW27133   6.493   2.488   5.756
 8745SOL    HW127134   6.480   2.549   5.677
 8745SOL    HW227135   6.591   2.484   5.778
 8746SOL     OW27136   5.059   5.055   5.395
 8746SOL    HW127137   5.013   4.982   5.343
 8746SOL    HW227138   4.992   5.103   5.452
 8747SOL     OW27139   1.636   2.689   4.261
 8747SOL    HW127140   1.702   2.755   4.225
 8747SOL    HW227141   1.544   2.729   4.256
 8748SOL     OW27142   1.275   0.780   6.785
 8748SOL    HW127143   1.326   0.823   6.859
 8748SOL    HW227144   1.335   0.771   6.705
 8749SOL     OW27145   3.887   0.587   3.420
 8749SOL    HW127146   3.870   0.504   3.367
 8749SOL    HW227147   3.856   0.574   3.514
 8750SOL     OW27148   1.939   1.754   5.194
 8750SOL    HW127149   1.851   1.797   5.213
 8750SOL    HW227150   1.945   1.667   5.243
 8751SOL     OW27151   1.150   0.235   2.432
 8751SOL    HW127152   1.241   0.272   2.448
 8751SOL    HW227153   1.082   0.290   2.482
 8752SOL     OW27154   1.925   3.253   6.246
 8752SOL    HW127155   1.955   3.162   6.218
 8752SOL    HW227156   1.829   3.248   6.275
 8753SOL     OW27157   5.385   1.246   4.796
 8753SOL    HW127158   5.418   1.178   4.732
 8753SOL    HW227159   5.459   1.309   4.819
 8754SOL     OW27160   1.631   1.946   6.005
 8754SOL    HW127161   1.676   1.871   5.957
 8754SOL    HW227162   1.604   2.017   5.940
 8755SOL     OW27163   2.278   1.215   0.368
 8755SOL    HW127164   2.240   1.160   0.294
 8755SOL    HW227165   2.204   1.243   0.430
 8756SOL     OW27166   2.200   3.054   4.059
 8756SOL    HW127167   2.137   3.023   3.988
 8756SOL    HW227168   2.282   3.091   4.017
 8757SOL     OW27169   4.723   6.343   4.743
 8757SOL    HW127170   4.723   6.245   4.728
 8757SOL    HW227171   4.630   6.379   4.731
 8758SOL     OW27172   6.698   6.610   1.939
 8758SOL    HW127173   6.613   6.632   1.987
 8758SOL    HW227174   6.773   6.603   2.005
 8759SOL     OW27175   4.993   0.439   5.655
 8759SOL    HW127176   5.075   0.479   5.613
 8759SOL    HW227177   4.917   0.442   5.590
 8760SOL     OW27178   1.779   1.578   4.287
 8760SOL    HW127179   1.776   1.645   4.361
 8760SOL    HW227180   1.742   1.618   4.203
 8761SOL     OW27181   4.449   6.932   6.978
 8761SOL    HW127182   4.378   6.999   6.957
 8761SOL    HW227183   4.538   6.977   6.982
 8762SOL     OW27184   1.213   3.998   1.275
 8762SOL    HW127185   1.160   3.916   1.297
 8762SOL    HW227186   1.264   3.983   1.190
 8763SOL     OW27187   0.347   6.391   5.883
 8763SOL    HW127188   0.249   6.373   5.894
 8763SOL    HW227189   0.387   6.324   5.821
 8764SOL     OW27190   4.624   1.814   4.341
 8764SOL    HW127191   4.694   1.749   4.314
 8764SOL    HW227192   4.542   1.765   4.370
 8765SOL     OW27193   6.190   6.855   4.333
 8765SOL    HW127194   6.136   6.809   4.263
 8765SOL    HW227195   6.130   6.879   4.411
 8766SOL     OW27196   2.061   4.765   2.769
 8766SOL    HW127197   1.978   4.747   2.823
 8766SOL    HW227198   2.141   4.748   2.826
 8767SOL     OW27199   4.368   0.916   3.530
 8767SOL    HW127200   4.295   0.849   3.511
 8767SOL    HW227201   4.327   1.006   3.547
 8768SOL     OW27202   1.947   2.786   0.227
 8768SOL    HW127203   2.013   2.718   0.195
 8768SOL    HW227204   1.996   2.866   0.262
 8769SOL     OW27205   1.997   6.977   6.009
 8769SOL    HW127206   2.047   0.041   5.977
 8769SOL    HW227207   1.900   7.000   6.019
 8770SOL     OW27208   5.326   2.967   1.496
 8770SOL    HW127209   5.234   2.986   1.532
 8770SOL    HW227210   5.329   2.991   1.399
 8771SOL     OW27211   1.343   1.412   6.329
 8771SOL    HW127212   1.351   1.484   6.259
 8771SOL    HW227213   1.248   1.405   6.359
 8772SOL     OW27214   5.700   1.272   6.402
 8772SOL    HW127215   5.626   1.308   6.344
 8772SOL    HW227216   5.668   1.267   6.497
 8773SOL     OW27217   2.613   2.320   3.194
 8773SOL    HW127218   2.600   2.391   3.263
 8773SOL    HW227219   2.709   2.316   3.168
 8774SOL     OW27220   1.088   1.567   0.965
 8774SOL    HW127221   1.171   1.511   0.973
 8774SOL    HW227222   1.017   1.531   1.026
 8775SOL     OW27223   6.302   0.024   3.486
 8775SOL    HW127224   6.278   6.966   3.549
 8775SOL    HW227225   6.373   0.081   3.527
 8776SOL     OW27226   3.573   2.973   5.047
 8776SOL    HW127227   3.503   3.023   4.995
 8776SOL    HW227228   3.528   2.918   5.117
 8777SOL     OW27229   6.558   6.543   1.713
 8777SOL    HW127230   6.620   6.589   1.777
 8777SOL    HW227231   6.466   6.579   1.723
 8778SOL     OW27232   0.258   1.990   3.841
 8778SOL    HW127233   0.234   2.016   3.935
 8778SOL    HW227234   0.259   2.071   3.783
 8779SOL     OW27235   1.141   4.729   0.922
 8779SOL    HW127236   1.156   4.719   1.021
 8779SOL    HW227237   1.181   4.815   0.891
 8780SOL     OW27238   0.880   5.603   4.503
 8780SOL    HW127239   0.801   5.554   4.538
 8780SOL    HW227240   0.871   5.615   4.404
 8781SOL     OW27241   0.768   2.204   3.191
 8781SOL    HW127242   0.688   2.145   3.180
 8781SOL    HW227243   0.738   2.295   3.220
 8782SOL     OW27244   4.271   1.176   3.229
 8782SOL    HW127245   4.226   1.167   3.140
 8782SOL    HW227246   4.353   1.232   3.220
 8783SOL     OW27247   6.065   4.054   4.301
 8783SOL    HW127248   6.144   3.994   4.286
 8783SOL    HW227249   6.074   4.135   4.243
 8784SOL     OW27250   5.351   4.910   5.824
 8784SOL    HW127251   5.299   4.927   5.741
 8784SOL    HW227252   5.374   4.813   5.830
 8785SOL     OW27253   6.106   4.452   6.804
 8785SOL    HW127254   6.148   4.533   6.763
 8785SOL    HW227255   6.063   4.477   6.891
 8786SOL     OW27256   1.881   6.842   0.143
 8786SOL    HW127257   1.833   6.904   0.082
 8786SOL    HW227258   1.841   6.848   0.235
 8787SOL     OW27259   1.507   3.699   1.425
 8787SOL    HW127260   1.461   3.612   1.407
 8787SOL    HW227261   1.491   3.761   1.348
 8788SOL     OW27262   0.784   1.457   5.238
 8788SOL    HW127263   0.835   1.534   5.277
 8788SOL    HW227264   0.804   1.374   5.291
 8789SOL     OW27265   6.983   0.563   6.585
 8789SOL    HW127266   0.044   0.557   6.648
 8789SOL    HW227267   7.011   0.530   6.494
 8790SOL     OW27268   6.031   1.832   0.070
 8790SOL    HW127269   5.950   1.873   0.026
 8790SOL    HW227270   6.008   1.742   0.105
 8791SOL     OW27271   4.794   6.589   5.660
 8791SOL    HW127272   4.764   6.681   5.685
 8791SOL    HW227273   4.715   6.528   5.654
 8792SOL     OW27274   4.943   6.818   2.792
 8792SOL    HW127275   4.942   6.739   2.731
 8792SOL    HW227276   4.853   6.831   2.833
 8793SOL     OW27277   1.761   5.954   3.619
 8793SOL    HW127278   1.677   5.930   3.570
 8793SOL    HW227279   1.818   6.012   3.561
 8794SOL     OW27280   1.928   0.207   2.523
 8794SOL    HW127281   1.845   0.214   2.577
 8794SOL    HW227282   1.914   0.249   2.434
 8795SOL     OW27283   1.980   6.034   5.576
 8795SOL    HW127284   2.069   6.036   5.529
 8795SOL    HW227285   1.920   5.969   5.529
 8796SOL     OW27286   4.639   2.284   5.634
 8796SOL    HW127287   4.679   2.338   5.709
 8796SOL    HW227288   4.539   2.290   5.639
 8797SOL     OW27289   0.270   6.825   6.938
 8797SOL    HW127290   0.302   6.793   6.849
 8797SOL    HW227291   0.210   6.757   6.979
 8798SOL     OW27292   5.076   3.541   5.447
 8798SOL    HW127293   5.085   3.581   5.538
 8798SOL    HW227294   5.039   3.610   5.384
 8799SOL     OW27295   2.934   5.053   3.237
 8799SOL    HW127296   2.845   5.041   3.282
 8799SOL    HW227297   2.919   5.081   3.142
 8800SOL     OW27298   4.317   4.991   6.849
 8800SOL    HW127299   4.390   4.989   6.781
 8800SOL    HW227300   4.228   4.986   6.803
 8801SOL     OW27301   2.785   1.420   4.872
 8801SOL    HW127302   2.868   1.369   4.846
 8801SOL    HW227303   2.792   1.447   4.968
 8802SOL     OW27304   3.052   6.182   2.267
 8802SOL    HW127305   2.981   6.122   2.304
 8802SOL    HW227306   3.142   6.151   2.298
 8803SOL     OW27307   2.922   5.421   6.959
 8803SOL    HW127308   2.999   5.425   0.007
 8803SOL    HW227309   2.840   5.455   7.004
 8804SOL     OW27310   4.899   0.644   1.053
 8804SOL    HW127311   4.938   0.654   1.145
 8804SOL    HW227312   4.801   0.664   1.056
 8805SOL     OW27313   0.690   0.271   2.839
 8805SOL    HW127314   0.604   0.321   2.848
 8805SOL    HW227315   0.675   0.175   2.862
 8806SOL     OW27316   1.553   4.752   6.815
 8806SOL    HW127317   1.637   4.741   6.868
 8806SOL    HW227318   1.527   4.664   6.776
 8807SOL     OW27319   0.499   6.288   6.280
 8807SOL    HW127320   0.442   6.337   6.346
 8807SOL    HW227321   0.476   6.191   6.282
 8808SOL     OW27322   4.953   1.346   0.486
 8808SOL    HW127323   5.047   1.346   0.518
 8808SOL    HW227324   4.942   1.278   0.413
 8809SOL     OW27325   5.654   3.619   1.097
 8809SOL    HW127326   5.738   3.591   1.051
 8809SOL    HW227327   5.575   3.596   1.040
 8810SOL     OW27328   3.933   1.266   4.301
 8810SOL    HW127329   3.976   1.182   4.266
 8810SOL    HW227330   4.002   1.325   4.342
 8811SOL     OW27331   1.319   1.756   2.981
 8811SOL    HW127332   1.266   1.825   2.931
 8811SOL    HW227333   1.257   1.685   3.015
 8812SOL     OW27334   1.818   0.914   0.553
 8812SOL    HW127335   1.763   0.994   0.526
 8812SOL    HW227336   1.908   0.945   0.583
 8813SOL     OW27337   2.070   6.716   1.913
 8813SOL    HW127338   2.032   6.806   1.937
 8813SOL    HW227339   2.084   6.663   1.997
 8814SOL     OW27340   5.981   0.868   6.198
 8814SOL    HW127341   6.018   0.817   6.276
 8814SOL    HW227342   6.003   0.965   6.207
 8815SOL     OW27343   0.100   6.081   2.581
 8815SOL    HW127344   0.154   6.001   2.556
 8815SOL    HW227345   0.028   6.096   2.514
 8816SOL     OW27346   1.247   6.013   1.135
 8816SOL    HW127347   1.167   5.982   1.185
 8816SOL    HW227348   1.220   6.082   1.068
 8817SOL     OW27349   1.447   5.245   5.001
 8817SOL    HW127350   1.486   5.216   5.088
 8817SOL    HW227351   1.356   5.282   5.016
 8818SOL     OW27352   0.239   5.436   4.304
 8818SOL    HW127353   0.201   5.409   4.392
 8818SOL    HW227354   0.210   5.371   4.234
 8819SOL     OW27355   4.341   6.685   4.365
 8819SOL    HW127356   4.437   6.698   4.390
 8819SOL    HW227357   4.334   6.665   4.268
 8820SOL     OW27358   1.235   2.059   3.908
 8820SOL    HW127359   1.218   2.077   4.005
 8820SOL    HW227360   1.329   2.085   3.886
 8821SOL     OW27361   2.539   0.562   6.649
 8821SOL    HW127362   2.487   0.592   6.569
 8821SOL    HW227363   2.476   0.533   6.721
 8822SOL     OW27364   0.531   2.084   3.748
 8822SOL    HW127365   0.450   2.100   3.805
 8822SOL    HW227366   0.599   2.155   3.766
 8823SOL     OW27367   1.500   6.376   1.041
 8823SOL    HW127368   1.508   6.289   1.090
 8823SOL    HW227369   1.403   6.399   1.031
 8824SOL     OW27370   3.517   3.711   0.821
 8824SOL    HW127371   3.592   3.652   0.791
 8824SOL    HW227372   3.470   3.669   0.898
 8825SOL     OW27373   0.787   1.611   2.177
 8825SOL    HW127374   0.696   1.619   2.137
 8825SOL    HW227375   0.840   1.542   2.128
 8826SOL     OW27376   4.944   1.173   6.590
 8826SOL    HW127377   4.878   1.246   6.608
 8826SOL    HW227378   4.903   1.085   6.614
 8827SOL     OW27379   1.211   1.474   3.441
 8827SOL    HW127380   1.251   1.503   3.528
 8827SOL    HW227381   1.271   1.500   3.366
 8828SOL     OW27382   3.358   0.093   2.648
 8828SOL    HW127383   3.439   0.081   2.590
 8828SOL    HW227384   3.290   0.149   2.601
 8829SOL     OW27385   0.649   1.831   0.230
 8829SOL    HW127386   0.667   1.847   0.327
 8829SOL    HW227387   0.735   1.813   0.182
 8830SOL     OW27388   0.892   1.934   0.681
 8830SOL    HW127389   0.942   1.857   0.719
 8830SOL    HW227390   0.898   2.012   0.743
 8831SOL     OW27391   6.725   0.967   2.983
 8831SOL    HW127392   6.667   0.975   2.901
 8831SOL    HW227393   6.777   1.052   2.996
 8832SOL     OW27394   6.115   0.684   2.554
 8832SOL    HW127395   6.156   0.775   2.560
 8832SOL    HW227396   6.050   0.682   2.478
 8833SOL     OW27397   2.129   4.933   3.969
 8833SOL    HW127398   2.030   4.938   3.985
 8833SOL    HW227399   2.159   5.017   3.923
 8834SOL     OW27400   5.884   3.430   5.022
 8834SOL    HW127401   5.808   3.367   5.032
 8834SOL    HW227402   5.926   3.418   4.932
 8835SOL     OW27403   6.845   6.632   6.039
 8835SOL    HW127404   6.795   6.716   6.019
 8835SOL    HW227405   6.888   6.598   5.955
 8836SOL     OW27406   4.248   1.216   6.942
 8836SOL    HW127407   4.274   1.312   6.950
 8836SOL    HW227408   4.152   1.210   6.914
 8837SOL     OW27409   0.113   1.347   1.782
 8837SOL    HW127410   0.105   1.351   1.881
 8837SOL    HW227411   0.054   1.275   1.746
 8838SOL     OW27412   2.540   5.224   3.189
 8838SOL    HW127413   2.528   5.174   3.103
 8838SOL    HW227414   2.454   5.270   3.213
 8839SOL     OW27415   6.565   6.726   3.663
 8839SOL    HW127416   6.653   6.722   3.711
 8839SOL    HW227417   6.578   6.698   3.567
 8840SOL     OW27418   6.033   2.327   1.951
 8840SOL    HW127419   6.077   2.340   2.040
 8840SOL    HW227420   5.987   2.412   1.924
 8841SOL     OW27421   1.295   1.444   5.670
 8841SOL    HW127422   1.280   1.420   5.766
 8841SOL    HW227423   1.385   1.411   5.641
 8842SOL     OW27424   2.407   2.837   1.719
 8842SOL    HW127425   2.345   2.835   1.641
 8842SOL    HW227426   2.469   2.759   1.714
 8843SOL     OW27427   1.056   2.834   5.150
 8843SOL    HW127428   0.966   2.792   5.154
 8843SOL    HW227429   1.062   2.906   5.218
 8844SOL     OW27430   6.673   1.149   6.079
 8844SOL    HW127431   6.615   1.133   6.159
 8844SOL    HW227432   6.675   1.247   6.058
 8845SOL     OW27433   5.753   4.465   6.828
 8845SOL    HW127434   5.769   4.560   6.855
 8845SOL    HW227435   5.749   4.407   6.909
 8846SOL     OW27436   1.851   4.516   4.317
 8846SOL    HW127437   1.814   4.599   4.359
 8846SOL    HW227438   1.843   4.440   4.382
 8847SOL     OW27439   3.300   0.061   2.078
 8847SOL    HW127440   3.344   6.987   2.081
 8847SOL    HW227441   3.219   0.059   2.136
 8848SOL     OW27442   1.382   0.689   2.951
 8848SOL    HW127443   1.290   0.668   2.917
 8848SOL    HW227444   1.440   0.609   2.938
 8849SOL     OW27445   2.673   6.636   1.297
 8849SOL    HW127446   2.646   6.706   1.231
 8849SOL    HW227447   2.710   6.557   1.249
 8850SOL     OW27448   3.578   2.712   6.400
 8850SOL    HW127449   3.537   2.662   6.324
 8850SOL    HW227450   3.631   2.789   6.364
 8851SOL     OW27451   1.408   4.066   2.828
 8851SOL    HW127452   1.370   3.974   2.819
 8851SOL    HW227453   1.438   4.081   2.922
 8852SOL     OW27454   1.134   1.908   6.190
 8852SOL    HW127455   1.165   1.964   6.113
 8852SOL    HW227456   1.121   1.967   6.270
 8853SOL     OW27457   3.854   0.715   0.352
 8853SOL    HW127458   3.922   0.779   0.316
 8853SOL    HW227459   3.812   0.753   0.434
 8854SOL     OW27460   0.980   3.833   4.597
 8854SOL    HW127461   1.040   3.792   4.528
 8854SOL    HW227462   1.023   3.915   4.634
 8855SOL     OW27463   5.929   5.702   0.896
 8855SOL    HW127464   5.837   5.736   0.916
 8855SOL    HW227465   5.925   5.637   0.820
 8856SOL     OW27466   0.088   5.779   6.028
 8856SOL    HW127467   7.005   5.773   6.031
 8856SOL    HW227468   0.120   5.773   5.934
 8857SOL     OW27469   6.497   1.559   5.539
 8857SOL    HW127470   6.453   1.472   5.561
 8857SOL    HW227471   6.427   1.628   5.520
 8858SOL     OW27472   6.104   5.480   4.707
 8858SOL    HW127473   6.196   5.510   4.681
 8858SOL    HW227474   6.106   5.444   4.801
 8859SOL     OW27475   0.922   0.397   3.405
 8859SOL    HW127476   0.832   0.420   3.443
 8859SOL    HW227477   0.993   0.447   3.454
 8860SOL     OW27478   6.945   2.878   2.188
 8860SOL    HW127479   6.874   2.809   2.191
 8860SOL    HW227480   6.970   2.896   2.093
 8861SOL     OW27481   4.672   2.218   1.928
 8861SOL    HW127482   4.579   2.253   1.934
 8861SOL    HW227483   4.733   2.274   1.983
 8862SOL     OW27484   4.780   5.178   5.466
 8862SOL    HW127485   4.768   5.140   5.374
 8862SOL    HW227486   4.842   5.256   5.462
 8863SOL     OW27487   2.248   4.289   3.619
 8863SOL    HW127488   2.310   4.269   3.696
 8863SOL    HW227489   2.158   4.250   3.638
 8864SOL     OW27490   6.072   1.846   5.262
 8864SOL    HW127491   6.139   1.775   5.288
 8864SOL    HW227492   5.981   1.816   5.290
 8865SOL     OW27493   2.285   1.437   6.677
 8865SOL    HW127494   2.360   1.405   6.619
 8865SOL    HW227495   2.315   1.516   6.730
 8866SOL     OW27496   6.016   6.086   1.948
 8866SOL    HW127497   6.064   6.100   2.035
 8866SOL    HW227498   5.919   6.069   1.967
 8867SOL     OW27499   6.177   4.259   2.593
 8867SOL    HW127500   6.130   4.172   2.597
 8867SOL    HW227501   6.223   4.269   2.504
 8868SOL     OW27502   0.190   3.414   3.127
 8868SOL    HW127503   0.199   3.482   3.201
 8868SOL    HW227504   0.197   3.461   3.039
 8869SOL     OW27505   3.362   6.761   3.168
 8869SOL    HW127506   3.332   6.826   3.238
 8869SOL    HW227507   3.462   6.760   3.164
 8870SOL     OW27508   1.419   0.485   3.133
 8870SOL    HW127509   1.407   0.584   3.143
 8870SOL    HW227510   1.350   0.438   3.188
 8871SOL     OW27511   0.373   0.413   2.468
 8871SOL    HW127512   0.288   0.372   2.500
 8871SOL    HW227513   0.438   0.418   2.544
 8872SOL     OW27514   0.027   5.406   4.819
 8872SOL    HW127515   0.119   5.395   4.783
 8872SOL    HW227516   0.011   5.336   4.889
 8873SOL     OW27517   1.783   1.362   2.178
 8873SOL    HW127518   1.739   1.449   2.203
 8873SOL    HW227519   1.729   1.286   2.214
 8874SOL     OW27520   3.471   6.217   0.428
 8874SOL    HW127521   3.474   6.128   0.473
 8874SOL    HW227522   3.453   6.205   0.331
 8875SOL     OW27523   0.073   3.028   3.667
 8875SOL    HW127524   0.000   3.070   3.612
 8875SOL    HW227525   0.036   2.949   3.716
 8876SOL     OW27526   3.732   0.992   6.322
 8876SOL    HW127527   3.711   1.064   6.256
 8876SOL    HW227528   3.677   1.006   6.405
 8877SOL     OW27529   1.997   4.369   1.399
 8877SOL    HW127530   1.911   4.415   1.418
 8877SOL    HW227531   2.007   4.357   1.300
 8878SOL     OW27532   5.047   3.969   0.882
 8878SOL    HW127533   4.967   3.930   0.835
 8878SOL    HW227534   5.056   3.926   0.972
 8879SOL     OW27535   5.676   5.068   2.760
 8879SOL    HW127536   5.747   5.110   2.704
 8879SOL    HW227537   5.708   4.980   2.794
 8880SOL     OW27538   4.325   0.475   4.016
 8880SOL    HW127539   4.411   0.482   4.067
 8880SOL    HW227540   4.327   0.394   3.958
 8881SOL     OW27541   4.263   4.905   4.246
 8881SOL    HW127542   4.345   4.908   4.189
 8881SOL    HW227543   4.267   4.979   4.314
 8882SOL     OW27544   4.504   0.454   0.716
 8882SOL    HW127545   4.447   0.378   0.684
 8882SOL    HW227546   4.513   0.449   0.815
 8883SOL     OW27547   6.803   6.352   4.668
 8883SOL    HW127548   6.759   6.262   4.662
 8883SOL    HW227549   6.753   6.416   4.610
 8884SOL     OW27550   5.314   3.378   4.900
 8884SOL    HW127551   5.280   3.425   4.981
 8884SOL    HW227552   5.410   3.353   4.914
 8885SOL     OW27553   6.455   5.776   0.339
 8885SOL    HW127554   6.368   5.812   0.306
 8885SOL    HW227555   6.470   5.807   0.433
 8886SOL     OW27556   3.735   5.409   6.054
 8886SOL    HW127557   3.694   5.330   6.008
 8886SOL    HW227558   3.727   5.397   6.153
 8887SOL     OW27559   4.816   1.365   1.486
 8887SOL    HW127560   4.851   1.329   1.399
 8887SOL    HW227561   4.878   1.338   1.560
 8888SOL     OW27562   2.468   2.007   2.991
 8888SOL    HW127563   2.566   2.027   3.001
 8888SOL    HW227564   2.418   2.048   3.067
 8889SOL     OW27565   7.012   6.017   6.294
 8889SOL    HW127566   6.925   5.975   6.269
 8889SOL    HW227567   0.071   5.956   6.267
 8890SOL     OW27568   0.324   6.473   0.703
 8890SOL    HW127569   0.374   6.552   0.737
 8890SOL    HW227570   0.366   6.389   0.738
 8891SOL     OW27571   6.032   3.663   0.009
 8891SOL    HW127572   5.956   3.719   6.993
 8891SOL    HW227573   6.006   3.619   0.095
 8892SOL     OW27574   3.160   5.237   3.698
 8892SOL    HW127575   3.226   5.285   3.642
 8892SOL    HW227576   3.181   5.252   3.795
 8893SOL     OW27577   1.433   5.230   4.666
 8893SOL    HW127578   1.528   5.199   4.667
 8893SOL    HW227579   1.417   5.292   4.742
 8894SOL     OW27580   4.461   1.668   0.315
 8894SOL    HW127581   4.493   1.699   0.226
 8894SOL    HW227582   4.515   1.589   0.344
 8895SOL     OW27583   6.973   3.844   1.019
 8895SOL    HW127584   6.927   3.828   1.107
 8895SOL    HW227585   6.967   3.762   0.963
 8896SOL     OW27586   0.517   2.540   4.820
 8896SOL    HW127587   0.465   2.479   4.760
 8896SOL    HW227588   0.453   2.593   4.876
 8897SOL     OW27589   2.101   3.930   3.650
 8897SOL    HW127590   2.176   3.923   3.585
 8897SOL    HW227591   2.060   4.021   3.644
 8898SOL     OW27592   4.780   4.343   2.689
 8898SOL    HW127593   4.722   4.334   2.608
 8898SOL    HW227594   4.814   4.437   2.695
 8899SOL     OW27595   0.663   3.836   5.395
 8899SOL    HW127596   0.570   3.823   5.429
 8899SOL    HW227597   0.696   3.751   5.354
 8900SOL     OW27598   4.984   2.703   4.190
 8900SOL    HW127599   4.919   2.630   4.211
 8900SOL    HW227600   5.036   2.727   4.272
 8901SOL     OW27601   1.879   2.843   4.355
 8901SOL    HW127602   1.917   2.794   4.434
 8901SOL    HW227603   1.888   2.941   4.368
 8902SOL     OW27604   0.610   4.734   0.406
 8902SOL    HW127605   0.576   4.676   0.332
 8902SOL    HW227606   0.533   4.765   0.462
 8903SOL     OW27607   1.686   6.706   5.387
 8903SOL    HW127608   1.664   6.638   5.457
 8903SOL    HW227609   1.607   6.718   5.326
 8904SOL     OW27610   0.414   0.685   3.337
 8904SOL    HW127611   0.381   0.594   3.360
 8904SOL    HW227612   0.513   0.683   3.323
 8905SOL     OW27613   1.347   3.631   2.569
 8905SOL    HW127614   1.332   3.570   2.648
 8905SOL    HW227615   1.417   3.591   2.509
 8906SOL     OW27616   6.652   0.099   0.614
 8906SOL    HW127617   6.698   0.012   0.632
 8906SOL    HW227618   6.563   0.081   0.572
 8907SOL     OW27619   3.340   2.892   4.714
 8907SOL    HW127620   3.429   2.933   4.694
 8907SOL    HW227621   3.342   2.853   4.806
 8908SOL     OW27622   1.166   5.578   0.151
 8908SOL    HW127623   1.099   5.505   0.138
 8908SOL    HW227624   1.217   5.592   0.066
 8909SOL     OW27625   2.800   0.473   0.014
 8909SOL    HW127626   2.881   0.529   7.013
 8909SOL    HW227627   2.827   0.378   0.030
 8910SOL     OW27628   2.251   1.480   3.893
 8910SOL    HW127629   2.325   1.423   3.857
 8910SOL    HW227630   2.272   1.508   3.987
 8911SOL     OW27631   4.332   1.996   3.963
 8911SOL    HW127632   4.327   2.061   4.039
 8911SOL    HW227633   4.245   1.994   3.915
 8912SOL     OW27634   3.229   3.741   4.765
 8912SOL    HW127635   3.203   3.748   4.861
 8912SOL    HW227636   3.150   3.762   4.707
 8913SOL     OW27637   5.359   6.559   6.739
 8913SOL    HW127638   5.392   6.508   6.660
 8913SOL    HW227639   5.372   6.657   6.723
 8914SOL     OW27640   4.257   5.564   6.553
 8914SOL    HW127641   4.341   5.552   6.606
 8914SOL    HW227642   4.248   5.660   6.527
 8915SOL     OW27643   1.582   1.430   4.061
 8915SOL    HW127644   1.527   1.383   3.992
 8915SOL    HW227645   1.584   1.375   4.144
 8916SOL     OW27646   4.487   1.032   0.158
 8916SOL    HW127647   4.499   1.126   0.190
 8916SOL    HW227648   4.572   1.000   0.117
 8917SOL     OW27649   5.715   1.919   0.436
 8917SOL    HW127650   5.684   1.913   0.341
 8917SOL    HW227651   5.694   1.834   0.484
 8918SOL     OW27652   0.921   4.014   2.670
 8918SOL    HW127653   0.833   4.046   2.633
 8918SOL    HW227654   0.980   4.092   2.687
 8919SOL     OW27655   5.745   3.856   0.561
 8919SOL    HW127656   5.778   3.936   0.612
 8919SOL    HW227657   5.679   3.806   0.616
 8920SOL     OW27658   6.551   1.534   0.408
 8920SOL    HW127659   6.477   1.593   0.441
 8920SOL    HW227660   6.524   1.490   0.323
 8921SOL     OW27661   1.499   2.809   1.525
 8921SOL    HW127662   1.448   2.772   1.447
 8921SOL    HW227663   1.542   2.734   1.575
 8922SOL     OW27664   3.545   0.069   3.390
 8922SOL    HW127665   3.619   0.002   3.382
 8922SOL    HW227666   3.583   0.161   3.389
 8923SOL     OW27667   1.716   1.965   4.913
 8923SOL    HW127668   1.706   2.016   4.828
 8923SOL    HW227669   1.720   2.028   4.990
 8924SOL     OW27670   5.021   5.580   5.209
 8924SOL    HW127671   5.019   5.506   5.142
 8924SOL    HW227672   5.093   5.562   5.277
 8925SOL     OW27673   1.066   0.510   3.099
 8925SOL    HW127674   1.102   0.484   3.188
 8925SOL    HW227675   1.125   0.474   3.027
 8926SOL     OW27676   5.873   2.915   6.074
 8926SOL    HW127677   5.958   2.864   6.089
 8926SOL    HW227678   5.886   2.977   5.996
 8927SOL     OW27679   0.606   1.202   5.995
 8927SOL    HW127680   0.592   1.137   6.070
 8927SOL    HW227681   0.703   1.228   5.992
 8928SOL     OW27682   2.312   6.144   5.065
 8928SOL    HW127683   2.381   6.098   5.122
 8928SOL    HW227684   2.353   6.225   5.023
 8929SOL     OW27685   6.781   2.859   4.621
 8929SOL    HW127686   6.825   2.807   4.694
 8929SOL    HW227687   6.701   2.809   4.589
 8930SOL     OW27688   1.458   4.313   3.270
 8930SOL    HW127689   1.516   4.385   3.233
 8930SOL    HW227690   1.456   4.320   3.370
 8931SOL     OW27691   3.998   2.041   1.380
 8931SOL    HW127692   3.916   2.080   1.422
 8931SOL    HW227693   4.072   2.108   1.381
 8932SOL     OW27694   0.246   3.142   3.431
 8932SOL    HW127695   0.168   3.190   3.472
 8932SOL    HW227696   0.299   3.096   3.503
 8933SOL     OW27697   3.489   1.529   5.641
 8933SOL    HW127698   3.426   1.526   5.563
 8933SOL    HW227699   3.568   1.472   5.622
 8934SOL     OW27700   2.986   5.909   3.681
 8934SOL    HW127701   3.053   5.853   3.729
 8934SOL    HW227702   2.894   5.873   3.700
 8935SOL     OW27703   0.492   4.564   1.332
 8935SOL    HW127704   0.404   4.589   1.372
 8935SOL    HW227705   0.501   4.464   1.329
 8936SOL     OW27706   2.270   2.828   0.281
 8936SOL    HW127707   2.248   2.743   0.233
 8936SOL    HW227708   2.333   2.882   0.226
 8937SOL     OW27709   0.732   5.917   6.001
 8937SOL    HW127710   0.638   5.947   6.015
 8937SOL    HW227711   0.793   5.968   6.061
 8938SOL     OW27712   6.138   5.320   0.899
 8938SOL    HW127713   6.219   5.309   0.958
 8938SOL    HW227714   6.146   5.259   0.820
 8939SOL     OW27715   5.678   1.767   4.610
 8939SOL    HW127716   5.775   1.756   4.630
 8939SOL    HW227717   5.665   1.776   4.512
 8940SOL     OW27718   5.939   0.725   3.210
 8940SOL    HW127719   5.927   0.715   3.111
 8940SOL    HW227720   6.022   0.679   3.239
 8941SOL     OW27721   5.121   2.455   6.361
 8941SOL    HW127722   5.103   2.418   6.452
 8941SOL    HW227723   5.036   2.456   6.308
 8942SOL     OW27724   0.607   2.171   5.123
 8942SOL    HW127725   0.550   2.156   5.042
 8942SOL    HW227726   0.683   2.107   5.123
 8943SOL     OW27727   4.988   3.239   0.911
 8943SOL    HW127728   5.007   3.299   0.834
 8943SOL    HW227729   5.063   3.174   0.923
 8944SOL     OW27730   4.368   5.729   0.707
 8944SOL    HW127731   4.389   5.738   0.804
 8944SOL    HW227732   4.273   5.755   0.691
 8945SOL     OW27733   2.770   0.864   4.007
 8945SOL    HW127734   2.707   0.920   3.955
 8945SOL    HW227735   2.807   0.918   4.083
 8946SOL     OW27736   3.043   1.859   4.677
 8946SOL    HW127737   3.010   1.764   4.681
 8946SOL    HW227738   2.992   1.914   4.743
 8947SOL     OW27739   4.231   3.760   5.447
 8947SOL    HW127740   4.201   3.849   5.480
 8947SOL    HW227741   4.196   3.744   5.355
 8948SOL     OW27742   5.821   4.802   3.554
 8948SOL    HW127743   5.896   4.842   3.500
 8948SOL    HW227744   5.762   4.748   3.493
 8949SOL     OW27745   2.294   6.220   0.244
 8949SOL    HW127746   2.377   6.239   0.193
 8949SOL    HW227747   2.252   6.136   0.209
 8950SOL     OW27748   4.611   2.593   4.044
 8950SOL    HW127749   4.649   2.684   4.057
 8950SOL    HW227750   4.672   2.526   4.087
 8951SOL     OW27751   1.610   2.696   5.469
 8951SOL    HW127752   1.647   2.605   5.489
 8951SOL    HW227753   1.529   2.686   5.411
 8952SOL     OW27754   0.350   1.275   2.225
 8952SOL    HW127755   0.255   1.265   2.256
 8952SOL    HW227756   0.408   1.299   2.303
 8953SOL     OW27757   1.741   3.337   6.987
 8953SOL    HW127758   1.782   3.270   6.925
 8953SOL    HW227759   1.648   3.309   7.011
 8954SOL     OW27760   1.760   5.982   6.395
 8954SOL    HW127761   1.789   5.910   6.458
 8954SOL    HW227762   1.660   5.977   6.382
 8955SOL     OW27763   6.388   4.103   3.222
 8955SOL    HW127764   6.306   4.156   3.241
 8955SOL    HW227765   6.373   4.045   3.141
 8956SOL     OW27766   0.728   0.641   5.730
 8956SOL    HW127767   0.790   0.565   5.709
 8956SOL    HW227768   0.653   0.607   5.788
 8957SOL     OW27769   2.841   4.800   2.628
 8957SOL    HW127770   2.873   4.895   2.627
 8957SOL    HW227771   2.868   4.756   2.543
 8958SOL     OW27772   1.780   6.673   4.157
 8958SOL    HW127773   1.728   6.591   4.182
 8958SOL    HW227774   1.874   6.664   4.190
 8959SOL     OW27775   1.816   4.316   0.449
 8959SOL    HW127776   1.818   4.365   0.362
 8959SOL    HW227777   1.894   4.344   0.505
 8960SOL     OW27778   3.843   5.534   1.404
 8960SOL    HW127779   3.926   5.480   1.386
 8960SOL    HW227780   3.842   5.614   1.343
 8961SOL     OW27781   1.508   2.088   3.853
 8961SOL    HW127782   1.563   2.109   3.934
 8961SOL    HW227783   1.567   2.075   3.774
 8962SOL     OW27784   5.964   0.447   3.197
 8962SOL    HW127785   5.980   0.442   3.099
 8962SOL    HW227786   6.041   0.406   3.246
 8963SOL     OW27787   6.274   0.759   4.550
 8963SOL    HW127788   6.285   0.846   4.503
 8963SOL    HW227789   6.216   0.698   4.496
 8964SOL     OW27790   5.257   4.519   2.536
 8964SOL    HW127791   5.275   4.480   2.445
 8964SOL    HW227792   5.269   4.618   2.532
 8965SOL     OW27793   1.336   5.388   1.909
 8965SOL    HW127794   1.324   5.369   1.811
 8965SOL    HW227795   1.421   5.345   1.941
 8966SOL     OW27796   1.926   2.714   6.274
 8966SOL    HW127797   1.932   2.623   6.233
 8966SOL    HW227798   1.847   2.763   6.235
 8967SOL     OW27799   4.524   0.526   0.273
 8967SOL    HW127800   4.438   0.575   0.291
 8967SOL    HW227801   4.504   0.429   0.258
 8968SOL     OW27802   4.869   6.091   1.645
 8968SOL    HW127803   4.938   6.032   1.604
 8968SOL    HW227804   4.780   6.074   1.602
 8969SOL     OW27805   6.539   0.517   4.275
 8969SOL    HW127806   6.627   0.493   4.234
 8969SOL    HW227807   6.551   0.536   4.372
 8970SOL     OW27808   4.002   1.842   1.557
 8970SOL    HW127809   4.008   1.921   1.496
 8970SOL    HW227810   4.027   1.869   1.650
 8971SOL     OW27811   4.260   5.163   2.262
 8971SOL    HW127812   4.330   5.146   2.191
 8971SOL    HW227813   4.180   5.204   2.219
 8972SOL     OW27814   5.256   6.642   5.456
 8972SOL    HW127815   5.334   6.609   5.403
 8972SOL    HW227816   5.213   6.565   5.504
 8973SOL     OW27817   1.316   4.382   6.931
 8973SOL    HW127818   1.394   4.321   6.945
 8973SOL    HW227819   1.282   4.414   0.003
 8974SOL     OW27820   0.694   3.625   5.206
 8974SOL    HW127821   0.677   3.657   5.112
 8974SOL    HW227822   0.691   3.525   5.208
 8975SOL     OW27823   3.326   6.897   0.594
 8975SOL    HW127824   3.273   6.820   0.631
 8975SOL    HW227825   3.303   6.910   0.497
 8976SOL     OW27826   1.703   5.496   4.292
 8976SOL    HW127827   1.647   5.414   4.276
 8976SOL    HW227828   1.744   5.525   4.206
 8977SOL     OW27829   6.360   1.571   6.075
 8977SOL    HW127830   6.314   1.503   6.018
 8977SOL    HW227831   6.342   1.551   6.172
 8978SOL     OW27832   5.640   0.008   0.546
 8978SOL    HW127833   5.619   7.007   0.450
 8978SOL    HW227834   5.586   0.086   0.578
 8979SOL     OW27835   1.855   3.980   5.007
 8979SOL    HW127836   1.868   4.052   5.075
 8979SOL    HW227837   1.935   3.920   5.006
 8980SOL     OW27838   3.926   3.088   4.434
 8980SOL    HW127839   3.894   3.062   4.525
 8980SOL    HW227840   3.969   3.178   4.438
 8981SOL     OW27841   3.757   1.331   5.213
 8981SOL    HW127842   3.660   1.343   5.232
 8981SOL    HW227843   3.781   1.377   5.127
 8982SOL     OW27844   2.903   4.534   0.709
 8982SOL    HW127845   2.980   4.543   0.773
 8982SOL    HW227846   2.938   4.519   0.616
 8983SOL     OW27847   4.435   5.449   0.681
 8983SOL    HW127848   4.391   5.439   0.592
 8983SOL    HW227849   4.418   5.541   0.717
 8984SOL     OW27850   2.076   6.069   3.042
 8984SOL    HW127851   2.160   6.064   2.987
 8984SOL    HW227852   2.074   6.157   3.091
 8985SOL     OW27853   3.881   2.752   6.796
 8985SOL    HW127854   3.970   2.776   6.757
 8985SOL    HW227855   3.833   2.690   6.733
 8986SOL     OW27856   3.963   4.789   2.799
 8986SOL    HW127857   3.896   4.835   2.857
 8986SOL    HW227858   3.935   4.798   2.703
 8987SOL     OW27859   5.748   6.044   2.013
 8987SOL    HW127860   5.721   5.986   2.089
 8987SOL    HW227861   5.680   6.116   1.998
 8988SOL     OW27862   0.580   5.440   4.362
 8988SOL    HW127863   0.544   5.352   4.394
 8988SOL    HW227864   0.522   5.476   4.289
 8989SOL     OW27865   4.098   2.884   6.683
 8989SOL    HW127866   4.103   2.975   6.642
 8989SOL    HW227867   4.167   2.877   6.755
 8990SOL     OW27868   6.961   5.157   3.608
 8990SOL    HW127869   6.963   5.197   3.516
 8990SOL    HW227870   6.958   5.231   3.675
 8991SOL     OW27871   1.504   2.329   5.237
 8991SOL    HW127872   1.576   2.273   5.195
 8991SOL    HW227873   1.459   2.277   5.309
 8992SOL     OW27874   6.268   1.871   6.932
 8992SOL    HW127875   6.341   1.837   6.991
 8992SOL    HW227876   6.181   1.832   6.961
 8993SOL     OW27877   4.517   2.737   6.565
 8993SOL    HW127878   4.499   2.723   6.468
 8993SOL    HW227879   4.494   2.830   6.591
 8994SOL     OW27880   2.014   4.415   4.553
 8994SOL    HW127881   1.987   4.506   4.522
 8994SOL    HW227882   2.100   4.389   4.510
 8995SOL     OW27883   0.031   1.757   1.751
 8995SOL    HW127884   7.014   1.705   1.673
 8995SOL    HW227885   0.042   1.696   1.830
 8996SOL     OW27886   5.769   4.107   6.496
 8996SOL    HW127887   5.780   4.204   6.520
 8996SOL    HW227888   5.827   4.051   6.554
 8997SOL     OW27889   5.284   1.030   4.923
 8997SOL    HW127890   5.280   1.122   4.885
 8997SOL    HW227891   5.346   0.974   4.868
 8998SOL     OW27892   5.872   4.425   4.479
 8998SOL    HW127893   5.920   4.508   4.506
 8998SOL    HW227894   5.931   4.345   4.494
 8999SOL     OW27895   5.184   6.809   5.932
 8999SOL    HW127896   5.097   6.765   5.953
 8999SOL    HW227897   5.220   6.772   5.846
 9000SOL     OW27898   2.090   4.524   1.800
 9000SOL    HW127899   2.021   4.453   1.787
 9000SOL    HW227900   2.149   4.500   1.876
 9001SOL     OW27901   0.274   4.989   2.003
 9001SOL    HW127902   0.279   4.921   1.930
 9001SOL    HW227903   0.184   4.986   2.046
 9002SOL     OW27904   1.161   4.462   5.831
 9002SOL    HW127905   1.188   4.438   5.738
 9002SOL    HW227906   1.069   4.502   5.830
 9003SOL     OW27907   5.527   1.617   1.231
 9003SOL    HW127908   5.575   1.703   1.212
 9003SOL    HW227909   5.486   1.621   1.322
 9004SOL     OW27910   4.056   4.713   0.623
 9004SOL    HW127911   4.095   4.770   0.551
 9004SOL    HW227912   3.957   4.725   0.626
 9005SOL     OW27913   5.231   1.016   5.916
 9005SOL    HW127914   5.318   1.027   5.868
 9005SOL    HW227915   5.156   1.040   5.855
 9006SOL     OW27916   3.951   6.966   0.559
 9006SOL    HW127917   3.902   6.994   0.642
 9006SOL    HW227918   3.898   6.993   0.479
 9007SOL     OW27919   2.195   1.791   2.894
 9007SOL    HW127920   2.214   1.804   2.991
 9007SOL    HW227921   2.268   1.737   2.852
 9008SOL     OW27922   0.165   6.058   2.938
 9008SOL    HW127923   0.096   6.024   2.873
 9008SOL    HW227924   0.120   6.116   3.006
 9009SOL     OW27925   3.925   5.711   0.317
 9009SOL    HW127926   3.944   5.782   0.249
 9009SOL    HW227927   3.989   5.635   0.303
 9010SOL     OW27928   1.896   6.958   3.878
 9010SOL    HW127929   1.922   7.007   3.961
 9010SOL    HW227930   1.964   6.889   3.857
 9011SOL     OW27931   4.537   0.582   2.956
 9011SOL    HW127932   4.451   0.632   2.954
 9011SOL    HW227933   4.611   0.641   2.923
 9012SOL     OW27934   2.435   5.714   0.414
 9012SOL    HW127935   2.494   5.689   0.491
 9012SOL    HW227936   2.463   5.803   0.378
 9013SOL     OW27937   1.641   6.449   4.257
 9013SOL    HW127938   1.701   6.378   4.295
 9013SOL    HW227939   1.591   6.493   4.331
 9014SOL     OW27940   6.175   2.201   2.336
 9014SOL    HW127941   6.244   2.273   2.329
 9014SOL    HW227942   6.219   2.116   2.365
 9015SOL     OW27943   5.643   2.202   0.541
 9015SOL    HW127944   5.659   2.103   0.542
 9015SOL    HW227945   5.707   2.246   0.478
 9016SOL     OW27946   5.880   5.364   5.751
 9016SOL    HW127947   5.860   5.306   5.672
 9016SOL    HW227948   5.801   5.423   5.770
 9017SOL     OW27949   3.384   0.761   5.048
 9017SOL    HW127950   3.400   0.662   5.045
 9017SOL    HW227951   3.285   0.778   5.046
 9018SOL     OW27952   3.853   3.075   6.535
 9018SOL    HW127953   3.947   3.076   6.500
 9018SOL    HW227954   3.855   3.071   6.635
 9019SOL     OW27955   1.008   2.798   3.223
 9019SOL    HW127956   1.085   2.839   3.174
 9019SOL    HW227957   1.040   2.715   3.270
 9020SOL     OW27958   6.550   5.730   1.907
 9020SOL    HW127959   6.451   5.722   1.921
 9020SOL    HW227960   6.597   5.724   1.995
 9021SOL     OW27961   0.292   0.406   4.361
 9021SOL    HW127962   0.196   0.432   4.369
 9021SOL    HW227963   0.306   0.351   4.279
 9022SOL     OW27964   4.038   2.503   6.683
 9022SOL    HW127965   4.110   2.452   6.731
 9022SOL    HW227966   3.954   2.498   6.736
 9023SOL     OW27967   4.404   3.173   1.249
 9023SOL    HW127968   4.358   3.132   1.329
 9023SOL    HW227969   4.436   3.264   1.272
 9024SOL     OW27970   1.653   5.238   6.035
 9024SOL    HW127971   1.655   5.208   5.939
 9024SOL    HW227972   1.745   5.231   6.074
 9025SOL     OW27973   0.678   5.522   0.905
 9025SOL    HW127974   0.583   5.499   0.880
 9025SOL    HW227975   0.680   5.613   0.947
 9026SOL     OW27976   4.117   1.988   6.989
 9026SOL    HW127977   4.108   1.911   0.035
 9026SOL    HW227978   4.027   2.023   6.965
 9027SOL     OW27979   0.812   3.611   3.855
 9027SOL    HW127980   0.749   3.620   3.778
 9027SOL    HW227981   0.812   3.516   3.887
 9028SOL     OW27982   3.726   3.999   5.565
 9028SOL    HW127983   3.803   3.943   5.535
 9028SOL    HW227984   3.647   3.980   5.506
 9029SOL     OW27985   4.222   0.342   4.662
 9029SOL    HW127986   4.269   0.329   4.575
 9029SOL    HW227987   4.280   0.395   4.724
 9030SOL     OW27988   2.652   2.421   3.868
 9030SOL    HW127989   2.641   2.483   3.945
 9030SOL    HW227990   2.655   2.326   3.902
 9031SOL     OW27991   4.569   0.332   4.408
 9031SOL    HW127992   4.532   0.424   4.424
 9031SOL    HW227993   4.548   0.304   4.314
 9032SOL     OW27994   4.807   3.507   1.555
 9032SOL    HW127995   4.788   3.410   1.537
 9032SOL    HW227996   4.873   3.515   1.630
 9033SOL     OW27997   0.790   5.482   2.650
 9033SOL    HW127998   0.876   5.522   2.681
 9033SOL    HW227999   0.718   5.501   2.717
 9034SOL     OW28000   3.041   6.275   4.363
 9034SOL    HW128001   2.973   6.276   4.289
 9034SOL    HW228002   3.132   6.288   4.324
 9035SOL     OW28003   1.938   5.231   0.742
 9035SOL    HW128004   1.917   5.282   0.659
 9035SOL    HW228005   2.017   5.172   0.725
 9036SOL     OW28006   1.424   3.739   5.570
 9036SOL    HW128007   1.408   3.837   5.584
 9036SOL    HW228008   1.496   3.708   5.632
 9037SOL     OW28009   0.744   2.487   3.259
 9037SOL    HW128010   0.841   2.469   3.274
 9037SOL    HW228011   0.707   2.539   3.336
 9038SOL     OW28012   4.356   3.217   6.355
 9038SOL    HW128013   4.379   3.286   6.425
 9038SOL    HW228014   4.404   3.238   6.270
 9039SOL     OW28015   2.941   5.110   6.929
 9039SOL    HW128016   2.919   5.207   6.922
 9039SOL    HW228017   2.994   5.082   6.849
 9040SOL     OW28018   1.920   2.031   1.370
 9040SOL    HW128019   1.838   2.040   1.314
 9040SOL    HW228020   1.989   1.978   1.321
 9041SOL     OW28021   0.110   2.584   0.925
 9041SOL    HW128022   0.084   2.520   0.998
 9041SOL    HW228023   0.209   2.600   0.930
 9042SOL     OW28024   3.497   5.793   6.296
 9042SOL    HW128025   3.464   5.701   6.279
 9042SOL    HW228026   3.424   5.859   6.276
 9043SOL     OW28027   2.958   1.170   0.150
 9043SOL    HW128028   2.861   1.161   0.172
 9043SOL    HW228029   2.968   1.199   0.054
 9044SOL     OW28030   0.993   0.216   6.541
 9044SOL    HW128031   0.958   0.150   6.474
 9044SOL    HW228032   0.932   0.296   6.544
 9045SOL     OW28033   4.216   0.412   2.993
 9045SOL    HW128034   4.234   0.449   3.084
 9045SOL    HW228035   4.241   0.315   2.991
 9046SOL     OW28036   3.182   3.527   2.838
 9046SOL    HW128037   3.092   3.572   2.843
 9046SOL    HW228038   3.198   3.496   2.744
 9047SOL     OW28039   1.170   4.263   5.994
 9047SOL    HW128040   1.073   4.241   5.999
 9047SOL    HW228041   1.182   4.353   5.952
 9048SOL     OW28042   6.223   2.329   5.999
 9048SOL    HW128043   6.169   2.366   6.074
 9048SOL    HW228044   6.163   2.295   5.927
 9049SOL     OW28045   2.900   6.797   6.639
 9049SOL    HW128046   2.932   6.774   6.547
 9049SOL    HW228047   2.884   6.713   6.691
 9050SOL     OW28048   0.731   4.295   1.357
 9050SOL    HW128049   0.733   4.314   1.455
 9050SOL    HW228050   0.824   4.279   1.324
 9051SOL     OW28051   2.632   1.922   1.266
 9051SOL    HW128052   2.562   1.991   1.285
 9051SOL    HW228053   2.652   1.872   1.350
 9052SOL     OW28054   1.675   2.985   4.851
 9052SOL    HW128055   1.610   2.948   4.785
 9052SOL    HW228056   1.702   2.913   4.916
 9053SOL     OW28057   1.873   1.281   1.352
 9053SOL    HW128058   1.895   1.330   1.436
 9053SOL    HW228059   1.894   1.184   1.364
 9054SOL     OW28060   2.609   5.520   3.479
 9054SOL    HW128061   2.656   5.518   3.390
 9054SOL    HW228062   2.628   5.435   3.529
 9055SOL     OW28063   0.426   4.032   4.804
 9055SOL    HW128064   0.405   4.023   4.707
 9055SOL    HW228065   0.519   4.068   4.815
 9056SOL     OW28066   6.551   1.963   2.860
 9056SOL    HW128067   6.462   1.992   2.826
 9056SOL    HW228068   6.539   1.917   2.948
 9057SOL     OW28069   4.467   1.183   4.229
 9057SOL    HW128070   4.504   1.238   4.304
 9057SOL    HW228071   4.529   1.189   4.151
 9058SOL     OW28072   1.438   0.792   6.577
 9058SOL    HW128073   1.513   0.856   6.560
 9058SOL    HW228074   1.430   0.730   6.499
 9059SOL     OW28075   1.289   2.029   2.586
 9059SOL    HW128076   1.333   2.118   2.573
 9059SOL    HW228077   1.358   1.962   2.614
 9060SOL     OW28078   4.903   2.935   4.923
 9060SOL    HW128079   4.881   3.019   4.875
 9060SOL    HW228080   4.859   2.857   4.878
 9061SOL     OW28081   5.138   5.415   2.364
 9061SOL    HW128082   5.143   5.512   2.338
 9061SOL    HW228083   5.144   5.359   2.281
 9062SOL     OW28084   1.307   5.187   1.378
 9062SOL    HW128085   1.226   5.152   1.426
 9062SOL    HW228086   1.378   5.116   1.376
 9063SOL     OW28087   3.078   2.110   2.777
 9063SOL    HW128088   3.125   2.105   2.690
 9063SOL    HW228089   2.995   2.054   2.774
 9064SOL     OW28090   6.645   3.039   6.647
 9064SOL    HW128091   6.580   3.111   6.672
 9064SOL    HW228092   6.595   2.953   6.634
 9065SOL     OW28093   2.451   1.117   0.590
 9065SOL    HW128094   2.390   1.178   0.538
 9065SOL    HW228095   2.486   1.165   0.670
 9066SOL     OW28096   4.649   6.769   6.901
 9066SOL    HW128097   4.661   6.721   6.988
 9066SOL    HW228098   4.570   6.831   6.908
 9067SOL     OW28099   1.487   6.997   3.077
 9067SOL    HW128100   1.580   6.962   3.088
 9067SOL    HW228101   1.483   0.040   2.997
 9068SOL     OW28102   1.408   5.434   6.659
 9068SOL    HW128103   1.464   5.363   6.617
 9068SOL    HW228104   1.439   5.524   6.628
 9069SOL     OW28105   1.684   2.878   6.177
 9069SOL    HW128106   1.594   2.865   6.220
 9069SOL    HW228107   1.679   2.853   6.081
 9070SOL     OW28108   1.290   4.659   4.480
 9070SOL    HW128109   1.236   4.737   4.510
 9070SOL    HW228110   1.366   4.644   4.543
 9071SOL     OW28111   6.318   6.991   0.161
 9071SOL    HW128112   6.254   6.914   0.156
 9071SOL    HW228113   6.377   6.980   0.241
 9072SOL     OW28114   6.248   3.850   6.834
 9072SOL    HW128115   6.231   3.918   6.905
 9072SOL    HW228116   6.230   3.759   6.870
 9073SOL     OW28117   1.875   0.759   1.865
 9073SOL    HW128118   1.782   0.729   1.844
 9073SOL    HW228119   1.898   0.733   1.959
 9074SOL     OW28120   1.664   6.983   2.608
 9074SOL    HW128121   1.587   6.988   2.545
 9074SOL    HW228122   1.695   0.059   2.631
 9075SOL     OW28123   6.549   1.027   2.208
 9075SOL    HW128124   6.465   1.021   2.154
 9075SOL    HW228125   6.615   1.084   2.161
 9076SOL     OW28126   6.390   0.815   5.896
 9076SOL    HW128127   6.422   0.738   5.841
 9076SOL    HW228128   6.466   0.850   5.951
 9077SOL     OW28129   5.990   6.366   2.136
 9077SOL    HW128130   6.053   6.290   2.125
 9077SOL    HW228131   5.938   6.353   2.221
 9078SOL     OW28132   3.830   2.870   5.024
 9078SOL    HW128133   3.821   2.779   4.984
 9078SOL    HW228134   3.743   2.919   5.016
 9079SOL     OW28135   3.226   0.181   5.799
 9079SOL    HW128136   3.286   0.154   5.875
 9079SOL    HW228137   3.172   0.102   5.769
 9080SOL     OW28138   5.350   1.673   1.009
 9080SOL    HW128139   5.423   1.667   1.076
 9080SOL    HW228140   5.333   1.584   0.968
 9081SOL     OW28141   5.272   6.194   2.146
 9081SOL    HW128142   5.328   6.177   2.226
 9081SOL    HW228143   5.230   6.108   2.115
 9082SOL     OW28144   2.967   1.298   3.547
 9082SOL    HW128145   2.881   1.333   3.512
 9082SOL    HW228146   2.951   1.250   3.633
 9083SOL     OW28147   4.674   4.791   4.721
 9083SOL    HW128148   4.764   4.773   4.681
 9083SOL    HW228149   4.603   4.749   4.665
 9084SOL     OW28150   2.921   3.753   3.072
 9084SOL    HW128151   2.937   3.668   3.122
 9084SOL    HW228152   2.873   3.818   3.131
 9085SOL     OW28153   1.709   1.925   0.718
 9085SOL    HW128154   1.802   1.957   0.695
 9085SOL    HW228155   1.680   1.967   0.803
 9086SOL     OW28156   0.767   4.455   0.947
 9086SOL    HW128157   0.693   4.503   0.900
 9086SOL    HW228158   0.778   4.491   1.039
 9087SOL     OW28159   4.926   3.628   2.005
 9087SOL    HW128160   4.900   3.573   2.084
 9087SOL    HW228161   5.003   3.687   2.029
 9088SOL     OW28162   5.093   0.438   6.922
 9088SOL    HW128163   5.057   0.350   6.893
 9088SOL    HW228164   5.098   0.442   0.005
 9089SOL     OW28165   4.477   0.167   5.264
 9089SOL    HW128166   4.435   0.083   5.298
 9089SOL    HW228167   4.461   0.241   5.329
 9090SOL     OW28168   5.832   1.511   4.863
 9090SOL    HW128169   5.857   1.589   4.921
 9090SOL    HW228170   5.890   1.433   4.885
 9091SOL     OW28171   3.087   3.631   0.092
 9091SOL    HW128172   3.068   3.542   0.134
 9091SOL    HW228173   3.032   3.641   0.009
 9092SOL     OW28174   0.291   2.257   0.134
 9092SOL    HW128175   0.318   2.345   0.174
 9092SOL    HW228176   0.239   2.272   0.050
 9093SOL     OW28177   1.447   6.320   5.790
 9093SOL    HW128178   1.499   6.354   5.869
 9093SOL    HW228179   1.419   6.397   5.734
 9094SOL     OW28180   0.577   3.910   2.179
 9094SOL    HW128181   0.642   3.902   2.104
 9094SOL    HW228182   0.600   3.843   2.250
 9095SOL     OW28183   5.872   6.260   4.991
 9095SOL    HW128184   5.808   6.184   4.979
 9095SOL    HW228185   5.935   6.240   5.065
 9096SOL     OW28186   6.196   5.617   2.948
 9096SOL    HW128187   6.238   5.634   3.038
 9096SOL    HW228188   6.186   5.704   2.900
 9097SOL     OW28189   0.718   2.849   6.405
 9097SOL    HW128190   0.745   2.754   6.399
 9097SOL    HW228191   0.671   2.876   6.321
 9098SOL     OW28192   1.516   3.704   4.239
 9098SOL    HW128193   1.499   3.721   4.336
 9098SOL    HW228194   1.575   3.624   4.229
 9099SOL     OW28195   2.543   2.577   6.847
 9099SOL    HW128196   2.597   2.551   6.928
 9099SOL    HW228197   2.604   2.586   6.768
 9100SOL     OW28198   0.887   4.884   3.088
 9100SOL    HW128199   0.967   4.825   3.099
 9100SOL    HW228200   0.916   4.974   3.053
 9101SOL     OW28201   0.988   2.584   1.988
 9101SOL    HW128202   1.052   2.661   2.000
 9101SOL    HW228203   0.942   2.565   2.074
 9102SOL     OW28204   3.993   6.439   3.312
 9102SOL    HW128205   4.040   6.507   3.255
 9102SOL    HW228206   3.924   6.391   3.257
 9103SOL     OW28207   6.234   1.526   0.577
 9103SOL    HW128208   6.203   1.610   0.532
 9103SOL    HW228209   6.180   1.510   0.659
 9104SOL     OW28210   6.170   0.925   6.752
 9104SOL    HW128211   6.233   0.994   6.717
 9104SOL    HW228212   6.203   0.892   6.841
 9105SOL     OW28213   2.071   0.306   6.046
 9105SOL    HW128214   2.086   0.372   6.120
 9105SOL    HW228215   2.000   0.341   5.985
 9106SOL     OW28216   1.842   4.178   1.046
 9106SOL    HW128217   1.792   4.138   1.123
 9106SOL    HW228218   1.914   4.238   1.081
 9107SOL     OW28219   2.410   0.898   0.039
 9107SOL    HW128220   2.334   0.924   0.097
 9107SOL    HW228221   2.378   0.834   6.985
 9108SOL     OW28222   5.754   5.032   6.089
 9108SOL    HW128223   5.730   4.974   6.011
 9108SOL    HW228224   5.840   5.001   6.129
 9109SOL     OW28225   5.115   3.048   2.523
 9109SOL    HW128226   5.174   3.129   2.516
 9109SOL    HW228227   5.160   2.978   2.578
 9110SOL     OW28228   1.343   6.064   4.963
 9110SOL    HW128229   1.317   6.156   4.934
 9110SOL    HW228230   1.382   6.014   4.886
 9111SOL     OW28231   3.970   2.994   5.659
 9111SOL    HW128232   3.942   2.898   5.662
 9111SOL    HW228233   3.942   3.039   5.744
 9112SOL     OW28234   1.018   5.276   2.338
 9112SOL    HW128235   1.028   5.304   2.243
 9112SOL    HW228236   1.105   5.288   2.386
 9113SOL     OW28237   5.422   1.493   3.606
 9113SOL    HW128238   5.487   1.563   3.636
 9113SOL    HW228239   5.413   1.424   3.677
 9114SOL     OW28240   1.628   5.860   5.197
 9114SOL    HW128241   1.721   5.877   5.230
 9114SOL    HW228242   1.576   5.945   5.195
 9115SOL     OW28243   5.017   4.181   4.347
 9115SOL    HW128244   5.051   4.100   4.395
 9115SOL    HW228245   5.037   4.173   4.249
 9116SOL     OW28246   1.007   0.143   3.026
 9116SOL    HW128247   0.989   0.121   3.122
 9116SOL    HW228248   0.934   0.106   2.969
 9117SOL     OW28249   3.321   0.459   0.338
 9117SOL    HW128250   3.369   0.398   0.402
 9117SOL    HW228251   3.236   0.416   0.308
 9118SOL     OW28252   6.298   4.606   1.446
 9118SOL    HW128253   6.307   4.536   1.375
 9118SOL    HW228254   6.328   4.568   1.534
 9119SOL     OW28255   3.769   0.476   1.069
 9119SOL    HW128256   3.717   0.423   1.137
 9119SOL    HW228257   3.707   0.539   1.022
 9120SOL     OW28258   6.088   3.142   5.137
 9120SOL    HW128259   6.115   3.116   5.044
 9120SOL    HW228260   6.137   3.225   5.164
 9121SOL     OW28261   2.963   0.454   4.910
 9121SOL    HW128262   3.009   0.514   4.976
 9121SOL    HW228263   3.003   0.467   4.820
 9122SOL     OW28264   1.817   3.889   2.412
 9122SOL    HW128265   1.862   3.800   2.410
 9122SOL    HW228266   1.751   3.891   2.487
 9123SOL     OW28267   0.713   6.978   3.508
 9123SOL    HW128268   0.637   6.932   3.461
 9123SOL    HW228269   0.782   6.911   3.534
 9124SOL     OW28270   2.783   5.470   1.451
 9124SOL    HW128271   2.857   5.536   1.457
 9124SOL    HW228272   2.777   5.435   1.357
 9125SOL     OW28273   4.479   6.245   1.211
 9125SOL    HW128274   4.447   6.239   1.117
 9125SOL    HW228275   4.557   6.308   1.215
 9126SOL     OW28276   3.958   4.379   0.276
 9126SOL    HW128277   3.874   4.342   0.316
 9126SOL    HW228278   4.037   4.348   0.329
 9127SOL     OW28279   0.086   4.793   4.438
 9127SOL    HW128280   0.025   4.870   4.457
 9127SOL    HW228281   0.123   4.803   4.345
 9128SOL     OW28282   5.764   3.677   5.781
 9128SOL    HW128283   5.706   3.623   5.720
 9128SOL    HW228284   5.778   3.768   5.742
 9129SOL     OW28285   1.698   2.353   1.124
 9129SOL    HW128286   1.798   2.351   1.129
 9129SOL    HW228287   1.659   2.322   1.210
 9130SOL     OW28288   2.873   3.850   4.942
 9130SOL    HW128289   2.935   3.903   4.884
 9130SOL    HW228290   2.822   3.785   4.886
 9131SOL     OW28291   5.186   2.389   0.978
 9131SOL    HW128292   5.086   2.388   0.970
 9131SOL    HW228293   5.215   2.315   1.037
 9132SOL     OW28294   6.580   4.517   3.285
 9132SOL    HW128295   6.656   4.498   3.347
 9132SOL    HW228296   6.499   4.539   3.338
 9133SOL     OW28297   4.587   1.145   0.940
 9133SOL    HW128298   4.627   1.196   1.016
 9133SOL    HW228299   4.598   1.197   0.856
 9134SOL     OW28300   4.430   4.594   0.383
 9134SOL    HW128301   4.411   4.655   0.306
 9134SOL    HW228302   4.472   4.510   0.348
 9135SOL     OW28303   6.658   6.615   2.551
 9135SOL    HW128304   6.691   6.636   2.643
 9135SOL    HW228305   6.560   6.634   2.546
 9136SOL     OW28306   6.306   4.314   6.890
 9136SOL    HW128307   6.244   4.379   6.846
 9136SOL    HW228308   6.311   4.334   6.988
 9137SOL     OW28309   5.457   6.114   6.279
 9137SOL    HW128310   5.468   6.018   6.256
 9137SOL    HW228311   5.359   6.136   6.284
 9138SOL     OW28312   3.258   3.158   0.820
 9138SOL    HW128313   3.304   3.207   0.894
 9138SOL    HW228314   3.167   3.130   0.851
 9139SOL     OW28315   6.773   0.343   0.660
 9139SOL    HW128316   6.738   0.254   0.634
 9139SOL    HW228317   6.750   0.410   0.589
 9140SOL     OW28318   1.214   4.015   3.147
 9140SOL    HW128319   1.151   4.083   3.109
 9140SOL    HW228320   1.308   4.049   3.142
 9141SOL     OW28321   6.733   5.946   5.119
 9141SOL    HW128322   6.821   5.981   5.150
 9141SOL    HW228323   6.677   5.922   5.198
 9142SOL     OW28324   1.556   4.339   4.897
 9142SOL    HW128325   1.548   4.280   4.817
 9142SOL    HW228326   1.543   4.285   4.980
 9143SOL     OW28327   6.947   4.293   3.187
 9143SOL    HW128328   6.872   4.312   3.124
 9143SOL    HW228329   6.910   4.281   3.280
 9144SOL     OW28330   2.563   4.561   5.182
 9144SOL    HW128331   2.658   4.565   5.151
 9144SOL    HW228332   2.505   4.614   5.119
 9145SOL     OW28333   1.795   6.144   5.769
 9145SOL    HW128334   1.859   6.113   5.698
 9145SOL    HW228335   1.768   6.238   5.751
 9146SOL     OW28336   5.633   2.765   3.296
 9146SOL    HW128337   5.701   2.834   3.321
 9146SOL    HW228338   5.679   2.684   3.260
 9147SOL     OW28339   4.033   6.743   5.052
 9147SOL    HW128340   4.120   6.760   5.005
 9147SOL    HW228341   4.050   6.731   5.150
 9148SOL     OW28342   5.871   5.944   1.629
 9148SOL    HW128343   5.818   5.862   1.644
 9148SOL    HW228344   5.967   5.926   1.651
 9149SOL     OW28345   0.177   3.596   1.568
 9149SOL    HW128346   0.167   3.641   1.656
 9149SOL    HW228347   0.187   3.665   1.496
 9150SOL     OW28348   2.075   2.920   0.690
 9150SOL    HW128349   2.116   2.858   0.622
 9150SOL    HW228350   2.025   2.992   0.643
 9151SOL     OW28351   1.791   3.335   3.984
 9151SOL    HW128352   1.766   3.304   3.893
 9151SOL    HW228353   1.799   3.257   4.045
 9152SOL     OW28354   1.476   4.053   2.410
 9152SOL    HW128355   1.444   4.137   2.455
 9152SOL    HW228356   1.399   3.992   2.394
 9153SOL     OW28357   0.717   3.889   6.174
 9153SOL    HW128358   0.805   3.907   6.131
 9153SOL    HW228359   0.659   3.970   6.165
 9154SOL     OW28360   5.403   4.941   2.972
 9154SOL    HW128361   5.403   4.904   3.065
 9154SOL    HW228362   5.473   5.011   2.963
 9155SOL     OW28363   1.621   6.670   2.884
 9155SOL    HW128364   1.643   6.732   2.959
 9155SOL    HW228365   1.539   6.617   2.907
 9156SOL     OW28366   6.542   4.050   6.188
 9156SOL    HW128367   6.552   4.098   6.275
 9156SOL    HW228368   6.471   4.095   6.134
 9157SOL     OW28369   1.629   4.014   6.719
 9157SOL    HW128370   1.578   3.930   6.735
 9157SOL    HW228371   1.689   4.032   6.796
 9158SOL     OW28372   6.763   3.894   4.939
 9158SOL    HW128373   6.794   3.799   4.937
 9158SOL    HW228374   6.835   3.953   4.903
 9159SOL     OW28375   3.005   1.269   4.066
 9159SOL    HW128376   3.059   1.342   4.025
 9159SOL    HW228377   2.925   1.308   4.111
 9160SOL     OW28378   0.766   4.323   1.635
 9160SOL    HW128379   0.756   4.319   1.735
 9160SOL    HW228380   0.861   4.342   1.613
 9161SOL     OW28381   6.695   4.216   2.194
 9161SOL    HW128382   6.710   4.308   2.157
 9161SOL    HW228383   6.597   4.199   2.202
 9162SOL     OW28384   4.428   2.000   1.446
 9162SOL    HW128385   4.375   1.915   1.448
 9162SOL    HW228386   4.478   2.005   1.360
 9163SOL     OW28387   1.868   2.535   3.479
 9163SOL    HW128388   1.862   2.565   3.384
 9163SOL    HW228389   1.963   2.538   3.509
 9164SOL     OW28390   2.805   6.510   0.480
 9164SOL    HW128391   2.824   6.465   0.568
 9164SOL    HW228392   2.805   6.610   0.493
 9165SOL     OW28393   5.335   1.575   6.166
 9165SOL    HW128394   5.270   1.501   6.146
 9165SOL    HW228395   5.292   1.663   6.144
 9166SOL     OW28396   5.534   6.252   1.166
 9166SOL    HW128397   5.478   6.178   1.202
 9166SOL    HW228398   5.549   6.239   1.068
 9167SOL     OW28399   1.650   1.212   4.827
 9167SOL    HW128400   1.689   1.286   4.882
 9167SOL    HW228401   1.593   1.154   4.886
 9168SOL     OW28402   6.768   5.974   4.551
 9168SOL    HW128403   6.709   5.909   4.598
 9168SOL    HW228404   6.751   5.970   4.453
 9169SOL     OW28405   6.800   6.300   1.488
 9169SOL    HW128406   6.877   6.275   1.428
 9169SOL    HW228407   6.780   6.397   1.475
 9170SOL     OW28408   1.402   0.948   6.213
 9170SOL    HW128409   1.377   0.877   6.148
 9170SOL    HW228410   1.501   0.962   6.211
 9171SOL     OW28411   3.284   5.217   6.430
 9171SOL    HW128412   3.347   5.217   6.508
 9171SOL    HW228413   3.242   5.127   6.421
 9172SOL     OW28414   4.812   1.579   4.263
 9172SOL    HW128415   4.852   1.491   4.236
 9172SOL    HW228416   4.884   1.640   4.296
 9173SOL     OW28417   5.447   3.578   5.249
 9173SOL    HW128418   5.523   3.566   5.313
 9173SOL    HW228419   5.396   3.660   5.272
 9174SOL     OW28420   0.138   4.764   0.990
 9174SOL    HW128421   0.123   4.712   1.073
 9174SOL    HW228422   0.071   4.736   0.921
 9175SOL     OW28423   2.031   0.201   0.133
 9175SOL    HW128424   1.939   0.171   0.159
 9175SOL    HW228425   2.082   0.226   0.215
 9176SOL     OW28426   1.587   1.570   2.222
 9176SOL    HW128427   1.557   1.585   2.128
 9176SOL    HW228428   1.511   1.585   2.285
 9177SOL     OW28429   0.128   5.094   3.887
 9177SOL    HW128430   0.095   5.179   3.846
 9177SOL    HW228431   0.213   5.067   3.843
 9178SOL     OW28432   2.181   5.151   0.684
 9178SOL    HW128433   2.213   5.234   0.638
 9178SOL    HW228434   2.253   5.116   0.744
 9179SOL     OW28435   3.171   5.447   4.289
 9179SOL    HW128436   3.100   5.433   4.358
 9179SOL    HW228437   3.132   5.493   4.210
 9180SOL     OW28438   0.249   0.989   4.981
 9180SOL    HW128439   0.280   1.050   5.053
 9180SOL    HW228440   0.251   1.037   4.893
 9181SOL     OW28441   2.306   1.941   3.724
 9181SOL    HW128442   2.392   1.950   3.675
 9181SOL    HW228443   2.269   1.849   3.712
 9182SOL     OW28444   0.921   1.629   2.945
 9182SOL    HW128445   0.902   1.640   3.043
 9182SOL    HW228446   0.858   1.561   2.907
 9183SOL     OW28447   1.169   2.022   5.940
 9183SOL    HW128448   1.240   1.952   5.947
 9183SOL    HW228449   1.119   2.011   5.854
 9184SOL     OW28450   4.025   3.144   0.569
 9184SOL    HW128451   4.046   3.193   0.654
 9184SOL    HW228452   4.077   3.059   0.566
 9185SOL     OW28453   0.931   0.629   6.654
 9185SOL    HW128454   0.849   0.572   6.666
 9185SOL    HW228455   0.904   0.723   6.636
 9186SOL     OW28456   5.423   0.717   6.221
 9186SOL    HW128457   5.486   0.795   6.228
 9186SOL    HW228458   5.328   0.751   6.220
 9187SOL     OW28459   5.847   2.230   0.848
 9187SOL    HW128460   5.806   2.320   0.865
 9187SOL    HW228461   5.946   2.239   0.837
 9188SOL     OW28462   1.360   0.409   2.392
 9188SOL    HW128463   1.311   0.495   2.381
 9188SOL    HW228464   1.394   0.378   2.303
 9189SOL     OW28465   4.421   1.179   5.231
 9189SOL    HW128466   4.437   1.272   5.263
 9189SOL    HW228467   4.506   1.126   5.237
 9190SOL     OW28468   6.102   1.916   5.589
 9190SOL    HW128469   6.099   1.998   5.532
 9190SOL    HW228470   6.188   1.868   5.574
 9191SOL     OW28471   5.673   0.257   0.944
 9191SOL    HW128472   5.604   0.287   0.878
 9191SOL    HW228473   5.751   0.218   0.895
 9192SOL     OW28474   4.974   3.929   4.082
 9192SOL    HW128475   4.989   3.881   4.169
 9192SOL    HW228476   5.016   3.877   4.008
 9193SOL     OW28477   2.914   3.343   3.359
 9193SOL    HW128478   2.991   3.280   3.371
 9193SOL    HW228479   2.873   3.329   3.269
 9194SOL     OW28480   4.235   5.835   2.721
 9194SOL    HW128481   4.210   5.740   2.701
 9194SOL    HW228482   4.177   5.870   2.794
 9195SOL     OW28483   6.900   3.076   2.523
 9195SOL    HW128484   6.848   3.127   2.592
 9195SOL    HW228485   6.839   3.047   2.450
 9196SOL     OW28486   5.050   6.568   3.477
 9196SOL    HW128487   5.058   6.618   3.563
 9196SOL    HW228488   4.980   6.610   3.420
 9197SOL     OW28489   3.698   3.028   5.462
 9197SOL    HW128490   3.765   3.024   5.388
 9197SOL    HW228491   3.711   3.112   5.514
 9198SOL     OW28492   5.572   2.204   5.678
 9198SOL    HW128493   5.626   2.261   5.616
 9198SOL    HW228494   5.511   2.262   5.732
 9199SOL     OW28495   1.621   3.370   6.353
 9199SOL    HW128496   1.548   3.350   6.287
 9199SOL    HW228497   1.613   3.307   6.431
 9200SOL     OW28498   5.744   6.588   0.753
 9200SOL    HW128499   5.780   6.574   0.845
 9200SOL    HW228500   5.671   6.657   0.756
 9201SOL     OW28501   1.496   4.096   3.091
 9201SOL    HW128502   1.588   4.070   3.060
 9201SOL    HW228503   1.501   4.182   3.141
 9202SOL     OW28504   3.120   5.614   3.363
 9202SOL    HW128505   3.077   5.571   3.442
 9202SOL    HW228506   3.130   5.547   3.289
 9203SOL     OW28507   4.905   0.710   6.144
 9203SOL    HW128508   4.946   0.771   6.076
 9203SOL    HW228509   4.862   0.633   6.097
 9204SOL     OW28510   5.211   4.123   2.013
 9204SOL    HW128511   5.205   4.180   1.930
 9204SOL    HW228512   5.231   4.182   2.092
 9205SOL     OW28513   4.886   3.177   2.185
 9205SOL    HW128514   4.975   3.131   2.190
 9205SOL    HW228515   4.830   3.135   2.114
 9206SOL     OW28516   0.659   6.655   2.931
 9206SOL    HW128517   0.624   6.732   2.985
 9206SOL    HW228518   0.582   6.606   2.889
 9207SOL     OW28519   3.930   6.556   6.559
 9207SOL    HW128520   3.916   6.652   6.581
 9207SOL    HW228521   4.027   6.538   6.547
 9208SOL     OW28522   4.913   4.552   2.119
 9208SOL    HW128523   4.877   4.549   2.026
 9208SOL    HW228524   5.012   4.536   2.117
 9209SOL     OW28525   3.699   0.301   3.128
 9209SOL    HW128526   3.667   0.213   3.095
 9209SOL    HW228527   3.715   0.296   3.226
 9210SOL     OW28528   1.373   6.725   0.445
 9210SOL    HW128529   1.408   6.767   0.361
 9210SOL    HW228530   1.337   6.634   0.425
 9211SOL     OW28531   4.808   1.550   5.536
 9211SOL    HW128532   4.854   1.464   5.515
 9211SOL    HW228533   4.793   1.557   5.634
 9212SOL     OW28534   5.741   3.765   4.974
 9212SOL    HW128535   5.785   3.729   5.056
 9212SOL    HW228536   5.722   3.863   4.986
 9213SOL     OW28537   6.883   0.123   2.810
 9213SOL    HW128538   6.784   0.130   2.824
 9213SOL    HW228539   6.902   0.117   2.712
 9214SOL     OW28540   2.384   2.420   5.501
 9214SOL    HW128541   2.445   2.402   5.424
 9214SOL    HW228542   2.328   2.500   5.482
 9215SOL     OW28543   0.163   3.154   2.537
 9215SOL    HW128544   0.152   3.238   2.590
 9215SOL    HW228545   0.074   3.112   2.520
 9216SOL     OW28546   3.028   5.804   3.950
 9216SOL    HW128547   2.953   5.870   3.951
 9216SOL    HW228548   3.110   5.847   3.914
 9217SOL     OW28549   4.461   0.958   6.585
 9217SOL    HW128550   4.398   1.012   6.641
 9217SOL    HW228551   4.474   1.003   6.497
 9218SOL     OW28552   5.691   5.529   6.046
 9218SOL    HW128553   5.689   5.598   6.118
 9218SOL    HW228554   5.694   5.438   6.086
 9219SOL     OW28555   3.526   2.567   5.631
 9219SOL    HW128556   3.522   2.664   5.609
 9219SOL    HW228557   3.514   2.513   5.547
 9220SOL     OW28558   0.299   6.997   3.175
 9220SOL    HW128559   0.207   6.961   3.190
 9220SOL    HW228560   0.293   0.078   3.152
 9221SOL     OW28561   1.988   1.467   0.275
 9221SOL    HW128562   1.912   1.462   0.211
 9221SOL    HW228563   2.048   1.543   0.250
 9222SOL     OW28564   1.844   3.201   4.247
 9222SOL    HW128565   1.937   3.230   4.225
 9222SOL    HW228566   1.833   3.197   4.347
 9223SOL     OW28567   0.399   3.242   4.978
 9223SOL    HW128568   0.416   3.204   4.887
 9223SOL    HW228569   0.468   3.205   5.042
 9224SOL     OW28570   2.640   4.618   3.715
 9224SOL    HW128571   2.640   4.550   3.641
 9224SOL    HW228572   2.655   4.709   3.676
 9225SOL     OW28573   5.634   5.702   6.263
 9225SOL    HW128574   5.557   5.639   6.268
 9225SOL    HW228575   5.604   5.789   6.223
 9226SOL     OW28576   0.799   0.716   0.651
 9226SOL    HW128577   0.700   0.715   0.660
 9226SOL    HW228578   0.830   0.635   0.601
 9227SOL     OW28579   2.601   4.316   0.534
 9227SOL    HW128580   2.547   4.254   0.477
 9227SOL    HW228581   2.698   4.309   0.509
 9228SOL     OW28582   3.549   3.431   5.320
 9228SOL    HW128583   3.457   3.393   5.306
 9228SOL    HW228584   3.545   3.530   5.314
 9229SOL     OW28585   0.152   4.808   0.059
 9229SOL    HW128586   0.173   4.734   7.012
 9229SOL    HW228587   0.237   4.840   0.103
 9230SOL     OW28588   4.707   1.471   4.831
 9230SOL    HW128589   4.777   1.543   4.836
 9230SOL    HW228590   4.683   1.454   4.736
 9231SOL     OW28591   6.558   5.935   3.055
 9231SOL    HW128592   6.570   6.015   2.996
 9231SOL    HW228593   6.637   5.925   3.115
 9232SOL     OW28594   1.275   5.151   2.425
 9232SOL    HW128595   1.197   5.092   2.402
 9232SOL    HW228596   1.352   5.129   2.365
 9233SOL     OW28597   0.567   6.534   6.616
 9233SOL    HW128598   0.559   6.442   6.654
 9233SOL    HW228599   0.651   6.541   6.563
 9234SOL     OW28600   2.415   3.839   7.012
 9234SOL    HW128601   2.440   3.863   0.090
 9234SOL    HW228602   2.332   3.783   7.014
 9235SOL     OW28603   1.716   1.913   2.827
 9235SOL    HW128604   1.767   1.827   2.832
 9235SOL    HW228605   1.707   1.952   2.919
 9236SOL     OW28606   1.879   3.195   6.776
 9236SOL    HW128607   1.857   3.191   6.679
 9236SOL    HW228608   1.958   3.254   6.791
 9237SOL     OW28609   5.061   5.045   3.140
 9237SOL    HW128610   5.115   5.004   3.066
 9237SOL    HW228611   5.109   5.032   3.227
 9238SOL     OW28612   1.291   2.851   4.737
 9238SOL    HW128613   1.349   2.880   4.661
 9238SOL    HW228614   1.197   2.838   4.704
 9239SOL     OW28615   1.225   4.709   6.655
 9239SOL    HW128616   1.293   4.636   6.666
 9239SOL    HW228617   1.259   4.776   6.590
 9240SOL     OW28618   4.478   1.580   3.180
 9240SOL    HW128619   4.537   1.624   3.247
 9240SOL    HW228620   4.444   1.648   3.115
 9241SOL     OW28621   5.184   0.101   1.094
 9241SOL    HW128622   5.089   0.102   1.063
 9241SOL    HW228623   5.222   0.193   1.087
 9242SOL     OW28624   2.005   2.297   6.993
 9242SOL    HW128625   1.934   2.367   6.985
 9242SOL    HW228626   2.076   2.329   0.039
 9243SOL     OW28627   1.534   0.567   6.999
 9243SOL    HW128628   1.621   0.529   0.016
 9243SOL    HW228629   1.499   0.633   0.049
 9244SOL     OW28630   3.736   6.834   5.979
 9244SOL    HW128631   3.658   6.854   5.920
 9244SOL    HW228632   3.718   6.751   6.032
 9245SOL     OW28633   1.219   5.075   3.301
 9245SOL    HW128634   1.198   5.115   3.213
 9245SOL    HW228635   1.297   5.122   3.342
 9246SOL     OW28636   5.217   0.066   6.735
 9246SOL    HW128637   5.128   0.026   6.755
 9246SOL    HW228638   5.208   0.134   6.662
 9247SOL     OW28639   4.121   5.456   2.885
 9247SOL    HW128640   4.125   5.356   2.893
 9247SOL    HW228641   4.032   5.488   2.917
 9248SOL     OW28642   2.323   0.296   6.467
 9248SOL    HW128643   2.282   0.260   6.384
 9248SOL    HW228644   2.268   0.372   6.501
 9249SOL     OW28645   3.106   6.390   0.921
 9249SOL    HW128646   3.064   6.438   0.998
 9249SOL    HW228647   3.201   6.417   0.912
 9250SOL     OW28648   0.492   2.708   4.270
 9250SOL    HW128649   0.535   2.624   4.237
 9250SOL    HW228650   0.404   2.686   4.311
 9251SOL     OW28651   2.929   2.400   0.378
 9251SOL    HW128652   2.940   2.359   0.468
 9251SOL    HW228653   2.957   2.496   0.381
 9252SOL     OW28654   5.700   2.011   5.292
 9252SOL    HW128655   5.770   1.942   5.308
 9252SOL    HW228656   5.613   1.979   5.328
 9253SOL     OW28657   1.016   6.092   5.374
 9253SOL    HW128658   1.042   6.187   5.361
 9253SOL    HW228659   0.948   6.066   5.306
 9254SOL     OW28660   0.265   4.820   2.445
 9254SOL    HW128661   0.310   4.821   2.356
 9254SOL    HW228662   0.185   4.760   2.442
 9255SOL     OW28663   6.713   4.417   0.770
 9255SOL    HW128664   6.619   4.390   0.792
 9255SOL    HW228665   6.716   4.514   0.746
 9256SOL     OW28666   2.646   6.214   1.059
 9256SOL    HW128667   2.552   6.248   1.068
 9256SOL    HW228668   2.706   6.269   1.116
 9257SOL     OW28669   6.353   5.685   4.012
 9257SOL    HW128670   6.362   5.701   4.111
 9257SOL    HW228671   6.335   5.773   3.967
 9258SOL     OW28672   3.232   5.067   1.190
 9258SOL    HW128673   3.240   5.163   1.165
 9258SOL    HW228674   3.163   5.057   1.262
 9259SOL     OW28675   1.503   1.960   0.002
 9259SOL    HW128676   1.594   1.955   0.042
 9259SOL    HW228677   1.496   1.893   6.944
 9260SOL     OW28678   5.453   3.707   4.918
 9260SOL    HW128679   5.425   3.682   5.011
 9260SOL    HW228680   5.552   3.705   4.911
 9261SOL     OW28681   3.324   2.222   1.710
 9261SOL    HW128682   3.331   2.157   1.785
 9261SOL    HW228683   3.415   2.236   1.670
 9262SOL     OW28684   6.597   6.141   5.494
 9262SOL    HW128685   6.591   6.057   5.440
 9262SOL    HW228686   6.686   6.145   5.540
 9263SOL     OW28687   2.240   4.567   3.751
 9263SOL    HW128688   2.244   4.491   3.686
 9263SOL    HW228689   2.299   4.641   3.720
 9264SOL     OW28690   5.404   4.408   6.404
 9264SOL    HW128691   5.392   4.338   6.474
 9264SOL    HW228692   5.442   4.366   6.321
 9265SOL     OW28693   6.049   1.541   1.318
 9265SOL    HW128694   6.011   1.623   1.277
 9265SOL    HW228695   6.129   1.511   1.266
 9266SOL     OW28696   1.751   4.513   1.407
 9266SOL    HW128697   1.711   4.504   1.498
 9266SOL    HW228698   1.690   4.473   1.339
 9267SOL     OW28699   6.916   0.519   4.014
 9267SOL    HW128700   6.971   0.590   4.059
 9267SOL    HW228701   6.849   0.483   4.079
 9268SOL     OW28702   0.190   0.365   1.448
 9268SOL    HW128703   0.152   0.457   1.452
 9268SOL    HW228704   0.276   0.362   1.499
 9269SOL     OW28705   3.270   1.198   0.278
 9269SOL    HW128706   3.353   1.183   0.331
 9269SOL    HW228707   3.291   1.197   0.181
 9270SOL     OW28708   1.982   0.542   5.890
 9270SOL    HW128709   2.079   0.548   5.914
 9270SOL    HW228710   1.937   0.628   5.911
 9271SOL     OW28711   1.264   5.778   4.616
 9271SOL    HW128712   1.336   5.827   4.665
 9271SOL    HW228713   1.235   5.831   4.537
 9272SOL     OW28714   6.724   6.677   6.305
 9272SOL    HW128715   6.673   6.763   6.316
 9272SOL    HW228716   6.798   6.690   6.239
 9273SOL     OW28717   4.974   4.094   3.391
 9273SOL    HW128718   4.889   4.083   3.444
 9273SOL    HW228719   5.046   4.040   3.434
 9274SOL     OW28720   0.748   2.939   0.988
 9274SOL    HW128721   0.731   2.911   0.893
 9274SOL    HW228722   0.733   2.861   1.049
 9275SOL     OW28723   6.891   0.767   0.756
 9275SOL    HW128724   6.886   0.824   0.838
 9275SOL    HW228725   6.914   0.673   0.783
 9276SOL     OW28726   2.458   5.540   0.216
 9276SOL    HW128727   2.462   5.450   0.259
 9276SOL    HW228728   2.448   5.610   0.286
 9277SOL     OW28729   5.453   5.273   1.934
 9277SOL    HW128730   5.505   5.190   1.953
 9277SOL    HW228731   5.451   5.331   2.015
 9278SOL     OW28732   0.842   0.112   5.326
 9278SOL    HW128733   0.782   0.111   5.246
 9278SOL    HW228734   0.925   0.164   5.305
 9279SOL     OW28735   3.564   6.012   1.555
 9279SOL    HW128736   3.545   6.103   1.593
 9279SOL    HW228737   3.659   5.988   1.574
 9280SOL     OW28738   1.492   6.285   2.659
 9280SOL    HW128739   1.566   6.351   2.663
 9280SOL    HW228740   1.408   6.331   2.631
 9281SOL     OW28741   2.303   5.193   0.082
 9281SOL    HW128742   2.362   5.243   0.146
 9281SOL    HW228743   2.331   5.212   7.005
 9282SOL     OW28744   3.169   0.094   5.376
 9282SOL    HW128745   3.236   0.105   5.449
 9282SOL    HW228746   3.108   0.174   5.375
 9283SOL     OW28747   4.177   6.632   1.122
 9283SOL    HW128748   4.269   6.596   1.137
 9283SOL    HW228749   4.183   6.722   1.079
 9284SOL     OW28750   4.613   3.965   5.502
 9284SOL    HW128751   4.630   3.874   5.463
 9284SOL    HW228752   4.688   3.989   5.564
 9285SOL     OW28753   0.461   4.885   2.909
 9285SOL    HW128754   0.394   4.922   2.844
 9285SOL    HW228755   0.543   4.856   2.860
 9286SOL     OW28756   4.597   6.392   1.602
 9286SOL    HW128757   4.656   6.418   1.525
 9286SOL    HW228758   4.539   6.315   1.574
 9287SOL     OW28759   4.056   3.650   5.794
 9287SOL    HW128760   4.152   3.672   5.777
 9287SOL    HW228761   4.013   3.622   5.708
 9288SOL     OW28762   3.769   1.867   2.579
 9288SOL    HW128763   3.742   1.832   2.489
 9288SOL    HW228764   3.699   1.841   2.646
 9289SOL     OW28765   4.915   6.282   0.554
 9289SOL    HW128766   4.839   6.300   0.492
 9289SOL    HW228767   4.990   6.344   0.533
 9290SOL     OW28768   4.736   1.103   4.428
 9290SOL    HW128769   4.653   1.059   4.461
 9290SOL    HW228770   4.814   1.074   4.484
 9291SOL     OW28771   1.071   4.317   6.362
 9291SOL    HW128772   1.118   4.247   6.415
 9291SOL    HW228773   1.093   4.407   6.399
 9292SOL     OW28774   0.996   1.401   6.881
 9292SOL    HW128775   0.941   1.340   6.823
 9292SOL    HW228776   0.961   1.398   6.975
 9293SOL     OW28777   5.044   2.766   4.450
 9293SOL    HW128778   5.034   2.686   4.510
 9293SOL    HW228779   5.110   2.829   4.489
 9294SOL     OW28780   4.527   0.100   6.656
 9294SOL    HW128781   4.452   0.036   6.672
 9294SOL    HW228782   4.493   0.194   6.662
 9295SOL     OW28783   0.414   0.790   4.867
 9295SOL    HW128784   0.356   0.859   4.910
 9295SOL    HW228785   0.362   0.742   4.796
 9296SOL     OW28786   2.280   4.881   6.108
 9296SOL    HW128787   2.369   4.872   6.062
 9296SOL    HW228788   2.294   4.888   6.207
 9297SOL     OW28789   6.390   6.077   2.077
 9297SOL    HW128790   6.413   6.000   2.137
 9297SOL    HW228791   6.465   6.092   2.013
 9298SOL     OW28792   0.980   4.719   6.227
 9298SOL    HW128793   1.039   4.663   6.169
 9298SOL    HW228794   1.001   4.815   6.212
 9299SOL     OW28795   2.342   2.733   4.322
 9299SOL    HW128796   2.256   2.782   4.308
 9299SOL    HW228797   2.349   2.704   4.417
 9300SOL     OW28798   1.837   5.884   4.896
 9300SOL    HW128799   1.874   5.972   4.927
 9300SOL    HW228800   1.891   5.810   4.935
 9301SOL     OW28801   0.365   4.438   4.171
 9301SOL    HW128802   0.421   4.369   4.215
 9301SOL    HW228803   0.369   4.523   4.223
 9302SOL     OW28804   2.042   3.491   4.872
 9302SOL    HW128805   1.962   3.539   4.909
 9302SOL    HW228806   2.110   3.558   4.843
 9303SOL     OW28807   2.458   4.319   0.091
 9303SOL    HW128808   2.466   4.408   0.135
 9303SOL    HW228809   2.512   4.318   0.007
 9304SOL     OW28810   4.823   5.276   6.753
 9304SOL    HW128811   4.795   5.182   6.769
 9304SOL    HW228812   4.851   5.287   6.658
 9305SOL     OW28813   1.832   1.679   1.182
 9305SOL    HW128814   1.918   1.725   1.205
 9305SOL    HW228815   1.814   1.607   1.248
 9306SOL     OW28816   6.933   6.499   5.243
 9306SOL    HW128817   0.008   6.487   5.282
 9306SOL    HW228818   6.920   6.595   5.218
 9307SOL     OW28819   1.542   3.381   1.676
 9307SOL    HW128820   1.632   3.410   1.645
 9307SOL    HW228821   1.506   3.311   1.614
 9308SOL     OW28822   2.034   3.209   1.856
 9308SOL    HW128823   2.081   3.232   1.942
 9308SOL    HW228824   2.065   3.271   1.784
 9309SOL     OW28825   4.864   5.002   6.739
 9309SOL    HW128826   4.826   4.918   6.777
 9309SOL    HW228827   4.955   5.018   6.777
 9310SOL     OW28828   5.806   6.371   0.131
 9310SOL    HW128829   5.874   6.390   0.060
 9310SOL    HW228830   5.843   6.396   0.220
 9311SOL     OW28831   4.674   3.895   1.181
 9311SOL    HW128832   4.625   3.810   1.203
 9311SOL    HW228833   4.632   3.937   1.100
 9312SOL     OW28834   0.717   3.165   3.398
 9312SOL    HW128835   0.774   3.087   3.424
 9312SOL    HW228836   0.735   3.242   3.459
 9313SOL     OW28837   0.622   0.949   2.128
 9313SOL    HW128838   0.538   0.984   2.087
 9313SOL    HW228839   0.639   0.856   2.095
 9314SOL     OW28840   5.307   4.116   0.487
 9314SOL    HW128841   5.274   4.045   0.549
 9314SOL    HW228842   5.377   4.078   0.427
 9315SOL     OW28843   4.735   6.884   6.192
 9315SOL    HW128844   4.765   6.841   6.277
 9315SOL    HW228845   4.642   6.920   6.203
 9316SOL     OW28846   5.279   0.800   5.573
 9316SOL    HW128847   5.279   0.735   5.649
 9316SOL    HW228848   5.198   0.784   5.516
 9317SOL     OW28849   3.700   5.831   2.660
 9317SOL    HW128850   3.780   5.776   2.683
 9317SOL    HW228851   3.618   5.785   2.693
 9318SOL     OW28852   3.766   6.888   1.969
 9318SOL    HW128853   3.730   6.978   1.990
 9318SOL    HW228854   3.691   6.823   1.960
 9319SOL     OW28855   3.204   2.604   6.430
 9319SOL    HW128856   3.215   2.598   6.330
 9319SOL    HW228857   3.251   2.526   6.472
 9320SOL     OW28858   6.271   6.477   0.008
 9320SOL    HW128859   6.302   6.518   6.938
 9320SOL    HW228860   6.348   6.464   0.069
 9321SOL     OW28861   0.502   3.219   4.542
 9321SOL    HW128862   0.506   3.120   4.551
 9321SOL    HW228863   0.589   3.260   4.570
 9322SOL     OW28864   6.432   3.248   0.006
 9322SOL    HW128865   6.427   3.278   0.101
 9322SOL    HW228866   6.339   3.239   6.985
 9323SOL     OW28867   0.451   2.184   6.128
 9323SOL    HW128868   0.492   2.099   6.161
 9323SOL    HW228869   0.506   2.220   6.053
 9324SOL     OW28870   0.900   4.309   2.014
 9324SOL    HW128871   0.892   4.406   2.035
 9324SOL    HW228872   0.975   4.294   1.950
 9325SOL     OW28873   1.056   4.460   3.219
 9325SOL    HW128874   1.046   4.413   3.307
 9325SOL    HW228875   0.966   4.471   3.177
 9326SOL     OW28876   4.745   4.190   1.821
 9326SOL    HW128877   4.800   4.173   1.903
 9326SOL    HW228878   4.654   4.222   1.849
 9327SOL     OW28879   3.509   0.775   3.120
 9327SOL    HW128880   3.431   0.811   3.170
 9327SOL    HW228881   3.583   0.843   3.121
 9328SOL     OW28882   2.132   0.318   3.912
 9328SOL    HW128883   2.048   0.347   3.958
 9328SOL    HW228884   2.109   0.269   3.828
 9329SOL     OW28885   0.164   5.595   6.401
 9329SOL    HW128886   0.229   5.519   6.402
 9329SOL    HW228887   0.115   5.598   6.488
 9330SOL     OW28888   6.691   6.410   0.024
 9330SOL    HW128889   6.665   6.393   6.945
 9330SOL    HW228890   6.726   6.503   0.033
 9331SOL     OW28891   2.011   3.176   3.483
 9331SOL    HW128892   1.937   3.225   3.529
 9331SOL    HW228893   2.099   3.203   3.522
 9332SOL     OW28894   5.225   5.850   0.807
 9332SOL    HW128895   5.166   5.918   0.764
 9332SOL    HW228896   5.302   5.896   0.850
 9333SOL     OW28897   4.231   3.720   0.933
 9333SOL    HW128898   4.150   3.663   0.954
 9333SOL    HW228899   4.242   3.789   1.005
 9334SOL     OW28900   5.982   6.219   5.771
 9334SOL    HW128901   5.999   6.204   5.869
 9334SOL    HW228902   5.883   6.221   5.756
 9335SOL     OW28903   0.885   3.451   2.133
 9335SOL    HW128904   0.984   3.451   2.117
 9335SOL    HW228905   0.840   3.507   2.064
 9336SOL     OW28906   5.824   6.947   5.854
 9336SOL    HW128907   5.743   6.935   5.797
 9336SOL    HW228908   5.842   0.028   5.868
 9337SOL     OW28909   2.344   0.280   6.152
 9337SOL    HW128910   2.304   0.371   6.152
 9337SOL    HW228911   2.288   0.219   6.096
 9338SOL     OW28912   5.670   6.752   7.008
 9338SOL    HW128913   5.643   6.656   7.002
 9338SOL    HW228914   5.770   6.760   6.999
 9339SOL     OW28915   6.465   3.748   5.418
 9339SOL    HW128916   6.531   3.686   5.461
 9339SOL    HW228917   6.488   3.843   5.443
 9340SOL     OW28918   3.563   5.155   0.740
 9340SOL    HW128919   3.509   5.072   0.725
 9340SOL    HW228920   3.623   5.142   0.818
 9341SOL     OW28921   5.196   4.561   6.298
 9341SOL    HW128922   5.271   4.511   6.341
 9341SOL    HW228923   5.121   4.498   6.278
 9342SOL     OW28924   3.651   0.432   4.267
 9342SOL    HW128925   3.707   0.420   4.186
 9342SOL    HW228926   3.663   0.525   4.302
 9343SOL     OW28927   4.510   4.386   1.416
 9343SOL    HW128928   4.470   4.303   1.376
 9343SOL    HW228929   4.590   4.361   1.471
 9344SOL     OW28930   6.135   6.901   5.048
 9344SOL    HW128931   6.228   6.933   5.064
 9344SOL    HW228932   6.131   6.803   5.064
 9345SOL     OW28933   0.974   5.368   0.122
 9345SOL    HW128934   0.876   5.388   0.132
 9345SOL    HW228935   1.002   5.302   0.191
 9346SOL     OW28936   6.059   6.675   1.127
 9346SOL    HW128937   6.064   6.764   1.172
 9346SOL    HW228938   6.123   6.612   1.172
 9347SOL     OW28939   3.653   5.725   0.704
 9347SOL    HW128940   3.610   5.635   0.717
 9347SOL    HW228941   3.615   5.790   0.769
 9348SOL     OW28942   2.573   5.827   1.742
 9348SOL    HW128943   2.561   5.852   1.838
 9348SOL    HW228944   2.621   5.901   1.694
 9349SOL     OW28945   6.820   6.078   2.070
 9349SOL    HW128946   6.751   6.145   2.096
 9349SOL    HW228947   6.908   6.102   2.110
 9350SOL     OW28948   6.735   0.733   6.234
 9350SOL    HW128949   6.724   0.654   6.295
 9350SOL    HW228950   6.754   0.815   6.289
 9351SOL     OW28951   3.336   3.135   6.204
 9351SOL    HW128952   3.270   3.209   6.210
 9351SOL    HW228953   3.291   3.048   6.224
 9352SOL     OW28954   3.339   2.521   5.816
 9352SOL    HW128955   3.327   2.429   5.853
 9352SOL    HW228956   3.420   2.523   5.757
 9353SOL     OW28957   0.617   3.751   1.432
 9353SOL    HW128958   0.520   3.765   1.453
 9353SOL    HW228959   0.656   3.687   1.498
 9354SOL     OW28960   5.008   1.866   1.661
 9354SOL    HW128961   4.964   1.798   1.603
 9354SOL    HW228962   4.938   1.918   1.710
 9355SOL     OW28963   6.121   0.652   2.984
 9355SOL    HW128964   6.211   0.629   3.022
 9355SOL    HW228965   6.074   0.568   2.956
 9356SOL     OW28966   4.620   4.331   2.479
 9356SOL    HW128967   4.537   4.382   2.503
 9356SOL    HW228968   4.608   4.287   2.391
 9357SOL     OW28969   3.145   2.832   0.577
 9357SOL    HW128970   3.058   2.859   0.537
 9357SOL    HW228971   3.214   2.901   0.556
 9358SOL     OW28972   5.684   4.871   1.782
 9358SOL    HW128973   5.659   4.920   1.698
 9358SOL    HW228974   5.609   4.811   1.809
 9359SOL     OW28975   6.111   4.237   6.446
 9359SOL    HW128976   6.018   4.254   6.478
 9359SOL    HW228977   6.110   4.224   6.347
 9360SOL     OW28978   1.776   0.520   6.108
 9360SOL    HW128979   1.734   0.464   6.037
 9360SOL    HW228980   1.843   0.466   6.158
 9361SOL     OW28981   3.045   0.401   2.327
 9361SOL    HW128982   3.062   0.485   2.379
 9361SOL    HW228983   2.975   0.418   2.258
 9362SOL     OW28984   2.301   2.014   3.415
 9362SOL    HW128985   2.325   2.078   3.342
 9362SOL    HW228986   2.202   2.000   3.416
 9363SOL     OW28987   2.738   5.928   2.161
 9363SOL    HW128988   2.762   5.946   2.256
 9363SOL    HW228989   2.818   5.941   2.103
 9364SOL     OW28990   5.266   4.842   0.072
 9364SOL    HW128991   5.243   4.831   6.992
 9364SOL    HW228992   5.246   4.936   0.101
 9365SOL     OW28993   2.512   1.259   4.894
 9365SOL    HW128994   2.484   1.312   4.974
 9365SOL    HW228995   2.607   1.280   4.872
 9366SOL     OW28996   2.985   1.633   0.419
 9366SOL    HW128997   3.006   1.543   0.382
 9366SOL    HW228998   3.050   1.656   0.491
 9367SOL     OW28999   6.879   5.587   2.977
 9367SOL    HW129000   6.869   5.659   2.908
 9367SOL    HW229001   6.972   5.589   3.014
 9368SOL     OW29002   3.197   2.609   1.310
 9368SOL    HW129003   3.236   2.698   1.287
 9368SOL    HW229004   3.270   2.545   1.332
 9369SOL     OW29005   0.187   2.651   4.818
 9369SOL    HW129006   0.276   2.684   4.851
 9369SOL    HW229007   0.129   2.627   4.896
 9370SOL     OW29008   6.306   1.139   3.147
 9370SOL    HW129009   6.356   1.053   3.151
 9370SOL    HW229010   6.338   1.199   3.220
 9371SOL     OW29011   0.179   6.670   1.004
 9371SOL    HW129012   0.136   6.693   0.916
 9371SOL    HW229013   0.198   6.754   1.055
 9372SOL     OW29014   6.024   0.213   5.348
 9372SOL    HW129015   6.060   0.131   5.392
 9372SOL    HW229016   6.057   0.294   5.396
 9373SOL     OW29017   4.278   1.510   3.371
 9373SOL    HW129018   4.337   1.464   3.439
 9373SOL    HW229019   4.335   1.560   3.306
 9374SOL     OW29020   5.238   3.958   0.684
 9374SOL    HW129021   5.258   3.874   0.633
 9374SOL    HW229022   5.175   3.938   0.758
 9375SOL     OW29023   0.777   1.096   3.813
 9375SOL    HW129024   0.787   1.092   3.913
 9375SOL    HW229025   0.811   1.184   3.780
 9376SOL     OW29026   1.537   3.685   1.860
 9376SOL    HW129027   1.561   3.611   1.797
 9376SOL    HW229028   1.614   3.702   1.921
 9377SOL     OW29029   6.080   5.571   3.874
 9377SOL    HW129030   6.162   5.569   3.817
 9377SOL    HW229031   6.035   5.659   3.865
 9378SOL     OW29032   3.000   6.955   0.328
 9378SOL    HW129033   2.934   7.012   0.377
 9378SOL    HW229034   2.985   6.965   0.229
 9379SOL     OW29035   5.183   4.659   4.486
 9379SOL    HW129036   5.183   4.732   4.418
 9379SOL    HW229037   5.131   4.581   4.452
 9380SOL     OW29038   5.803   6.788   6.085
 9380SOL    HW129039   5.813   6.837   5.999
 9380SOL    HW229040   5.892   6.754   6.115
 9381SOL     OW29041   2.453   1.661   5.906
 9381SOL    HW129042   2.492   1.745   5.943
 9381SOL    HW229043   2.458   1.588   5.975
 9382SOL     OW29044   4.804   2.368   3.086
 9382SOL    HW129045   4.900   2.383   3.110
 9382SOL    HW229046   4.768   2.289   3.137
 9383SOL     OW29047   4.211   5.740   4.826
 9383SOL    HW129048   4.279   5.729   4.898
 9383SOL    HW229049   4.189   5.651   4.787
 9384SOL     OW29050   4.759   5.816   1.374
 9384SOL    HW129051   4.836   5.841   1.433
 9384SOL    HW229052   4.781   5.732   1.325
 9385SOL     OW29053   3.588   1.391   3.625
 9385SOL    HW129054   3.680   1.362   3.599
 9385SOL    HW229055   3.593   1.479   3.671
 9386SOL     OW29056   3.204   6.640   4.652
 9386SOL    HW129057   3.150   6.725   4.647
 9386SOL    HW229058   3.150   6.564   4.616
 9387SOL     OW29059   3.717   0.019   6.808
 9387SOL    HW129060   3.797   6.983   6.778
 9387SOL    HW229061   3.744   0.115   6.822
 9388SOL     OW29062   6.594   0.426   3.295
 9388SOL    HW129063   6.544   0.479   3.364
 9388SOL    HW229064   6.553   0.335   3.287
 9389SOL     OW29065   2.630   0.777   5.686
 9389SOL    HW129066   2.534   0.800   5.698
 9389SOL    HW229067   2.640   0.678   5.676
 9390SOL     OW29068   3.138   5.183   2.287
 9390SOL    HW129069   3.102   5.258   2.232
 9390SOL    HW229070   3.092   5.098   2.261
 9391SOL     OW29071   0.958   1.255   5.770
 9391SOL    HW129072   0.997   1.265   5.678
 9391SOL    HW229073   1.008   1.183   5.819
 9392SOL     OW29074   1.304   5.984   4.387
 9392SOL    HW129075   1.345   5.894   4.376
 9392SOL    HW229076   1.357   6.036   4.454
 9393SOL     OW29077   3.715   2.232   5.228
 9393SOL    HW129078   3.719   2.328   5.255
 9393SOL    HW229079   3.620   2.205   5.210
 9394SOL     OW29080   5.964   2.524   2.838
 9394SOL    HW129081   5.984   2.457   2.766
 9394SOL    HW229082   5.912   2.600   2.800
 9395SOL     OW29083   2.327   3.117   0.507
 9395SOL    HW129084   2.331   3.170   0.422
 9395SOL    HW229085   2.283   3.173   0.578
 9396SOL     OW29086   6.276   0.149   6.275
 9396SOL    HW129087   6.211   0.223   6.290
 9396SOL    HW229088   6.333   0.137   6.356
 9397SOL     OW29089   2.742   0.757   0.802
 9397SOL    HW129090   2.664   0.783   0.745
 9397SOL    HW229091   2.710   0.735   0.894
 9398SOL     OW29092   2.540   1.390   6.053
 9398SOL    HW129093   2.591   1.441   6.122
 9398SOL    HW229094   2.603   1.346   5.989
 9399SOL     OW29095   6.858   0.437   5.624
 9399SOL    HW129096   6.864   0.509   5.555
 9399SOL    HW229097   6.812   0.472   5.705
 9400SOL     OW29098   5.745   2.740   2.815
 9400SOL    HW129099   5.753   2.756   2.913
 9400SOL    HW229100   5.769   2.824   2.766
 9401SOL     OW29101   3.250   0.160   2.875
 9401SOL    HW129102   3.307   0.167   2.957
 9401SOL    HW229103   3.304   0.119   2.801
 9402SOL     OW29104   2.168   5.148   6.266
 9402SOL    HW129105   2.189   5.208   6.189
 9402SOL    HW229106   2.245   5.087   6.282
 9403SOL     OW29107   5.571   1.104   4.264
 9403SOL    HW129108   5.529   1.101   4.355
 9403SOL    HW229109   5.543   1.188   4.217
 9404SOL     OW29110   1.496   3.820   6.862
 9404SOL    HW129111   1.527   3.732   6.897
 9404SOL    HW229112   1.463   3.877   6.937
 9405SOL     OW29113   5.960   0.181   1.127
 9405SOL    HW129114   5.893   0.132   1.182
 9405SOL    HW229115   5.972   0.134   1.040
 9406SOL     OW29116   0.364   1.620   5.156
 9406SOL    HW129117   0.303   1.641   5.232
 9406SOL    HW229118   0.311   1.601   5.074
 9407SOL     OW29119   3.160   6.056   2.819
 9407SOL    HW129120   3.243   6.008   2.849
 9407SOL    HW229121   3.176   6.154   2.818
 9408SOL     OW29122   3.520   2.032   6.162
 9408SOL    HW129123   3.546   1.968   6.090
 9408SOL    HW229124   3.454   2.098   6.125
 9409SOL     OW29125   5.749   4.299   3.773
 9409SOL    HW129126   5.799   4.380   3.802
 9409SOL    HW229127   5.652   4.310   3.793
 9410SOL     OW29128   4.417   6.605   2.677
 9410SOL    HW129129   4.422   6.672   2.751
 9410SOL    HW229130   4.510   6.580   2.649
 9411SOL     OW29131   4.472   4.832   0.527
 9411SOL    HW129132   4.556   4.824   0.580
 9411SOL    HW229133   4.436   4.741   0.508
 9412SOL     OW29134   6.878   2.645   1.105
 9412SOL    HW129135   6.855   2.556   1.067
 9412SOL    HW229136   6.963   2.678   1.064
 9413SOL     OW29137   3.333   5.876   5.930
 9413SOL    HW129138   3.295   5.966   5.910
 9413SOL    HW229139   3.400   5.851   5.859
 9414SOL     OW29140   2.602   1.484   1.592
 9414SOL    HW129141   2.683   1.495   1.649
 9414SOL    HW229142   2.627   1.484   1.496
 9415SOL     OW29143   3.052   0.014   2.236
 9415SOL    HW129144   2.993   0.094   2.248
 9415SOL    HW229145   2.998   6.954   2.200
 9416SOL     OW29146   0.875   2.474   1.775
 9416SOL    HW129147   0.909   2.395   1.725
 9416SOL    HW229148   0.943   2.502   1.844
 9417SOL     OW29149   2.725   5.648   5.133
 9417SOL    HW129150   2.710   5.696   5.047
 9417SOL    HW229151   2.705   5.709   5.209
 9418SOL     OW29152   3.256   5.319   0.693
 9418SOL    HW129153   3.182   5.387   0.688
 9418SOL    HW229154   3.268   5.290   0.788
 9419SOL     OW29155   3.004   6.677   5.299
 9419SOL    HW129156   3.030   6.590   5.342
 9419SOL    HW229157   2.928   6.661   5.237
 9420SOL     OW29158   0.178   1.430   4.632
 9420SOL    HW129159   0.174   1.507   4.695
 9420SOL    HW229160   0.270   1.390   4.635
 9421SOL     OW29161   1.136   4.762   5.684
 9421SOL    HW129162   1.104   4.774   5.590
 9421SOL    HW229163   1.060   4.779   5.748
 9422SOL     OW29164   4.943   0.972   2.340
 9422SOL    HW129165   5.041   0.990   2.348
 9422SOL    HW229166   4.926   0.874   2.349
 9423SOL     OW29167   3.898   0.723   4.582
 9423SOL    HW129168   3.836   0.774   4.642
 9423SOL    HW229169   3.849   0.696   4.499
 9424SOL     OW29170   2.960   6.127   4.594
 9424SOL    HW129171   2.861   6.140   4.601
 9424SOL    HW229172   2.989   6.147   4.500
 9425SOL     OW29173   1.539   3.153   4.407
 9425SOL    HW129174   1.588   3.156   4.320
 9425SOL    HW229175   1.568   3.230   4.464
 9426SOL     OW29176   3.626   0.040   0.109
 9426SOL    HW129177   3.610   0.128   0.154
 9426SOL    HW229178   3.545   0.014   0.057
 9427SOL     OW29179   3.007   5.372   4.492
 9427SOL    HW129180   2.935   5.303   4.483
 9427SOL    HW229181   2.980   5.439   4.561
 9428SOL     OW29182   5.147   0.313   3.094
 9428SOL    HW129183   5.051   0.303   3.068
 9428SOL    HW229184   5.166   0.256   3.173
 9429SOL     OW29185   0.288   3.912   2.576
 9429SOL    HW129186   0.377   3.931   2.619
 9429SOL    HW229187   0.282   3.960   2.489
 9430SOL     OW29188   6.319   6.613   1.799
 9430SOL    HW129189   6.267   6.622   1.884
 9430SOL    HW229190   6.262   6.640   1.722
 9431SOL     OW29191   6.740   4.428   1.814
 9431SOL    HW129192   6.647   4.431   1.778
 9431SOL    HW229193   6.776   4.335   1.807
 9432SOL     OW29194   6.597   6.568   3.399
 9432SOL    HW129195   6.508   6.612   3.401
 9432SOL    HW229196   6.633   6.570   3.305
 9433SOL     OW29197   3.251   5.044   5.375
 9433SOL    HW129198   3.159   5.060   5.412
 9433SOL    HW229199   3.313   5.115   5.407
 9434SOL     OW29200   5.134   5.172   2.473
 9434SOL    HW129201   5.131   5.152   2.571
 9434SOL    HW229202   5.116   5.270   2.459
 9435SOL     OW29203   1.701   0.664   4.536
 9435SOL    HW129204   1.726   0.622   4.624
 9435SOL    HW229205   1.711   0.763   4.542
 9436SOL     OW29206   2.414   3.554   0.185
 9436SOL    HW129207   2.510   3.581   0.199
 9436SOL    HW229208   2.411   3.470   0.132
 9437SOL     OW29209   1.527   4.796   3.897
 9437SOL    HW129210   1.580   4.739   3.960
 9437SOL    HW229211   1.434   4.761   3.890
 9438SOL     OW29212   0.941   6.658   2.041
 9438SOL    HW129213   0.966   6.561   2.041
 9438SOL    HW229214   0.968   6.700   2.128
 9439SOL     OW29215   0.282   2.732   1.940
 9439SOL    HW129216   0.246   2.801   1.877
 9439SOL    HW229217   0.382   2.730   1.933
 9440SOL     OW29218   5.116   6.425   6.130
 9440SOL    HW129219   5.157   6.338   6.159
 9440SOL    HW229220   5.111   6.487   6.209
 9441SOL     OW29221   1.481   5.080   5.431
 9441SOL    HW129222   1.405   5.015   5.434
 9441SOL    HW229223   1.540   5.066   5.511
 9442SOL     OW29224   6.971   3.507   1.430
 9442SOL    HW129225   7.005   3.462   1.347
 9442SOL    HW229226   0.031   3.554   1.475
 9443SOL     OW29227   1.814   4.057   1.865
 9443SOL    HW129228   1.782   3.984   1.926
 9443SOL    HW229229   1.811   4.024   1.770
 9444SOL     OW29230   0.361   3.387   0.216
 9444SOL    HW129231   0.274   3.401   0.263
 9444SOL    HW229232   0.367   3.449   0.137
 9445SOL     OW29233   5.473   3.689   1.559
 9445SOL    HW129234   5.381   3.684   1.522
 9445SOL    HW229235   5.538   3.646   1.496
 9446SOL     OW29236   6.553   6.161   1.524
 9446SOL    HW129237   6.645   6.200   1.530
 9446SOL    HW229238   6.560   6.063   1.504
 9447SOL     OW29239   6.023   3.184   2.196
 9447SOL    HW129240   6.109   3.172   2.146
 9447SOL    HW229241   5.946   3.184   2.133
 9448SOL     OW29242   5.893   6.766   0.491
 9448SOL    HW129243   5.914   6.842   0.552
 9448SOL    HW229244   5.859   6.801   0.404
 9449SOL     OW29245   5.944   4.936   5.610
 9449SOL    HW129246   5.963   4.840   5.592
 9449SOL    HW229247   5.858   4.944   5.661
 9450SOL     OW29248   3.255   4.925   4.618
 9450SOL    HW129249   3.227   4.920   4.714
 9450SOL    HW229250   3.175   4.913   4.560
 9451SOL     OW29251   4.817   5.335   6.088
 9451SOL    HW129252   4.732   5.374   6.053
 9451SOL    HW229253   4.890   5.403   6.084
 9452SOL     OW29254   2.440   4.995   1.796
 9452SOL    HW129255   2.463   5.063   1.726
 9452SOL    HW229256   2.389   4.920   1.755
 9453SOL     OW29257   2.861   5.065   2.566
 9453SOL    HW129258   2.848   5.130   2.641
 9453SOL    HW229259   2.797   5.086   2.493
 9454SOL     OW29260   1.896   3.300   5.491
 9454SOL    HW129261   1.849   3.309   5.404
 9454SOL    HW229262   1.995   3.305   5.477
 9455SOL     OW29263   4.005   1.405   2.251
 9455SOL    HW129264   4.055   1.491   2.262
 9455SOL    HW229265   3.938   1.414   2.177
 9456SOL     OW29266   1.320   3.508   1.383
 9456SOL    HW129267   1.229   3.522   1.424
 9456SOL    HW229268   1.311   3.502   1.284
 9457SOL     OW29269   0.896   3.189   0.695
 9457SOL    HW129270   0.842   3.213   0.776
 9457SOL    HW229271   0.885   3.260   0.626
 9458SOL     OW29272   6.623   5.341   5.180
 9458SOL    HW129273   6.684   5.263   5.166
 9458SOL    HW229274   6.654   5.418   5.125
 9459SOL     OW29275   6.640   5.694   1.664
 9459SOL    HW129276   6.739   5.692   1.675
 9459SOL    HW229277   6.596   5.699   1.753
 9460SOL     OW29278   0.881   1.936   4.798
 9460SOL    HW129279   0.951   2.003   4.820
 9460SOL    HW229280   0.914   1.876   4.725
 9461SOL     OW29281   1.212   0.739   3.882
 9461SOL    HW129282   1.150   0.672   3.841
 9461SOL    HW229283   1.159   0.819   3.913
 9462SOL     OW29284   0.996   2.856   2.257
 9462SOL    HW129285   0.960   2.763   2.251
 9462SOL    HW229286   0.921   2.922   2.248
 9463SOL     OW29287   5.743   1.596   0.198
 9463SOL    HW129288   5.703   1.686   0.179
 9463SOL    HW229289   5.674   1.539   0.243
 9464SOL     OW29290   5.899   0.133   6.162
 9464SOL    HW129291   5.810   0.089   6.149
 9464SOL    HW229292   5.888   0.214   6.219
 9465SOL     OW29293   6.328   0.640   4.057
 9465SOL    HW129294   6.389   0.621   4.134
 9465SOL    HW229295   6.236   0.660   4.091
 9466SOL     OW29296   2.984   2.515   6.246
 9466SOL    HW129297   2.963   2.598   6.297
 9466SOL    HW229298   2.949   2.523   6.153
 9467SOL     OW29299   2.053   3.337   2.133
 9467SOL    HW129300   2.113   3.392   2.075
 9467SOL    HW229301   1.959   3.347   2.102
 9468SOL     OW29302   6.982   3.139   5.411
 9468SOL    HW129303   0.037   3.146   5.341
 9468SOL    HW229304   6.915   3.212   5.398
 9469SOL     OW29305   6.365   5.020   1.999
 9469SOL    HW129306   6.412   4.946   1.953
 9469SOL    HW229307   6.381   5.106   1.950
 9470SOL     OW29308   4.780   3.846   0.805
 9470SOL    HW129309   4.721   3.864   0.726
 9470SOL    HW229310   4.781   3.747   0.823
 9471SOL     OW29311   0.389   2.289   5.712
 9471SOL    HW129312   0.444   2.229   5.770
 9471SOL    HW229313   0.444   2.319   5.634
 9472SOL     OW29314   6.172   4.497   4.366
 9472SOL    HW129315   6.197   4.483   4.270
 9472SOL    HW229316   6.231   4.441   4.424
 9473SOL     OW29317   2.800   5.494   6.154
 9473SOL    HW129318   2.706   5.463   6.171
 9473SOL    HW229319   2.847   5.429   6.095
 9474SOL     OW29320   4.203   5.071   1.857
 9474SOL    HW129321   4.109   5.060   1.891
 9474SOL    HW229322   4.267   5.030   1.922
 9475SOL     OW29323   2.482   3.430   1.414
 9475SOL    HW129324   2.499   3.528   1.426
 9475SOL    HW229325   2.532   3.397   1.334
 9476SOL     OW29326   3.685   3.449   5.583
 9476SOL    HW129327   3.643   3.372   5.630
 9476SOL    HW229328   3.640   3.463   5.495
 9477SOL     OW29329   1.227   2.715   1.642
 9477SOL    HW129330   1.292   2.737   1.569
 9477SOL    HW229331   1.221   2.615   1.652
 9478SOL     OW29332   5.733   4.523   5.699
 9478SOL    HW129333   5.763   4.439   5.655
 9478SOL    HW229334   5.791   4.599   5.671
 9479SOL     OW29335   5.994   6.096   6.865
 9479SOL    HW129336   6.047   6.176   6.837
 9479SOL    HW229337   5.898   6.108   6.838
 9480SOL     OW29338   5.834   4.723   6.960
 9480SOL    HW129339   5.783   4.709   0.029
 9480SOL    HW229340   5.802   4.806   6.915
 9481SOL     OW29341   0.159   3.721   2.165
 9481SOL    HW129342   0.105   3.693   2.245
 9481SOL    HW229343   0.210   3.643   2.131
 9482SOL     OW29344   4.792   1.054   2.009
 9482SOL    HW129345   4.784   1.094   2.100
 9482SOL    HW229346   4.762   1.121   1.941
 9483SOL     OW29347   1.420   1.483   6.583
 9483SOL    HW129348   1.343   1.436   6.626
 9483SOL    HW229349   1.408   1.484   6.484
 9484SOL     OW29350   6.997   1.250   4.054
 9484SOL    HW129351   6.907   1.290   4.072
 9484SOL    HW229352   0.046   1.323   4.035
 9485SOL     OW29353   0.926   0.680   2.311
 9485SOL    HW129354   0.888   0.664   2.402
 9485SOL    HW229355   0.912   0.775   2.284
 9486SOL     OW29356   2.943   6.185   1.309
 9486SOL    HW129357   2.923   6.138   1.223
 9486SOL    HW229358   2.951   6.118   1.382
 9487SOL     OW29359   3.360   3.479   3.855
 9487SOL    HW129360   3.299   3.508   3.929
 9487SOL    HW229361   3.311   3.484   3.768
 9488SOL     OW29362   1.257   6.704   1.525
 9488SOL    HW129363   1.166   6.695   1.566
 9488SOL    HW229364   1.293   6.795   1.543
 9489SOL     OW29365   3.785   5.071   0.892
 9489SOL    HW129366   3.822   5.128   0.965
 9489SOL    HW229367   3.858   5.044   0.830
 9490SOL     OW29368   5.176   0.873   1.449
 9490SOL    HW129369   5.178   0.963   1.406
 9490SOL    HW229370   5.100   0.869   1.514
 9491SOL     OW29371   5.492   4.647   5.819
 9491SOL    HW129372   5.562   4.578   5.799
 9491SOL    HW229373   5.443   4.621   5.903
 9492SOL     OW29374   3.365   4.031   1.346
 9492SOL    HW129375   3.371   4.130   1.337
 9492SOL    HW229376   3.283   3.998   1.300
 9493SOL     OW29377   4.734   6.116   3.111
 9493SOL    HW129378   4.663   6.145   3.175
 9493SOL    HW229379   4.790   6.195   3.085
 9494SOL     OW29380   4.622   3.033   5.443
 9494SOL    HW129381   4.570   3.119   5.448
 9494SOL    HW229382   4.631   2.994   5.534
 9495SOL     OW29383   5.811   2.375   5.176
 9495SOL    HW129384   5.723   2.329   5.183
 9495SOL    HW229385   5.884   2.306   5.178
 9496SOL     OW29386   5.644   4.247   6.720
 9496SOL    HW129387   5.549   4.254   6.689
 9496SOL    HW229388   5.674   4.336   6.755
 9497SOL     OW29389   5.467   5.912   6.853
 9497SOL    HW129390   5.428   5.822   6.869
 9497SOL    HW229391   5.555   5.920   6.900
 9498SOL     OW29392   3.813   0.041   6.143
 9498SOL    HW129393   3.798   0.134   6.110
 9498SOL    HW229394   3.794   6.992   6.070
 9499SOL     OW29395   2.889   3.865   5.449
 9499SOL    HW129396   2.971   3.905   5.490
 9499SOL    HW229397   2.819   3.854   5.519
 9500SOL     OW29398   4.631   5.774   2.003
 9500SOL    HW129399   4.718   5.779   1.954
 9500SOL    HW229400   4.597   5.867   2.020
 9501SOL     OW29401   3.374   1.307   4.431
 9501SOL    HW129402   3.298   1.312   4.495
 9501SOL    HW229403   3.460   1.315   4.482
 9502SOL     OW29404   5.910   2.506   4.938
 9502SOL    HW129405   6.010   2.513   4.939
 9502SOL    HW229406   5.882   2.433   5.001
 9503SOL     OW29407   1.130   0.022   1.796
 9503SOL    HW129408   1.134   6.939   1.803
 9503SOL    HW229409   1.038   0.050   1.768
 9504SOL     OW29410   0.494   2.709   0.159
 9504SOL    HW129411   0.586   2.708   0.120
 9504SOL    HW229412   0.480   2.794   0.209
 9505SOL     OW29413   5.812   2.955   3.415
 9505SOL    HW129414   5.907   2.929   3.399
 9505SOL    HW229415   5.787   2.930   3.509
 9506SOL     OW29416   6.841   3.785   0.331
 9506SOL    HW129417   6.753   3.816   0.366
 9506SOL    HW229418   6.830   3.753   0.236
 9507SOL     OW29419   0.780   1.369   3.715
 9507SOL    HW129420   0.714   1.433   3.753
 9507SOL    HW229421   0.758   1.352   3.618
 9508SOL     OW29422   5.993   1.731   0.980
 9508SOL    HW129423   6.002   1.730   1.080
 9508SOL    HW229424   5.984   1.826   0.949
 9509SOL     OW29425   2.256   6.370   5.819
 9509SOL    HW129426   2.307   6.363   5.905
 9509SOL    HW229427   2.158   6.369   5.838
 9510SOL     OW29428   5.997   4.406   3.114
 9510SOL    HW129429   6.011   4.504   3.126
 9510SOL    HW229430   6.004   4.382   3.017
 9511SOL     OW29431   0.753   1.779   0.506
 9511SOL    HW129432   0.821   1.827   0.562
 9511SOL    HW229433   0.685   1.736   0.566
 9512SOL     OW29434   0.978   2.055   3.883
 9512SOL    HW129435   0.930   1.971   3.857
 9512SOL    HW229436   1.077   2.038   3.886
 9513SOL     OW29437   2.112   3.869   4.443
 9513SOL    HW129438   2.130   3.967   4.449
 9513SOL    HW229439   2.157   3.832   4.362
 9514SOL     OW29440   1.997   3.375   0.280
 9514SOL    HW129441   1.988   3.423   0.193
 9514SOL    HW229442   2.087   3.393   0.319
 9515SOL     OW29443   1.840   6.148   6.146
 9515SOL    HW129444   1.851   6.078   6.075
 9515SOL    HW229445   1.789   6.110   6.223
 9516SOL     OW29446   5.281   3.897   3.940
 9516SOL    HW129447   5.201   3.899   3.880
 9516SOL    HW229448   5.282   3.811   3.992
 9517SOL     OW29449   0.162   5.691   1.702
 9517SOL    HW129450   0.100   5.762   1.734
 9517SOL    HW229451   0.246   5.693   1.756
 9518SOL     OW29452   0.580   2.461   6.509
 9518SOL    HW129453   0.532   2.376   6.532
 9518SOL    HW229454   0.597   2.513   6.593
 9519SOL     OW29455   3.323   3.615   3.059
 9519SOL    HW129456   3.279   3.552   2.995
 9519SOL    HW229457   3.340   3.702   3.013
 9520SOL     OW29458   0.076   0.300   5.110
 9520SOL    HW129459   0.039   0.243   5.183
 9520SOL    HW229460   0.001   0.350   5.065
 9521SOL     OW29461   3.211   0.552   0.732
 9521SOL    HW129462   3.240   0.647   0.736
 9521SOL    HW229463   3.111   0.547   0.737
 9522SOL     OW29464   3.502   6.028   1.288
 9522SOL    HW129465   3.592   6.071   1.277
 9522SOL    HW229466   3.487   6.005   1.384
 9523SOL     OW29467   2.525   5.240   4.204
 9523SOL    HW129468   2.427   5.239   4.187
 9523SOL    HW229469   2.553   5.153   4.245
 9524SOL     OW29470   1.921   4.314   1.733
 9524SOL    HW129471   1.898   4.269   1.819
 9524SOL    HW229472   1.958   4.246   1.669
 9525SOL     OW29473   1.958   3.066   5.271
 9525SOL    HW129474   1.870   3.078   5.318
 9525SOL    HW229475   1.964   3.130   5.195
 9526SOL     OW29476   5.444   4.638   0.077
 9526SOL    HW129477   5.528   4.656   0.128
 9526SOL    HW229478   5.382   4.716   0.088
 9527SOL     OW29479   3.599   6.625   3.408
 9527SOL    HW129480   3.565   6.577   3.489
 9527SOL    HW229481   3.625   6.718   3.434
 9528SOL     OW29482   5.828   1.497   0.891
 9528SOL    HW129483   5.871   1.587   0.882
 9528SOL    HW229484   5.758   1.501   0.962
 9529SOL     OW29485   6.247   1.943   1.702
 9529SOL    HW129486   6.266   1.864   1.644
 9529SOL    HW229487   6.241   2.025   1.646
 9530SOL     OW29488   0.575   5.424   3.719
 9530SOL    HW129489   0.643   5.457   3.654
 9530SOL    HW229490   0.484   5.429   3.679
 9531SOL     OW29491   3.794   4.982   2.915
 9531SOL    HW129492   3.835   5.072   2.933
 9531SOL    HW229493   3.742   4.987   2.830
 9532SOL     OW29494   5.838   5.229   2.406
 9532SOL    HW129495   5.874   5.137   2.388
 9532SOL    HW229496   5.803   5.269   2.321
 9533SOL     OW29497   2.222   4.979   3.550
 9533SOL    HW129498   2.301   4.918   3.546
 9533SOL    HW229499   2.253   5.074   3.558
 9534SOL     OW29500   5.423   4.400   5.386
 9534SOL    HW129501   5.519   4.428   5.382
 9534SOL    HW229502   5.367   4.467   5.338
 9535SOL     OW29503   1.063   1.309   5.518
 9535SOL    HW129504   1.129   1.364   5.571
 9535SOL    HW229505   1.068   1.335   5.422
 9536SOL     OW29506   3.643   3.692   4.563
 9536SOL    HW129507   3.667   3.665   4.470
 9536SOL    HW229508   3.722   3.734   4.607
 9537SOL     OW29509   1.456   0.832   3.980
 9537SOL    HW129510   1.458   0.913   4.038
 9537SOL    HW229511   1.363   0.797   3.973
 9538SOL     OW29512   3.317   0.512   4.763
 9538SOL    HW129513   3.218   0.508   4.752
 9538SOL    HW229514   3.341   0.493   4.858
 9539SOL     OW29515   3.525   2.867   2.941
 9539SOL    HW129516   3.425   2.877   2.944
 9539SOL    HW229517   3.567   2.933   3.003
 9540SOL     OW29518   4.946   4.998   4.044
 9540SOL    HW129519   4.959   4.903   4.074
 9540SOL    HW229520   5.034   5.036   4.014
 9541SOL     OW29521   1.619   5.730   4.912
 9541SOL    HW129522   1.694   5.790   4.937
 9541SOL    HW229523   1.638   5.637   4.943
 9542SOL     OW29524   5.847   4.859   4.426
 9542SOL    HW129525   5.891   4.948   4.439
 9542SOL    HW229526   5.905   4.787   4.464
 9543SOL     OW29527   2.388   0.958   5.967
 9543SOL    HW129528   2.478   1.001   5.975
 9543SOL    HW229529   2.381   0.909   5.881
 9544SOL     OW29530   5.305   3.511   3.771
 9544SOL    HW129531   5.330   3.416   3.788
 9544SOL    HW229532   5.207   3.523   3.789
 9545SOL     OW29533   1.140   4.714   1.908
 9545SOL    HW129534   1.180   4.803   1.932
 9545SOL    HW229535   1.185   4.642   1.961
 9546SOL     OW29536   2.706   1.458   6.240
 9546SOL    HW129537   2.750   1.375   6.275
 9546SOL    HW229538   2.694   1.523   6.315
 9547SOL     OW29539   3.502   6.106   3.774
 9547SOL    HW129540   3.478   6.201   3.795
 9547SOL    HW229541   3.455   6.045   3.837
 9548SOL     OW29542   1.043   4.970   6.448
 9548SOL    HW129543   1.053   5.038   6.375
 9548SOL    HW229544   1.003   5.013   6.528
 9549SOL     OW29545   4.541   2.142   1.649
 9549SOL    HW129546   4.476   2.181   1.715
 9549SOL    HW229547   4.491   2.088   1.581
 9550SOL     OW29548   5.058   2.710   1.492
 9550SOL    HW129549   5.132   2.655   1.531
 9550SOL    HW229550   5.006   2.752   1.566
 9551SOL     OW29551   6.493   2.070   6.556
 9551SOL    HW129552   6.533   1.990   6.510
 9551SOL    HW229553   6.427   2.113   6.494
 9552SOL     OW29554   2.498   0.932   6.338
 9552SOL    HW129555   2.456   0.996   6.402
 9552SOL    HW229556   2.543   0.983   6.264
 9553SOL     OW29557   5.427   1.994   6.706
 9553SOL    HW129558   5.489   2.027   6.776
 9553SOL    HW229559   5.449   2.037   6.618
 9554SOL     OW29560   2.076   6.814   4.262
 9554SOL    HW129561   2.129   6.773   4.188
 9554SOL    HW229562   2.108   6.780   4.350
 9555SOL     OW29563   6.592   0.691   3.985
 9555SOL    HW129564   6.496   0.670   4.001
 9555SOL    HW229565   6.643   0.688   4.071
 9556SOL     OW29566   2.567   4.052   0.759
 9556SOL    HW129567   2.618   4.135   0.782
 9556SOL    HW229568   2.548   3.999   0.841
 9557SOL     OW29569   5.046   0.637   1.657
 9557SOL    HW129570   5.003   0.726   1.642
 9557SOL    HW229571   4.975   0.567   1.663
 9558SOL     OW29572   5.664   6.576   6.302
 9558SOL    HW129573   5.733   6.511   6.269
 9558SOL    HW229574   5.609   6.607   6.225
 9559SOL     OW29575   1.795   3.754   0.369
 9559SOL    HW129576   1.794   3.824   0.297
 9559SOL    HW229577   1.712   3.762   0.424
 9560SOL     OW29578   3.322   6.900   1.814
 9560SOL    HW129579   3.379   6.878   1.893
 9560SOL    HW229580   3.238   6.946   1.845
 9561SOL     OW29581   1.112   0.868   1.117
 9561SOL    HW129582   1.193   0.813   1.095
 9561SOL    HW229583   1.123   0.959   1.077
 9562SOL     OW29584   2.677   5.294   3.609
 9562SOL    HW129585   2.754   5.236   3.583
 9562SOL    HW229586   2.631   5.256   3.689
 9563SOL     OW29587   0.843   6.404   0.770
 9563SOL    HW129588   0.924   6.363   0.728
 9563SOL    HW229589   0.763   6.348   0.749
 9564SOL     OW29590   1.746   0.098   0.574
 9564SOL    HW129591   1.820   0.059   0.630
 9564SOL    HW229592   1.678   0.027   0.554
 9565SOL     OW29593   3.665   1.276   3.907
 9565SOL    HW129594   3.606   1.306   3.832
 9565SOL    HW229595   3.612   1.223   3.972
 9566SOL     OW29596   2.152   6.754   0.879
 9566SOL    HW129597   2.234   6.752   0.823
 9566SOL    HW229598   2.159   6.829   0.945
 9567SOL     OW29599   6.482   4.450   0.538
 9567SOL    HW129600   6.442   4.514   0.603
 9567SOL    HW229601   6.479   4.489   0.446
 9568SOL     OW29602   4.385   1.930   6.897
 9568SOL    HW129603   4.289   1.931   6.924
 9568SOL    HW229604   4.395   1.879   6.812
 9569SOL     OW29605   5.622   0.284   1.775
 9569SOL    HW129606   5.696   0.344   1.745
 9569SOL    HW229607   5.571   0.328   1.849
 9570SOL     OW29608   6.922   3.055   0.880
 9570SOL    HW129609   6.849   3.046   0.948
 9570SOL    HW229610   6.903   3.135   0.822
 9571SOL     OW29611   2.303   2.510   6.914
 9571SOL    HW129612   2.373   2.576   6.942
 9571SOL    HW229613   2.337   2.417   6.927
 9572SOL     OW29614   2.382   4.361   3.400
 9572SOL    HW129615   2.328   4.321   3.474
 9572SOL    HW229616   2.371   4.306   3.317
 9573SOL     OW29617   6.806   1.188   4.841
 9573SOL    HW129618   6.735   1.133   4.886
 9573SOL    HW229619   6.856   1.131   4.776
 9574SOL     OW29620   3.978   3.052   1.473
 9574SOL    HW129621   3.941   2.983   1.535
 9574SOL    HW229622   3.911   3.071   1.401
 9575SOL     OW29623   5.783   6.548   2.044
 9575SOL    HW129624   5.832   6.461   2.039
 9575SOL    HW229625   5.685   6.532   2.044
 9576SOL     OW29626   1.041   1.177   0.186
 9576SOL    HW129627   0.974   1.226   0.130
 9576SOL    HW229628   1.084   1.242   0.249
 9577SOL     OW29629   6.633   5.917   1.449
 9577SOL    HW129630   6.668   5.865   1.527
 9577SOL    HW229631   6.661   5.872   1.364
 9578SOL     OW29632   1.188   2.555   3.215
 9578SOL    HW129633   1.195   2.502   3.131
 9578SOL    HW229634   1.269   2.540   3.271
 9579SOL     OW29635   5.912   6.677   2.264
 9579SOL    HW129636   6.010   6.696   2.254
 9579SOL    HW229637   5.875   6.645   2.177
 9580SOL     OW29638   5.012   4.775   1.426
 9580SOL    HW129639   4.916   4.745   1.417
 9580SOL    HW229640   5.061   4.753   1.342
 9581SOL     OW29641   6.282   0.556   0.147
 9581SOL    HW129642   6.224   0.633   0.120
 9581SOL    HW229643   6.332   0.581   0.230
 9582SOL     OW29644   3.695   5.488   4.074
 9582SOL    HW129645   3.794   5.475   4.079
 9582SOL    HW229646   3.652   5.403   4.043
 9583SOL     OW29647   3.375   4.538   1.700
 9583SOL    HW129648   3.466   4.569   1.728
 9583SOL    HW229649   3.338   4.476   1.769
 9584SOL     OW29650   1.743   3.976   4.478
 9584SOL    HW129651   1.770   4.053   4.420
 9584SOL    HW229652   1.785   3.986   4.568
 9585SOL     OW29653   5.007   5.903   1.507
 9585SOL    HW129654   5.060   5.885   1.424
 9585SOL    HW229655   5.070   5.921   1.583
 9586SOL     OW29656   4.510   4.978   1.481
 9586SOL    HW129657   4.449   4.985   1.560
 9586SOL    HW229658   4.586   4.918   1.503
 9587SOL     OW29659   2.345   6.282   1.689
 9587SOL    HW129660   2.334   6.208   1.623
 9587SOL    HW229661   2.393   6.358   1.647
 9588SOL     OW29662   6.326   6.437   0.455
 9588SOL    HW129663   6.325   6.533   0.481
 9588SOL    HW229664   6.314   6.380   0.536
 9589SOL     OW29665   1.402   3.702   6.553
 9589SOL    HW129666   1.467   3.757   6.500
 9589SOL    HW229667   1.310   3.713   6.513
 9590SOL     OW29668   5.431   1.694   1.972
 9590SOL    HW129669   5.460   1.654   2.059
 9590SOL    HW229670   5.426   1.623   1.903
 9591SOL     OW29671   3.363   6.885   6.486
 9591SOL    HW129672   3.280   6.874   6.539
 9591SOL    HW229673   3.372   6.810   6.420
 9592SOL     OW29674   2.716   4.137   6.723
 9592SOL    HW129675   2.732   4.228   6.760
 9592SOL    HW229676   2.659   4.084   6.786
 9593SOL     OW29677   2.084   1.193   5.480
 9593SOL    HW129678   2.150   1.251   5.432
 9593SOL    HW229679   2.118   1.175   5.572
 9594SOL     OW29680   1.645   6.087   3.929
 9594SOL    HW129681   1.633   5.988   3.929
 9594SOL    HW229682   1.735   6.110   3.891
 9595SOL     OW29683   0.335   2.941   3.801
 9595SOL    HW129684   0.376   3.005   3.866
 9595SOL    HW229685   0.237   2.956   3.796
 9596SOL     OW29686   0.358   5.574   1.039
 9596SOL    HW129687   0.433   5.531   1.088
 9596SOL    HW229688   0.357   5.672   1.059
 9597SOL     OW29689   1.079   4.253   2.438
 9597SOL    HW129690   1.022   4.312   2.496
 9597SOL    HW229691   1.020   4.195   2.382
 9598SOL     OW29692   1.598   3.684   2.951
 9598SOL    HW129693   1.665   3.733   3.006
 9598SOL    HW229694   1.633   3.593   2.928
 9599SOL     OW29695   3.132   6.949   3.565
 9599SOL    HW129696   3.119   6.962   3.663
 9599SOL    HW229697   3.083   6.868   3.535
 9600SOL     OW29698   2.790   0.355   0.808
 9600SOL    HW129699   2.692   0.370   0.823
 9600SOL    HW229700   2.821   0.407   0.729
 9601SOL     OW29701   6.564   4.604   0.939
 9601SOL    HW129702   6.590   4.696   0.966
 9601SOL    HW229703   6.627   4.538   0.979
 9602SOL     OW29704   4.675   4.608   5.518
 9602SOL    HW129705   4.609   4.676   5.550
 9602SOL    HW229706   4.631   4.547   5.452
 9603SOL     OW29707   5.605   6.664   5.881
 9603SOL    HW129708   5.568   6.739   5.826
 9603SOL    HW229709   5.704   6.661   5.871
 9604SOL     OW29710   4.945   0.708   0.796
 9604SOL    HW129711   4.858   0.692   0.749
 9604SOL    HW229712   4.934   0.687   0.894
 9605SOL     OW29713   6.845   4.775   3.489
 9605SOL    HW129714   6.767   4.837   3.500
 9605SOL    HW229715   6.815   4.692   3.442
 9606SOL     OW29716   1.064   1.417   6.376
 9606SOL    HW129717   1.002   1.495   6.377
 9606SOL    HW229718   1.012   1.332   6.370
 9607SOL     OW29719   3.192   1.671   6.214
 9607SOL    HW129720   3.150   1.762   6.220
 9607SOL    HW229721   3.275   1.669   6.269
 9608SOL     OW29722   6.746   4.234   2.793
 9608SOL    HW129723   6.809   4.303   2.829
 9608SOL    HW229724   6.776   4.206   2.702
 9609SOL     OW29725   3.806   2.850   6.283
 9609SOL    HW129726   3.868   2.872   6.358
 9609SOL    HW229727   3.857   2.808   6.208
 9610SOL     OW29728   2.359   4.741   2.836
 9610SOL    HW129729   2.418   4.680   2.784
 9610SOL    HW229730   2.380   4.732   2.934
 9611SOL     OW29731   1.776   6.466   1.092
 9611SOL    HW129732   1.681   6.445   1.068
 9611SOL    HW229733   1.819   6.385   1.133
 9612SOL     OW29734   0.652   3.316   2.175
 9612SOL    HW129735   0.734   3.373   2.180
 9612SOL    HW229736   0.609   3.328   2.086
 9613SOL     OW29737   5.965   6.136   3.394
 9613SOL    HW129738   6.014   6.210   3.440
 9613SOL    HW229739   5.909   6.086   3.461
 9614SOL     OW29740   4.236   2.289   2.956
 9614SOL    HW129741   4.223   2.236   2.873
 9614SOL    HW229742   4.156   2.277   3.016
 9615SOL     OW29743   2.490   2.249   0.661
 9615SOL    HW129744   2.437   2.200   0.730
 9615SOL    HW229745   2.566   2.192   0.630
 9616SOL     OW29746   3.477   2.477   0.969
 9616SOL    HW129747   3.571   2.478   1.003
 9616SOL    HW229748   3.466   2.547   0.899
 9617SOL     OW29749   2.236   2.813   3.395
 9617SOL    HW129750   2.328   2.831   3.430
 9617SOL    HW229751   2.234   2.724   3.350
 9618SOL     OW29752   3.313   1.026   0.905
 9618SOL    HW129753   3.235   1.065   0.857
 9618SOL    HW229754   3.393   1.084   0.892
 9619SOL     OW29755   1.589   0.643   5.602
 9619SOL    HW129756   1.499   0.688   5.593
 9619SOL    HW229757   1.585   0.576   5.677
 9620SOL     OW29758   5.026   0.441   4.818
 9620SOL    HW129759   4.986   0.357   4.780
 9620SOL    HW229760   5.025   0.436   4.918
 9621SOL     OW29761   1.363   2.789   2.475
 9621SOL    HW129762   1.405   2.725   2.411
 9621SOL    HW229763   1.317   2.862   2.424
 9622SOL     OW29764   5.989   1.271   0.938
 9622SOL    HW129765   5.930   1.352   0.941
 9622SOL    HW229766   6.027   1.261   0.846
 9623SOL     OW29767   2.897   2.838   6.641
 9623SOL    HW129768   2.997   2.843   6.630
 9623SOL    HW229769   2.853   2.874   6.559
 9624SOL     OW29770   5.924   3.309   2.656
 9624SOL    HW129771   6.024   3.304   2.661
 9624SOL    HW229772   5.890   3.358   2.736
 9625SOL     OW29773   5.282   6.033   0.198
 9625SOL    HW129774   5.209   5.973   0.166
 9625SOL    HW229775   5.318   6.086   0.121
 9626SOL     OW29776   4.058   5.030   0.775
 9626SOL    HW129777   4.137   4.981   0.738
 9626SOL    HW229778   4.042   5.113   0.721
 9627SOL     OW29779   0.764   6.341   6.227
 9627SOL    HW129780   0.667   6.320   6.236
 9627SOL    HW229781   0.790   6.411   6.294
 9628SOL     OW29782   4.971   6.211   1.068
 9628SOL    HW129783   4.997   6.275   0.996
 9628SOL    HW229784   4.929   6.130   1.026
 9629SOL     OW29785   2.617   0.696   1.342
 9629SOL    HW129786   2.636   0.604   1.374
 9629SOL    HW229787   2.581   0.751   1.418
 9630SOL     OW29788   6.425   0.597   6.047
 9630SOL    HW129789   6.424   0.692   6.017
 9630SOL    HW229790   6.350   0.547   6.003
 9631SOL     OW29791   6.391   0.259   6.535
 9631SOL    HW129792   6.327   0.332   6.557
 9631SOL    HW229793   6.476   0.272   6.586
 9632SOL     OW29794   1.849   6.189   2.060
 9632SOL    HW129795   1.784   6.148   2.124
 9632SOL    HW229796   1.808   6.197   1.970
 9633SOL     OW29797   5.737   5.911   6.995
 9633SOL    HW129798   5.766   5.972   6.921
 9633SOL    HW229799   5.741   5.960   0.066
 9634SOL     OW29800   1.710   6.271   4.954
 9634SOL    HW129801   1.693   6.292   4.858
 9634SOL    HW229802   1.783   6.203   4.961
 9635SOL     OW29803   2.683   5.478   4.731
 9635SOL    HW129804   2.745   5.405   4.759
 9635SOL    HW229805   2.637   5.452   4.647
 9636SOL     OW29806   4.017   1.352   5.336
 9636SOL    HW129807   4.004   1.414   5.414
 9636SOL    HW229808   3.927   1.325   5.300
 9637SOL     OW29809   1.793   1.740   6.484
 9637SOL    HW129810   1.696   1.755   6.466
 9637SOL    HW229811   1.843   1.738   6.397
 9638SOL     OW29812   6.450   3.469   4.764
 9638SOL    HW129813   6.433   3.508   4.674
 9638SOL    HW229814   6.549   3.463   4.780
 9639SOL     OW29815   4.715   1.216   2.644
 9639SOL    HW129816   4.807   1.210   2.604
 9639SOL    HW229817   4.674   1.304   2.620
 9640SOL     OW29818   2.384   2.716   3.044
 9640SOL    HW129819   2.409   2.621   3.024
 9640SOL    HW229820   2.445   2.777   2.995
 9641SOL     OW29821   5.009   0.209   0.712
 9641SOL    HW129822   4.938   0.258   0.762
 9641SOL    HW229823   4.968   0.139   0.654
 9642SOL     OW29824   3.346   0.204   4.875
 9642SOL    HW129825   3.397   0.206   4.962
 9642SOL    HW229826   3.386   0.271   4.812
 9643SOL     OW29827   5.179   4.540   4.050
 9643SOL    HW129828   5.090   4.583   4.032
 9643SOL    HW229829   5.252   4.595   4.009
 9644SOL     OW29830   0.798   2.956   6.881
 9644SOL    HW129831   0.853   2.876   6.907
 9644SOL    HW229832   0.742   2.985   6.958
 9645SOL     OW29833   3.020   5.113   5.502
 9645SOL    HW129834   2.958   5.188   5.477
 9645SOL    HW229835   3.089   5.146   5.566
 9646SOL     OW29836   4.005   4.891   2.510
 9646SOL    HW129837   4.037   4.985   2.512
 9646SOL    HW229838   3.934   4.881   2.441
 9647SOL     OW29839   6.144   3.617   0.890
 9647SOL    HW129840   6.212   3.544   0.877
 9647SOL    HW229841   6.157   3.686   0.819
 9648SOL     OW29842   4.374   2.389   1.187
 9648SOL    HW129843   4.406   2.444   1.264
 9648SOL    HW229844   4.409   2.296   1.196
 9649SOL     OW29845   2.537   6.008   0.319
 9649SOL    HW129846   2.460   6.069   0.303
 9649SOL    HW229847   2.587   6.037   0.400
 9650SOL     OW29848   6.677   5.713   2.149
 9650SOL    HW129849   6.746   5.764   2.098
 9650SOL    HW229850   6.722   5.654   2.216
 9651SOL     OW29851   0.972   1.152   6.346
 9651SOL    HW129852   0.874   1.161   6.326
 9651SOL    HW229853   1.005   1.064   6.311
 9652SOL     OW29854   0.387   4.698   3.219
 9652SOL    HW129855   0.485   4.696   3.203
 9652SOL    HW229856   0.343   4.625   3.166
 9653SOL     OW29857   5.008   4.914   4.367
 9653SOL    HW129858   4.926   4.951   4.410
 9653SOL    HW229859   5.078   4.985   4.361
 9654SOL     OW29860   2.224   2.897   1.970
 9654SOL    HW129861   2.177   2.963   2.029
 9654SOL    HW229862   2.248   2.941   1.884
 9655SOL     OW29863   6.980   1.395   6.588
 9655SOL    HW129864   6.989   1.300   6.619
 9655SOL    HW229865   0.012   1.406   6.501
 9656SOL     OW29866   3.460   0.404   2.481
 9656SOL    HW129867   3.450   0.457   2.566
 9656SOL    HW229868   3.480   0.466   2.405
 9657SOL     OW29869   6.266   1.075   5.158
 9657SOL    HW129870   6.185   1.088   5.102
 9657SOL    HW229871   6.240   1.056   5.253
 9658SOL     OW29872   6.229   2.765   1.700
 9658SOL    HW129873   6.182   2.681   1.676
 9658SOL    HW229874   6.225   2.829   1.623
 9659SOL     OW29875   0.944   4.556   0.241
 9659SOL    HW129876   0.894   4.470   0.232
 9659SOL    HW229877   0.939   4.588   0.335
 9660SOL     OW29878   0.920   5.175   0.334
 9660SOL    HW129879   0.829   5.153   0.369
 9660SOL    HW229880   0.990   5.131   0.391
 9661SOL     OW29881   4.601   6.823   0.637
 9661SOL    HW129882   4.635   6.778   0.720
 9661SOL    HW229883   4.635   6.917   0.635
 9662SOL     OW29884   6.143   1.542   4.714
 9662SOL    HW129885   6.213   1.489   4.666
 9662SOL    HW229886   6.088   1.480   4.771
 9663SOL     OW29887   2.306   5.394   2.926
 9663SOL    HW129888   2.376   5.465   2.932
 9663SOL    HW229889   2.303   5.357   2.833
 9664SOL     OW29890   3.942   6.707   2.083
 9664SOL    HW129891   3.888   6.788   2.059
 9664SOL    HW229892   3.885   6.646   2.138
 9665SOL     OW29893   5.444   4.200   4.984
 9665SOL    HW129894   5.473   4.218   4.890
 9665SOL    HW229895   5.381   4.272   5.014
 9666SOL     OW29896   5.531   4.366   2.609
 9666SOL    HW129897   5.568   4.325   2.526
 9666SOL    HW229898   5.445   4.413   2.587
 9667SOL     OW29899   4.111   3.693   4.245
 9667SOL    HW129900   4.078   3.623   4.182
 9667SOL    HW229901   4.117   3.781   4.197
 9668SOL     OW29902   0.499   0.951   5.295
 9668SOL    HW129903   0.418   1.005   5.276
 9668SOL    HW229904   0.505   0.874   5.231
 9669SOL     OW29905   0.860   6.670   0.428
 9669SOL    HW129906   0.846   6.768   0.417
 9669SOL    HW229907   0.810   6.637   0.508
 9670SOL     OW29908   5.172   4.859   6.614
 9670SOL    HW129909   5.097   4.820   6.562
 9670SOL    HW229910   5.257   4.850   6.563
 9671SOL     OW29911   6.821   5.590   5.294
 9671SOL    HW129912   6.845   5.593   5.392
 9671SOL    HW229913   6.903   5.610   5.240
 9672SOL     OW29914   0.797   6.011   4.798
 9672SOL    HW129915   0.728   5.981   4.733
 9672SOL    HW229916   0.781   5.969   4.887
 9673SOL     OW29917   3.410   4.180   6.655
 9673SOL    HW129918   3.328   4.195   6.600
 9673SOL    HW229919   3.473   4.121   6.605
 9674SOL     OW29920   3.142   5.875   2.235
 9674SOL    HW129921   3.062   5.893   2.177
 9674SOL    HW229922   3.218   5.934   2.206
 9675SOL     OW29923   6.587   2.289   2.311
 9675SOL    HW129924   6.579   2.336   2.399
 9675SOL    HW229925   6.674   2.240   2.308
 9676SOL     OW29926   0.695   3.852   4.620
 9676SOL    HW129927   0.633   3.821   4.548
 9676SOL    HW229928   0.788   3.821   4.600
 9677SOL     OW29929   2.107   3.470   6.294
 9677SOL    HW129930   2.121   3.496   6.198
 9677SOL    HW229931   2.061   3.381   6.298
 9678SOL     OW29932   3.809   3.864   3.340
 9678SOL    HW129933   3.865   3.798   3.389
 9678SOL    HW229934   3.776   3.934   3.403
 9679SOL     OW29935   1.206   2.386   1.988
 9679SOL    HW129936   1.198   2.335   2.073
 9679SOL    HW229937   1.117   2.428   1.966
 9680SOL     OW29938   6.123   5.883   3.284
 9680SOL    HW129939   6.218   5.912   3.267
 9680SOL    HW229940   6.075   5.956   3.333
 9681SOL     OW29941   2.045   0.916   2.411
 9681SOL    HW129942   1.957   0.890   2.451
 9681SOL    HW229943   2.097   0.834   2.388
 9682SOL     OW29944   5.271   4.453   3.065
 9682SOL    HW129945   5.188   4.488   3.022
 9682SOL    HW229946   5.306   4.375   3.013
 9683SOL     OW29947   4.243   6.461   0.045
 9683SOL    HW129948   4.245   6.559   0.025
 9683SOL    HW229949   4.333   6.421   0.026
 9684SOL     OW29950   0.583   4.158   5.099
 9684SOL    HW129951   0.521   4.182   5.025
 9684SOL    HW229952   0.656   4.099   5.063
 9685SOL     OW29953   1.252   2.685   0.665
 9685SOL    HW129954   1.237   2.693   0.763
 9685SOL    HW229955   1.215   2.598   0.633
 9686SOL     OW29956   6.287   0.842   1.550
 9686SOL    HW129957   6.280   0.871   1.455
 9686SOL    HW229958   6.196   0.827   1.588
 9687SOL     OW29959   2.512   0.012   3.799
 9687SOL    HW129960   2.518   0.106   3.834
 9687SOL    HW229961   2.595   6.979   3.824
 9688SOL     OW29962   0.046   1.354   3.036
 9688SOL    HW129963   0.010   1.423   2.972
 9688SOL    HW229964   0.098   1.400   3.108
 9689SOL     OW29965   2.747   6.262   6.725
 9689SOL    HW129966   2.845   6.263   6.745
 9689SOL    HW229967   2.717   6.168   6.710
 9690SOL     OW29968   6.563   4.858   0.564
 9690SOL    HW129969   6.522   4.897   0.482
 9690SOL    HW229970   6.654   4.898   0.577
 9691SOL     OW29971   1.588   5.241   1.997
 9691SOL    HW129972   1.641   5.326   1.992
 9691SOL    HW229973   1.628   5.181   2.066
 9692SOL     OW29974   2.863   5.234   1.616
 9692SOL    HW129975   2.827   5.314   1.568
 9692SOL    HW229976   2.826   5.232   1.708
 9693SOL     OW29977   6.447   6.286   1.836
 9693SOL    HW129978   6.479   6.192   1.829
 9693SOL    HW229979   6.502   6.345   1.776
 9694SOL     OW29980   1.382   2.768   6.708
 9694SOL    HW129981   1.347   2.675   6.696
 9694SOL    HW229982   1.386   2.790   6.806
 9695SOL     OW29983   6.922   4.504   1.528
 9695SOL    HW129984   7.012   4.470   1.555
 9695SOL    HW229985   6.861   4.505   1.607
 9696SOL     OW29986   3.889   2.837   1.639
 9696SOL    HW129987   3.808   2.797   1.682
 9696SOL    HW229988   3.948   2.878   1.709
 9697SOL     OW29989   0.394   5.110   0.180
 9697SOL    HW129990   0.300   5.079   0.166
 9697SOL    HW229991   0.449   5.089   0.100
 9698SOL     OW29992   5.949   2.143   5.229
 9698SOL    HW129993   5.979   2.137   5.133
 9698SOL    HW229994   5.884   2.070   5.248
 9699SOL     OW29995   1.709   3.551   0.222
 9699SOL    HW129996   1.759   3.617   0.278
 9699SOL    HW229997   1.715   3.461   0.265
 9700SOL     OW29998   3.676   4.137   5.222
 9700SOL    HW129999   3.596   4.141   5.162
 9700SOL    HW230000   3.730   4.221   5.212
 9701SOL     OW30001   4.520   5.145   4.530
 9701SOL    HW130002   4.530   5.131   4.431
 9701SOL    HW230003   4.424   5.144   4.554
 9702SOL     OW30004   4.566   1.251   0.686
 9702SOL    HW130005   4.542   1.204   0.601
 9702SOL    HW230006   4.639   1.318   0.668
 9703SOL     OW30007   2.988   5.963   4.307
 9703SOL    HW130008   2.998   6.044   4.249
 9703SOL    HW230009   3.078   5.923   4.324
 9704SOL     OW30010   3.708   6.740   3.189
 9704SOL    HW130011   3.767   6.804   3.238
 9704SOL    HW230012   3.671   6.673   3.254
 9705SOL     OW30013   3.152   4.536   0.252
 9705SOL    HW130014   3.132   4.576   0.163
 9705SOL    HW230015   3.243   4.565   0.282
 9706SOL     OW30016   6.074   2.886   2.307
 9706SOL    HW130017   6.034   2.962   2.358
 9706SOL    HW230018   6.135   2.834   2.367
 9707SOL     OW30019   2.392   5.129   2.221
 9707SOL    HW130020   2.382   5.224   2.249
 9707SOL    HW230021   2.362   5.069   2.295
 9708SOL     OW30022   2.023   1.896   3.369
 9708SOL    HW130023   2.009   1.936   3.279
 9708SOL    HW230024   2.015   1.797   3.364
 9709SOL     OW30025   1.930   6.329   2.779
 9709SOL    HW130026   1.856   6.272   2.814
 9709SOL    HW230027   1.907   6.361   2.687
 9710SOL     OW30028   0.209   1.412   3.238
 9710SOL    HW130029   0.287   1.386   3.180
 9710SOL    HW230030   0.229   1.387   3.333
 9711SOL     OW30031   1.389   3.852   5.296
 9711SOL    HW130032   1.389   3.803   5.383
 9711SOL    HW230033   1.342   3.940   5.307
 9712SOL     OW30034   5.394   1.729   4.186
 9712SOL    HW130035   5.376   1.826   4.202
 9712SOL    HW230036   5.463   1.696   4.251
 9713SOL     OW30037   6.737   5.093   3.064
 9713SOL    HW130038   6.730   5.186   3.099
 9713SOL    HW230039   6.796   5.038   3.124
 9714SOL     OW30040   2.323   2.384   1.330
 9714SOL    HW130041   2.416   2.359   1.359
 9714SOL    HW230042   2.286   2.452   1.394
 9715SOL     OW30043   4.901   5.796   4.970
 9715SOL    HW130044   4.938   5.853   5.043
 9715SOL    HW230045   4.949   5.815   4.885
 9716SOL     OW30046   4.096   1.894   6.244
 9716SOL    HW130047   3.999   1.903   6.224
 9716SOL    HW230048   4.117   1.798   6.265
 9717SOL     OW30049   5.898   5.784   4.005
 9717SOL    HW130050   5.827   5.730   4.049
 9717SOL    HW230051   5.872   5.881   4.006
 9718SOL     OW30052   3.917   3.527   1.278
 9718SOL    HW130053   3.977   3.492   1.350
 9718SOL    HW230054   3.867   3.607   1.312
 9719SOL     OW30055   0.925   2.040   0.385
 9719SOL    HW130056   0.929   2.019   0.287
 9719SOL    HW230057   0.908   1.956   0.436
 9720SOL     OW30058   0.247   6.902   1.976
 9720SOL    HW130059   0.296   6.989   1.974
 9720SOL    HW230060   0.287   6.843   2.046
 9721SOL     OW30061   6.450   4.051   2.283
 9721SOL    HW130062   6.407   3.988   2.219
 9721SOL    HW230063   6.516   4.001   2.340
 9722SOL     OW30064   0.610   0.568   3.846
 9722SOL    HW130065   0.533   0.550   3.785
 9722SOL    HW230066   0.675   0.492   3.842
 9723SOL     OW30067   0.167   0.819   3.639
 9723SOL    HW130068   0.151   0.727   3.602
 9723SOL    HW230069   0.203   0.878   3.567
 9724SOL     OW30070   3.164   2.082   1.279
 9724SOL    HW130071   3.078   2.040   1.250
 9724SOL    HW230072   3.173   2.172   1.237
 9725SOL     OW30073   4.850   2.960   5.325
 9725SOL    HW130074   4.771   2.994   5.376
 9725SOL    HW230075   4.897   3.037   5.282
 9726SOL     OW30076   4.973   6.763   4.867
 9726SOL    HW130077   4.891   6.714   4.895
 9726SOL    HW230078   4.980   6.849   4.918
 9727SOL     OW30079   0.932   3.209   5.879
 9727SOL    HW130080   1.000   3.226   5.808
 9727SOL    HW230081   0.962   3.134   5.937
 9728SOL     OW30082   2.643   5.726   6.546
 9728SOL    HW130083   2.553   5.768   6.558
 9728SOL    HW230084   2.660   5.711   6.449
 9729SOL     OW30085   1.863   4.782   3.156
 9729SOL    HW130086   1.956   4.818   3.156
 9729SOL    HW230087   1.858   4.703   3.095
 9730SOL     OW30088   6.494   3.392   2.635
 9730SOL    HW130089   6.577   3.375   2.688
 9730SOL    HW230090   6.456   3.305   2.603
 9731SOL     OW30091   3.549   5.230   0.477
 9731SOL    HW130092   3.587   5.222   0.569
 9731SOL    HW230093   3.540   5.326   0.452
 9732SOL     OW30094   6.368   6.183   2.574
 9732SOL    HW130095   6.438   6.255   2.587
 9732SOL    HW230096   6.277   6.225   2.577
 9733SOL     OW30097   5.070   4.866   5.191
 9733SOL    HW130098   5.005   4.801   5.231
 9733SOL    HW230099   5.033   4.901   5.105
 9734SOL     OW30100   5.381   2.009   3.988
 9734SOL    HW130101   5.452   2.058   3.938
 9734SOL    HW230102   5.370   2.050   4.079
 9735SOL     OW30103   2.143   4.846   1.666
 9735SOL    HW130104   2.057   4.805   1.698
 9735SOL    HW230105   2.209   4.773   1.647
 9736SOL     OW30106   3.920   0.985   6.659
 9736SOL    HW130107   3.945   1.026   6.746
 9736SOL    HW230108   3.982   1.018   6.587
 9737SOL     OW30109   4.138   2.156   5.148
 9737SOL    HW130110   4.170   2.237   5.098
 9737SOL    HW230111   4.054   2.122   5.106
 9738SOL     OW30112   1.369   0.850   3.343
 9738SOL    HW130113   1.428   0.770   3.336
 9738SOL    HW230114   1.421   0.927   3.381
 9739SOL     OW30115   5.937   4.924   1.428
 9739SOL    HW130116   5.844   4.959   1.424
 9739SOL    HW230117   6.000   4.993   1.392
 9740SOL     OW30118   6.273   4.750   2.846
 9740SOL    HW130119   6.176   4.773   2.839
 9740SOL    HW230120   6.287   4.686   2.921
 9741SOL     OW30121   4.525   1.944   2.360
 9741SOL    HW130122   4.458   1.994   2.305
 9741SOL    HW230123   4.506   1.957   2.457
 9742SOL     OW30124   5.467   1.021   3.338
 9742SOL    HW130125   5.484   1.109   3.383
 9742SOL    HW230126   5.463   1.034   3.239
 9743SOL     OW30127   1.706   3.108   6.015
 9743SOL    HW130128   1.738   3.045   6.086
 9743SOL    HW230129   1.695   3.058   5.929
 9744SOL     OW30130   1.645   0.978   2.055
 9744SOL    HW130131   1.626   0.885   2.086
 9744SOL    HW230132   1.736   1.006   2.087
 9745SOL     OW30133   0.716   2.400   4.949
 9745SOL    HW130134   0.692   2.341   5.025
 9745SOL    HW230135   0.634   2.446   4.915
 9746SOL     OW30136   6.073   0.893   4.837
 9746SOL    HW130137   6.159   0.943   4.830
 9746SOL    HW230138   6.043   0.864   4.746
 9747SOL     OW30139   0.620   0.392   6.070
 9747SOL    HW130140   0.601   0.298   6.041
 9747SOL    HW230141   0.602   0.455   5.995
 9748SOL     OW30142   0.993   6.123   3.960
 9748SOL    HW130143   0.940   6.077   3.889
 9748SOL    HW230144   1.022   6.057   4.029
 9749SOL     OW30145   0.591   3.803   4.382
 9749SOL    HW130146   0.597   3.871   4.308
 9749SOL    HW230147   0.542   3.723   4.350
 9750SOL     OW30148   4.556   4.766   3.664
 9750SOL    HW130149   4.609   4.754   3.748
 9750SOL    HW230150   4.615   4.806   3.593
 9751SOL     OW30151   1.831   1.793   0.491
 9751SOL    HW130152   1.776   1.811   0.573
 9751SOL    HW230153   1.892   1.871   0.474
 9752SOL     OW30154   4.336   0.890   5.551
 9752SOL    HW130155   4.317   0.988   5.558
 9752SOL    HW230156   4.418   0.875   5.496
 9753SOL     OW30157   6.951   5.978   5.275
 9753SOL    HW130158   7.001   6.064   5.265
 9753SOL    HW230159   6.994   5.923   5.346
 9754SOL     OW30160   1.313   1.705   6.872
 9754SOL    HW130161   1.369   1.735   6.794
 9754SOL    HW230162   1.231   1.659   6.838
 9755SOL     OW30163   3.680   4.274   5.629
 9755SOL    HW130164   3.664   4.334   5.551
 9755SOL    HW230165   3.679   4.179   5.598
 9756SOL     OW30166   5.799   2.257   6.453
 9756SOL    HW130167   5.883   2.273   6.505
 9756SOL    HW230168   5.786   2.332   6.388
 9757SOL     OW30169   6.104   2.358   4.010
 9757SOL    HW130170   6.043   2.419   3.960
 9757SOL    HW230171   6.068   2.264   4.006
 9758SOL     OW30172   2.692   0.342   6.597
 9758SOL    HW130173   2.636   0.289   6.534
 9758SOL    HW230174   2.648   0.429   6.617
 9759SOL     OW30175   2.791   6.402   1.212
 9759SOL    HW130176   2.802   6.437   1.119
 9759SOL    HW230177   2.872   6.349   1.238
 9760SOL     OW30178   6.181   4.421   5.562
 9760SOL    HW130179   6.230   4.490   5.615
 9760SOL    HW230180   6.220   4.331   5.581
 9761SOL     OW30181   6.088   5.432   1.891
 9761SOL    HW130182   6.173   5.484   1.900
 9761SOL    HW230183   6.095   5.347   1.942
 9762SOL     OW30184   2.469   1.942   4.897
 9762SOL    HW130185   2.528   2.022   4.887
 9762SOL    HW230186   2.506   1.882   4.968
 9763SOL     OW30187   2.942   1.930   1.235
 9763SOL    HW130188   2.880   1.966   1.164
 9763SOL    HW230189   2.891   1.871   1.297
 9764SOL     OW30190   0.646   1.889   2.949
 9764SOL    HW130191   0.739   1.890   2.913
 9764SOL    HW230192   0.646   1.918   3.044
 9765SOL     OW30193   0.570   2.473   5.570
 9765SOL    HW130194   0.566   2.489   5.669
 9765SOL    HW230195   0.666   2.471   5.540
 9766SOL     OW30196   3.139   0.233   2.507
 9766SOL    HW130197   3.097   0.291   2.437
 9766SOL    HW230198   3.084   0.149   2.518
 9767SOL     OW30199   5.285   0.498   4.745
 9767SOL    HW130200   5.198   0.463   4.779
 9767SOL    HW230201   5.272   0.538   4.654
 9768SOL     OW30202   4.600   1.861   2.764
 9768SOL    HW130203   4.669   1.791   2.745
 9768SOL    HW230204   4.643   1.939   2.811
 9769SOL     OW30205   1.087   1.866   1.243
 9769SOL    HW130206   1.140   1.786   1.272
 9769SOL    HW230207   1.005   1.874   1.301
 9770SOL     OW30208   5.833   4.549   5.980
 9770SOL    HW130209   5.824   4.500   5.894
 9770SOL    HW230210   5.911   4.612   5.975
 9771SOL     OW30211   4.387   5.212   5.664
 9771SOL    HW130212   4.334   5.194   5.748
 9771SOL    HW230213   4.449   5.136   5.647
 9772SOL     OW30214   6.752   0.833   1.847
 9772SOL    HW130215   6.763   0.835   1.748
 9772SOL    HW230216   6.830   0.785   1.888
 9773SOL     OW30217   6.309   5.567   3.721
 9773SOL    HW130218   6.344   5.651   3.680
 9773SOL    HW230219   6.343   5.488   3.671
 9774SOL     OW30220   6.256   5.135   3.682
 9774SOL    HW130221   6.158   5.145   3.698
 9774SOL    HW230222   6.296   5.078   3.754
 9775SOL     OW30223   1.837   2.402   5.045
 9775SOL    HW130224   1.853   2.371   4.951
 9775SOL    HW230225   1.747   2.445   5.051
 9776SOL     OW30226   0.427   6.329   5.221
 9776SOL    HW130227   0.407   6.370   5.132
 9776SOL    HW230228   0.525   6.311   5.227
 9777SOL     OW30229   5.505   4.302   6.181
 9777SOL    HW130230   5.477   4.304   6.085
 9777SOL    HW230231   5.575   4.232   6.194
 9778SOL     OW30232   4.679   6.973   2.444
 9778SOL    HW130233   4.667   6.917   2.363
 9778SOL    HW230234   4.607   0.026   2.449
 9779SOL     OW30235   2.577   2.102   5.374
 9779SOL    HW130236   2.502   2.062   5.322
 9779SOL    HW230237   2.581   2.201   5.357
 9780SOL     OW30238   2.951   4.476   0.424
 9780SOL    HW130239   3.035   4.505   0.378
 9780SOL    HW230240   2.876   4.537   0.398
 9781SOL     OW30241   1.503   4.830   4.685
 9781SOL    HW130242   1.456   4.844   4.772
 9781SOL    HW230243   1.515   4.732   4.668
 9782SOL     OW30244   6.111   0.365   1.999
 9782SOL    HW130245   6.194   0.357   1.944
 9782SOL    HW230246   6.134   0.402   2.089
 9783SOL     OW30247   5.389   1.502   1.792
 9783SOL    HW130248   5.328   1.556   1.734
 9783SOL    HW230249   5.416   1.419   1.743
 9784SOL     OW30250   4.381   0.502   3.639
 9784SOL    HW130251   4.364   0.589   3.686
 9784SOL    HW230252   4.304   0.482   3.578
 9785SOL     OW30253   0.741   3.032   1.926
 9785SOL    HW130254   0.835   3.001   1.941
 9785SOL    HW230255   0.741   3.129   1.904
 9786SOL     OW30256   2.862   5.948   5.138
 9786SOL    HW130257   2.784   5.926   5.081
 9786SOL    HW230258   2.945   5.910   5.097
 9787SOL     OW30259   5.191   4.574   2.051
 9787SOL    HW130260   5.197   4.490   1.996
 9787SOL    HW230261   5.154   4.648   1.995
 9788SOL     OW30262   6.481   1.059   5.782
 9788SOL    HW130263   6.505   1.145   5.827
 9788SOL    HW230264   6.435   0.999   5.847
 9789SOL     OW30265   2.192   5.431   4.541
 9789SOL    HW130266   2.099   5.411   4.508
 9789SOL    HW230267   2.240   5.487   4.473
 9790SOL     OW30268   5.991   2.103   4.103
 9790SOL    HW130269   5.920   2.133   4.167
 9790SOL    HW230270   5.949   2.050   4.030
 9791SOL     OW30271   0.617   2.149   1.308
 9791SOL    HW130272   0.521   2.149   1.335
 9791SOL    HW230273   0.632   2.221   1.240
 9792SOL     OW30274   4.221   5.178   1.219
 9792SOL    HW130275   4.313   5.215   1.205
 9792SOL    HW230276   4.194   5.125   1.139
 9793SOL     OW30277   5.212   5.774   1.959
 9793SOL    HW130278   5.173   5.682   1.952
 9793SOL    HW230279   5.269   5.792   1.879
 9794SOL     OW30280   4.870   2.764   6.545
 9794SOL    HW130281   4.804   2.786   6.474
 9794SOL    HW230282   4.835   2.793   6.634
 9795SOL     OW30283   1.753   3.525   4.170
 9795SOL    HW130284   1.775   3.447   4.111
 9795SOL    HW230285   1.830   3.588   4.174
 9796SOL     OW30286   2.664   4.950   6.762
 9796SOL    HW130287   2.662   5.027   6.826
 9796SOL    HW230288   2.732   4.883   6.793
 9797SOL     OW30289   4.431   3.148   5.687
 9797SOL    HW130290   4.504   3.163   5.754
 9797SOL    HW230291   4.372   3.229   5.684
 9798SOL     OW30292   2.596   1.695   1.105
 9798SOL    HW130293   2.660   1.689   1.028
 9798SOL    HW230294   2.598   1.787   1.142
 9799SOL     OW30295   3.045   4.262   1.733
 9799SOL    HW130296   2.988   4.334   1.774
 9799SOL    HW230297   3.038   4.179   1.788
 9800SOL     OW30298   4.523   4.989   6.641
 9800SOL    HW130299   4.583   4.913   6.617
 9800SOL    HW230300   4.525   5.057   6.567
 9801SOL     OW30301   4.245   5.497   0.400
 9801SOL    HW130302   4.302   5.579   0.400
 9801SOL    HW230303   4.169   5.509   0.337
 9802SOL     OW30304   6.646   3.431   0.816
 9802SOL    HW130305   6.647   3.503   0.746
 9802SOL    HW230306   6.601   3.466   0.899
 9803SOL     OW30307   6.225   0.401   6.914
 9803SOL    HW130308   6.141   0.450   6.938
 9803SOL    HW230309   6.269   0.369   6.997
 9804SOL     OW30310   6.107   5.646   4.167
 9804SOL    HW130311   6.171   5.652   4.090
 9804SOL    HW230312   6.014   5.661   4.134
 9805SOL     OW30313   1.562   5.183   6.958
 9805SOL    HW130314   1.607   5.237   6.887
 9805SOL    HW230315   1.555   5.088   6.928
 9806SOL     OW30316   0.131   1.844   2.747
 9806SOL    HW130317   0.201   1.881   2.809
 9806SOL    HW230318   0.133   1.744   2.750
 9807SOL     OW30319   3.979   2.392   0.886
 9807SOL    HW130320   4.045   2.381   0.961
 9807SOL    HW230321   3.988   2.484   0.847
 9808SOL     OW30322   0.960   1.252   4.685
 9808SOL    HW130323   0.972   1.351   4.674
 9808SOL    HW230324   1.046   1.212   4.717
 9809SOL     OW30325   0.623   0.904   4.718
 9809SOL    HW130326   0.560   0.865   4.785
 9809SOL    HW230327   0.641   1.000   4.741
 9810SOL     OW30328   3.586   1.019   3.648
 9810SOL    HW130329   3.565   0.938   3.594
 9810SOL    HW230330   3.502   1.057   3.685
 9811SOL     OW30331   0.506   6.799   2.597
 9811SOL    HW130332   0.480   6.724   2.537
 9811SOL    HW230333   0.487   6.886   2.552
 9812SOL     OW30334   4.901   2.425   6.210
 9812SOL    HW130335   4.883   2.357   6.281
 9812SOL    HW230336   4.870   2.390   6.122
 9813SOL     OW30337   6.920   4.516   0.113
 9813SOL    HW130338   6.871   4.440   0.069
 9813SOL    HW230339   6.854   4.586   0.142
 9814SOL     OW30340   0.076   0.124   5.373
 9814SOL    HW130341   6.998   0.115   5.406
 9814SOL    HW230342   0.112   0.213   5.399
 9815SOL     OW30343   5.990   3.461   2.262
 9815SOL    HW130344   5.984   3.366   2.233
 9815SOL    HW230345   5.900   3.494   2.289
 9816SOL     OW30346   0.198   6.366   6.851
 9816SOL    HW130347   0.265   6.439   6.856
 9816SOL    HW230348   0.106   6.405   6.846
 9817SOL     OW30349   2.746   6.728   0.131
 9817SOL    HW130350   2.803   6.675   0.193
 9817SOL    HW230351   2.779   6.715   0.037
 9818SOL     OW30352   0.734   6.663   3.480
 9818SOL    HW130353   0.635   6.668   3.495
 9818SOL    HW230354   0.778   6.627   3.562
 9819SOL     OW30355   0.460   3.820   5.023
 9819SOL    HW130356   0.454   3.884   4.946
 9819SOL    HW230357   0.541   3.763   5.012
 9820SOL     OW30358   3.807   1.908   5.605
 9820SOL    HW130359   3.720   1.868   5.576
 9820SOL    HW230360   3.880   1.841   5.594
 9821SOL     OW30361   4.342   2.524   1.820
 9821SOL    HW130362   4.271   2.580   1.778
 9821SOL    HW230363   4.429   2.572   1.817
 9822SOL     OW30364   3.570   6.141   5.642
 9822SOL    HW130365   3.628   6.162   5.563
 9822SOL    HW230366   3.489   6.199   5.639
 9823SOL     OW30367   1.916   0.383   2.904
 9823SOL    HW130368   1.980   0.317   2.864
 9823SOL    HW230369   1.887   0.351   2.994
 9824SOL     OW30370   1.098   6.343   5.312
 9824SOL    HW130371   1.134   6.411   5.376
 9824SOL    HW230372   1.164   6.327   5.240
 9825SOL     OW30373   5.237   6.420   5.886
 9825SOL    HW130374   5.184   6.440   5.968
 9825SOL    HW230375   5.200   6.471   5.809
 9826SOL     OW30376   2.054   5.921   5.083
 9826SOL    HW130377   2.022   6.011   5.054
 9826SOL    HW230378   1.995   5.886   5.156
 9827SOL     OW30379   1.534   5.529   1.554
 9827SOL    HW130380   1.598   5.545   1.479
 9827SOL    HW230381   1.519   5.614   1.604
 9828SOL     OW30382   4.388   2.307   4.557
 9828SOL    HW130383   4.436   2.299   4.644
 9828SOL    HW230384   4.406   2.226   4.501
 9829SOL     OW30385   4.254   5.569   5.375
 9829SOL    HW130386   4.314   5.494   5.405
 9829SOL    HW230387   4.285   5.655   5.416
 9830SOL     OW30388   6.135   2.437   3.047
 9830SOL    HW130389   6.190   2.355   3.058
 9830SOL    HW230390   6.082   2.431   2.963
 9831SOL     OW30391   0.906   3.870   2.906
 9831SOL    HW130392   0.904   3.771   2.899
 9831SOL    HW230393   0.914   3.910   2.814
 9832SOL     OW30394   4.702   5.072   4.730
 9832SOL    HW130395   4.634   5.104   4.664
 9832SOL    HW230396   4.697   4.973   4.738
 9833SOL     OW30397   3.642   4.125   4.081
 9833SOL    HW130398   3.565   4.062   4.075
 9833SOL    HW230399   3.608   4.219   4.075
 9834SOL     OW30400   2.689   6.417   6.524
 9834SOL    HW130401   2.641   6.498   6.558
 9834SOL    HW230402   2.714   6.358   6.601
 9835SOL     OW30403   3.826   3.965   4.242
 9835SOL    HW130404   3.773   4.018   4.175
 9835SOL    HW230405   3.791   3.871   4.244
 9836SOL     OW30406   0.278   4.158   6.270
 9836SOL    HW130407   0.366   4.203   6.260
 9836SOL    HW230408   0.286   4.083   6.336
 9837SOL     OW30409   5.310   1.891   3.388
 9837SOL    HW130410   5.398   1.939   3.395
 9837SOL    HW230411   5.298   1.858   3.294
 9838SOL     OW30412   1.302   6.653   1.223
 9838SOL    HW130413   1.213   6.637   1.180
 9838SOL    HW230414   1.288   6.682   1.318
 9839SOL     OW30415   4.882   6.981   3.943
 9839SOL    HW130416   4.895   0.060   3.968
 9839SOL    HW230417   4.923   6.964   3.854
 9840SOL     OW30418   6.098   1.021   0.101
 9840SOL    HW130419   6.178   0.961   0.089
 9840SOL    HW230420   6.118   1.111   0.062
 9841SOL     OW30421   0.362   6.474   3.427
 9841SOL    HW130422   0.386   6.501   3.334
 9841SOL    HW230423   0.354   6.555   3.485
 9842SOL     OW30424   3.199   1.428   6.541
 9842SOL    HW130425   3.296   1.435   6.516
 9842SOL    HW230426   3.186   1.468   6.632
 9843SOL     OW30427   1.016   0.517   1.414
 9843SOL    HW130428   0.931   0.466   1.398
 9843SOL    HW230429   1.091   0.452   1.427
 9844SOL     OW30430   4.622   6.656   4.256
 9844SOL    HW130431   4.579   6.566   4.264
 9844SOL    HW230432   4.680   6.658   4.175
 9845SOL     OW30433   1.786   3.424   2.105
 9845SOL    HW130434   1.697   3.429   2.060
 9845SOL    HW230435   1.779   3.369   2.188
 9846SOL     OW30436   6.133   2.504   1.215
 9846SOL    HW130437   6.151   2.408   1.233
 9846SOL    HW230438   6.126   2.554   1.302
 9847SOL     OW30439   4.480   3.966   0.176
 9847SOL    HW130440   4.429   3.965   0.090
 9847SOL    HW230441   4.418   3.945   0.251
 9848SOL     OW30442   2.907   4.184   5.954
 9848SOL    HW130443   2.857   4.175   6.040
 9848SOL    HW230444   2.843   4.203   5.880
 9849SOL     OW30445   0.733   2.135   4.624
 9849SOL    HW130446   0.750   2.223   4.667
 9849SOL    HW230447   0.772   2.062   4.679
 9850SOL     OW30448   1.169   0.097   4.322
 9850SOL    HW130449   1.157   0.196   4.310
 9850SOL    HW230450   1.145   0.050   4.238
 9851SOL     OW30451   3.488   4.905   4.464
 9851SOL    HW130452   3.575   4.913   4.512
 9851SOL    HW230453   3.414   4.891   4.530
 9852SOL     OW30454   1.899   0.675   6.488
 9852SOL    HW130455   1.909   0.686   6.587
 9852SOL    HW230456   1.849   0.591   6.468
 9853SOL     OW30457   6.242   4.487   3.499
 9853SOL    HW130458   6.155   4.476   3.547
 9853SOL    HW230459   6.289   4.399   3.495
 9854SOL     OW30460   0.706   4.370   5.805
 9854SOL    HW130461   0.736   4.286   5.851
 9854SOL    HW230462   0.665   4.347   5.717
 9855SOL     OW30463   1.458   4.945   1.401
 9855SOL    HW130464   1.381   4.882   1.388
 9855SOL    HW230465   1.522   4.906   1.467
 9856SOL     OW30466   5.711   4.295   2.954
 9856SOL    HW130467   5.703   4.360   3.029
 9856SOL    HW230468   5.621   4.275   2.917
 9857SOL     OW30469   4.151   0.310   5.227
 9857SOL    HW130470   4.232   0.294   5.283
 9857SOL    HW230471   4.169   0.385   5.163
 9858SOL     OW30472   6.189   6.429   2.380
 9858SOL    HW130473   6.274   6.392   2.342
 9858SOL    HW230474   6.120   6.357   2.383
 9859SOL     OW30475   0.058   5.183   3.333
 9859SOL    HW130476   0.041   5.140   3.244
 9859SOL    HW230477   0.155   5.208   3.339
 9860SOL     OW30478   1.265   3.365   4.284
 9860SOL    HW130479   1.337   3.363   4.215
 9860SOL    HW230480   1.264   3.278   4.335
 9861SOL     OW30481   3.157   1.991   3.183
 9861SOL    HW130482   3.225   1.919   3.192
 9861SOL    HW230483   3.108   2.001   3.270
 9862SOL     OW30484   1.214   4.558   0.168
 9862SOL    HW130485   1.242   4.632   0.230
 9862SOL    HW230486   1.115   4.544   0.174
 9863SOL     OW30487   3.854   6.053   0.739
 9863SOL    HW130488   3.877   5.984   0.671
 9863SOL    HW230489   3.774   6.023   0.791
 9864SOL     OW30490   2.879   5.240   5.127
 9864SOL    HW130491   2.896   5.295   5.209
 9864SOL    HW230492   2.839   5.152   5.153
 9865SOL     OW30493   0.523   5.816   5.312
 9865SOL    HW130494   0.507   5.834   5.409
 9865SOL    HW230495   0.611   5.769   5.301
 9866SOL     OW30496   6.149   4.355   5.101
 9866SOL    HW130497   6.052   4.376   5.096
 9866SOL    HW230498   6.201   4.439   5.113
 9867SOL     OW30499   4.143   1.681   2.000
 9867SOL    HW130500   4.181   1.592   1.975
 9867SOL    HW230501   4.197   1.720   2.075
 9868SOL     OW30502   2.059   3.884   3.940
 9868SOL    HW130503   1.961   3.890   3.961
 9868SOL    HW230504   2.072   3.897   3.842
 9869SOL     OW30505   5.863   2.886   1.030
 9869SOL    HW130506   5.927   2.962   1.043
 9869SOL    HW230507   5.883   2.841   0.943
 9870SOL     OW30508   2.403   2.107   2.234
 9870SOL    HW130509   2.335   2.040   2.264
 9870SOL    HW230510   2.431   2.163   2.311
 9871SOL     OW30511   6.327   4.763   4.551
 9871SOL    HW130512   6.381   4.710   4.617
 9871SOL    HW230513   6.382   4.780   4.469
 9872SOL     OW30514   0.464   5.303   6.081
 9872SOL    HW130515   0.411   5.385   6.103
 9872SOL    HW230516   0.448   5.234   6.151
 9873SOL     OW30517   1.345   1.805   5.898
 9873SOL    HW130518   1.333   1.771   5.991
 9873SOL    HW230519   1.286   1.753   5.836
 9874SOL     OW30520   0.400   2.754   4.946
 9874SOL    HW130521   0.337   2.796   5.011
 9874SOL    HW230522   0.489   2.798   4.952
 9875SOL     OW30523   6.506   5.858   0.603
 9875SOL    HW130524   6.550   5.948   0.604
 9875SOL    HW230525   6.577   5.788   0.611
 9876SOL     OW30526   1.210   6.511   3.370
 9876SOL    HW130527   1.196   6.610   3.366
 9876SOL    HW230528   1.292   6.491   3.424
 9877SOL     OW30529   0.868   4.987   5.284
 9877SOL    HW130530   0.828   4.939   5.207
 9877SOL    HW230531   0.846   4.939   5.369
 9878SOL     OW30532   2.679   2.634   6.609
 9878SOL    HW130533   2.616   2.668   6.539
 9878SOL    HW230534   2.749   2.703   6.627
 9879SOL     OW30535   6.755   5.060   6.410
 9879SOL    HW130536   6.805   5.144   6.391
 9879SOL    HW230537   6.657   5.078   6.409
 9880SOL     OW30538   3.192   1.279   0.518
 9880SOL    HW130539   3.207   1.256   0.422
 9880SOL    HW230540   3.191   1.379   0.529
 9881SOL     OW30541   6.073   0.988   4.003
 9881SOL    HW130542   6.067   0.981   3.904
 9881SOL    HW230543   6.073   0.896   4.043
 9882SOL     OW30544   3.093   3.085   4.772
 9882SOL    HW130545   3.121   2.998   4.732
 9882SOL    HW230546   3.066   3.148   4.699
 9883SOL     OW30547   2.743   0.224   1.911
 9883SOL    HW130548   2.840   0.203   1.895
 9883SOL    HW230549   2.717   0.305   1.859
 9884SOL     OW30550   3.024   2.897   6.029
 9884SOL    HW130551   3.105   2.840   6.014
 9884SOL    HW230552   3.020   2.968   5.960
 9885SOL     OW30553   5.419   3.013   5.108
 9885SOL    HW130554   5.350   2.975   5.170
 9885SOL    HW230555   5.413   3.113   5.109
 9886SOL     OW30556   3.791   6.119   1.316
 9886SOL    HW130557   3.818   6.047   1.380
 9886SOL    HW230558   3.752   6.196   1.367
 9887SOL     OW30559   3.319   0.383   6.039
 9887SOL    HW130560   3.239   0.349   6.088
 9887SOL    HW230561   3.343   0.474   6.073
 9888SOL     OW30562   6.369   6.183   3.359
 9888SOL    HW130563   6.450   6.154   3.410
 9888SOL    HW230564   6.324   6.258   3.408
 9889SOL     OW30565   6.947   5.904   3.406
 9889SOL    HW130566   0.024   5.929   3.432
 9889SOL    HW230567   6.882   5.960   3.457
 9890SOL     OW30568   0.690   3.558   1.607
 9890SOL    HW130569   0.669   3.463   1.582
 9890SOL    HW230570   0.746   3.559   1.689
 9891SOL     OW30571   5.926   5.916   1.320
 9891SOL    HW130572   5.843   5.972   1.323
 9891SOL    HW230573   5.995   5.957   1.379
 9892SOL     OW30574   1.670   4.840   4.176
 9892SOL    HW130575   1.595   4.886   4.225
 9892SOL    HW230576   1.757   4.863   4.220
 9893SOL     OW30577   4.942   5.358   3.863
 9893SOL    HW130578   4.913   5.338   3.957
 9893SOL    HW230579   5.042   5.349   3.857
 9894SOL     OW30580   4.414   2.989   6.045
 9894SOL    HW130581   4.385   2.913   5.988
 9894SOL    HW230582   4.337   3.050   6.061
 9895SOL     OW30583   5.712   2.040   6.638
 9895SOL    HW130584   5.739   2.108   6.570
 9895SOL    HW230585   5.714   1.949   6.597
 9896SOL     OW30586   4.363   3.322   0.435
 9896SOL    HW130587   4.372   3.283   0.343
 9896SOL    HW230588   4.425   3.274   0.497
 9897SOL     OW30589   6.926   1.903   3.866
 9897SOL    HW130590   6.877   1.838   3.809
 9897SOL    HW230591   6.965   1.855   3.945
 9898SOL     OW30592   1.341   5.296   5.734
 9898SOL    HW130593   1.336   5.392   5.708
 9898SOL    HW230594   1.285   5.242   5.671
 9899SOL     OW30595   5.394   4.861   1.823
 9899SOL    HW130596   5.385   4.764   1.800
 9899SOL    HW230597   5.364   4.876   1.917
 9900SOL     OW30598   0.860   3.438   3.264
 9900SOL    HW130599   0.809   3.383   3.198
 9900SOL    HW230600   0.849   3.399   3.355
 9901SOL     OW30601   3.177   1.613   5.279
 9901SOL    HW130602   3.129   1.583   5.361
 9901SOL    HW230603   3.155   1.551   5.203
 9902SOL     OW30604   4.551   3.902   6.788
 9902SOL    HW130605   4.521   3.862   6.702
 9902SOL    HW230606   4.517   3.995   6.796
 9903SOL     OW30607   3.901   1.037   1.150
 9903SOL    HW130608   3.949   1.100   1.211
 9903SOL    HW230609   3.951   1.029   1.064
 9904SOL     OW30610   6.177   0.465   2.250
 9904SOL    HW130611   6.253   0.518   2.287
 9904SOL    HW230612   6.096   0.523   2.241
 9905SOL     OW30613   1.605   6.432   5.516
 9905SOL    HW130614   1.532   6.470   5.574
 9905SOL    HW230615   1.681   6.403   5.574
 9906SOL     OW30616   3.266   3.398   5.955
 9906SOL    HW130617   3.357   3.362   5.975
 9906SOL    HW230618   3.211   3.400   6.038
 9907SOL     OW30619   1.551   6.579   2.429
 9907SOL    HW130620   1.626   6.645   2.427
 9907SOL    HW230621   1.552   6.528   2.515
 9908SOL     OW30622   0.755   3.921   5.093
 9908SOL    HW130623   0.690   3.929   5.168
 9908SOL    HW230624   0.838   3.876   5.125
 9909SOL     OW30625   4.067   6.672   2.716
 9909SOL    HW130626   3.977   6.631   2.730
 9909SOL    HW230627   4.062   6.771   2.729
 9910SOL     OW30628   0.276   4.226   1.956
 9910SOL    HW130629   0.338   4.193   2.028
 9910SOL    HW230630   0.329   4.251   1.875
 9911SOL     OW30631   2.934   4.829   3.511
 9911SOL    HW130632   3.016   4.850   3.458
 9911SOL    HW230633   2.947   4.858   3.606
 9912SOL     OW30634   4.691   0.018   1.268
 9912SOL    HW130635   4.642   6.991   1.343
 9912SOL    HW230636   4.789   7.015   1.277
 9913SOL     OW30637   4.799   1.676   2.696
 9913SOL    HW130638   4.749   1.600   2.738
 9913SOL    HW230639   4.879   1.698   2.752
 9914SOL     OW30640   1.860   5.900   5.336
 9914SOL    HW130641   1.778   5.885   5.391
 9914SOL    HW230642   1.919   5.820   5.341
 9915SOL     OW30643   5.582   3.751   4.612
 9915SOL    HW130644   5.508   3.769   4.677
 9915SOL    HW230645   5.641   3.831   4.605
 9916SOL     OW30646   2.506   3.040   1.183
 9916SOL    HW130647   2.552   3.063   1.268
 9916SOL    HW230648   2.441   3.112   1.159
 9917SOL     OW30649   2.157   3.405   5.643
 9917SOL    HW130650   2.241   3.456   5.623
 9917SOL    HW230651   2.078   3.467   5.638
 9918SOL     OW30652   1.749   1.558   4.855
 9918SOL    HW130653   1.754   1.581   4.952
 9918SOL    HW230654   1.840   1.532   4.822
 9919SOL     OW30655   6.664   5.173   2.808
 9919SOL    HW130656   6.689   5.103   2.875
 9919SOL    HW230657   6.720   5.255   2.824
 9920SOL     OW30658   4.209   6.284   1.845
 9920SOL    HW130659   4.154   6.362   1.873
 9920SOL    HW230660   4.275   6.313   1.775
 9921SOL     OW30661   4.880   0.202   3.028
 9921SOL    HW130662   4.889   0.213   2.929
 9921SOL    HW230663   4.785   0.217   3.054
 9922SOL     OW30664   4.758   3.218   1.484
 9922SOL    HW130665   4.694   3.236   1.558
 9922SOL    HW230666   4.752   3.122   1.457
 9923SOL     OW30667   6.373   1.070   6.646
 9923SOL    HW130668   6.469   1.061   6.620
 9923SOL    HW230669   6.360   1.156   6.695
 9924SOL     OW30670   5.657   0.614   3.244
 9924SOL    HW130671   5.743   0.571   3.217
 9924SOL    HW230672   5.647   0.702   3.197
 9925SOL     OW30673   2.357   2.694   4.618
 9925SOL    HW130674   2.448   2.688   4.660
 9925SOL    HW230675   2.289   2.711   4.689
 9926SOL     OW30676   1.458   1.295   0.449
 9926SOL    HW130677   1.465   1.360   0.373
 9926SOL    HW230678   1.454   1.345   0.535
 9927SOL     OW30679   0.720   2.735   2.477
 9927SOL    HW130680   0.692   2.646   2.512
 9927SOL    HW230681   0.721   2.801   2.552
 9928SOL     OW30682   6.812   3.136   2.818
 9928SOL    HW130683   6.887   3.199   2.798
 9928SOL    HW230684   6.794   3.134   2.916
 9929SOL     OW30685   2.179   3.900   6.123
 9929SOL    HW130686   2.134   3.872   6.038
 9929SOL    HW230687   2.274   3.924   6.105
 9930SOL     OW30688   0.126   5.725   0.339
 9930SOL    HW130689   0.200   5.791   0.323
 9930SOL    HW230690   0.139   5.646   0.280
 9931SOL     OW30691   2.849   5.668   6.755
 9931SOL    HW130692   2.770   5.669   6.694
 9931SOL    HW230693   2.823   5.705   6.844
 9932SOL     OW30694   1.968   2.128   0.281
 9932SOL    HW130695   1.878   2.088   0.266
 9932SOL    HW230696   1.958   2.223   0.311
 9933SOL     OW30697   1.147   2.012   3.648
 9933SOL    HW130698   1.127   2.107   3.625
 9933SOL    HW230699   1.198   2.009   3.734
 9934SOL     OW30700   4.372   1.336   6.355
 9934SOL    HW130701   4.407   1.292   6.273
 9934SOL    HW230702   4.280   1.303   6.375
 9935SOL     OW30703   2.668   2.059   0.580
 9935SOL    HW130704   2.654   2.003   0.662
 9935SOL    HW230705   2.713   2.004   0.510
 9936SOL     OW30706   6.182   6.437   5.806
 9936SOL    HW130707   6.110   6.486   5.857
 9936SOL    HW230708   6.141   6.365   5.752
 9937SOL     OW30709   0.671   0.630   3.283
 9937SOL    HW130710   0.660   0.562   3.355
 9937SOL    HW230711   0.761   0.675   3.293
 9938SOL     OW30712   0.162   1.784   3.676
 9938SOL    HW130713   0.236   1.796   3.610
 9938SOL    HW230714   0.168   1.855   3.746
 9939SOL     OW30715   3.331   4.172   1.036
 9939SOL    HW130716   3.372   4.243   1.094
 9939SOL    HW230717   3.393   4.095   1.027
 9940SOL     OW30718   0.061   1.209   3.535
 9940SOL    HW130719   0.153   1.248   3.538
 9940SOL    HW230720   0.061   1.121   3.584
 9941SOL     OW30721   5.537   4.945   0.097
 9941SOL    HW130722   5.465   4.890   0.055
 9941SOL    HW230723   5.537   4.929   0.196
 9942SOL     OW30724   4.941   5.084   2.696
 9942SOL    HW130725   5.020   5.044   2.741
 9942SOL    HW230726   4.864   5.085   2.760
 9943SOL     OW30727   2.038   3.766   5.892
 9943SOL    HW130728   1.987   3.693   5.937
 9943SOL    HW230729   2.029   3.756   5.792
 9944SOL     OW30730   0.676   4.893   6.033
 9944SOL    HW130731   0.684   4.877   6.131
 9944SOL    HW230732   0.579   4.905   6.009
 9945SOL     OW30733   6.629   3.597   6.130
 9945SOL    HW130734   6.554   3.662   6.144
 9945SOL    HW230735   6.710   3.647   6.099
 9946SOL     OW30736   5.365   1.810   1.683
 9946SOL    HW130737   5.420   1.798   1.766
 9946SOL    HW230738   5.344   1.907   1.671
 9947SOL     OW30739   1.143   1.680   3.810
 9947SOL    HW130740   1.049   1.714   3.812
 9947SOL    HW230741   1.195   1.722   3.885
 9948SOL     OW30742   5.640   0.146   4.567
 9948SOL    HW130743   5.621   0.216   4.637
 9948SOL    HW230744   5.733   0.158   4.533
 9949SOL     OW30745   6.410   5.320   3.588
 9949SOL    HW130746   6.465   5.278   3.516
 9949SOL    HW230747   6.342   5.255   3.620
 9950SOL     OW30748   5.581   3.885   5.307
 9950SOL    HW130749   5.539   3.901   5.397
 9950SOL    HW230750   5.529   3.932   5.237
 9951SOL     OW30751   0.640   1.976   3.501
 9951SOL    HW130752   0.706   1.908   3.533
 9951SOL    HW230753   0.621   2.042   3.574
 9952SOL     OW30754   0.929   4.996   2.060
 9952SOL    HW130755   1.026   4.996   2.038
 9952SOL    HW230756   0.877   5.032   1.983
 9953SOL     OW30757   5.728   2.858   3.670
 9953SOL    HW130758   5.790   2.903   3.735
 9953SOL    HW230759   5.636   2.853   3.710
 9954SOL     OW30760   3.440   1.589   6.350
 9954SOL    HW130761   3.450   1.491   6.368
 9954SOL    HW230762   3.529   1.628   6.329
 9955SOL     OW30763   5.586   4.296   0.818
 9955SOL    HW130764   5.559   4.365   0.885
 9955SOL    HW230765   5.535   4.211   0.835
 9956SOL     OW30766   2.106   3.460   3.166
 9956SOL    HW130767   2.052   3.379   3.145
 9956SOL    HW230768   2.087   3.531   3.098
 9957SOL     OW30769   5.211   0.295   0.461
 9957SOL    HW130770   5.120   0.314   0.496
 9957SOL    HW230771   5.234   0.199   0.476
 9958SOL     OW30772   5.404   6.240   0.350
 9958SOL    HW130773   5.368   6.178   0.280
 9958SOL    HW230774   5.371   6.212   0.440
 9959SOL     OW30775   4.683   4.789   0.680
 9959SOL    HW130776   4.781   4.787   0.662
 9959SOL    HW230777   4.656   4.705   0.728
 9960SOL     OW30778   0.587   0.039   0.202
 9960SOL    HW130779   0.581   6.975   0.262
 9960SOL    HW230780   0.513   0.036   0.135
 9961SOL     OW30781   3.020   5.640   1.383
 9961SOL    HW130782   3.059   5.679   1.466
 9961SOL    HW230783   3.047   5.694   1.303
 9962SOL     OW30784   2.908   0.387   1.493
 9962SOL    HW130785   2.967   0.307   1.507
 9962SOL    HW230786   2.925   0.454   1.565
 9963SOL     OW30787   0.677   0.919   6.107
 9963SOL    HW130788   0.662   0.821   6.123
 9963SOL    HW230789   0.682   0.936   6.009
 9964SOL     OW30790   4.588   4.378   6.060
 9964SOL    HW130791   4.608   4.447   5.991
 9964SOL    HW230792   4.586   4.287   6.018
 9965SOL     OW30793   2.533   5.611   3.897
 9965SOL    HW130794   2.480   5.543   3.846
 9965SOL    HW230795   2.584   5.565   3.969
 9966SOL     OW30796   3.610   4.976   2.197
 9966SOL    HW130797   3.526   4.981   2.251
 9966SOL    HW230798   3.600   4.903   2.129
 9967SOL     OW30799   6.675   0.101   3.121
 9967SOL    HW130800   6.667   0.147   3.032
 9967SOL    HW230801   6.592   0.116   3.174
 9968SOL     OW30802   3.579   6.254   6.980
 9968SOL    HW130803   3.609   6.339   0.007
 9968SOL    HW230804   3.622   6.176   0.010
 9969SOL     OW30805   1.081   6.069   3.591
 9969SOL    HW130806   1.064   6.102   3.498
 9969SOL    HW230807   1.174   6.094   3.619
 9970SOL     OW30808   6.278   3.919   1.365
 9970SOL    HW130809   6.238   3.833   1.332
 9970SOL    HW230810   6.354   3.899   1.427
 9971SOL     OW30811   0.759   5.507   3.546
 9971SOL    HW130812   0.805   5.439   3.489
 9971SOL    HW230813   0.744   5.591   3.493
 9972SOL     OW30814   3.043   3.953   6.541
 9972SOL    HW130815   3.105   3.875   6.543
 9972SOL    HW230816   3.006   3.964   6.449
 9973SOL     OW30817   2.782   2.231   3.409
 9973SOL    HW130818   2.814   2.272   3.494
 9973SOL    HW230819   2.682   2.237   3.404
 9974SOL     OW30820   1.108   3.030   2.531
 9974SOL    HW130821   1.061   3.022   2.618
 9974SOL    HW230822   1.101   2.943   2.482
 9975SOL     OW30823   2.003   4.784   6.782
 9975SOL    HW130824   1.940   4.750   6.852
 9975SOL    HW230825   2.081   4.828   6.826
 9976SOL     OW30826   3.314   4.461   6.355
 9976SOL    HW130827   3.283   4.384   6.410
 9976SOL    HW230828   3.286   4.448   6.260
 9977SOL     OW30829   4.703   6.847   5.606
 9977SOL    HW130830   4.773   6.889   5.548
 9977SOL    HW230831   4.708   6.886   5.698
 9978SOL     OW30832   0.787   3.606   6.713
 9978SOL    HW130833   0.745   3.580   6.626
 9978SOL    HW230834   0.859   3.674   6.695
 9979SOL     OW30835   3.661   3.390   4.942
 9979SOL    HW130836   3.596   3.432   4.879
 9979SOL    HW230837   3.745   3.445   4.944
 9980SOL     OW30838   2.559   1.420   0.790
 9980SOL    HW130839   2.461   1.416   0.771
 9980SOL    HW230840   2.586   1.338   0.840
 9981SOL     OW30841   6.652   2.639   1.370
 9981SOL    HW130842   6.665   2.689   1.285
 9981SOL    HW230843   6.642   2.704   1.446
 9982SOL     OW30844   2.035   2.369   4.595
 9982SOL    HW130845   1.987   2.420   4.524
 9982SOL    HW230846   1.969   2.325   4.655
 9983SOL     OW30847   0.765   3.064   2.539
 9983SOL    HW130848   0.830   2.992   2.565
 9983SOL    HW230849   0.718   3.097   2.620
 9984SOL     OW30850   0.528   5.364   1.155
 9984SOL    HW130851   0.489   5.278   1.120
 9984SOL    HW230852   0.620   5.347   1.189
 9985SOL     OW30853   4.854   4.522   0.099
 9985SOL    HW130854   4.917   4.455   0.137
 9985SOL    HW230855   4.862   4.523   7.015
 9986SOL     OW30856   5.405   5.118   6.742
 9986SOL    HW130857   5.490   5.158   6.775
 9986SOL    HW230858   5.416   5.090   6.646
 9987SOL     OW30859   5.238   2.719   1.274
 9987SOL    HW130860   5.186   2.721   1.360
 9987SOL    HW230861   5.326   2.673   1.289
 9988SOL     OW30862   5.717   6.277   3.810
 9988SOL    HW130863   5.689   6.209   3.742
 9988SOL    HW230864   5.656   6.356   3.805
 9989SOL     OW30865   6.846   4.986   2.417
 9989SOL    HW130866   6.789   5.047   2.472
 9989SOL    HW230867   6.853   4.897   2.462
 9990SOL     OW30868   0.424   6.699   4.026
 9990SOL    HW130869   0.524   6.689   4.019
 9990SOL    HW230870   0.402   6.765   4.098
 9991SOL     OW30871   1.706   4.952   3.334
 9991SOL    HW130872   1.776   4.909   3.277
 9991SOL    HW230873   1.695   4.901   3.419
 9992SOL     OW30874   3.381   4.599   0.395
 9992SOL    HW130875   3.373   4.693   0.429
 9992SOL    HW230876   3.343   4.536   0.462
 9993SOL     OW30877   3.475   6.376   4.453
 9993SOL    HW130878   3.489   6.442   4.526
 9993SOL    HW230879   3.492   6.284   4.487
 9994SOL     OW30880   5.869   5.653   5.084
 9994SOL    HW130881   5.948   5.714   5.075
 9994SOL    HW230882   5.901   5.559   5.096
 9995SOL     OW30883   3.069   0.197   4.948
 9995SOL    HW130884   3.034   0.284   4.983
 9995SOL    HW230885   3.167   0.205   4.930
 9996SOL     OW30886   2.727   3.002   0.955
 9996SOL    HW130887   2.677   2.988   1.041
 9996SOL    HW230888   2.698   2.933   0.889
 9997SOL     OW30889   5.899   2.666   3.586
 9997SOL    HW130890   5.871   2.588   3.531
 9997SOL    HW230891   5.825   2.734   3.587
 9998SOL     OW30892   4.879   4.589   2.537
 9998SOL    HW130893   4.780   4.576   2.538
 9998SOL    HW230894   4.908   4.621   2.447
 9999SOL     OW30895   0.921   6.716   3.257
 9999SOL    HW130896   0.866   6.718   3.340
 9999SOL    HW230897   1.018   6.726   3.280
10000SOL     OW30898   5.209   2.375   1.382
10000SOL    HW130899   5.234   2.422   1.466
10000SOL    HW230900   5.110   2.360   1.380
10001SOL     OW30901   4.208   6.167   2.109
10001SOL    HW130902   4.266   6.175   2.028
10001SOL    HW230903   4.115   6.193   2.086
10002SOL     OW30904   3.079   1.035   1.880
10002SOL    HW130905   2.980   1.018   1.884
10002SOL    HW230906   3.124   0.987   1.956
10003SOL     OW30907   1.622   0.634   3.921
10003SOL    HW130908   1.581   0.564   3.980
10003SOL    HW230909   1.571   0.720   3.931
10004SOL     OW30910   6.416   3.929   5.158
10004SOL    HW130911   6.332   3.875   5.167
10004SOL    HW230912   6.495   3.867   5.151
10005SOL     OW30913   2.290   5.387   3.217
10005SOL    HW130914   2.240   5.402   3.132
10005SOL    HW230915   2.312   5.475   3.259
10006SOL     OW30916   5.148   0.107   4.614
10006SOL    HW130917   5.060   0.145   4.641
10006SOL    HW230918   5.184   0.158   4.536
10007SOL     OW30919   1.502   4.989   4.310
10007SOL    HW130920   1.485   5.019   4.216
10007SOL    HW230921   1.420   5.005   4.365
10008SOL     OW30922   4.298   1.206   5.981
10008SOL    HW130923   4.295   1.129   5.917
10008SOL    HW230924   4.350   1.180   6.062
10009SOL     OW30925   1.463   3.288   2.211
10009SOL    HW130926   1.427   3.378   2.236
10009SOL    HW230927   1.510   3.294   2.123
10010SOL     OW30928   2.677   3.834   0.325
10010SOL    HW130929   2.764   3.854   0.280
10010SOL    HW230930   2.683   3.860   0.421
10011SOL     OW30931   1.788   3.509   0.627
10011SOL    HW130932   1.708   3.568   0.637
10011SOL    HW230933   1.798   3.482   0.531
10012SOL     OW30934   5.659   2.256   3.072
10012SOL    HW130935   5.644   2.354   3.086
10012SOL    HW230936   5.754   2.241   3.041
10013SOL     OW30937   0.383   5.706   5.065
10013SOL    HW130938   0.427   5.731   5.151
10013SOL    HW230939   0.451   5.705   4.991
10014SOL     OW30940   0.903   6.926   2.897
10014SOL    HW130941   0.972   6.940   2.826
10014SOL    HW230942   0.911   6.834   2.934
10015SOL     OW30943   4.440   4.529   5.817
10015SOL    HW130944   4.414   4.465   5.745
10015SOL    HW230945   4.539   4.530   5.827
10016SOL     OW30946   2.298   7.012   2.915
10016SOL    HW130947   2.267   6.919   2.932
10016SOL    HW230948   2.258   0.058   2.983
10017SOL     OW30949   2.516   2.258   2.861
10017SOL    HW130950   2.494   2.342   2.910
10017SOL    HW230951   2.542   2.187   2.926
10018SOL     OW30952   6.619   3.198   5.930
10018SOL    HW130953   6.561   3.160   5.858
10018SOL    HW230954   6.609   3.144   6.013
10019SOL     OW30955   0.382   2.120   2.649
10019SOL    HW130956   0.480   2.133   2.664
10019SOL    HW230957   0.361   2.135   2.553
10020SOL     OW30958   5.962   0.653   2.309
10020SOL    HW130959   5.944   0.717   2.235
10020SOL    HW230960   5.883   0.649   2.370
10021SOL     OW30961   1.283   3.852   2.360
10021SOL    HW130962   1.304   3.783   2.430
10021SOL    HW230963   1.185   3.868   2.358
10022SOL     OW30964   2.454   5.960   6.988
10022SOL    HW130965   2.408   5.989   6.904
10022SOL    HW230966   2.430   5.865   7.009
10023SOL     OW30967   1.734   0.003   5.927
10023SOL    HW130968   1.656   6.969   5.965
10023SOL    HW230969   1.743   6.998   5.830
10024SOL     OW30970   1.491   4.798   2.614
10024SOL    HW130971   1.539   4.862   2.554
10024SOL    HW230972   1.494   4.706   2.575
10025SOL     OW30973   1.101   4.159   1.812
10025SOL    HW130974   1.027   4.127   1.753
10025SOL    HW230975   1.186   4.113   1.785
10026SOL     OW30976   5.217   1.364   4.483
10026SOL    HW130977   5.146   1.337   4.548
10026SOL    HW230978   5.174   1.386   4.395
10027SOL     OW30979   2.459   1.593   5.325
10027SOL    HW130980   2.403   1.650   5.385
10027SOL    HW230981   2.555   1.609   5.345
10028SOL     OW30982   4.854   0.733   1.313
10028SOL    HW130983   4.783   0.802   1.296
10028SOL    HW230984   4.917   0.767   1.382
10029SOL     OW30985   0.308   3.560   5.258
10029SOL    HW130986   0.355   3.629   5.312
10029SOL    HW230987   0.218   3.542   5.297
10030SOL     OW30988   2.353   0.075   4.889
10030SOL    HW130989   2.417   0.101   4.817
10030SOL    HW230990   2.389   0.101   4.978
10031SOL     OW30991   2.810   4.982   4.039
10031SOL    HW130992   2.864   4.989   3.955
10031SOL    HW230993   2.823   5.064   4.094
10032SOL     OW30994   3.125   6.196   5.150
10032SOL    HW130995   3.150   6.155   5.062
10032SOL    HW230996   3.026   6.187   5.164
10033SOL     OW30997   3.582   1.226   3.286
10033SOL    HW130998   3.536   1.248   3.200
10033SOL    HW230999   3.655   1.292   3.303
10034SOL     OW31000   2.616   0.724   3.656
10034SOL    HW131001   2.610   0.820   3.686
10034SOL    HW231002   2.712   0.700   3.640
10035SOL     OW31003   5.829   2.714   2.441
10035SOL    HW131004   5.835   2.698   2.540
10035SOL    HW231005   5.913   2.758   2.409
10036SOL     OW31006   0.202   0.507   6.681
10036SOL    HW131007   0.239   0.586   6.730
10036SOL    HW231008   0.264   0.484   6.605
10037SOL     OW31009   6.501   0.325   0.289
10037SOL    HW131010   6.470   0.420   0.290
10037SOL    HW231011   6.594   0.320   0.324
10038SOL     OW31012   4.194   0.232   0.122
10038SOL    HW131013   4.205   0.330   0.104
10038SOL    HW231014   4.237   0.209   0.209
10039SOL     OW31015   6.169   5.297   3.286
10039SOL    HW131016   6.173   5.277   3.189
10039SOL    HW231017   6.188   5.214   3.339
10040SOL     OW31018   3.714   6.806   0.444
10040SOL    HW131019   3.627   6.815   0.395
10040SOL    HW231020   3.762   6.893   0.443
10041SOL     OW31021   6.762   5.322   4.741
10041SOL    HW131022   6.849   5.369   4.728
10041SOL    HW231023   6.694   5.359   4.677
10042SOL     OW31024   0.294   0.553   4.710
10042SOL    HW131025   0.291   0.535   4.808
10042SOL    HW231026   0.246   0.481   4.661
10043SOL     OW31027   0.935   0.724   3.402
10043SOL    HW131028   0.919   0.732   3.500
10043SOL    HW231029   1.032   0.707   3.385
10044SOL     OW31030   2.608   1.665   5.636
10044SOL    HW131031   2.548   1.640   5.711
10044SOL    HW231032   2.607   1.765   5.624
10045SOL     OW31033   3.963   6.514   4.803
10045SOL    HW131034   3.908   6.595   4.780
10045SOL    HW231035   3.928   6.474   4.887
10046SOL     OW31036   7.004   2.697   1.738
10046SOL    HW131037   6.982   2.602   1.762
10046SOL    HW231038   0.080   2.700   1.700
10047SOL     OW31039   6.726   1.860   5.133
10047SOL    HW131040   6.627   1.846   5.125
10047SOL    HW231041   6.744   1.942   5.189
10048SOL     OW31042   3.301   1.369   1.405
10048SOL    HW131043   3.391   1.370   1.449
10048SOL    HW231044   3.231   1.384   1.475
10049SOL     OW31045   2.150   0.285   5.577
10049SOL    HW131046   2.116   0.283   5.482
10049SOL    HW231047   2.174   0.192   5.605
10050SOL     OW31048   5.245   2.940   4.514
10050SOL    HW131049   5.323   2.999   4.491
10050SOL    HW231050   5.238   2.932   4.613
10051SOL     OW31051   5.878   3.195   4.684
10051SOL    HW131052   5.865   3.109   4.735
10051SOL    HW231053   5.954   3.184   4.619
10052SOL     OW31054   1.015   3.590   1.780
10052SOL    HW131055   1.055   3.672   1.740
10052SOL    HW231056   1.086   3.520   1.791
10053SOL     OW31057   3.418   5.591   3.367
10053SOL    HW131058   3.345   5.656   3.387
10053SOL    HW231059   3.476   5.628   3.294
10054SOL     OW31060   3.879   5.206   5.144
10054SOL    HW131061   3.958   5.205   5.205
10054SOL    HW231062   3.872   5.296   5.100
10055SOL     OW31063   6.352   2.616   5.108
10055SOL    HW131064   6.326   2.530   5.152
10055SOL    HW231065   6.451   2.618   5.094
10056SOL     OW31066   6.522   4.786   1.543
10056SOL    HW131067   6.529   4.701   1.491
10056SOL    HW231068   6.575   4.857   1.497
10057SOL     OW31069   3.814   2.046   4.503
10057SOL    HW131070   3.888   2.107   4.534
10057SOL    HW231071   3.785   1.988   4.579
10058SOL     OW31072   0.364   5.539   3.939
10058SOL    HW131073   0.393   5.444   3.931
10058SOL    HW231074   0.432   5.591   3.991
10059SOL     OW31075   5.517   0.712   0.948
10059SOL    HW131076   5.422   0.703   0.978
10059SOL    HW231077   5.532   0.804   0.913
10060SOL     OW31078   2.721   2.378   1.745
10060SOL    HW131079   2.741   2.367   1.648
10060SOL    HW231080   2.807   2.381   1.797
10061SOL     OW31081   6.305   1.548   4.092
10061SOL    HW131082   6.328   1.625   4.152
10061SOL    HW231083   6.294   1.465   4.148
10062SOL     OW31084   6.795   5.568   3.340
10062SOL    HW131085   6.827   5.661   3.358
10062SOL    HW231086   6.737   5.537   3.415
10063SOL     OW31087   1.180   3.681   3.731
10063SOL    HW131088   1.211   3.690   3.636
10063SOL    HW231089   1.212   3.759   3.784
10064SOL     OW31090   5.473   5.970   4.700
10064SOL    HW131091   5.475   6.041   4.770
10064SOL    HW231092   5.380   5.937   4.689
10065SOL     OW31093   1.227   6.401   2.557
10065SOL    HW131094   1.195   6.345   2.481
10065SOL    HW231095   1.152   6.457   2.592
10066SOL     OW31096   0.823   6.945   3.877
10066SOL    HW131097   0.884   6.972   3.803
10066SOL    HW231098   0.869   6.958   3.965
10067SOL     OW31099   4.425   4.580   4.030
10067SOL    HW131100   4.369   4.658   4.057
10067SOL    HW231101   4.510   4.579   4.082
10068SOL     OW31102   5.238   3.586   4.711
10068SOL    HW131103   5.286   3.590   4.798
10068SOL    HW231104   5.153   3.534   4.723
10069SOL     OW31105   3.024   1.682   3.307
10069SOL    HW131106   3.008   1.622   3.229
10069SOL    HW231107   3.108   1.655   3.354
10070SOL     OW31108   1.170   6.440   4.665
10070SOL    HW131109   1.157   6.403   4.573
10070SOL    HW231110   1.083   6.479   4.697
10071SOL     OW31111   4.780   5.534   4.139
10071SOL    HW131112   4.846   5.608   4.150
10071SOL    HW231113   4.829   5.448   4.126
10072SOL     OW31114   0.587   6.288   3.387
10072SOL    HW131115   0.534   6.367   3.417
10072SOL    HW231116   0.565   6.267   3.291
10073SOL     OW31117   0.000   5.111   5.712
10073SOL    HW131118   0.018   5.033   5.772
10073SOL    HW231119   0.018   5.084   5.617
10074SOL     OW31120   1.472   0.097   6.090
10074SOL    HW131121   1.489   0.135   5.999
10074SOL    HW231122   1.523   0.150   6.158
10075SOL     OW31123   1.381   2.471   3.907
10075SOL    HW131124   1.314   2.406   3.870
10075SOL    HW231125   1.425   2.519   3.832
10076SOL     OW31126   4.816   6.804   4.576
10076SOL    HW131127   4.721   6.775   4.567
10076SOL    HW231128   4.863   6.743   4.641
10077SOL     OW31129   3.846   1.941   6.150
10077SOL    HW131130   3.815   2.022   6.199
10077SOL    HW231131   3.829   1.953   6.052
10078SOL     OW31132   5.810   0.221   5.175
10078SOL    HW131133   5.885   0.249   5.236
10078SOL    HW231134   5.827   0.257   5.083
10079SOL     OW31135   1.295   3.031   1.548
10079SOL    HW131136   1.311   3.126   1.524
10079SOL    HW231137   1.355   2.972   1.494
10080SOL     OW31138   2.146   2.646   0.107
10080SOL    HW131139   2.136   2.551   0.135
10080SOL    HW231140   2.137   2.654   0.008
10081SOL     OW31141   0.697   0.512   6.397
10081SOL    HW131142   0.681   0.562   6.482
10081SOL    HW231143   0.795   0.497   6.386
10082SOL     OW31144   6.085   2.518   1.689
10082SOL    HW131145   6.026   2.549   1.764
10082SOL    HW231146   6.128   2.431   1.714
10083SOL     OW31147   4.183   0.397   3.502
10083SOL    HW131148   4.139   0.401   3.412
10083SOL    HW231149   4.137   0.329   3.559
10084SOL     OW31150   2.373   1.308   5.652
10084SOL    HW131151   2.328   1.380   5.599
10084SOL    HW231152   2.425   1.249   5.590
10085SOL     OW31153   0.598   5.772   2.947
10085SOL    HW131154   0.533   5.835   2.990
10085SOL    HW231155   0.590   5.681   2.989
10086SOL     OW31156   6.071   4.578   2.047
10086SOL    HW131157   5.988   4.579   1.992
10086SOL    HW231158   6.150   4.596   1.988
10087SOL     OW31159   1.041   0.111   3.914
10087SOL    HW131160   1.041   0.202   3.871
10087SOL    HW231161   1.100   0.050   3.861
10088SOL     OW31162   0.930   6.514   4.757
10088SOL    HW131163   0.895   6.571   4.683
10088SOL    HW231164   0.890   6.423   4.752
10089SOL     OW31165   2.119   2.205   1.979
10089SOL    HW131166   2.048   2.186   2.048
10089SOL    HW231167   2.194   2.255   2.023
10090SOL     OW31168   1.424   4.310   0.956
10090SOL    HW131169   1.439   4.396   0.908
10090SOL    HW231170   1.378   4.245   0.895
10091SOL     OW31171   0.971   3.636   4.170
10091SOL    HW131172   1.065   3.619   4.141
10091SOL    HW231173   0.937   3.720   4.127
10092SOL     OW31174   1.622   3.590   5.216
10092SOL    HW131175   1.601   3.526   5.142
10092SOL    HW231176   1.595   3.682   5.189
10093SOL     OW31177   6.572   5.460   5.452
10093SOL    HW131178   6.624   5.448   5.537
10093SOL    HW231179   6.626   5.429   5.374
10094SOL     OW31180   2.198   1.088   2.598
10094SOL    HW131181   2.147   1.042   2.526
10094SOL    HW231182   2.218   1.023   2.672
10095SOL     OW31183   6.946   1.172   6.043
10095SOL    HW131184   6.963   1.181   6.141
10095SOL    HW231185   6.847   1.166   6.027
10096SOL     OW31186   0.432   5.570   2.487
10096SOL    HW131187   0.463   5.492   2.433
10096SOL    HW231188   0.458   5.655   2.440
10097SOL     OW31189   1.663   0.975   1.116
10097SOL    HW131190   1.669   1.075   1.116
10097SOL    HW231191   1.729   0.937   1.181
10098SOL     OW31192   2.129   5.781   6.504
10098SOL    HW131193   2.038   5.790   6.545
10098SOL    HW231194   2.121   5.760   6.407
10099SOL     OW31195   6.778   3.967   5.266
10099SOL    HW131196   6.863   3.914   5.268
10099SOL    HW231197   6.728   3.946   5.182
10100SOL     OW31198   4.669   0.733   4.708
10100SOL    HW131199   4.704   0.824   4.732
10100SOL    HW231200   4.684   0.671   4.785
10101SOL     OW31201   6.875   4.449   2.493
10101SOL    HW131202   6.838   4.358   2.476
10101SOL    HW231203   6.897   4.459   2.590
10102SOL     OW31204   3.360   1.685   2.106
10102SOL    HW131205   3.270   1.722   2.129
10102SOL    HW231206   3.396   1.634   2.185
10103SOL     OW31207   2.550   1.310   5.240
10103SOL    HW131208   2.495   1.393   5.236
10103SOL    HW231209   2.645   1.331   5.215
10104SOL     OW31210   1.199   5.299   5.116
10104SOL    HW131211   1.246   5.315   5.204
10104SOL    HW231212   1.117   5.356   5.112
10105SOL     OW31213   1.642   0.849   6.366
10105SOL    HW131214   1.683   0.863   6.457
10105SOL    HW231215   1.688   0.909   6.300
10106SOL     OW31216   5.430   5.936   0.954
10106SOL    HW131217   5.415   5.942   1.053
10106SOL    HW231218   5.516   5.887   0.937
10107SOL     OW31219   5.892   1.404   6.133
10107SOL    HW131220   5.898   1.355   6.046
10107SOL    HW231221   5.826   1.358   6.193
10108SOL     OW31222   6.408   6.998   0.468
10108SOL    HW131223   6.364   6.916   0.505
10108SOL    HW231224   6.490   6.972   0.416
10109SOL     OW31225   4.862   5.501   3.664
10109SOL    HW131226   4.891   5.452   3.746
10109SOL    HW231227   4.763   5.517   3.668
10110SOL     OW31228   3.433   0.062   5.975
10110SOL    HW131229   3.506   0.124   5.944
10110SOL    HW231230   3.445   0.043   6.072
10111SOL     OW31231   6.598   3.330   3.334
10111SOL    HW131232   6.590   3.253   3.398
10111SOL    HW231233   6.673   3.313   3.270
10112SOL     OW31234   5.248   4.029   5.338
10112SOL    HW131235   5.311   4.089   5.387
10112SOL    HW231236   5.292   3.995   5.255
10113SOL     OW31237   4.237   0.514   0.099
10113SOL    HW131238   4.145   0.535   0.065
10113SOL    HW231239   4.262   0.581   0.170
10114SOL     OW31240   5.154   1.458   0.062
10114SOL    HW131241   5.185   1.363   0.067
10114SOL    HW231242   5.166   1.493   6.985
10115SOL     OW31243   1.865   2.193   3.901
10115SOL    HW131244   1.921   2.110   3.895
10115SOL    HW231245   1.812   2.192   3.986
10116SOL     OW31246   0.254   0.401   1.168
10116SOL    HW131247   0.233   0.407   1.266
10116SOL    HW231248   0.248   0.492   1.127
10117SOL     OW31249   6.170   0.393   5.590
10117SOL    HW131250   6.147   0.306   5.634
10117SOL    HW231251   6.088   0.431   5.546
10118SOL     OW31252   6.740   4.820   2.643
10118SOL    HW131253   6.806   4.824   2.718
10118SOL    HW231254   6.648   4.839   2.679
10119SOL     OW31255   2.704   0.583   5.195
10119SOL    HW131256   2.732   0.508   5.134
10119SOL    HW231257   2.731   0.561   5.289
10120SOL     OW31258   0.982   3.210   3.755
10120SOL    HW131259   1.047   3.228   3.681
10120SOL    HW231260   0.972   3.111   3.768
10121SOL     OW31261   5.763   4.715   5.279
10121SOL    HW131262   5.683   4.774   5.295
10121SOL    HW231263   5.833   4.767   5.230
10122SOL     OW31264   4.991   2.922   0.104
10122SOL    HW131265   5.049   2.982   0.159
10122SOL    HW231266   5.025   2.828   0.109
10123SOL     OW31267   0.248   6.030   0.752
10123SOL    HW131268   0.297   6.092   0.814
10123SOL    HW231269   0.150   6.042   0.764
10124SOL     OW31270   3.242   3.932   0.281
10124SOL    HW131271   3.246   4.030   0.263
10124SOL    HW231272   3.275   3.882   0.201
10125SOL     OW31273   1.436   0.956   2.846
10125SOL    HW131274   1.439   0.859   2.869
10125SOL    HW231275   1.523   0.984   2.806
10126SOL     OW31276   6.578   5.131   0.196
10126SOL    HW131277   6.564   5.137   0.097
10126SOL    HW231278   6.592   5.223   0.233
10127SOL     OW31279   3.351   5.399   5.638
10127SOL    HW131280   3.371   5.497   5.634
10127SOL    HW231281   3.407   5.351   5.570
10128SOL     OW31282   0.110   1.715   0.453
10128SOL    HW131283   0.039   1.730   0.521
10128SOL    HW231284   0.200   1.721   0.497
10129SOL     OW31285   4.948   2.490   3.471
10129SOL    HW131286   4.950   2.394   3.497
10129SOL    HW231287   5.005   2.504   3.390
10130SOL     OW31288   0.237   5.737   2.830
10130SOL    HW131289   0.307   5.799   2.793
10130SOL    HW231290   0.224   5.661   2.766
10131SOL     OW31291   0.743   1.865   2.398
10131SOL    HW131292   0.798   1.805   2.340
10131SOL    HW231293   0.733   1.822   2.488
10132SOL     OW31294   3.196   6.345   2.930
10132SOL    HW131295   3.129   6.411   2.895
10132SOL    HW231296   3.288   6.384   2.923
10133SOL     OW31297   4.334   5.863   3.546
10133SOL    HW131298   4.320   5.930   3.619
10133SOL    HW231299   4.304   5.773   3.578
10134SOL     OW31300   6.833   1.049   3.632
10134SOL    HW131301   6.786   0.970   3.593
10134SOL    HW231302   6.814   1.130   3.576
10135SOL     OW31303   4.164   4.981   2.773
10135SOL    HW131304   4.093   4.911   2.769
10135SOL    HW231305   4.154   5.043   2.696
10136SOL     OW31306   5.923   0.103   3.772
10136SOL    HW131307   5.894   0.030   3.709
10136SOL    HW231308   5.987   0.065   3.839
10137SOL     OW31309   6.566   5.725   4.550
10137SOL    HW131310   6.602   5.697   4.639
10137SOL    HW231311   6.598   5.662   4.480
10138SOL     OW31312   5.786   2.346   0.343
10138SOL    HW131313   5.779   2.336   0.244
10138SOL    HW231314   5.776   2.443   0.367
10139SOL     OW31315   3.030   3.060   3.142
10139SOL    HW131316   3.085   3.030   3.064
10139SOL    HW231317   2.950   3.110   3.108
10140SOL     OW31318   6.195   5.288   0.290
10140SOL    HW131319   6.204   5.199   0.245
10140SOL    HW231320   6.285   5.318   0.322
10141SOL     OW31321   2.447   1.507   5.020
10141SOL    HW131322   2.497   1.567   4.958
10141SOL    HW231323   2.407   1.561   5.094
10142SOL     OW31324   4.338   6.400   5.076
10142SOL    HW131325   4.320   6.481   5.020
10142SOL    HW231326   4.436   6.397   5.099
10143SOL     OW31327   5.021   0.163   1.440
10143SOL    HW131328   4.972   0.076   1.448
10143SOL    HW231329   5.117   0.149   1.465
10144SOL     OW31330   3.062   5.596   5.531
10144SOL    HW131331   3.060   5.672   5.466
10144SOL    HW231332   3.157   5.573   5.552
10145SOL     OW31333   2.782   5.857   5.947
10145SOL    HW131334   2.827   5.871   5.858
10145SOL    HW231335   2.706   5.793   5.936
10146SOL     OW31336   3.660   5.573   4.381
10146SOL    HW131337   3.732   5.591   4.314
10146SOL    HW231338   3.686   5.495   4.438
10147SOL     OW31339   4.716   4.417   4.095
10147SOL    HW131340   4.795   4.458   4.139
10147SOL    HW231341   4.726   4.317   4.093
10148SOL     OW31342   6.049   5.861   0.700
10148SOL    HW131343   5.994   5.822   0.773
10148SOL    HW231344   6.015   5.952   0.677
10149SOL     OW31345   4.699   1.511   0.933
10149SOL    HW131346   4.716   1.472   0.842
10149SOL    HW231347   4.672   1.607   0.923
10150SOL     OW31348   4.630   4.569   0.848
10150SOL    HW131349   4.687   4.517   0.913
10150SOL    HW231350   4.561   4.509   0.809
10151SOL     OW31351   1.224   0.011   6.477
10151SOL    HW131352   1.150   6.973   6.435
10151SOL    HW231353   1.184   0.085   6.531
10152SOL     OW31354   1.502   5.065   3.637
10152SOL    HW131355   1.484   4.968   3.650
10152SOL    HW231356   1.601   5.082   3.643
10153SOL     OW31357   4.619   5.823   3.609
10153SOL    HW131358   4.613   5.793   3.704
10153SOL    HW231359   4.528   5.824   3.568
10154SOL     OW31360   6.645   6.348   5.787
10154SOL    HW131361   6.568   6.407   5.763
10154SOL    HW231362   6.611   6.257   5.810
10155SOL     OW31363   3.729   0.642   5.916
10155SOL    HW131364   3.713   0.652   6.014
10155SOL    HW231365   3.663   0.577   5.878
10156SOL     OW31366   5.297   0.148   2.882
10156SOL    HW131367   5.289   0.189   2.972
10156SOL    HW231368   5.249   0.060   2.881
10157SOL     OW31369   5.853   1.657   6.227
10157SOL    HW131370   5.930   1.708   6.265
10157SOL    HW231371   5.884   1.566   6.200
10158SOL     OW31372   4.692   3.432   0.002
10158SOL    HW131373   4.702   3.530   0.013
10158SOL    HW231374   4.760   3.385   0.058
10159SOL     OW31375   2.687   2.987   6.153
10159SOL    HW131376   2.743   2.917   6.198
10159SOL    HW231377   2.740   3.071   6.147
10160SOL     OW31378   0.832   4.540   3.114
10160SOL    HW131379   0.757   4.606   3.112
10160SOL    HW231380   0.796   4.449   3.096
10161SOL     OW31381   3.126   4.686   0.024
10161SOL    HW131382   3.169   4.765   0.069
10161SOL    HW231383   3.048   4.717   6.986
10162SOL     OW31384   2.470   3.193   6.929
10162SOL    HW131385   2.546   3.195   6.863
10162SOL    HW231386   2.506   3.204   0.005
10163SOL     OW31387   6.090   3.814   6.281
10163SOL    HW131388   6.143   3.781   6.203
10163SOL    HW231389   6.038   3.739   6.321
10164SOL     OW31390   6.629   3.080   4.611
10164SOL    HW131391   6.683   2.998   4.626
10164SOL    HW231392   6.685   3.151   4.569
10165SOL     OW31393   0.795   2.343   4.460
10165SOL    HW131394   0.742   2.266   4.496
10165SOL    HW231395   0.775   2.425   4.514
10166SOL     OW31396   3.057   1.183   1.651
10166SOL    HW131397   3.085   1.278   1.662
10166SOL    HW231398   3.061   1.136   1.739
10167SOL     OW31399   5.408   1.329   6.511
10167SOL    HW131400   5.439   1.239   6.543
10167SOL    HW231401   5.317   1.320   6.470
10168SOL     OW31402   0.068   4.527   4.501
10168SOL    HW131403   0.134   4.502   4.572
10168SOL    HW231404   0.072   4.626   4.486
10169SOL     OW31405   6.218   5.067   3.409
10169SOL    HW131406   6.243   5.054   3.505
10169SOL    HW231407   6.294   5.038   3.351
10170SOL     OW31408   0.651   4.465   5.238
10170SOL    HW131409   0.676   4.377   5.279
10170SOL    HW231410   0.609   4.523   5.308
10171SOL     OW31411   6.717   3.892   6.053
10171SOL    HW131412   6.789   3.870   6.118
10171SOL    HW231413   6.648   3.950   6.098
10172SOL     OW31414   5.475   0.527   2.898
10172SOL    HW131415   5.438   0.567   2.982
10172SOL    HW231416   5.435   0.573   2.819
10173SOL     OW31417   2.281   1.421   0.713
10173SOL    HW131418   2.183   1.418   0.731
10173SOL    HW231419   2.301   1.495   0.648
10174SOL     OW31420   5.755   4.830   2.862
10174SOL    HW131421   5.746   4.817   2.960
10174SOL    HW231422   5.741   4.742   2.815
10175SOL     OW31423   6.340   2.776   4.133
10175SOL    HW131424   6.377   2.815   4.217
10175SOL    HW231425   6.268   2.836   4.098
10176SOL     OW31426   1.508   3.389   6.085
10176SOL    HW131427   1.603   3.376   6.056
10176SOL    HW231428   1.449   3.329   6.032
10177SOL     OW31429   3.073   0.411   0.215
10177SOL    HW131430   3.009   0.354   0.163
10177SOL    HW231431   3.029   0.497   0.238
10178SOL     OW31432   6.031   3.049   4.443
10178SOL    HW131433   5.946   3.034   4.393
10178SOL    HW231434   6.061   2.964   4.485
10179SOL     OW31435   0.722   2.127   6.491
10179SOL    HW131436   0.739   2.147   6.394
10179SOL    HW231437   0.626   2.145   6.512
10180SOL     OW31438   2.969   5.592   5.926
10180SOL    HW131439   3.023   5.510   5.941
10180SOL    HW231440   2.932   5.625   6.013
10181SOL     OW31441   5.507   3.501   1.781
10181SOL    HW131442   5.522   3.571   1.711
10181SOL    HW231443   5.457   3.424   1.741
10182SOL     OW31444   5.860   1.361   1.205
10182SOL    HW131445   5.911   1.277   1.188
10182SOL    HW231446   5.915   1.422   1.263
10183SOL     OW31447   1.295   2.017   6.603
10183SOL    HW131448   1.378   2.058   6.641
10183SOL    HW231449   1.240   1.979   6.677
10184SOL     OW31450   4.531   2.012   6.113
10184SOL    HW131451   4.563   1.940   6.052
10184SOL    HW231452   4.591   2.018   6.193
10185SOL     OW31453   4.900   6.798   0.970
10185SOL    HW131454   4.966   6.802   0.894
10185SOL    HW231455   4.941   6.838   1.052
10186SOL     OW31456   5.708   3.180   3.215
10186SOL    HW131457   5.694   3.184   3.116
10186SOL    HW231458   5.723   3.085   3.242
10187SOL     OW31459   0.345   2.207   1.951
10187SOL    HW131460   0.277   2.167   1.890
10187SOL    HW231461   0.358   2.303   1.928
10188SOL     OW31462   3.840   6.292   0.294
10188SOL    HW131463   3.940   6.289   0.293
10188SOL    HW231464   3.805   6.204   0.327
10189SOL     OW31465   2.354   6.705   5.358
10189SOL    HW131466   2.406   6.770   5.413
10189SOL    HW231467   2.311   6.753   5.282
10190SOL     OW31468   5.144   2.073   0.929
10190SOL    HW131469   5.081   2.141   0.893
10190SOL    HW231470   5.160   2.089   1.026
10191SOL     OW31471   5.162   4.360   6.878
10191SOL    HW131472   5.135   4.274   6.920
10191SOL    HW231473   5.191   4.424   6.949
10192SOL     OW31474   4.101   0.678   4.863
10192SOL    HW131475   4.176   0.645   4.807
10192SOL    HW231476   4.065   0.763   4.825
10193SOL     OW31477   4.396   4.135   1.399
10193SOL    HW131478   4.381   4.105   1.494
10193SOL    HW231479   4.312   4.124   1.347
10194SOL     OW31480   5.867   4.215   4.771
10194SOL    HW131481   5.903   4.216   4.677
10194SOL    HW231482   5.815   4.298   4.788
10195SOL     OW31483   5.901   4.455   1.490
10195SOL    HW131484   5.856   4.543   1.475
10195SOL    HW231485   5.929   4.417   1.402
10196SOL     OW31486   6.422   1.512   5.160
10196SOL    HW131487   6.459   1.420   5.146
10196SOL    HW231488   6.329   1.516   5.124
10197SOL     OW31489   6.743   0.966   5.010
10197SOL    HW131490   6.774   0.903   4.938
10197SOL    HW231491   6.645   0.954   5.026
10198SOL     OW31492   3.919   0.816   2.234
10198SOL    HW131493   3.873   0.793   2.149
10198SOL    HW231494   3.953   0.910   2.230
10199SOL     OW31495   0.892   2.887   5.475
10199SOL    HW131496   0.830   2.882   5.553
10199SOL    HW231497   0.963   2.955   5.493
10200SOL     OW31498   5.259   2.650   0.982
10200SOL    HW131499   5.276   2.672   1.078
10200SOL    HW231500   5.232   2.554   0.974
10201SOL     OW31501   1.570   4.397   1.162
10201SOL    HW131502   1.504   4.439   1.223
10201SOL    HW231503   1.523   4.333   1.101
10202SOL     OW31504   3.951   1.527   5.518
10202SOL    HW131505   3.998   1.562   5.600
10202SOL    HW231506   3.928   1.604   5.458
10203SOL     OW31507   5.587   2.283   4.880
10203SOL    HW131508   5.571   2.324   4.970
10203SOL    HW231509   5.525   2.324   4.814
10204SOL     OW31510   4.944   6.549   6.575
10204SOL    HW131511   5.030   6.600   6.566
10204SOL    HW231512   4.886   6.567   6.496
10205SOL     OW31513   0.816   0.992   6.976
10205SOL    HW131514   0.796   1.072   6.920
10205SOL    HW231515   0.882   0.934   6.929
10206SOL     OW31516   0.969   0.804   5.828
10206SOL    HW131517   0.925   0.818   5.739
10206SOL    HW231518   0.926   0.726   5.874
10207SOL     OW31519   1.639   2.155   5.782
10207SOL    HW131520   1.632   2.171   5.683
10207SOL    HW231521   1.730   2.122   5.804
10208SOL     OW31522   5.261   5.325   5.042
10208SOL    HW131523   5.282   5.248   4.982
10208SOL    HW231524   5.162   5.336   5.049
10209SOL     OW31525   0.017   0.162   5.734
10209SOL    HW131526   0.014   0.108   5.819
10209SOL    HW231527   6.941   0.172   5.699
10210SOL     OW31528   4.268   6.017   1.832
10210SOL    HW131529   4.243   5.955   1.907
10210SOL    HW231530   4.236   6.109   1.854
10211SOL     OW31531   4.070   6.715   5.344
10211SOL    HW131532   4.168   6.733   5.349
10211SOL    HW231533   4.020   6.801   5.360
10212SOL     OW31534   0.861   0.082   5.770
10212SOL    HW131535   0.828   7.006   5.751
10212SOL    HW231536   0.875   0.093   5.868
10213SOL     OW31537   5.528   2.088   0.268
10213SOL    HW131538   5.490   2.081   0.360
10213SOL    HW231539   5.467   2.144   0.211
10214SOL     OW31540   1.271   2.906   1.835
10214SOL    HW131541   1.240   2.827   1.782
10214SOL    HW231542   1.291   2.982   1.774
10215SOL     OW31543   3.826   3.575   2.658
10215SOL    HW131544   3.737   3.535   2.677
10215SOL    HW231545   3.898   3.507   2.677
10216SOL     OW31546   5.707   0.451   2.246
10216SOL    HW131547   5.633   0.387   2.225
10216SOL    HW231548   5.758   0.418   2.326
10217SOL     OW31549   2.804   1.257   3.222
10217SOL    HW131550   2.881   1.197   3.200
10217SOL    HW231551   2.805   1.277   3.320
10218SOL     OW31552   0.950   2.845   2.673
10218SOL    HW131553   0.883   2.871   2.742
10218SOL    HW231554   0.977   2.749   2.687
10219SOL     OW31555   0.728   1.417   2.415
10219SOL    HW131556   0.658   1.487   2.400
10219SOL    HW231557   0.817   1.453   2.385
10220SOL     OW31558   3.848   2.508   1.687
10220SOL    HW131559   3.904   2.426   1.675
10220SOL    HW231560   3.775   2.490   1.752
10221SOL     OW31561   0.984   6.510   2.632
10221SOL    HW131562   0.954   6.439   2.568
10221SOL    HW231563   0.906   6.567   2.658
10222SOL     OW31564   3.009   3.740   4.576
10222SOL    HW131565   3.009   3.840   4.566
10222SOL    HW231566   2.951   3.699   4.506
10223SOL     OW31567   0.909   5.390   0.953
10223SOL    HW131568   0.893   5.307   0.900
10223SOL    HW231569   0.831   5.453   0.941
10224SOL     OW31570   5.805   4.272   3.238
10224SOL    HW131571   5.796   4.281   3.337
10224SOL    HW231572   5.864   4.345   3.203
10225SOL     OW31573   1.837   3.386   5.984
10225SOL    HW131574   1.924   3.403   6.029
10225SOL    HW231575   1.812   3.289   5.994
10226SOL     OW31576   4.440   2.668   0.375
10226SOL    HW131577   4.466   2.629   0.464
10226SOL    HW231578   4.521   2.687   0.321
10227SOL     OW31579   5.877   4.046   0.710
10227SOL    HW131580   5.952   4.112   0.716
10227SOL    HW231581   5.871   3.995   0.796
10228SOL     OW31582   5.134   1.262   0.754
10228SOL    HW131583   5.059   1.197   0.755
10228SOL    HW231584   5.218   1.217   0.782
10229SOL     OW31585   0.672   3.657   4.935
10229SOL    HW131586   0.633   3.663   4.843
10229SOL    HW231587   0.697   3.563   4.956
10230SOL     OW31588   6.873   5.812   2.453
10230SOL    HW131589   6.871   5.806   2.553
10230SOL    HW231590   6.861   5.721   2.414
10231SOL     OW31591   1.479   6.216   3.105
10231SOL    HW131592   1.549   6.287   3.116
10231SOL    HW231593   1.460   6.204   3.007
10232SOL     OW31594   4.733   6.523   2.888
10232SOL    HW131595   4.808   6.483   2.835
10232SOL    HW231596   4.747   6.621   2.897
10233SOL     OW31597   4.261   4.049   6.374
10233SOL    HW131598   4.190   4.065   6.305
10233SOL    HW231599   4.336   3.997   6.333
10234SOL     OW31600   6.888   0.962   1.267
10234SOL    HW131601   6.806   0.975   1.211
10234SOL    HW231602   6.875   0.884   1.327
10235SOL     OW31603   0.938   1.281   3.189
10235SOL    HW131604   0.974   1.365   3.147
10235SOL    HW231605   0.922   1.213   3.118
10236SOL     OW31606   2.327   7.001   1.197
10236SOL    HW131607   2.346   6.980   1.101
10236SOL    HW231608   2.413   7.010   1.247
10237SOL     OW31609   0.441   3.670   6.539
10237SOL    HW131610   0.479   3.761   6.522
10237SOL    HW231611   0.454   3.647   6.636
10238SOL     OW31612   4.028   5.751   0.893
10238SOL    HW131613   4.034   5.655   0.866
10238SOL    HW231614   4.065   5.809   0.819
10239SOL     OW31615   1.689   2.330   4.515
10239SOL    HW131616   1.638   2.380   4.585
10239SOL    HW231617   1.762   2.388   4.479
10240SOL     OW31618   2.903   6.767   0.959
10240SOL    HW131619   2.833   6.781   1.030
10240SOL    HW231620   2.992   6.754   1.003
10241SOL     OW31621   4.372   2.384   1.554
10241SOL    HW131622   4.405   2.450   1.486
10241SOL    HW231623   4.415   2.402   1.642
10242SOL     OW31624   6.916   2.470   0.441
10242SOL    HW131625   6.930   2.554   0.388
10242SOL    HW231626   6.935   2.487   0.537
10243SOL     OW31627   2.819   4.871   1.007
10243SOL    HW131628   2.832   4.819   1.091
10243SOL    HW231629   2.780   4.812   0.937
10244SOL     OW31630   2.519   4.037   1.730
10244SOL    HW131631   2.593   3.980   1.694
10244SOL    HW231632   2.487   4.000   1.818
10245SOL     OW31633   3.906   4.394   0.585
10245SOL    HW131634   3.838   4.367   0.517
10245SOL    HW231635   3.994   4.406   0.541
10246SOL     OW31636   3.508   3.144   4.430
10246SOL    HW131637   3.533   3.118   4.524
10246SOL    HW231638   3.558   3.226   4.403
10247SOL     OW31639   1.154   3.949   4.783
10247SOL    HW131640   1.181   3.916   4.873
10247SOL    HW231641   1.226   3.930   4.717
10248SOL     OW31642   1.269   0.382   3.330
10248SOL    HW131643   1.214   0.412   3.408
10248SOL    HW231644   1.287   0.284   3.336
10249SOL     OW31645   2.255   4.429   6.539
10249SOL    HW131646   2.179   4.394   6.594
10249SOL    HW231647   2.293   4.354   6.484
10250SOL     OW31648   5.182   2.484   6.949
10250SOL    HW131649   5.143   2.504   6.859
10250SOL    HW231650   5.232   2.397   6.946
10251SOL     OW31651   1.692   0.281   4.222
10251SOL    HW131652   1.786   0.313   4.215
10251SOL    HW231653   1.685   0.189   4.181
10252SOL     OW31654   5.317   4.031   5.768
10252SOL    HW131655   5.393   3.967   5.761
10252SOL    HW231656   5.331   4.108   5.706
10253SOL     OW31657   4.233   6.688   6.943
10253SOL    HW131658   4.288   6.708   6.862
10253SOL    HW231659   4.216   6.773   6.994
10254SOL     OW31660   5.954   1.752   4.638
10254SOL    HW131661   6.007   1.676   4.677
10254SOL    HW231662   5.991   1.775   4.548
10255SOL     OW31663   3.544   5.506   1.492
10255SOL    HW131664   3.640   5.513   1.520
10255SOL    HW231665   3.493   5.454   1.561
10256SOL     OW31666   5.034   0.913   2.671
10256SOL    HW131667   5.073   0.838   2.617
10256SOL    HW231668   5.053   0.898   2.768
10257SOL     OW31669   3.146   5.093   2.555
10257SOL    HW131670   3.166   5.145   2.472
10257SOL    HW231671   3.048   5.070   2.557
10258SOL     OW31672   1.833   1.693   2.153
10258SOL    HW131673   1.740   1.661   2.171
10258SOL    HW231674   1.857   1.677   2.058
10259SOL     OW31675   0.974   3.833   3.968
10259SOL    HW131676   1.070   3.811   3.988
10259SOL    HW231677   0.932   3.758   3.918
10260SOL     OW31678   1.772   1.290   3.852
10260SOL    HW131679   1.727   1.371   3.813
10260SOL    HW231680   1.717   1.257   3.929
10261SOL     OW31681   6.382   3.797   0.621
10261SOL    HW131682   6.285   3.819   0.633
10261SOL    HW231683   6.394   3.698   0.624
10262SOL     OW31684   3.477   1.027   6.807
10262SOL    HW131685   3.542   1.037   6.882
10262SOL    HW231686   3.525   0.996   6.725
10263SOL     OW31687   5.712   0.875   1.998
10263SOL    HW131688   5.646   0.918   2.060
10263SOL    HW231689   5.715   0.776   2.014
10264SOL     OW31690   6.044   5.401   6.706
10264SOL    HW131691   5.981   5.343   6.654
10264SOL    HW231692   6.132   5.405   6.659
10265SOL     OW31693   2.088   1.700   0.180
10265SOL    HW131694   2.090   1.674   0.084
10265SOL    HW231695   2.122   1.794   0.190
10266SOL     OW31696   3.006   4.031   1.885
10266SOL    HW131697   2.999   3.992   1.793
10266SOL    HW231698   3.099   4.018   1.919
10267SOL     OW31699   5.634   0.991   0.893
10267SOL    HW131700   5.608   1.005   0.988
10267SOL    HW231701   5.601   1.068   0.838
10268SOL     OW31702   5.002   6.903   1.211
10268SOL    HW131703   5.012   6.858   1.300
10268SOL    HW231704   5.042   6.994   1.215
10269SOL     OW31705   1.898   2.095   6.284
10269SOL    HW131706   1.988   2.058   6.261
10269SOL    HW231707   1.903   2.147   6.369
10270SOL     OW31708   3.274   6.079   1.773
10270SOL    HW131709   3.353   6.043   1.822
10270SOL    HW231710   3.207   6.006   1.759
10271SOL     OW31711   1.706   2.051   0.189
10271SOL    HW131712   1.672   2.120   0.124
10271SOL    HW231713   1.665   2.068   0.279
10272SOL     OW31714   6.778   0.709   4.427
10272SOL    HW131715   6.770   0.655   4.510
10272SOL    HW231716   6.699   0.769   4.417
10273SOL     OW31717   2.539   5.196   3.822
10273SOL    HW131718   2.578   5.245   3.900
10273SOL    HW231719   2.507   5.106   3.852
10274SOL     OW31720   0.476   5.411   4.954
10274SOL    HW131721   0.442   5.452   4.869
10274SOL    HW231722   0.400   5.396   5.017
10275SOL     OW31723   0.349   0.286   2.866
10275SOL    HW131724   0.319   0.221   2.796
10275SOL    HW231725   0.270   0.322   2.915
10276SOL     OW31726   4.070   5.838   6.131
10276SOL    HW131727   4.161   5.879   6.144
10276SOL    HW231728   4.051   5.831   6.033
10277SOL     OW31729   1.182   6.282   4.401
10277SOL    HW131730   1.239   6.236   4.469
10277SOL    HW231731   1.109   6.219   4.372
10278SOL     OW31732   0.352   0.495   5.378
10278SOL    HW131733   0.438   0.493   5.428
10278SOL    HW231734   0.294   0.419   5.406
10279SOL     OW31735   1.970   5.225   4.157
10279SOL    HW131736   1.920   5.259   4.237
10279SOL    HW231737   1.923   5.253   4.074
10280SOL     OW31738   5.447   4.373   0.544
10280SOL    HW131739   5.398   4.286   0.550
10280SOL    HW231740   5.533   4.367   0.596
10281SOL     OW31741   6.635   2.044   3.630
10281SOL    HW131742   6.555   1.988   3.609
10281SOL    HW231743   6.661   2.097   3.549
10282SOL     OW31744   4.873   3.970   2.969
10282SOL    HW131745   4.796   4.002   3.025
10282SOL    HW231746   4.952   4.030   2.983
10283SOL     OW31747   0.439   4.418   1.053
10283SOL    HW131748   0.498   4.338   1.057
10283SOL    HW231749   0.346   4.391   1.028
10284SOL     OW31750   0.286   2.704   3.535
10284SOL    HW131751   0.191   2.700   3.566
10284SOL    HW231752   0.312   2.799   3.520
10285SOL     OW31753   4.613   6.059   3.907
10285SOL    HW131754   4.567   5.981   3.948
10285SOL    HW231755   4.547   6.131   3.887
10286SOL     OW31756   3.113   1.386   4.569
10286SOL    HW131757   3.046   1.319   4.601
10286SOL    HW231758   3.087   1.418   4.478
10287SOL     OW31759   1.868   5.816   2.180
10287SOL    HW131760   1.917   5.903   2.171
10287SOL    HW231761   1.896   5.770   2.264
10288SOL     OW31762   3.798   0.183   5.016
10288SOL    HW131763   3.821   0.227   5.103
10288SOL    HW231764   3.865   0.210   4.946
10289SOL     OW31765   2.408   6.515   0.175
10289SOL    HW131766   2.452   6.513   0.265
10289SOL    HW231767   2.423   6.427   0.129
10290SOL     OW31768   2.941   3.144   2.348
10290SOL    HW131769   2.916   3.240   2.335
10290SOL    HW231770   2.860   3.091   2.375
10291SOL     OW31771   3.140   1.340   2.569
10291SOL    HW131772   3.234   1.309   2.553
10291SOL    HW231773   3.079   1.293   2.505
10292SOL     OW31774   6.707   0.125   6.225
10292SOL    HW131775   6.706   0.148   6.322
10292SOL    HW231776   6.690   0.207   6.170
10293SOL     OW31777   0.863   4.079   3.883
10293SOL    HW131778   0.868   4.012   3.957
10293SOL    HW231779   0.952   4.086   3.839
10294SOL     OW31780   3.432   1.656   2.681
10294SOL    HW131781   3.352   1.680   2.735
10294SOL    HW231782   3.428   1.704   2.593
10295SOL     OW31783   0.888   2.079   0.110
10295SOL    HW131784   0.961   2.148   0.102
10295SOL    HW231785   0.801   2.124   0.130
10296SOL     OW31786   5.891   1.189   5.872
10296SOL    HW131787   5.827   1.164   5.945
10296SOL    HW231788   5.844   1.243   5.803
10297SOL     OW31789   2.879   1.797   6.430
10297SOL    HW131790   2.946   1.864   6.399
10297SOL    HW231791   2.915   1.705   6.418
10298SOL     OW31792   0.532   3.262   2.427
10298SOL    HW131793   0.553   3.255   2.330
10298SOL    HW231794   0.518   3.171   2.465
10299SOL     OW31795   4.469   6.426   2.115
10299SOL    HW131796   4.465   6.361   2.039
10299SOL    HW231797   4.502   6.514   2.082
10300SOL     OW31798   0.786   3.575   1.909
10300SOL    HW131799   0.762   3.672   1.918
10300SOL    HW231800   0.874   3.566   1.863
10301SOL     OW31801   4.646   1.068   6.383
10301SOL    HW131802   4.713   0.995   6.369
10301SOL    HW231803   4.692   1.156   6.383
10302SOL     OW31804   2.545   5.938   4.407
10302SOL    HW131805   2.531   5.879   4.327
10302SOL    HW231806   2.515   5.890   4.490
10303SOL     OW31807   1.086   6.047   4.731
10303SOL    HW131808   1.054   6.082   4.819
10303SOL    HW231809   1.053   5.953   4.718
10304SOL     OW31810   6.251   0.236   0.253
10304SOL    HW131811   6.255   0.159   0.190
10304SOL    HW231812   6.342   0.254   0.290
10305SOL     OW31813   2.510   3.789   6.102
10305SOL    HW131814   2.588   3.762   6.046
10305SOL    HW231815   2.543   3.840   6.182
10306SOL     OW31816   5.917   0.605   0.990
10306SOL    HW131817   6.001   0.550   0.998
10306SOL    HW231818   5.838   0.549   1.014
10307SOL     OW31819   3.061   0.560   4.677
10307SOL    HW131820   3.011   0.647   4.684
10307SOL    HW231821   3.089   0.545   4.582
10308SOL     OW31822   2.563   4.564   2.508
10308SOL    HW131823   2.517   4.601   2.428
10308SOL    HW231824   2.564   4.632   2.581
10309SOL     OW31825   6.153   0.970   5.764
10309SOL    HW131826   6.150   1.045   5.830
10309SOL    HW231827   6.198   0.891   5.806
10310SOL     OW31828   2.527   2.839   6.459
10310SOL    HW131829   2.457   2.791   6.511
10310SOL    HW231830   2.553   2.923   6.506
10311SOL     OW31831   5.448   6.193   6.769
10311SOL    HW131832   5.473   6.098   6.790
10311SOL    HW231833   5.463   6.211   6.671
10312SOL     OW31834   4.562   0.308   2.332
10312SOL    HW131835   4.645   0.257   2.312
10312SOL    HW231836   4.501   0.252   2.389
10313SOL     OW31837   4.361   6.315   2.844
10313SOL    HW131838   4.399   6.251   2.777
10313SOL    HW231839   4.435   6.355   2.897
10314SOL     OW31840   0.804   6.913   6.820
10314SOL    HW131841   0.865   6.992   6.832
10314SOL    HW231842   0.768   6.884   6.908
10315SOL     OW31843   5.140   6.347   3.351
10315SOL    HW131844   5.065   6.282   3.364
10315SOL    HW231845   5.118   6.434   3.396
10316SOL     OW31846   6.718   2.313   6.225
10316SOL    HW131847   6.782   2.377   6.181
10316SOL    HW231848   6.627   2.327   6.188
10317SOL     OW31849   3.295   5.930   6.205
10317SOL    HW131850   3.201   5.916   6.235
10317SOL    HW231851   3.309   5.888   6.116
10318SOL     OW31852   5.323   0.202   0.159
10318SOL    HW131853   5.400   0.224   0.220
10318SOL    HW231854   5.247   0.265   0.177
10319SOL     OW31855   0.597   4.866   4.446
10319SOL    HW131856   0.631   4.841   4.537
10319SOL    HW231857   0.629   4.958   4.423
10320SOL     OW31858   6.974   0.371   3.571
10320SOL    HW131859   6.957   0.376   3.473
10320SOL    HW231860   6.921   0.296   3.611
10321SOL     OW31861   5.834   2.132   1.986
10321SOL    HW131862   5.903   2.203   1.971
10321SOL    HW231863   5.868   2.066   2.053
10322SOL     OW31864   4.490   4.597   4.596
10322SOL    HW131865   4.402   4.597   4.644
10322SOL    HW231866   4.548   4.523   4.631
10323SOL     OW31867   0.034   4.528   5.588
10323SOL    HW131868   0.037   4.596   5.515
10323SOL    HW231869   6.955   4.500   5.603
10324SOL     OW31870   3.137   3.509   2.335
10324SOL    HW131871   3.213   3.444   2.339
10324SOL    HW231872   3.127   3.543   2.241
10325SOL     OW31873   0.178   5.671   1.991
10325SOL    HW131874   0.133   5.602   1.935
10325SOL    HW231875   0.225   5.628   2.068
10326SOL     OW31876   5.428   3.979   6.931
10326SOL    HW131877   5.381   3.970   0.002
10326SOL    HW231878   5.361   3.983   6.857
10327SOL     OW31879   2.942   4.000   1.303
10327SOL    HW131880   2.857   3.967   1.262
10327SOL    HW231881   2.922   4.045   1.390
10328SOL     OW31882   6.552   3.223   1.571
10328SOL    HW131883   6.530   3.130   1.603
10328SOL    HW231884   6.647   3.245   1.596
10329SOL     OW31885   3.088   1.579   2.922
10329SOL    HW131886   3.160   1.522   2.884
10329SOL    HW231887   3.068   1.550   3.016
10330SOL     OW31888   4.886   0.101   1.027
10330SOL    HW131889   4.834   0.063   0.950
10330SOL    HW231890   4.860   0.196   1.041
10331SOL     OW31891   6.176   5.859   0.244
10331SOL    HW131892   6.134   5.821   0.327
10331SOL    HW231893   6.127   5.824   0.164
10332SOL     OW31894   1.317   0.881   0.542
10332SOL    HW131895   1.236   0.924   0.501
10332SOL    HW231896   1.288   0.820   0.616
10333SOL     OW31897   0.862   5.592   4.217
10333SOL    HW131898   0.909   5.677   4.192
10333SOL    HW231899   0.779   5.582   4.163
10334SOL     OW31900   2.963   6.918   3.833
10334SOL    HW131901   2.883   6.932   3.892
10334SOL    HW231902   3.045   6.916   3.889
10335SOL     OW31903   0.280   4.464   6.455
10335SOL    HW131904   0.310   4.559   6.457
10335SOL    HW231905   0.314   4.420   6.372
10336SOL     OW31906   5.825   0.019   2.939
10336SOL    HW131907   5.819   0.063   3.029
10336SOL    HW231908   5.742   0.038   2.887
10337SOL     OW31909   6.468   5.493   0.275
10337SOL    HW131910   6.567   5.500   0.267
10337SOL    HW231911   6.430   5.581   0.304
10338SOL     OW31912   1.835   6.302   1.682
10338SOL    HW131913   1.932   6.297   1.705
10338SOL    HW231914   1.825   6.329   1.586
10339SOL     OW31915   6.941   3.092   5.680
10339SOL    HW131916   6.939   3.104   5.581
10339SOL    HW231917   6.940   3.182   5.725
10340SOL     OW31918   1.187   3.491   6.426
10340SOL    HW131919   1.092   3.493   6.396
10340SOL    HW231920   1.248   3.514   6.350
10341SOL     OW31921   2.164   3.100   2.501
10341SOL    HW131922   2.154   3.199   2.489
10341SOL    HW231923   2.133   3.075   2.593
10342SOL     OW31924   1.749   0.355   3.888
10342SOL    HW131925   1.807   0.331   3.810
10342SOL    HW231926   1.708   0.445   3.873
10343SOL     OW31927   2.403   5.752   0.821
10343SOL    HW131928   2.429   5.741   0.917
10343SOL    HW231929   2.306   5.731   0.810
10344SOL     OW31930   3.557   3.801   6.883
10344SOL    HW131931   3.589   3.798   6.978
10344SOL    HW231932   3.613   3.740   6.827
10345SOL     OW31933   1.473   2.770   5.095
10345SOL    HW131934   1.561   2.793   5.136
10345SOL    HW231935   1.426   2.854   5.068
10346SOL     OW31936   0.254   5.915   1.505
10346SOL    HW131937   0.332   5.861   1.538
10346SOL    HW231938   0.182   5.916   1.574
10347SOL     OW31939   4.238   0.956   3.897
10347SOL    HW131940   4.251   0.914   3.987
10347SOL    HW231941   4.290   1.041   3.892
10348SOL     OW31942   5.796   3.211   0.217
10348SOL    HW131943   5.887   3.251   0.216
10348SOL    HW231944   5.776   3.172   0.127
10349SOL     OW31945   0.852   0.180   6.294
10349SOL    HW131946   0.853   0.280   6.287
10349SOL    HW231947   0.769   0.144   6.252
10350SOL     OW31948   2.889   6.351   5.559
10350SOL    HW131949   2.950   6.368   5.481
10350SOL    HW231950   2.803   6.313   5.526
10351SOL     OW31951   4.374   4.881   5.859
10351SOL    HW131952   4.364   4.817   5.936
10351SOL    HW231953   4.300   4.948   5.862
10352SOL     OW31954   3.338   1.470   6.052
10352SOL    HW131955   3.270   1.523   6.103
10352SOL    HW231956   3.408   1.532   6.015
10353SOL     OW31957   6.400   2.852   4.459
10353SOL    HW131958   6.458   2.773   4.478
10353SOL    HW231959   6.447   2.936   4.485
10354SOL     OW31960   5.362   0.998   1.631
10354SOL    HW131961   5.370   0.987   1.730
10354SOL    HW231962   5.312   0.921   1.592
10355SOL     OW31963   2.518   6.115   2.257
10355SOL    HW131964   2.552   6.200   2.298
10355SOL    HW231965   2.578   6.087   2.183
10356SOL     OW31966   6.944   4.441   5.259
10356SOL    HW131967   6.935   4.342   5.252
10356SOL    HW231968   7.003   4.474   5.185
10357SOL     OW31969   2.048   2.298   6.616
10357SOL    HW131970   2.101   2.234   6.671
10357SOL    HW231971   2.036   2.383   6.666
10358SOL     OW31972   0.479   2.881   2.804
10358SOL    HW131973   0.408   2.849   2.868
10358SOL    HW231974   0.435   2.919   2.723
10359SOL     OW31975   0.309   1.604   1.536
10359SOL    HW131976   0.211   1.624   1.540
10359SOL    HW231977   0.325   1.534   1.466
10360SOL     OW31978   5.316   5.890   3.238
10360SOL    HW131979   5.331   5.969   3.178
10360SOL    HW231980   5.272   5.921   3.323
10361SOL     OW31981   2.870   5.991   2.401
10361SOL    HW131982   2.939   5.940   2.452
10361SOL    HW231983   2.782   5.984   2.448
10362SOL     OW31984   2.011   4.662   4.841
10362SOL    HW131985   2.061   4.681   4.757
10362SOL    HW231986   2.046   4.577   4.882
10363SOL     OW31987   4.803   0.237   3.510
10363SOL    HW131988   4.894   0.274   3.493
10363SOL    HW231989   4.748   0.305   3.560
10364SOL     OW31990   2.265   4.368   1.234
10364SOL    HW131991   2.170   4.399   1.238
10364SOL    HW231992   2.295   4.368   1.139
10365SOL     OW31993   4.971   5.322   0.219
10365SOL    HW131994   4.876   5.330   0.251
10365SOL    HW231995   4.978   5.356   0.126
10366SOL     OW31996   2.599   0.278   3.572
10366SOL    HW131997   2.599   0.278   3.672
10366SOL    HW231998   2.613   0.372   3.539
10367SOL     OW31999   5.888   2.469   3.397
10367SOL    HW132000   5.848   2.377   3.395
10367SOL    HW232001   5.876   2.512   3.308
10368SOL     OW32002   2.008   1.387   1.853
10368SOL    HW132003   2.057   1.409   1.768
10368SOL    HW232004   2.050   1.306   1.895
10369SOL     OW32005   3.887   2.340   0.209
10369SOL    HW132006   3.825   2.391   0.148
10369SOL    HW232007   3.954   2.291   0.154
10370SOL     OW32008   4.517   0.836   5.338
10370SOL    HW132009   4.427   0.812   5.302
10370SOL    HW232010   4.568   0.887   5.269
10371SOL     OW32011   4.723   5.955   5.294
10371SOL    HW132012   4.719   5.861   5.327
10371SOL    HW232013   4.699   6.018   5.368
10372SOL     OW32014   2.387   1.198   4.161
10372SOL    HW132015   2.375   1.280   4.217
10372SOL    HW232016   2.387   1.117   4.220
10373SOL     OW32017   1.142   6.592   4.062
10373SOL    HW132018   1.064   6.626   4.010
10373SOL    HW232019   1.164   6.499   4.034
10374SOL     OW32020   3.117   2.202   3.032
10374SOL    HW132021   3.125   2.115   3.080
10374SOL    HW232022   3.092   2.186   2.936
10375SOL     OW32023   5.920   1.757   1.253
10375SOL    HW132024   5.826   1.756   1.219
10375SOL    HW232025   5.933   1.836   1.313
10376SOL     OW32026   0.507   0.815   3.775
10376SOL    HW132027   0.553   0.742   3.826
10376SOL    HW232028   0.439   0.775   3.714
10377SOL     OW32029   0.395   0.565   3.666
10377SOL    HW132030   0.388   0.493   3.735
10377SOL    HW232031   0.310   0.568   3.613
10378SOL     OW32032   0.100   0.395   6.386
10378SOL    HW132033   0.187   0.418   6.343
10378SOL    HW232034   0.040   0.352   6.318
10379SOL     OW32035   5.377   1.109   4.539
10379SOL    HW132036   5.333   1.193   4.506
10379SOL    HW232037   5.330   1.030   4.501
10380SOL     OW32038   5.009   0.356   2.032
10380SOL    HW132039   4.923   0.354   2.084
10380SOL    HW232040   5.024   0.449   1.997
10381SOL     OW32041   4.714   4.530   5.837
10381SOL    HW132042   4.772   4.612   5.846
10381SOL    HW232043   4.715   4.499   5.743
10382SOL     OW32044   2.036   5.121   6.993
10382SOL    HW132045   1.961   5.159   6.939
10382SOL    HW232046   2.113   5.185   6.992
10383SOL     OW32047   0.893   2.599   1.349
10383SOL    HW132048   0.845   2.600   1.437
10383SOL    HW232049   0.962   2.670   1.347
10384SOL     OW32050   6.234   0.190   0.604
10384SOL    HW132051   6.316   0.148   0.566
10384SOL    HW232052   6.157   0.175   0.541
10385SOL     OW32053   6.338   1.320   6.828
10385SOL    HW132054   6.281   1.336   6.748
10385SOL    HW232055   6.287   1.345   6.911
10386SOL     OW32056   6.152   2.937   5.589
10386SOL    HW132057   6.251   2.946   5.577
10386SOL    HW232058   6.107   2.948   5.501
10387SOL     OW32059   1.814   2.305   3.086
10387SOL    HW132060   1.832   2.295   2.988
10387SOL    HW232061   1.789   2.400   3.105
10388SOL     OW32062   1.349   4.979   2.955
10388SOL    HW132063   1.298   5.065   2.945
10388SOL    HW232064   1.428   4.994   3.014
10389SOL     OW32065   1.109   4.689   3.038
10389SOL    HW132066   1.054   4.701   2.956
10389SOL    HW232067   1.104   4.594   3.068
10390SOL     OW32068   1.216   3.330   3.626
10390SOL    HW132069   1.225   3.347   3.724
10390SOL    HW232070   1.186   3.413   3.580
10391SOL     OW32071   2.490   6.576   6.183
10391SOL    HW132072   2.570   6.610   6.233
10391SOL    HW232073   2.410   6.577   6.244
10392SOL     OW32074   6.803   5.396   0.278
10392SOL    HW132075   6.796   5.493   0.301
10392SOL    HW232076   6.800   5.341   0.361
10393SOL     OW32077   1.484   1.251   4.270
10393SOL    HW132078   1.495   1.170   4.213
10393SOL    HW232079   1.388   1.276   4.275
10394SOL     OW32080   2.450   6.761   0.102
10394SOL    HW132081   2.547   6.769   0.123
10394SOL    HW232082   2.418   6.668   0.122
10395SOL     OW32083   0.266   1.119   4.738
10395SOL    HW132084   0.196   1.080   4.678
10395SOL    HW232085   0.331   1.172   4.684
10396SOL     OW32086   1.109   6.676   4.914
10396SOL    HW132087   1.154   6.748   4.861
10396SOL    HW232088   1.034   6.638   4.860
10397SOL     OW32089   3.755   1.693   2.961
10397SOL    HW132090   3.800   1.633   3.026
10397SOL    HW232091   3.789   1.675   2.869
10398SOL     OW32092   6.502   2.869   2.452
10398SOL    HW132093   6.585   2.814   2.462
10398SOL    HW232094   6.507   2.921   2.367
10399SOL     OW32095   5.570   2.231   5.202
10399SOL    HW132096   5.479   2.233   5.244
10399SOL    HW232097   5.617   2.146   5.226
10400SOL     OW32098   2.206   5.506   1.631
10400SOL    HW132099   2.212   5.444   1.708
10400SOL    HW232100   2.245   5.595   1.656
10401SOL     OW32101   0.383   6.081   1.849
10401SOL    HW132102   0.451   6.149   1.876
10401SOL    HW232103   0.363   6.021   1.926
10402SOL     OW32104   0.421   3.138   3.984
10402SOL    HW132105   0.361   3.196   4.038
10402SOL    HW232106   0.502   3.190   3.956
10403SOL     OW32107   5.715   1.016   2.422
10403SOL    HW132108   5.787   1.024   2.352
10403SOL    HW232109   5.669   1.104   2.434
10404SOL     OW32110   0.524   6.293   3.784
10404SOL    HW132111   0.470   6.304   3.867
10404SOL    HW232112   0.617   6.327   3.801
10405SOL     OW32113   1.992   6.364   5.933
10405SOL    HW132114   1.946   6.337   5.849
10405SOL    HW232115   1.924   6.398   5.999
10406SOL     OW32116   2.184   4.618   6.068
10406SOL    HW132117   2.218   4.575   5.984
10406SOL    HW232118   2.211   4.714   6.070
10407SOL     OW32119   0.780   1.567   0.339
10407SOL    HW132120   0.878   1.560   0.322
10407SOL    HW232121   0.763   1.635   0.411
10408SOL     OW32122   4.509   5.913   2.788
10408SOL    HW132123   4.417   5.896   2.751
10408SOL    HW232124   4.545   5.830   2.829
10409SOL     OW32125   6.189   4.664   2.519
10409SOL    HW132126   6.137   4.690   2.438
10409SOL    HW232127   6.127   4.644   2.595
10410SOL     OW32128   4.807   0.344   0.786
10410SOL    HW132129   4.764   0.341   0.877
10410SOL    HW232130   4.736   0.341   0.716
10411SOL     OW32131   2.124   4.872   3.123
10411SOL    HW132132   2.189   4.798   3.138
10411SOL    HW232133   2.162   4.939   3.060
10412SOL     OW32134   0.486   2.037   0.552
10412SOL    HW132135   0.534   1.958   0.588
10412SOL    HW232136   0.387   2.023   0.561
10413SOL     OW32137   0.376   1.904   6.701
10413SOL    HW132138   0.299   1.906   6.765
10413SOL    HW232139   0.458   1.871   6.748
10414SOL     OW32140   6.063   6.608   5.562
10414SOL    HW132141   5.981   6.552   5.553
10414SOL    HW232142   6.062   6.654   5.651
10415SOL     OW32143   0.493   5.964   3.370
10415SOL    HW132144   0.501   6.042   3.432
10415SOL    HW232145   0.577   5.910   3.373
10416SOL     OW32146   5.357   1.317   5.825
10416SOL    HW132147   5.284   1.385   5.821
10416SOL    HW232148   5.358   1.274   5.915
10417SOL     OW32149   3.604   4.987   4.015
10417SOL    HW132150   3.557   4.914   4.064
10417SOL    HW232151   3.558   5.004   3.928
10418SOL     OW32152   5.909   3.681   6.471
10418SOL    HW132153   5.899   3.759   6.532
10418SOL    HW232154   5.909   3.597   6.525
10419SOL     OW32155   2.683   1.514   4.611
10419SOL    HW132156   2.698   1.454   4.690
10419SOL    HW232157   2.660   1.458   4.532
10420SOL     OW32158   6.286   3.939   2.989
10420SOL    HW132159   6.238   3.866   2.941
10420SOL    HW232160   6.364   3.969   2.934
10421SOL     OW32161   0.854   4.555   4.577
10421SOL    HW132162   0.848   4.574   4.479
10421SOL    HW232163   0.942   4.513   4.598
10422SOL     OW32164   6.445   3.797   4.815
10422SOL    HW132165   6.435   3.719   4.753
10422SOL    HW232166   6.542   3.814   4.831
10423SOL     OW32167   3.353   5.230   4.224
10423SOL    HW132168   3.281   5.289   4.258
10423SOL    HW232169   3.429   5.229   4.289
10424SOL     OW32170   3.796   1.076   0.509
10424SOL    HW132171   3.705   1.045   0.538
10424SOL    HW232172   3.798   1.176   0.507
10425SOL     OW32173   1.445   2.186   0.777
10425SOL    HW132174   1.458   2.227   0.686
10425SOL    HW232175   1.369   2.122   0.774
10426SOL     OW32176   6.321   2.138   6.337
10426SOL    HW132177   6.232   2.135   6.382
10426SOL    HW232178   6.338   2.230   6.301
10427SOL     OW32179   5.431   6.576   4.481
10427SOL    HW132180   5.359   6.637   4.448
10427SOL    HW232181   5.517   6.627   4.487
10428SOL     OW32182   2.760   0.431   4.018
10428SOL    HW132183   2.760   0.351   3.957
10428SOL    HW232184   2.683   0.491   3.996
10429SOL     OW32185   1.256   2.724   2.080
10429SOL    HW132186   1.332   2.697   2.020
10429SOL    HW232187   1.282   2.805   2.132
10430SOL     OW32188   3.318   0.219   3.645
10430SOL    HW132189   3.250   0.264   3.588
10430SOL    HW232190   3.366   0.149   3.592
10431SOL     OW32191   3.377   0.528   2.741
10431SOL    HW132192   3.332   0.469   2.808
10431SOL    HW232193   3.449   0.581   2.785
10432SOL     OW32194   1.567   5.775   6.339
10432SOL    HW132195   1.599   5.726   6.258
10432SOL    HW232196   1.489   5.832   6.315
10433SOL     OW32197   2.302   0.328   2.681
10433SOL    HW132198   2.370   0.268   2.639
10433SOL    HW232199   2.335   0.360   2.770
10434SOL     OW32200   5.290   0.325   5.457
10434SOL    HW132201   5.231   0.285   5.527
10434SOL    HW232202   5.292   0.263   5.378
10435SOL     OW32203   2.113   1.657   6.928
10435SOL    HW132204   2.098   1.609   6.841
10435SOL    HW232205   2.101   1.755   6.915
10436SOL     OW32206   6.283   3.310   5.277
10436SOL    HW132207   6.301   3.377   5.206
10436SOL    HW232208   6.235   3.354   5.353
10437SOL     OW32209   5.463   6.496   5.219
10437SOL    HW132210   5.501   6.553   5.291
10437SOL    HW232211   5.537   6.453   5.168
10438SOL     OW32212   6.525   6.365   6.805
10438SOL    HW132213   6.489   6.317   6.885
10438SOL    HW232214   6.506   6.463   6.814
10439SOL     OW32215   6.379   6.425   5.241
10439SOL    HW132216   6.343   6.341   5.200
10439SOL    HW232217   6.319   6.502   5.217
10440SOL     OW32218   6.644   2.400   0.557
10440SOL    HW132219   6.641   2.443   0.467
10440SOL    HW232220   6.681   2.466   0.623
10441SOL     OW32221   4.390   1.972   0.363
10441SOL    HW132222   4.292   1.956   0.377
10441SOL    HW232223   4.434   1.885   0.343
10442SOL     OW32224   1.876   1.985   5.778
10442SOL    HW132225   1.818   1.904   5.783
10442SOL    HW232226   1.956   1.972   5.836
10443SOL     OW32227   0.297   1.373   2.530
10443SOL    HW132228   0.201   1.357   2.508
10443SOL    HW232229   0.317   1.471   2.523
10444SOL     OW32230   3.887   5.302   4.234
10444SOL    HW132231   3.953   5.232   4.206
10444SOL    HW232232   3.794   5.268   4.216
10445SOL     OW32233   0.716   3.247   3.092
10445SOL    HW132234   0.651   3.260   3.167
10445SOL    HW232235   0.669   3.208   3.013
10446SOL     OW32236   2.042   4.326   5.812
10446SOL    HW132237   2.104   4.285   5.745
10446SOL    HW232238   1.993   4.253   5.861
10447SOL     OW32239   0.258   2.057   2.868
10447SOL    HW132240   0.323   2.062   2.793
10447SOL    HW232241   0.267   2.139   2.925
10448SOL     OW32242   2.537   6.534   2.234
10448SOL    HW132243   2.463   6.590   2.273
10448SOL    HW232244   2.499   6.469   2.169
10449SOL     OW32245   3.622   4.951   5.058
10449SOL    HW132246   3.715   4.930   5.027
10449SOL    HW232247   3.577   5.011   4.993
10450SOL     OW32248   6.921   0.787   6.049
10450SOL    HW132249   7.006   0.821   6.088
10450SOL    HW232250   6.853   0.775   6.122
10451SOL     OW32251   3.048   1.454   3.152
10451SOL    HW132252   2.984   1.403   3.095
10451SOL    HW232253   3.106   1.390   3.203
10452SOL     OW32254   6.399   3.879   4.435
10452SOL    HW132255   6.373   3.921   4.349
10452SOL    HW232256   6.341   3.799   4.452
10453SOL     OW32257   3.910   5.891   3.291
10453SOL    HW132258   3.918   5.971   3.232
10453SOL    HW232259   3.813   5.869   3.305
10454SOL     OW32260   6.579   1.337   5.869
10454SOL    HW132261   6.604   1.418   5.922
10454SOL    HW232262   6.624   1.340   5.779
10455SOL     OW32263   6.821   5.615   3.826
10455SOL    HW132264   6.821   5.709   3.791
10455SOL    HW232265   6.728   5.590   3.853
10456SOL     OW32266   1.080   5.468   6.521
10456SOL    HW132267   1.044   5.535   6.456
10456SOL    HW232268   1.139   5.403   6.473
10457SOL     OW32269   3.461   2.785   6.636
10457SOL    HW132270   3.505   2.871   6.663
10457SOL    HW232271   3.508   2.747   6.557
10458SOL     OW32272   0.470   5.793   6.924
10458SOL    HW132273   0.527   5.737   6.864
10458SOL    HW232274   0.431   5.869   6.871
10459SOL     OW32275   0.228   5.019   0.731
10459SOL    HW132276   0.229   4.989   0.635
10459SOL    HW232277   0.282   4.955   0.786
10460SOL     OW32278   0.194   1.442   1.036
10460SOL    HW132279   0.202   1.402   0.944
10460SOL    HW232280   0.098   1.450   1.060
10461SOL     OW32281   6.581   5.331   6.422
10461SOL    HW132282   6.627   5.373   6.500
10461SOL    HW232283   6.602   5.383   6.339
10462SOL     OW32284   4.762   2.108   0.659
10462SOL    HW132285   4.681   2.132   0.712
10462SOL    HW232286   4.735   2.090   0.564
10463SOL     OW32287   4.632   2.413   6.385
10463SOL    HW132288   4.665   2.443   6.474
10463SOL    HW232289   4.696   2.347   6.346
10464SOL     OW32290   6.727   4.857   2.198
10464SOL    HW132291   6.734   4.918   2.277
10464SOL    HW232292   6.749   4.764   2.226
10465SOL     OW32293   5.574   4.283   1.331
10465SOL    HW132294   5.618   4.245   1.250
10465SOL    HW232295   5.574   4.383   1.326
10466SOL     OW32296   6.221   4.664   6.440
10466SOL    HW132297   6.133   4.706   6.465
10466SOL    HW232298   6.237   4.678   6.342
10467SOL     OW32299   0.798   3.375   0.532
10467SOL    HW132300   0.724   3.434   0.563
10467SOL    HW232301   0.808   3.383   0.433
10468SOL     OW32302   2.086   4.602   4.186
10468SOL    HW132303   2.087   4.702   4.183
10468SOL    HW232304   1.996   4.570   4.217
10469SOL     OW32305   0.244   1.238   4.288
10469SOL    HW132306   0.288   1.328   4.283
10469SOL    HW232307   0.172   1.232   4.219
10470SOL     OW32308   1.840   2.557   2.737
10470SOL    HW132309   1.865   2.624   2.807
10470SOL    HW232310   1.811   2.605   2.654
10471SOL     OW32311   2.996   6.723   6.953
10471SOL    HW132312   2.984   6.661   6.875
10471SOL    HW232313   3.091   6.720   6.983
10472SOL     OW32314   4.093   4.963   6.648
10472SOL    HW132315   4.037   5.043   6.625
10472SOL    HW232316   4.069   4.887   6.588
10473SOL     OW32317   5.535   5.001   0.583
10473SOL    HW132318   5.520   4.948   0.666
10473SOL    HW232319   5.620   5.052   0.591
10474SOL     OW32320   5.566   0.831   4.520
10474SOL    HW132321   5.614   0.744   4.534
10474SOL    HW232322   5.576   0.860   4.425
10475SOL     OW32323   1.494   6.126   1.178
10475SOL    HW132324   1.405   6.085   1.156
10475SOL    HW232325   1.504   6.133   1.277
10476SOL     OW32326   4.627   5.617   0.199
10476SOL    HW132327   4.691   5.688   0.167
10476SOL    HW232328   4.556   5.660   0.254
10477SOL     OW32329   6.559   5.128   4.021
10477SOL    HW132330   6.615   5.048   4.003
10477SOL    HW232331   6.566   5.192   3.945
10478SOL     OW32332   5.965   1.256   0.122
10478SOL    HW132333   5.993   1.351   0.139
10478SOL    HW232334   5.966   1.205   0.208
10479SOL     OW32335   1.204   2.271   2.246
10479SOL    HW132336   1.134   2.209   2.282
10479SOL    HW232337   1.295   2.237   2.271
10480SOL     OW32338   2.298   0.346   2.273
10480SOL    HW132339   2.355   0.411   2.222
10480SOL    HW232340   2.245   0.396   2.342
10481SOL     OW32341   6.582   1.198   1.983
10481SOL    HW132342   6.567   1.249   2.068
10481SOL    HW232343   6.506   1.214   1.920
10482SOL     OW32344   4.927   3.832   4.531
10482SOL    HW132345   4.938   3.838   4.630
10482SOL    HW232346   4.959   3.743   4.500
10483SOL     OW32347   6.081   6.817   0.126
10483SOL    HW132348   6.032   6.771   0.052
10483SOL    HW232349   6.093   6.755   0.203
10484SOL     OW32350   6.497   1.289   2.588
10484SOL    HW132351   6.515   1.193   2.609
10484SOL    HW232352   6.465   1.297   2.493
10485SOL     OW32353   6.030   3.836   5.649
10485SOL    HW132354   6.081   3.815   5.732
10485SOL    HW232355   6.077   3.908   5.598
10486SOL     OW32356   5.198   2.894   1.913
10486SOL    HW132357   5.180   2.993   1.917
10486SOL    HW232358   5.129   2.850   1.856
10487SOL     OW32359   5.917   6.728   1.694
10487SOL    HW132360   5.910   6.736   1.794
10487SOL    HW232361   5.988   6.661   1.671
10488SOL     OW32362   2.579   2.414   6.323
10488SOL    HW132363   2.594   2.510   6.297
10488SOL    HW232364   2.538   2.410   6.414
10489SOL     OW32365   1.003   5.908   6.277
10489SOL    HW132366   0.949   5.925   6.360
10489SOL    HW232367   0.993   5.985   6.214
10490SOL     OW32368   6.956   0.765   3.804
10490SOL    HW132369   0.034   0.790   3.782
10490SOL    HW232370   6.956   0.683   3.861
10491SOL     OW32371   1.567   4.012   5.855
10491SOL    HW132372   1.509   4.082   5.898
10491SOL    HW232373   1.549   4.010   5.757
10492SOL     OW32374   4.534   3.290   5.432
10492SOL    HW132375   4.481   3.356   5.377
10492SOL    HW232376   4.621   3.332   5.459
10493SOL     OW32377   2.621   1.118   1.722
10493SOL    HW132378   2.654   1.164   1.804
10493SOL    HW232379   2.671   1.151   1.642
10494SOL     OW32380   6.014   2.617   4.421
10494SOL    HW132381   6.082   2.619   4.348
10494SOL    HW232382   5.973   2.526   4.425
10495SOL     OW32383   1.461   6.918   0.227
10495SOL    HW132384   1.546   6.944   0.181
10495SOL    HW232385   1.386   6.976   0.194
10496SOL     OW32386   0.033   6.892   5.312
10496SOL    HW132387   0.046   6.982   5.353
10496SOL    HW232388   7.015   6.828   5.381
10497SOL     OW32389   1.396   1.065   1.205
10497SOL    HW132390   1.389   1.160   1.176
10497SOL    HW232391   1.464   1.018   1.149
10498SOL     OW32392   2.578   5.781   6.229
10498SOL    HW132393   2.636   5.862   6.231
10498SOL    HW232394   2.562   5.753   6.135
10499SOL     OW32395   3.256   5.816   3.128
10499SOL    HW132396   3.168   5.818   3.174
10499SOL    HW232397   3.261   5.736   3.068
10500SOL     OW32398   1.071   2.243   6.068
10500SOL    HW132399   1.091   2.159   6.019
10500SOL    HW232400   1.051   2.316   6.003
10501SOL     OW32401   1.257   3.189   2.718
10501SOL    HW132402   1.158   3.178   2.710
10501SOL    HW232403   1.298   3.185   2.627
10502SOL     OW32404   3.120   5.829   6.668
10502SOL    HW132405   3.217   5.854   6.663
10502SOL    HW232406   3.107   5.739   6.628
10503SOL     OW32407   2.800   3.357   6.590
10503SOL    HW132408   2.723   3.416   6.615
10503SOL    HW232409   2.877   3.413   6.559
10504SOL     OW32410   2.943   3.105   0.792
10504SOL    HW132411   2.881   3.069   0.861
10504SOL    HW232412   2.952   3.039   0.717
10505SOL     OW32413   6.850   6.141   1.732
10505SOL    HW132414   6.886   6.199   1.805
10505SOL    HW232415   6.837   6.196   1.649
10506SOL     OW32416   0.236   4.273   5.583
10506SOL    HW132417   0.242   4.305   5.489
10506SOL    HW232418   0.252   4.174   5.586
10507SOL     OW32419   1.118   0.321   5.836
10507SOL    HW132420   1.150   0.255   5.904
10507SOL    HW232421   1.147   0.291   5.745
10508SOL     OW32422   5.304   4.039   3.050
10508SOL    HW132423   5.311   3.994   3.139
10508SOL    HW232424   5.211   4.074   3.037
10509SOL     OW32425   1.165   0.390   6.214
10509SOL    HW132426   1.105   0.448   6.160
10509SOL    HW232427   1.165   0.298   6.175
10510SOL     OW32428   6.845   5.838   0.045
10510SOL    HW132429   6.887   5.896   6.992
10510SOL    HW232430   6.745   5.840   0.035
10511SOL     OW32431   4.569   2.918   0.832
10511SOL    HW132432   4.534   2.947   0.921
10511SOL    HW232433   4.494   2.909   0.768
10512SOL     OW32434   3.818   6.566   6.321
10512SOL    HW132435   3.876   6.635   6.279
10512SOL    HW232436   3.832   6.565   6.420
10513SOL     OW32437   0.438   2.031   0.041
10513SOL    HW132438   0.375   2.105   0.065
10513SOL    HW232439   0.514   2.029   0.106
10514SOL     OW32440   0.368   4.895   0.947
10514SOL    HW132441   0.432   4.849   1.008
10514SOL    HW232442   0.278   4.853   0.954
10515SOL     OW32443   7.008   2.331   3.689
10515SOL    HW132444   6.949   2.411   3.705
10515SOL    HW232445   6.966   2.250   3.729
10516SOL     OW32446   3.883   0.385   5.902
10516SOL    HW132447   3.827   0.464   5.879
10516SOL    HW232448   3.968   0.417   5.945
10517SOL     OW32449   6.990   2.076   2.892
10517SOL    HW132450   0.072   2.060   2.884
10517SOL    HW232451   6.949   2.006   2.950
10518SOL     OW32452   0.947   6.577   1.426
10518SOL    HW132453   0.979   6.488   1.457
10518SOL    HW232454   0.960   6.645   1.498
10519SOL     OW32455   2.790   3.453   5.383
10519SOL    HW132456   2.784   3.365   5.336
10519SOL    HW232457   2.702   3.501   5.376
10520SOL     OW32458   4.636   2.324   6.892
10520SOL    HW132459   4.560   2.261   6.907
10520SOL    HW232460   4.607   2.396   6.830
10521SOL     OW32461   6.367   5.971   1.295
10521SOL    HW132462   6.351   5.894   1.233
10521SOL    HW232463   6.439   6.029   1.258
10522SOL     OW32464   6.306   0.992   2.102
10522SOL    HW132465   6.239   0.954   2.038
10522SOL    HW232466   6.301   0.943   2.189
10523SOL     OW32467   6.713   5.737   6.458
10523SOL    HW132468   6.631   5.781   6.494
10523SOL    HW232469   6.742   5.785   6.375
10524SOL     OW32470   2.892   0.663   3.581
10524SOL    HW132471   2.951   0.638   3.658
10524SOL    HW232472   2.904   0.760   3.560
10525SOL     OW32473   2.441   5.831   4.609
10525SOL    HW132474   2.354   5.783   4.619
10525SOL    HW232475   2.506   5.796   4.676
10526SOL     OW32476   6.727   0.260   2.582
10526SOL    HW132477   6.697   0.265   2.487
10526SOL    HW232478   6.696   0.174   2.622
10527SOL     OW32479   1.294   2.560   4.412
10527SOL    HW132480   1.312   2.496   4.338
10527SOL    HW232481   1.203   2.598   4.401
10528SOL     OW32482   0.386   5.065   4.708
10528SOL    HW132483   0.446   5.094   4.782
10528SOL    HW232484   0.389   4.966   4.699
10529SOL     OW32485   0.047   6.983   3.770
10529SOL    HW132486   7.016   6.896   3.784
10529SOL    HW232487   0.126   6.989   3.832
10530SOL     OW32488   2.576   1.847   6.081
10530SOL    HW132489   2.591   1.813   6.173
10530SOL    HW232490   2.662   1.883   6.044
10531SOL     OW32491   1.719   2.778   5.227
10531SOL    HW132492   1.690   2.736   5.313
10531SOL    HW232493   1.739   2.875   5.243
10532SOL     OW32494   3.929   2.461   5.635
10532SOL    HW132495   4.005   2.519   5.607
10532SOL    HW232496   3.879   2.505   5.710
10533SOL     OW32497   2.515   1.142   5.475
10533SOL    HW132498   2.539   1.214   5.411
10533SOL    HW232499   2.545   1.054   5.439
10534SOL     OW32500   6.863   5.647   0.820
10534SOL    HW132501   6.961   5.667   0.816
10534SOL    HW232502   6.817   5.692   0.744
10535SOL     OW32503   0.406   1.074   2.031
10535SOL    HW132504   0.414   1.116   1.940
10535SOL    HW232505   0.384   1.144   2.098
10536SOL     OW32506   4.574   0.322   2.896
10536SOL    HW132507   4.509   0.263   2.943
10536SOL    HW232508   4.550   0.418   2.910
10537SOL     OW32509   1.437   5.050   2.252
10537SOL    HW132510   1.526   5.087   2.227
10537SOL    HW232511   1.431   4.955   2.223
10538SOL     OW32512   4.308   3.419   0.698
10538SOL    HW132513   4.338   3.421   0.602
10538SOL    HW232514   4.331   3.506   0.742
10539SOL     OW32515   0.546   4.102   6.095
10539SOL    HW132516   0.522   4.180   6.153
10539SOL    HW232517   0.468   4.077   6.039
10540SOL     OW32518   2.113   0.484   6.252
10540SOL    HW132519   2.084   0.566   6.203
10540SOL    HW232520   2.104   0.499   6.351
10541SOL     OW32521   3.569   2.990   0.134
10541SOL    HW132522   3.595   3.057   0.064
10541SOL    HW232523   3.541   3.038   0.217
10542SOL     OW32524   0.109   2.559   0.158
10542SOL    HW132525   0.070   2.472   0.129
10542SOL    HW232526   0.176   2.590   0.090
10543SOL     OW32527   1.082   1.028   5.543
10543SOL    HW132528   1.096   1.124   5.518
10543SOL    HW232529   0.986   1.012   5.564
10544SOL     OW32530   1.472   2.428   1.996
10544SOL    HW132531   1.471   2.524   1.969
10544SOL    HW232532   1.378   2.394   1.998
10545SOL     OW32533   6.506   0.511   2.563
10545SOL    HW132534   6.451   0.527   2.646
10545SOL    HW232535   6.596   0.551   2.575
10546SOL     OW32536   2.938   0.630   3.995
10546SOL    HW132537   2.875   0.552   3.989
10546SOL    HW232538   2.890   0.710   4.030
10547SOL     OW32539   4.402   1.484   1.224
10547SOL    HW132540   4.345   1.405   1.247
10547SOL    HW232541   4.346   1.567   1.222
10548SOL     OW32542   4.914   4.263   5.147
10548SOL    HW132543   4.845   4.197   5.176
10548SOL    HW232544   4.973   4.221   5.079
10549SOL     OW32545   1.238   0.881   1.649
10549SOL    HW132546   1.201   0.964   1.607
10549SOL    HW232547   1.175   0.805   1.633
10550SOL     OW32548   4.881   6.732   4.127
10550SOL    HW132549   4.916   6.818   4.092
10550SOL    HW232550   4.913   6.718   4.221
10551SOL     OW32551   1.059   2.983   6.345
10551SOL    HW132552   0.986   2.919   6.368
10551SOL    HW232553   1.136   2.969   6.408
10552SOL     OW32554   3.447   2.229   5.212
10552SOL    HW132555   3.436   2.147   5.267
10552SOL    HW232556   3.358   2.268   5.190
10553SOL     OW32557   1.396   4.795   0.035
10553SOL    HW132558   1.436   4.807   6.961
10553SOL    HW232559   1.297   4.783   0.025
10554SOL     OW32560   0.121   4.749   6.701
10554SOL    HW132561   0.163   4.697   6.776
10554SOL    HW232562   0.021   4.737   6.704
10555SOL     OW32563   3.429   1.639   1.698
10555SOL    HW132564   3.387   1.668   1.784
10555SOL    HW232565   3.477   1.716   1.656
10556SOL     OW32566   2.027   3.253   5.024
10556SOL    HW132567   2.039   3.335   4.968
10556SOL    HW232568   2.107   3.240   5.082
10557SOL     OW32569   0.015   2.641   3.597
10557SOL    HW132570   6.969   2.593   3.536
10557SOL    HW232571   6.979   2.700   3.658
10558SOL     OW32572   4.801   6.177   5.603
10558SOL    HW132573   4.722   6.143   5.552
10558SOL    HW232574   4.873   6.108   5.603
10559SOL     OW32575   4.333   2.015   0.782
10559SOL    HW132576   4.420   2.063   0.790
10559SOL    HW232577   4.265   2.075   0.740
10560SOL     OW32578   1.202   3.111   4.011
10560SOL    HW132579   1.123   3.050   4.019
10560SOL    HW232580   1.271   3.087   4.079
10561SOL     OW32581   2.497   4.004   6.811
10561SOL    HW132582   2.454   3.938   6.873
10561SOL    HW232583   2.430   4.074   6.785
10562SOL     OW32584   4.198   1.131   0.310
10562SOL    HW132585   4.273   1.146   0.245
10562SOL    HW232586   4.184   1.214   0.364
10563SOL     OW32587   1.295   1.874   5.479
10563SOL    HW132588   1.332   1.920   5.560
10563SOL    HW232589   1.224   1.809   5.507
10564SOL     OW32590   6.243   2.283   1.788
10564SOL    HW132591   6.331   2.269   1.832
10564SOL    HW232592   6.170   2.261   1.852
10565SOL     OW32593   5.796   1.981   4.950
10565SOL    HW132594   5.786   1.886   4.979
10565SOL    HW232595   5.876   1.990   4.890
10566SOL     OW32596   3.442   4.106   6.286
10566SOL    HW132597   3.505   4.068   6.218
10566SOL    HW232598   3.494   4.159   6.353
10567SOL     OW32599   1.812   3.909   4.043
10567SOL    HW132600   1.739   3.853   4.004
10567SOL    HW232601   1.849   3.864   4.124
10568SOL     OW32602   4.610   0.872   3.014
10568SOL    HW132603   4.609   0.875   3.114
10568SOL    HW232604   4.517   0.866   2.979
10569SOL     OW32605   5.397   3.170   4.585
10569SOL    HW132606   5.481   3.221   4.604
10569SOL    HW232607   5.338   3.172   4.666
10570SOL     OW32608   1.497   5.105   2.685
10570SOL    HW132609   1.400   5.080   2.683
10570SOL    HW232610   1.547   5.051   2.618
10571SOL     OW32611   6.186   6.621   3.032
10571SOL    HW132612   6.224   6.677   3.106
10571SOL    HW232613   6.112   6.672   2.986
10572SOL     OW32614   5.836   3.741   1.746
10572SOL    HW132615   5.875   3.728   1.655
10572SOL    HW232616   5.818   3.838   1.761
10573SOL     OW32617   5.986   5.355   4.480
10573SOL    HW132618   5.892   5.388   4.466
10573SOL    HW232619   6.022   5.394   4.565
10574SOL     OW32620   0.371   1.854   3.507
10574SOL    HW132621   0.344   1.841   3.412
10574SOL    HW232622   0.429   1.936   3.514
10575SOL     OW32623   1.290   6.944   5.259
10575SOL    HW132624   1.195   6.947   5.289
10575SOL    HW232625   1.298   6.986   5.169
10576SOL     OW32626   1.753   5.457   3.607
10576SOL    HW132627   1.702   5.470   3.522
10576SOL    HW232628   1.697   5.406   3.673
10577SOL     OW32629   1.646   2.808   5.906
10577SOL    HW132630   1.600   2.819   5.818
10577SOL    HW232631   1.733   2.762   5.892
10578SOL     OW32632   6.305   0.434   5.843
10578SOL    HW132633   6.303   0.468   5.749
10578SOL    HW232634   6.216   0.449   5.886
10579SOL     OW32635   4.581   1.758   0.883
10579SOL    HW132636   4.552   1.844   0.841
10579SOL    HW232637   4.501   1.706   0.911
10580SOL     OW32638   6.480   6.177   6.985
10580SOL    HW132639   6.522   6.175   0.059
10580SOL    HW232640   6.482   6.085   6.946
10581SOL     OW32641   5.343   0.639   3.673
10581SOL    HW132642   5.422   0.592   3.632
10581SOL    HW232643   5.371   0.731   3.701
10582SOL     OW32644   3.714   5.012   6.568
10582SOL    HW132645   3.670   4.943   6.625
10582SOL    HW232646   3.733   4.973   6.478
10583SOL     OW32647   4.318   1.480   0.091
10583SOL    HW132648   4.254   1.446   0.160
10583SOL    HW232649   4.302   1.577   0.075
10584SOL     OW32650   5.530   6.780   1.375
10584SOL    HW132651   5.500   6.843   1.303
10584SOL    HW232652   5.479   6.694   1.368
10585SOL     OW32653   0.798   3.228   6.487
10585SOL    HW132654   0.888   3.268   6.468
10585SOL    HW232655   0.795   3.195   6.581
10586SOL     OW32656   3.062   6.463   6.307
10586SOL    HW132657   3.048   6.480   6.209
10586SOL    HW232658   3.088   6.368   6.321
10587SOL     OW32659   6.058   4.243   0.753
10587SOL    HW132660   6.129   4.236   0.824
10587SOL    HW232661   6.022   4.336   0.752
10588SOL     OW32662   0.104   5.658   3.060
10588SOL    HW132663   0.164   5.675   2.983
10588SOL    HW232664   0.138   5.706   3.141
10589SOL     OW32665   5.890   1.713   4.032
10589SOL    HW132666   5.978   1.692   3.990
10589SOL    HW232667   5.862   1.805   4.006
10590SOL     OW32668   1.303   0.129   3.304
10590SOL    HW132669   1.209   0.109   3.277
10590SOL    HW232670   1.366   0.097   3.233
10591SOL     OW32671   1.078   2.192   0.532
10591SOL    HW132672   1.066   2.170   0.628
10591SOL    HW232673   1.013   2.139   0.477
10592SOL     OW32674   6.243   1.231   0.408
10592SOL    HW132675   6.234   1.267   0.500
10592SOL    HW232676   6.160   1.180   0.384
10593SOL     OW32677   1.993   5.470   1.222
10593SOL    HW132678   1.980   5.409   1.300
10593SOL    HW232679   1.983   5.418   1.137
10594SOL     OW32680   0.234   1.993   4.195
10594SOL    HW132681   0.135   1.990   4.186
10594SOL    HW232682   0.265   2.088   4.184
10595SOL     OW32683   3.631   6.213   6.521
10595SOL    HW132684   3.579   6.191   6.603
10595SOL    HW232685   3.584   6.176   6.441
10596SOL     OW32686   3.839   0.559   2.263
10596SOL    HW132687   3.861   0.652   2.293
10596SOL    HW232688   3.863   0.494   2.335
10597SOL     OW32689   1.709   0.731   4.948
10597SOL    HW132690   1.694   0.712   5.045
10597SOL    HW232691   1.781   0.800   4.938
10598SOL     OW32692   2.080   1.942   6.894
10598SOL    HW132693   1.981   1.948   6.880
10598SOL    HW232694   2.122   2.030   6.872
10599SOL     OW32695   5.966   1.560   0.084
10599SOL    HW132696   5.878   1.565   0.131
10599SOL    HW232697   6.037   1.537   0.150
10600SOL     OW32698   2.444   3.278   6.301
10600SOL    HW132699   2.526   3.312   6.255
10600SOL    HW232700   2.425   3.334   6.382
10601SOL     OW32701   3.164   6.186   6.527
10601SOL    HW132702   3.239   6.130   6.492
10601SOL    HW232703   3.087   6.126   6.550
10602SOL     OW32704   4.662   1.294   1.907
10602SOL    HW132705   4.651   1.374   1.967
10602SOL    HW232706   4.580   1.237   1.912
10603SOL     OW32707   1.484   5.774   4.402
10603SOL    HW132708   1.501   5.733   4.491
10603SOL    HW232709   1.464   5.701   4.336
10604SOL     OW32710   6.690   4.860   4.759
10604SOL    HW132711   6.763   4.820   4.815
10604SOL    HW232712   6.608   4.803   4.766
10605SOL     OW32713   1.472   5.016   6.684
10605SOL    HW132714   1.463   4.923   6.720
10605SOL    HW232715   1.551   5.020   6.623
10606SOL     OW32716   0.822   0.653   1.876
10606SOL    HW132717   0.743   0.701   1.912
10606SOL    HW232718   0.793   0.591   1.802
10607SOL     OW32719   5.720   4.967   6.834
10607SOL    HW132720   5.689   4.923   6.749
10607SOL    HW232721   5.691   5.063   6.834
10608SOL     OW32722   6.529   1.404   3.895
10608SOL    HW132723   6.466   1.464   3.945
10608SOL    HW232724   6.481   1.362   3.818
10609SOL     OW32725   3.931   6.652   1.274
10609SOL    HW132726   3.876   6.716   1.220
10609SOL    HW232727   4.024   6.649   1.238
10610SOL     OW32728   1.239   3.198   5.747
10610SOL    HW132729   1.323   3.182   5.696
10610SOL    HW232730   1.257   3.186   5.845
10611SOL     OW32731   5.779   2.939   5.709
10611SOL    HW132732   5.774   2.954   5.610
10611SOL    HW232733   5.872   2.959   5.741
10612SOL     OW32734   1.732   0.201   0.210
10612SOL    HW132735   1.769   0.236   0.297
10612SOL    HW232736   1.667   0.128   0.228
10613SOL     OW32737   0.441   6.207   5.702
10613SOL    HW132738   0.541   6.204   5.695
10613SOL    HW232739   0.409   6.126   5.751
10614SOL     OW32740   6.576   0.889   4.388
10614SOL    HW132741   6.477   0.881   4.405
10614SOL    HW232742   6.593   0.967   4.327
10615SOL     OW32743   5.185   5.602   5.434
10615SOL    HW132744   5.262   5.665   5.426
10615SOL    HW232745   5.214   5.520   5.482
10616SOL     OW32746   2.795   5.756   6.988
10616SOL    HW132747   2.782   5.677   0.032
10616SOL    HW232748   2.774   5.840   0.023
10617SOL     OW32749   1.296   2.128   6.941
10617SOL    HW132750   1.355   2.209   6.938
10617SOL    HW232751   1.349   2.050   6.976
10618SOL     OW32752   6.162   3.147   7.010
10618SOL    HW132753   6.078   3.202   7.015
10618SOL    HW232754   6.148   3.070   6.948
10619SOL     OW32755   0.907   4.287   4.143
10619SOL    HW132756   0.975   4.251   4.079
10619SOL    HW232757   0.893   4.221   4.218
10620SOL     OW32758   1.484   5.922   4.791
10620SOL    HW132759   1.510   5.846   4.850
10620SOL    HW232760   1.553   5.935   4.720
10621SOL     OW32761   2.114   6.526   0.720
10621SOL    HW132762   2.126   6.608   0.776
10621SOL    HW232763   2.045   6.467   0.762
10622SOL     OW32764   3.790   0.753   1.473
10622SOL    HW132765   3.803   0.827   1.540
10622SOL    HW232766   3.694   0.725   1.472
10623SOL     OW32767   6.440   1.866   3.544
10623SOL    HW132768   6.357   1.912   3.511
10623SOL    HW232769   6.416   1.776   3.579
10624SOL     OW32770   1.893   0.502   4.369
10624SOL    HW132771   1.818   0.556   4.408
10624SOL    HW232772   1.952   0.469   4.443
10625SOL     OW32773   0.336   3.560   0.500
10625SOL    HW132774   0.343   3.481   0.439
10625SOL    HW232775   0.294   3.530   0.586
10626SOL     OW32776   0.459   2.464   1.636
10626SOL    HW132777   0.532   2.422   1.581
10626SOL    HW232778   0.499   2.514   1.712
10627SOL     OW32779   6.160   6.147   3.739
10627SOL    HW132780   6.073   6.139   3.789
10627SOL    HW232781   6.167   6.071   3.674
10628SOL     OW32782   5.775   5.711   5.708
10628SOL    HW132783   5.777   5.805   5.674
10628SOL    HW232784   5.851   5.697   5.771
10629SOL     OW32785   2.536   5.706   5.961
10629SOL    HW132786   2.444   5.746   5.965
10629SOL    HW232787   2.550   5.665   5.872
10630SOL     OW32788   6.811   1.896   3.358
10630SOL    HW132789   6.821   1.796   3.364
10630SOL    HW232790   6.883   1.939   3.412
10631SOL     OW32791   0.654   6.740   3.753
10631SOL    HW132792   0.726   6.670   3.761
10631SOL    HW232793   0.690   6.828   3.784
10632SOL     OW32794   0.212   2.019   4.987
10632SOL    HW132795   0.251   2.109   4.966
10632SOL    HW232796   0.287   1.954   5.004
10633SOL     OW32797   1.341   5.369   1.629
10633SOL    HW132798   1.422   5.427   1.621
10633SOL    HW232799   1.337   5.307   1.551
10634SOL     OW32800   3.062   6.413   1.489
10634SOL    HW132801   3.138   6.440   1.430
10634SOL    HW232802   3.013   6.336   1.449
10635SOL     OW32803   2.294   0.681   1.425
10635SOL    HW132804   2.353   0.711   1.500
10635SOL    HW232805   2.330   0.596   1.387
10636SOL     OW32806   0.909   2.265   1.576
10636SOL    HW132807   0.934   2.177   1.617
10636SOL    HW232808   0.811   2.264   1.554
10637SOL     OW32809   3.398   4.220   5.220
10637SOL    HW132810   3.371   4.316   5.235
10637SOL    HW232811   3.316   4.165   5.207
10638SOL     OW32812   0.299   6.529   5.633
10638SOL    HW132813   0.327   6.480   5.715
10638SOL    HW232814   0.226   6.477   5.587
10639SOL     OW32815   2.396   0.398   4.457
10639SOL    HW132816   2.492   0.421   4.473
10639SOL    HW232817   2.344   0.482   4.441
10640SOL     OW32818   4.020   0.595   6.891
10640SOL    HW132819   3.924   0.582   6.913
10640SOL    HW232820   4.029   0.627   6.796
10641SOL     OW32821   5.762   1.966   0.044
10641SOL    HW132822   5.681   1.930   0.090
10641SOL    HW232823   5.733   2.018   6.979
10642SOL     OW32824   0.080   3.176   1.749
10642SOL    HW132825   0.076   3.189   1.650
10642SOL    HW232826   0.092   3.264   1.794
10643SOL     OW32827   2.574   2.886   5.688
10643SOL    HW132828   2.598   2.831   5.608
10643SOL    HW232829   2.615   2.976   5.680
10644SOL     OW32830   4.536   1.445   4.294
10644SOL    HW132831   4.633   1.423   4.290
10644SOL    HW232832   4.496   1.437   4.203
10645SOL     OW32833   2.868   0.741   4.879
10645SOL    HW132834   2.804   0.769   4.807
10645SOL    HW232835   2.846   0.649   4.910
10646SOL     OW32836   0.993   3.775   6.632
10646SOL    HW132837   0.962   3.833   6.556
10646SOL    HW232838   1.071   3.817   6.677
10647SOL     OW32839   0.162   5.197   0.920
10647SOL    HW132840   0.136   5.143   1.000
10647SOL    HW232841   0.189   5.136   0.845
10648SOL     OW32842   4.688   2.969   6.697
10648SOL    HW132843   4.754   3.039   6.668
10648SOL    HW232844   4.620   3.010   6.757
10649SOL     OW32845   0.164   5.183   5.943
10649SOL    HW132846   0.256   5.220   5.953
10649SOL    HW232847   0.128   5.207   5.853
10650SOL     OW32848   3.168   6.592   3.851
10650SOL    HW132849   3.143   6.584   3.754
10650SOL    HW232850   3.189   6.688   3.871
10651SOL     OW32851   4.412   6.321   6.452
10651SOL    HW132852   4.379   6.301   6.544
10651SOL    HW232853   4.504   6.361   6.457
10652SOL     OW32854   3.540   0.766   6.352
10652SOL    HW132855   3.510   0.707   6.427
10652SOL    HW232856   3.625   0.812   6.378
10653SOL     OW32857   5.163   3.629   4.330
10653SOL    HW132858   5.215   3.554   4.372
10653SOL    HW232859   5.065   3.610   4.338
10654SOL     OW32860   4.315   0.683   0.312
10654SOL    HW132861   4.297   0.672   0.409
10654SOL    HW232862   4.248   0.745   0.272
10655SOL     OW32863   2.574   5.975   1.429
10655SOL    HW132864   2.615   5.910   1.365
10655SOL    HW232865   2.637   5.991   1.505
10656SOL     OW32866   6.907   2.747   6.340
10656SOL    HW132867   6.935   2.654   6.364
10656SOL    HW232868   6.903   2.803   6.423
10657SOL     OW32869   6.247   0.794   1.279
10657SOL    HW132870   6.233   0.695   1.284
10657SOL    HW232871   6.171   0.836   1.229
10658SOL     OW32872   6.859   5.742   4.974
10658SOL    HW132873   6.791   5.790   5.028
10658SOL    HW232874   6.950   5.776   4.997
10659SOL     OW32875   5.868   0.844   0.476
10659SOL    HW132876   5.806   0.872   0.403
10659SOL    HW232877   5.931   0.775   0.441
10660SOL     OW32878   4.561   5.019   5.520
10660SOL    HW132879   4.504   5.036   5.439
10660SOL    HW232880   4.651   5.059   5.507
10661SOL     OW32881   0.332   6.774   2.893
10661SOL    HW132882   0.378   6.806   2.811
10661SOL    HW232883   0.283   6.851   2.935
10662SOL     OW32884   5.757   1.188   0.478
10662SOL    HW132885   5.799   1.278   0.491
10662SOL    HW232886   5.730   1.151   0.567
10663SOL     OW32887   0.210   0.253   0.509
10663SOL    HW132888   0.134   0.314   0.486
10663SOL    HW232889   0.196   0.165   0.464
10664SOL     OW32890   1.822   5.006   0.119
10664SOL    HW132891   1.900   5.022   0.058
10664SOL    HW232892   1.767   5.089   0.123
10665SOL     OW32893   6.809   1.220   0.918
10665SOL    HW132894   6.755   1.303   0.920
10665SOL    HW232895   6.906   1.243   0.909
10666SOL     OW32896   1.637   6.929   0.004
10666SOL    HW132897   1.574   6.983   6.965
10666SOL    HW232898   1.599   6.837   0.017
10667SOL     OW32899   3.727   1.678   5.197
10667SOL    HW132900   3.787   1.755   5.220
10667SOL    HW232901   3.666   1.659   5.274
10668SOL     OW32902   2.037   0.873   5.630
10668SOL    HW132903   1.976   0.919   5.694
10668SOL    HW232904   2.123   0.924   5.623
10669SOL     OW32905   1.172   6.725   6.691
10669SOL    HW132906   1.209   6.813   6.722
10669SOL    HW232907   1.127   6.736   6.603
10670SOL     OW32908   6.541   4.724   5.629
10670SOL    HW132909   6.506   4.817   5.637
10670SOL    HW232910   6.636   4.721   5.662
10671SOL     OW32911   2.077   1.347   3.625
10671SOL    HW132912   2.088   1.345   3.526
10671SOL    HW232913   2.091   1.256   3.662
10672SOL     OW32914   0.208   3.451   0.715
10672SOL    HW132915   0.233   3.401   0.797
10672SOL    HW232916   0.160   3.535   0.741
10673SOL     OW32917   2.770   3.213   5.233
10673SOL    HW132918   2.725   3.124   5.246
10673SOL    HW232919   2.841   3.205   5.163
10674SOL     OW32920   3.661   1.925   1.985
10674SOL    HW132921   3.753   1.898   2.014
10674SOL    HW232922   3.652   2.024   1.990
10675SOL     OW32923   0.487   0.529   5.884
10675SOL    HW132924   0.437   0.605   5.844
10675SOL    HW232925   0.450   0.442   5.849
10676SOL     OW32926   6.762   0.158   6.489
10676SOL    HW132927   6.836   0.095   6.513
10676SOL    HW232928   6.713   0.184   6.573
10677SOL     OW32929   0.161   0.222   0.965
10677SOL    HW132930   0.113   0.284   0.904
10677SOL    HW232931   0.193   0.272   1.046
10678SOL     OW32932   2.351   6.481   3.397
10678SOL    HW132933   2.350   6.388   3.434
10678SOL    HW232934   2.445   6.515   3.396
10679SOL     OW32935   5.488   5.017   4.503
10679SOL    HW132936   5.562   4.991   4.565
10679SOL    HW232937   5.510   5.104   4.460
10680SOL     OW32938   1.618   2.068   3.583
10680SOL    HW132939   1.567   2.122   3.516
10680SOL    HW232940   1.711   2.053   3.550
10681SOL     OW32941   0.221   1.087   5.855
10681SOL    HW132942   0.204   1.027   5.777
10681SOL    HW232943   0.312   1.128   5.847
10682SOL     OW32944   6.802   1.852   2.753
10682SOL    HW132945   6.871   1.913   2.793
10682SOL    HW232946   6.718   1.857   2.807
10683SOL     OW32947   2.075   1.847   4.615
10683SOL    HW132948   2.019   1.885   4.541
10683SOL    HW232949   2.036   1.875   4.703
10684SOL     OW32950   5.848   5.574   0.500
10684SOL    HW132951   5.869   5.545   0.593
10684SOL    HW232952   5.763   5.627   0.499
10685SOL     OW32953   0.112   2.615   2.597
10685SOL    HW132954   0.042   2.602   2.666
10685SOL    HW232955   0.079   2.678   2.527
10686SOL     OW32956   3.656   4.966   0.431
10686SOL    HW132957   3.637   5.064   0.427
10686SOL    HW232958   3.678   4.932   0.340
10687SOL     OW32959   0.639   4.840   2.409
10687SOL    HW132960   0.630   4.895   2.492
10687SOL    HW232961   0.617   4.897   2.329
10688SOL     OW32962   6.467   5.246   1.841
10688SOL    HW132963   6.561   5.275   1.856
10688SOL    HW232964   6.432   5.288   1.757
10689SOL     OW32965   0.157   0.983   1.980
10689SOL    HW132966   0.133   1.080   1.981
10689SOL    HW232967   0.254   0.972   2.002
10690SOL     OW32968   4.547   5.318   1.795
10690SOL    HW132969   4.456   5.346   1.828
10690SOL    HW232970   4.546   5.221   1.773
10691SOL     OW32971   0.010   1.665   1.488
10691SOL    HW132972   6.937   1.688   1.450
10691SOL    HW232973   0.019   1.566   1.495
10692SOL     OW32974   4.392   5.924   4.015
10692SOL    HW132975   4.338   5.930   3.931
10692SOL    HW232976   4.348   5.861   4.079
10693SOL     OW32977   6.530   2.178   1.850
10693SOL    HW132978   6.494   2.085   1.860
10693SOL    HW232979   6.603   2.193   1.917
10694SOL     OW32980   3.827   6.334   0.634
10694SOL    HW132981   3.830   6.238   0.609
10694SOL    HW232982   3.807   6.389   0.552
10695SOL     OW32983   6.202   3.373   4.102
10695SOL    HW132984   6.152   3.359   4.188
10695SOL    HW232985   6.299   3.354   4.116
10696SOL     OW32986   6.325   6.581   1.464
10696SOL    HW132987   6.391   6.624   1.402
10696SOL    HW232988   6.348   6.484   1.474
10697SOL     OW32989   2.827   6.016   3.287
10697SOL    HW132990   2.839   6.067   3.201
10697SOL    HW232991   2.760   6.064   3.344
10698SOL     OW32992   2.957   0.626   3.300
10698SOL    HW132993   2.896   0.563   3.253
10698SOL    HW232994   2.927   0.638   3.395
10699SOL     OW32995   2.186   2.266   2.613
10699SOL    HW132996   2.163   2.181   2.661
10699SOL    HW232997   2.124   2.278   2.536
10700SOL     OW32998   6.430   0.609   1.632
10700SOL    HW132999   6.373   0.688   1.611
10700SOL    HW233000   6.527   0.637   1.631
10701SOL     OW33001   3.460   6.364   0.648
10701SOL    HW133002   3.501   6.304   0.579
10701SOL    HW233003   3.470   6.459   0.619
10702SOL     OW33004   6.241   3.364   1.228
10702SOL    HW133005   6.306   3.289   1.217
10702SOL    HW233006   6.278   3.446   1.185
10703SOL     OW33007   4.132   3.412   3.568
10703SOL    HW133008   4.110   3.429   3.664
10703SOL    HW233009   4.231   3.417   3.555
10704SOL     OW33010   5.512   6.458   2.042
10704SOL    HW133011   5.520   6.385   1.974
10704SOL    HW233012   5.426   6.449   2.092
10705SOL     OW33013   0.548   2.605   6.736
10705SOL    HW133014   0.583   2.698   6.723
10705SOL    HW233015   0.479   2.605   6.809
10706SOL     OW33016   3.680   1.260   2.145
10706SOL    HW133017   3.581   1.263   2.158
10706SOL    HW233018   3.712   1.350   2.115
10707SOL     OW33019   6.305   7.014   5.826
10707SOL    HW133020   6.242   0.049   5.884
10707SOL    HW233021   6.340   6.934   5.876
10708SOL     OW33022   4.504   0.887   0.987
10708SOL    HW133023   4.554   0.964   0.948
10708SOL    HW233024   4.500   0.897   1.086
10709SOL     OW33025   0.449   6.517   6.116
10709SOL    HW133026   0.403   6.506   6.028
10709SOL    HW233027   0.453   6.429   6.163
10710SOL     OW33028   6.347   5.665   3.165
10710SOL    HW133029   6.359   5.764   3.172
10710SOL    HW233030   6.437   5.622   3.164
10711SOL     OW33031   1.937   5.798   4.655
10711SOL    HW133032   1.879   5.857   4.711
10711SOL    HW233033   1.891   5.711   4.640
10712SOL     OW33034   4.016   1.523   5.040
10712SOL    HW133035   4.114   1.511   5.025
10712SOL    HW233036   4.001   1.604   5.096
10713SOL     OW33037   1.305   6.259   1.332
10713SOL    HW133038   1.395   6.289   1.366
10713SOL    HW233039   1.287   6.166   1.362
10714SOL     OW33040   6.840   4.946   5.047
10714SOL    HW133041   6.844   4.906   5.138
10714SOL    HW233042   6.748   4.932   5.009
10715SOL     OW33043   6.364   1.340   3.705
10715SOL    HW133044   6.295   1.378   3.766
10715SOL    HW233045   6.321   1.283   3.636
10716SOL     OW33046   6.382   0.540   3.033
10716SOL    HW133047   6.368   0.517   3.130
10716SOL    HW233048   6.464   0.596   3.024
10717SOL     OW33049   6.504   6.413   2.059
10717SOL    HW133050   6.482   6.363   1.976
10717SOL    HW233051   6.603   6.418   2.069
10718SOL     OW33052   7.004   4.673   6.292
10718SOL    HW133053   7.015   4.621   6.207
10718SOL    HW233054   0.002   4.613   6.370
10719SOL     OW33055   4.601   0.765   2.235
10719SOL    HW133056   4.675   0.725   2.290
10719SOL    HW233057   4.589   0.861   2.261
10720SOL     OW33058   0.772   3.428   0.276
10720SOL    HW133059   0.861   3.431   0.230
10720SOL    HW233060   0.718   3.507   0.248
10721SOL     OW33061   4.729   2.838   4.108
10721SOL    HW133062   4.828   2.838   4.121
10721SOL    HW233063   4.704   2.908   4.042
10722SOL     OW33064   0.331   4.409   0.771
10722SOL    HW133065   0.290   4.389   0.860
10722SOL    HW233066   0.316   4.504   0.747
10723SOL     OW33067   6.346   4.029   0.414
10723SOL    HW133068   6.418   4.038   0.482
10723SOL    HW233069   6.265   4.081   0.444
10724SOL     OW33070   3.718   6.727   5.342
10724SOL    HW133071   3.755   6.688   5.258
10724SOL    HW233072   3.678   6.655   5.398
10725SOL     OW33073   6.681   6.701   4.706
10725SOL    HW133074   6.705   6.630   4.639
10725SOL    HW233075   6.753   6.770   4.707
10726SOL     OW33076   5.138   0.802   4.881
10726SOL    HW133077   5.206   0.872   4.901
10726SOL    HW233078   5.182   0.712   4.883
10727SOL     OW33079   2.120   6.122   6.747
10727SOL    HW133080   2.064   6.123   6.665
10727SOL    HW233081   2.117   6.211   6.792
10728SOL     OW33082   5.558   5.757   3.307
10728SOL    HW133083   5.632   5.787   3.368
10728SOL    HW233084   5.524   5.835   3.255
10729SOL     OW33085   5.855   3.789   4.014
10729SOL    HW133086   5.850   3.692   4.034
10729SOL    HW233087   5.786   3.838   4.068
10730SOL     OW33088   1.769   5.549   2.841
10730SOL    HW133089   1.833   5.608   2.791
10730SOL    HW233090   1.799   5.454   2.833
10731SOL     OW33091   4.600   6.491   6.807
10731SOL    HW133092   4.631   6.584   6.825
10731SOL    HW233093   4.627   6.431   6.882
10732SOL     OW33094   5.920   5.880   3.100
10732SOL    HW133095   5.967   5.960   3.063
10732SOL    HW233096   5.981   5.830   3.162
10733SOL     OW33097   0.201   1.244   6.299
10733SOL    HW133098   0.241   1.176   6.238
10733SOL    HW233099   0.237   1.232   6.391
10734SOL     OW33100   1.553   0.970   4.242
10734SOL    HW133101   1.532   0.874   4.256
10734SOL    HW233102   1.589   1.009   4.327
10735SOL     OW33103   6.752   6.361   2.198
10735SOL    HW133104   6.828   6.426   2.189
10735SOL    HW233105   6.774   6.294   2.269
10736SOL     OW33106   5.945   6.443   3.798
10736SOL    HW133107   5.987   6.459   3.888
10736SOL    HW233108   5.861   6.389   3.810
10737SOL     OW33109   6.424   1.385   2.314
10737SOL    HW133110   6.514   1.357   2.282
10737SOL    HW233111   6.353   1.341   2.258
10738SOL     OW33112   3.918   0.769   1.225
10738SOL    HW133113   3.863   0.758   1.308
10738SOL    HW233114   3.911   0.864   1.193
10739SOL     OW33115   5.499   2.884   3.840
10739SOL    HW133116   5.430   2.838   3.895
10739SOL    HW233117   5.557   2.941   3.899
10740SOL     OW33118   2.768   0.146   5.602
10740SOL    HW133119   2.804   0.070   5.547
10740SOL    HW233120   2.843   0.202   5.635
10741SOL     OW33121   1.984   1.954   3.840
10741SOL    HW133122   2.056   1.892   3.869
10741SOL    HW233123   1.944   1.922   3.754
10742SOL     OW33124   6.073   6.174   2.451
10742SOL    HW133125   6.002   6.103   2.449
10742SOL    HW233126   6.081   6.210   2.544
10743SOL     OW33127   2.824   1.468   5.688
10743SOL    HW133128   2.755   1.508   5.628
10743SOL    HW233129   2.796   1.375   5.713
10744SOL     OW33130   2.046   0.992   0.343
10744SOL    HW133131   1.957   1.028   0.318
10744SOL    HW233132   2.059   1.000   0.442
10745SOL     OW33133   1.695   4.184   2.252
10745SOL    HW133134   1.666   4.115   2.318
10745SOL    HW233135   1.648   4.270   2.270
10746SOL     OW33136   1.681   6.397   6.680
10746SOL    HW133137   1.688   6.463   6.756
10746SOL    HW233138   1.699   6.444   6.594
10747SOL     OW33139   6.476   1.248   5.072
10747SOL    HW133140   6.389   1.213   5.107
10747SOL    HW233141   6.480   1.235   4.973
10748SOL     OW33142   3.236   6.401   1.282
10748SOL    HW133143   3.333   6.421   1.292
10748SOL    HW233144   3.224   6.303   1.266
10749SOL     OW33145   5.965   4.463   1.763
10749SOL    HW133146   5.946   4.460   1.665
10749SOL    HW233147   5.906   4.531   1.806
10750SOL     OW33148   4.471   2.529   4.392
10750SOL    HW133149   4.423   2.479   4.464
10750SOL    HW233150   4.466   2.478   4.306
10751SOL     OW33151   0.522   5.851   4.449
10751SOL    HW133152   0.578   5.918   4.498
10751SOL    HW233153   0.464   5.801   4.513
10752SOL     OW33154   6.124   6.617   0.303
10752SOL    HW133155   6.067   6.604   0.384
10752SOL    HW233156   6.146   6.528   0.263
10753SOL     OW33157   5.190   6.664   4.319
10753SOL    HW133158   5.151   6.723   4.389
10753SOL    HW233159   5.247   6.718   4.256
10754SOL     OW33160   0.744   4.217   2.442
10754SOL    HW133161   0.796   4.154   2.384
10754SOL    HW233162   0.807   4.274   2.494
10755SOL     OW33163   0.035   2.913   1.102
10755SOL    HW133164   6.981   2.879   1.164
10755SOL    HW233165   7.009   2.961   1.026
10756SOL     OW33166   1.211   0.698   0.696
10756SOL    HW133167   1.202   0.599   0.712
10756SOL    HW233168   1.136   0.746   0.741
10757SOL     OW33169   0.541   4.000   1.741
10757SOL    HW133170   0.495   3.930   1.795
10757SOL    HW233171   0.562   4.078   1.800
10758SOL     OW33172   0.502   0.377   0.153
10758SOL    HW133173   0.518   0.282   0.182
10758SOL    HW233174   0.586   0.430   0.168
10759SOL     OW33175   2.648   2.364   5.680
10759SOL    HW133176   2.691   2.452   5.702
10759SOL    HW233177   2.611   2.368   5.588
10760SOL     OW33178   0.974   5.126   6.667
10760SOL    HW133179   0.932   5.208   6.628
10760SOL    HW233180   0.934   5.108   6.757
10761SOL     OW33181   0.984   1.938   5.676
10761SOL    HW133182   1.034   1.853   5.660
10761SOL    HW233183   0.988   1.995   5.594
10762SOL     OW33184   2.900   5.971   6.556
10762SOL    HW133185   2.806   5.990   6.586
10762SOL    HW233186   2.949   5.924   6.630
10763SOL     OW33187   4.956   0.229   3.937
10763SOL    HW133188   5.022   0.265   3.870
10763SOL    HW233189   4.868   0.274   3.925
10764SOL     OW33190   4.557   6.762   4.564
10764SOL    HW133191   4.524   6.682   4.614
10764SOL    HW233192   4.489   6.836   4.571
10765SOL     OW33193   0.336   2.475   2.525
10765SOL    HW133194   0.248   2.516   2.548
10765SOL    HW233195   0.343   2.464   2.426
10766SOL     OW33196   2.202   4.865   6.944
10766SOL    HW133197   2.170   4.853   0.022
10766SOL    HW233198   2.214   4.963   6.925
10767SOL     OW33199   1.214   5.209   6.981
10767SOL    HW133200   1.188   5.113   6.969
10767SOL    HW233201   1.242   5.225   0.059
10768SOL     OW33202   5.361   6.253   0.022
10768SOL    HW133203   5.387   6.247   6.942
10768SOL    HW233204   5.385   6.343   0.057
10769SOL     OW33205   3.186   2.981   4.498
10769SOL    HW133206   3.241   2.934   4.566
10769SOL    HW233207   3.206   2.944   4.407
10770SOL     OW33208   5.744   0.106   3.406
10770SOL    HW133209   5.841   0.083   3.409
10770SOL    HW233210   5.731   0.188   3.350
10771SOL     OW33211   4.565   6.025   5.759
10771SOL    HW133212   4.478   6.058   5.795
10771SOL    HW233213   4.593   5.944   5.809
10772SOL     OW33214   5.918   5.166   2.659
10772SOL    HW133215   6.015   5.152   2.638
10772SOL    HW233216   5.875   5.213   2.582
10773SOL     OW33217   6.890   3.568   0.935
10773SOL    HW133218   6.874   3.495   1.002
10773SOL    HW233219   6.824   3.558   0.860
10774SOL     OW33220   0.730   3.207   0.953
10774SOL    HW133221   0.637   3.232   0.981
10774SOL    HW233222   0.744   3.109   0.965
10775SOL     OW33223   1.737   4.165   0.800
10775SOL    HW133224   1.738   4.260   0.769
10775SOL    HW233225   1.741   4.162   0.899
10776SOL     OW33226   0.608   2.440   4.140
10776SOL    HW133227   0.601   2.427   4.041
10776SOL    HW233228   0.681   2.381   4.176
10777SOL     OW33229   2.558   0.854   1.567
10777SOL    HW133230   2.575   0.916   1.644
10777SOL    HW233231   2.506   0.903   1.497
10778SOL     OW33232   5.532   0.309   3.052
10778SOL    HW133233   5.506   0.220   3.016
10778SOL    HW233234   5.510   0.380   2.985
10779SOL     OW33235   5.668   3.622   5.413
10779SOL    HW133236   5.649   3.719   5.399
10779SOL    HW233237   5.653   3.598   5.509
10780SOL     OW33238   1.954   5.367   4.404
10780SOL    HW133239   1.920   5.435   4.468
10780SOL    HW233240   1.906   5.280   4.418
10781SOL     OW33241   5.768   2.317   4.683
10781SOL    HW133242   5.738   2.305   4.777
10781SOL    HW233243   5.749   2.410   4.652
10782SOL     OW33244   1.108   1.421   5.272
10782SOL    HW133245   1.066   1.468   5.194
10782SOL    HW233246   1.201   1.455   5.285
10783SOL     OW33247   1.152   2.456   3.694
10783SOL    HW133248   1.178   2.533   3.635
10783SOL    HW233249   1.074   2.482   3.751
10784SOL     OW33250   3.907   5.726   2.897
10784SOL    HW133251   3.975   5.759   2.962
10784SOL    HW233252   3.823   5.702   2.946
10785SOL     OW33253   1.204   5.150   1.773
10785SOL    HW133254   1.163   5.169   1.684
10785SOL    HW233255   1.299   5.121   1.760
10786SOL     OW33256   4.119   1.681   2.384
10786SOL    HW133257   4.200   1.732   2.358
10786SOL    HW233258   4.062   1.737   2.444
10787SOL     OW33259   4.104   0.778   3.491
10787SOL    HW133260   4.083   0.834   3.411
10787SOL    HW233261   4.033   0.709   3.503
10788SOL     OW33262   1.735   3.959   0.179
10788SOL    HW133263   1.669   4.011   0.234
10788SOL    HW233264   1.689   3.920   0.100
10789SOL     OW33265   6.718   1.211   1.625
10789SOL    HW133266   6.806   1.185   1.665
10789SOL    HW233267   6.647   1.148   1.656
10790SOL     OW33268   0.512   1.658   5.684
10790SOL    HW133269   0.555   1.730   5.630
10790SOL    HW233270   0.510   1.573   5.630
10791SOL     OW33271   1.428   1.823   3.637
10791SOL    HW133272   1.464   1.908   3.675
10791SOL    HW233273   1.352   1.844   3.575
10792SOL     OW33274   3.615   2.089   2.580
10792SOL    HW133275   3.692   2.026   2.594
10792SOL    HW233276   3.604   2.106   2.482
10793SOL     OW33277   4.379   1.827   4.718
10793SOL    HW133278   4.357   1.817   4.621
10793SOL    HW233279   4.459   1.772   4.740
10794SOL     OW33280   5.265   1.840   1.196
10794SOL    HW133281   5.290   1.777   1.122
10794SOL    HW233282   5.347   1.887   1.229
10795SOL     OW33283   6.911   3.301   3.179
10795SOL    HW133284   6.898   3.370   3.107
10795SOL    HW233285   7.000   3.259   3.168
10796SOL     OW33286   0.559   6.987   5.974
10796SOL    HW133287   0.615   0.026   6.036
10796SOL    HW233288   0.469   0.012   5.965
10797SOL     OW33289   4.465   4.561   6.726
10797SOL    HW133290   4.366   4.561   6.739
10797SOL    HW233291   4.487   4.521   6.637
10798SOL     OW33292   1.401   6.900   6.636
10798SOL    HW133293   1.377   6.940   6.724
10798SOL    HW233294   1.342   6.937   6.564
10799SOL     OW33295   2.946   1.038   2.722
10799SOL    HW133296   2.901   1.114   2.674
10799SOL    HW233297   2.913   1.034   2.816
10800SOL     OW33298   2.459   0.129   5.570
10800SOL    HW133299   2.385   0.186   5.606
10800SOL    HW233300   2.546   0.174   5.588
10801SOL     OW33301   2.706   6.052   6.315
10801SOL    HW133302   2.704   6.050   6.415
10801SOL    HW233303   2.756   6.133   6.284
10802SOL     OW33304   0.819   5.209   4.467
10802SOL    HW133305   0.738   5.254   4.505
10802SOL    HW233306   0.878   5.179   4.541
10803SOL     OW33307   0.188   4.187   4.597
10803SOL    HW133308   0.260   4.165   4.531
10803SOL    HW233309   0.196   4.282   4.625
10804SOL     OW33310   5.012   4.542   1.091
10804SOL    HW133311   4.916   4.556   1.116
10804SOL    HW233312   5.068   4.614   1.130
10805SOL     OW33313   3.795   6.042   0.399
10805SOL    HW133314   3.774   5.974   0.468
10805SOL    HW233315   3.886   6.025   0.361
10806SOL     OW33316   6.188   3.938   6.531
10806SOL    HW133317   6.093   3.923   6.503
10806SOL    HW233318   6.209   3.880   6.609
10807SOL     OW33319   4.571   0.103   3.881
10807SOL    HW133320   4.658   0.144   3.908
10807SOL    HW233321   4.579   0.003   3.883
10808SOL     OW33322   0.673   2.250   0.117
10808SOL    HW133323   0.599   2.298   0.165
10808SOL    HW233324   0.689   2.292   0.028
10809SOL     OW33325   3.350   0.946   3.344
10809SOL    HW133326   3.421   0.894   3.393
10809SOL    HW233327   3.377   1.042   3.338
10810SOL     OW33328   1.055   1.658   6.778
10810SOL    HW133329   0.999   1.709   6.843
10810SOL    HW233330   1.046   1.560   6.797
10811SOL     OW33331   4.895   4.733   5.833
10811SOL    HW133332   4.948   4.769   5.910
10811SOL    HW233333   4.953   4.727   5.752
10812SOL     OW33334   6.897   2.536   2.825
10812SOL    HW133335   6.799   2.547   2.807
10812SOL    HW233336   6.931   2.615   2.875
10813SOL     OW33337   3.045   5.496   2.581
10813SOL    HW133338   3.060   5.544   2.494
10813SOL    HW233339   2.967   5.537   2.628
10814SOL     OW33340   1.934   6.137   4.994
10814SOL    HW133341   2.003   6.171   4.930
10814SOL    HW233342   1.927   6.198   5.072
10815SOL     OW33343   4.436   2.478   3.636
10815SOL    HW133344   4.406   2.436   3.550
10815SOL    HW233345   4.406   2.421   3.712
10816SOL     OW33346   1.840   2.479   2.012
10816SOL    HW133347   1.936   2.502   2.022
10816SOL    HW233348   1.825   2.435   1.923
10817SOL     OW33349   4.936   6.632   1.933
10817SOL    HW133350   5.033   6.646   1.910
10817SOL    HW233351   4.895   6.570   1.867
10818SOL     OW33352   4.456   2.974   6.384
10818SOL    HW133353   4.432   3.071   6.379
10818SOL    HW233354   4.422   2.928   6.301
10819SOL     OW33355   0.687   3.856   5.666
10819SOL    HW133356   0.681   3.846   5.566
10819SOL    HW233357   0.728   3.774   5.705
10820SOL     OW33358   0.323   0.196   4.694
10820SOL    HW133359   0.400   0.221   4.636
10820SOL    HW233360   0.277   0.116   4.655
10821SOL     OW33361   6.855   0.096   0.877
10821SOL    HW133362   6.903   0.159   0.816
10821SOL    HW233363   6.756   0.106   0.863
10822SOL     OW33364   1.237   5.009   0.796
10822SOL    HW133365   1.278   5.073   0.861
10822SOL    HW233366   1.162   5.054   0.747
10823SOL     OW33367   0.985   2.019   2.189
10823SOL    HW133368   1.011   2.037   2.284
10823SOL    HW233369   1.064   2.036   2.130
10824SOL     OW33370   5.299   0.495   3.400
10824SOL    HW133371   5.342   0.584   3.408
10824SOL    HW233372   5.369   0.425   3.384
10825SOL     OW33373   3.701   2.050   1.098
10825SOL    HW133374   3.713   1.973   1.036
10825SOL    HW233375   3.790   2.082   1.131
10826SOL     OW33376   6.774   2.804   1.569
10826SOL    HW133377   6.727   2.876   1.620
10826SOL    HW233378   6.838   2.756   1.630
10827SOL     OW33379   1.347   2.418   4.163
10827SOL    HW133380   1.441   2.410   4.194
10827SOL    HW233381   1.345   2.461   4.073
10828SOL     OW33382   1.185   6.342   0.099
10828SOL    HW133383   1.163   6.428   0.055
10828SOL    HW233384   1.275   6.348   0.142
10829SOL     OW33385   2.300   3.666   1.592
10829SOL    HW133386   2.314   3.606   1.671
10829SOL    HW233387   2.203   3.683   1.579
10830SOL     OW33388   5.209   1.574   4.042
10830SOL    HW133389   5.278   1.605   4.107
10830SOL    HW233390   5.246   1.576   3.949
10831SOL     OW33391   5.028   2.844   3.011
10831SOL    HW133392   4.943   2.871   2.965
10831SOL    HW233393   5.083   2.926   3.030
10832SOL     OW33394   6.632   2.569   2.760
10832SOL    HW133395   6.656   2.638   2.692
10832SOL    HW233396   6.533   2.564   2.770
10833SOL     OW33397   3.191   0.452   4.398
10833SOL    HW133398   3.202   0.365   4.446
10833SOL    HW233399   3.188   0.435   4.299
10834SOL     OW33400   6.943   1.471   5.353
10834SOL    HW133401   6.849   1.437   5.360
10834SOL    HW233402   7.003   1.399   5.319
10835SOL     OW33403   6.650   2.147   2.648
10835SOL    HW133404   6.636   2.087   2.727
10835SOL    HW233405   6.748   2.153   2.627
10836SOL     OW33406   1.761   2.600   0.652
10836SOL    HW133407   1.819   2.625   0.730
10836SOL    HW233408   1.670   2.575   0.686
10837SOL     OW33409   0.979   5.844   1.450
10837SOL    HW133410   0.890   5.802   1.464
10837SOL    HW233411   1.047   5.798   1.508
10838SOL     OW33412   6.356   6.902   0.980
10838SOL    HW133413   6.342   6.816   0.932
10838SOL    HW233414   6.284   6.967   0.955
10839SOL     OW33415   1.760   1.475   0.134
10839SOL    HW133416   1.735   1.536   0.058
10839SOL    HW233417   1.764   1.381   0.101
10840SOL     OW33418   3.724   5.172   2.536
10840SOL    HW133419   3.666   5.128   2.605
10840SOL    HW233420   3.782   5.240   2.579
10841SOL     OW33421   4.777   3.350   5.721
10841SOL    HW133422   4.779   3.390   5.630
10841SOL    HW233423   4.834   3.268   5.722
10842SOL     OW33424   6.780   3.022   1.149
10842SOL    HW133425   6.723   3.102   1.170
10842SOL    HW233426   6.752   2.945   1.207
10843SOL     OW33427   0.503   1.220   1.811
10843SOL    HW133428   0.592   1.209   1.766
10843SOL    HW233429   0.462   1.307   1.784
10844SOL     OW33430   3.285   6.962   3.341
10844SOL    HW133431   3.205   6.953   3.401
10844SOL    HW233432   3.363   6.996   3.394
10845SOL     OW33433   1.247   3.195   1.033
10845SOL    HW133434   1.159   3.206   1.080
10845SOL    HW233435   1.231   3.186   0.935
10846SOL     OW33436   3.886   1.756   2.166
10846SOL    HW133437   3.963   1.706   2.205
10846SOL    HW233438   3.905   1.854   2.166
10847SOL     OW33439   3.826   2.383   6.266
10847SOL    HW133440   3.920   2.351   6.260
10847SOL    HW233441   3.819   2.453   6.337
10848SOL     OW33442   0.890   1.204   0.676
10848SOL    HW133443   0.859   1.113   0.646
10848SOL    HW233444   0.888   1.208   0.776
10849SOL     OW33445   2.532   5.004   4.370
10849SOL    HW133446   2.490   4.928   4.419
10849SOL    HW233447   2.561   5.075   4.434
10850SOL     OW33448   5.729   0.597   2.012
10850SOL    HW133449   5.630   0.610   2.003
10850SOL    HW233450   5.747   0.530   2.084
10851SOL     OW33451   3.873   2.108   6.398
10851SOL    HW133452   3.948   2.152   6.350
10851SOL    HW233453   3.909   2.035   6.456
10852SOL     OW33454   0.235   6.365   6.442
10852SOL    HW133455   0.170   6.340   6.371
10852SOL    HW233456   0.202   6.446   6.491
10853SOL     OW33457   2.210   0.739   4.600
10853SOL    HW133458   2.163   0.827   4.591
10853SOL    HW233459   2.234   0.705   4.510
10854SOL     OW33460   0.100   6.273   0.924
10854SOL    HW133461   0.095   6.342   0.997
10854SOL    HW233462   0.189   6.279   0.879
10855SOL     OW33463   1.459   5.906   2.011
10855SOL    HW133464   1.415   5.818   2.031
10855SOL    HW233465   1.399   5.961   1.953
10856SOL     OW33466   6.086   0.367   6.320
10856SOL    HW133467   5.989   0.388   6.334
10856SOL    HW233468   6.132   0.449   6.285
10857SOL     OW33469   6.381   0.516   5.216
10857SOL    HW133470   6.444   0.592   5.198
10857SOL    HW233471   6.307   0.517   5.149
10858SOL     OW33472   2.157   1.963   0.174
10858SOL    HW133473   2.137   1.959   0.076
10858SOL    HW233474   2.105   2.038   0.216
10859SOL     OW33475   0.932   5.853   2.153
10859SOL    HW133476   0.972   5.930   2.203
10859SOL    HW233477   0.892   5.887   2.067
10860SOL     OW33478   5.769   3.395   0.533
10860SOL    HW133479   5.866   3.401   0.558
10860SOL    HW233480   5.737   3.301   0.544
10861SOL     OW33481   3.135   2.876   1.876
10861SOL    HW133482   3.051   2.921   1.906
10861SOL    HW233483   3.114   2.811   1.802
10862SOL     OW33484   3.291   3.321   5.315
10862SOL    HW133485   3.249   3.321   5.225
10862SOL    HW233486   3.253   3.247   5.370
10863SOL     OW33487   2.203   0.601   3.155
10863SOL    HW133488   2.261   0.682   3.154
10863SOL    HW233489   2.230   0.542   3.231
10864SOL     OW33490   3.193   4.369   1.534
10864SOL    HW133491   3.255   4.437   1.574
10864SOL    HW233492   3.132   4.333   1.605
10865SOL     OW33493   4.077   1.346   2.802
10865SOL    HW133494   4.113   1.417   2.862
10865SOL    HW233495   4.107   1.363   2.708
10866SOL     OW33496   0.108   3.590   3.345
10866SOL    HW133497   0.120   3.682   3.384
10866SOL    HW233498   0.029   3.590   3.284
10867SOL     OW33499   4.583   2.661   0.938
10867SOL    HW133500   4.561   2.744   0.887
10867SOL    HW233501   4.499   2.612   0.960
10868SOL     OW33502   1.512   6.918   4.936
10868SOL    HW133503   1.435   6.965   4.980
10868SOL    HW233504   1.589   6.981   4.929
10869NA      NA33505   0.045   1.233   5.842
10870NA      NA33506   4.432   4.598   5.227
10871NA      NA33507   1.342   4.802   2.795
10872NA      NA33508   5.809   4.061   3.090
10873NA      NA33509   3.844   2.324   5.459
10874NA      NA33510   2.121   4.799   0.347
10875NA      NA33511   1.270   5.386   6.837
10876NA      NA33512   3.628   4.390   0.872
10877NA      NA33513   4.744   4.761   0.191
10878NA      NA33514   3.257   0.979   6.848
10879NA      NA33515   5.512   6.857   1.788
10880NA      NA33516   2.413   6.426   5.635
10881NA      NA33517   3.939   5.272   1.586
10882NA      NA33518   3.609   3.193   6.524
   7.01634   7.01634   7.01634
