Generated by trjconv : CNT in water t= 240.00000
33518
    1C        C    1   2.843   2.771   4.748
    1C        C    2   2.899   2.719   4.867
    1C        C    3   2.844   2.770   4.985
    1C        C    4   2.855   2.776   4.261
    1C        C    5   2.901   2.724   4.384
    1C        C    6   2.848   2.772   4.506
    1C        C    7   3.011   2.637   4.626
    1C        C    8   2.898   2.721   4.628
    1C        C    9   3.077   2.600   4.745
    1C        C   10   3.011   2.633   4.866
    1C        C   11   3.178   2.487   4.976
    1C        C   12   3.059   2.561   4.976
    1C        C   13   2.848   2.768   3.774
    1C        C   14   2.901   2.720   3.896
    1C        C   15   2.849   2.771   4.017
    1C        C   16   3.016   2.639   4.140
    1C        C   17   2.902   2.722   4.139
    1C        C   18   3.081   2.609   4.262
    1C        C   19   3.017   2.644   4.383
    1C        C   20   3.205   2.550   4.505
    1C        C   21   3.073   2.599   4.505
    1C        C   22   3.278   2.540   4.625
    1C        C   23   3.210   2.550   4.748
    1C        C   24   3.411   2.480   4.866
    1C        C   25   3.270   2.500   4.867
    1C        C   26   3.489   2.478   4.982
    1C        C   27   2.853   2.769   3.283
    1C        C   28   2.905   2.724   3.407
    1C        C   29   2.853   2.771   3.529
    1C        C   30   3.020   2.642   3.649
    1C        C   31   2.903   2.721   3.652
    1C        C   32   3.076   2.606   3.773
    1C        C   33   3.015   2.637   3.896
    1C        C   34   3.208   2.549   4.014
    1C        C   35   3.078   2.604   4.018
    1C        C   36   3.275   2.524   4.136
    1C        C   37   3.210   2.552   4.258
    1C        C   38   3.413   2.506   4.381
    1C        C   39   3.274   2.531   4.383
    1C        C   40   3.486   2.497   4.502
    1C        C   41   3.415   2.505   4.624
    1C        C   42   3.626   2.483   4.742
    1C        C   43   3.484   2.476   4.744
    1C        C   44   3.702   2.486   4.861
    1C        C   45   3.628   2.479   4.980
    1C        C   46   2.834   2.750   2.793
    1C        C   47   2.891   2.707   2.915
    1C        C   48   2.844   2.760   3.038
    1C        C   49   3.015   2.636   3.158
    1C        C   50   2.900   2.717   3.160
    1C        C   51   3.079   2.607   3.281
    1C        C   52   3.024   2.648   3.404
    1C        C   53   3.209   2.546   3.526
    1C        C   54   3.080   2.604   3.527
    1C        C   55   3.273   2.522   3.649
    1C        C   56   3.204   2.545   3.770
    1C        C   57   3.414   2.502   3.892
    1C        C   58   3.274   2.526   3.891
    1C        C   59   3.485   2.495   4.014
    1C        C   60   3.414   2.496   4.136
    1C        C   61   3.624   2.499   4.256
    1C        C   62   3.483   2.491   4.259
    1C        C   63   3.696   2.509   4.377
    1C        C   64   3.627   2.498   4.500
    1C        C   65   3.834   2.543   4.622
    1C        C   66   3.698   2.505   4.623
    1C        C   67   3.905   2.562   4.742
    1C        C   68   3.838   2.525   4.861
    1C        C   69   4.049   2.584   4.977
    1C        C   70   3.919   2.533   4.975
    1C        C   71   2.826   2.737   2.307
    1C        C   72   2.882   2.691   2.428
    1C        C   73   2.833   2.745   2.549
    1C        C   74   3.002   2.619   2.669
    1C        C   75   2.885   2.697   2.672
    1C        C   76   3.068   2.590   2.791
    1C        C   77   3.009   2.631   2.913
    1C        C   78   3.204   2.543   3.035
    1C        C   79   3.075   2.601   3.035
    1C        C   80   3.271   2.523   3.158
    1C        C   81   3.206   2.544   3.281
    1C        C   82   3.413   2.493   3.401
    1C        C   83   3.274   2.522   3.403
    1C        C   84   3.481   2.491   3.525
    1C        C   85   3.412   2.497   3.648
    1C        C   86   3.624   2.496   3.769
    1C        C   87   3.483   2.489   3.770
    1C        C   88   3.694   2.511   3.891
    1C        C   89   3.626   2.503   4.015
    1C        C   90   3.834   2.550   4.134
    1C        C   91   3.698   2.512   4.136
    1C        C   92   3.900   2.574   4.256
    1C        C   93   3.832   2.547   4.377
    1C        C   94   4.026   2.631   4.497
    1C        C   95   3.900   2.568   4.499
    1C        C   96   4.087   2.671   4.618
    1C        C   97   4.031   2.627   4.740
    1C        C   98   4.193   2.762   4.861
    1C        C   99   4.098   2.655   4.862
    1C        C  100   4.224   2.833   4.978
    1C        C  101   2.814   2.730   2.069
    1C        C  102   2.986   2.592   2.188
    1C        C  103   2.873   2.681   2.186
    1C        C  104   3.063   2.576   2.306
    1C        C  105   3.003   2.617   2.427
    1C        C  106   3.199   2.532   2.547
    1C        C  107   3.067   2.584   2.548
    1C        C  108   3.267   2.516   2.670
    1C        C  109   3.197   2.534   2.791
    1C        C  110   3.409   2.496   2.914
    1C        C  111   3.270   2.520   2.912
    1C        C  112   3.482   2.492   3.035
    1C        C  113   3.410   2.496   3.156
    1C        C  114   3.623   2.490   3.277
    1C        C  115   3.481   2.488   3.278
    1C        C  116   3.690   2.500   3.401
    1C        C  117   3.622   2.497   3.524
    1C        C  118   3.829   2.545   3.643
    1C        C  119   3.693   2.507   3.647
    1C        C  120   3.895   2.567   3.766
    1C        C  121   3.830   2.546   3.890
    1C        C  122   4.024   2.638   4.010
    1C        C  123   3.899   2.571   4.010
    1C        C  124   4.085   2.676   4.132
    1C        C  125   4.025   2.640   4.254
    1C        C  126   4.197   2.763   4.376
    1C        C  127   4.084   2.678   4.377
    1C        C  128   4.243   2.818   4.498
    1C        C  129   4.191   2.767   4.619
    1C        C  130   4.327   2.932   4.738
    1C        C  131   4.241   2.819   4.740
    1C        C  132   4.362   2.995   4.860
    1C        C  133   4.285   2.958   4.971
    1C        C  134   3.169   2.470   2.079
    1C        C  135   3.035   2.508   2.082
    1C        C  136   3.258   2.481   2.187
    1C        C  137   3.196   2.524   2.306
    1C        C  138   3.406   2.483   2.425
    1C        C  139   3.267   2.506   2.427
    1C        C  140   3.477   2.477   2.547
    1C        C  141   3.406   2.488   2.668
    1C        C  142   3.618   2.487   2.790
    1C        C  143   3.476   2.482   2.790
    1C        C  144   3.690   2.499   2.911
    1C        C  145   3.623   2.489   3.035
    1C        C  146   3.831   2.534   3.155
    1C        C  147   3.695   2.493   3.156
    1C        C  148   3.896   2.561   3.277
    1C        C  149   3.827   2.537   3.398
    1C        C  150   4.020   2.629   3.523
    1C        C  151   3.893   2.568   3.519
    1C        C  152   4.080   2.670   3.644
    1C        C  153   4.017   2.638   3.767
    1C        C  154   4.190   2.766   3.885
    1C        C  155   4.078   2.681   3.887
    1C        C  156   4.243   2.813   4.008
    1C        C  157   4.194   2.766   4.132
    1C        C  158   4.337   2.922   4.253
    1C        C  159   4.251   2.810   4.254
    1C        C  160   4.378   2.984   4.374
    1C        C  161   4.329   2.930   4.495
    1C        C  162   4.440   3.112   4.614
    1C        C  163   4.369   2.990   4.616
    1C        C  164   4.468   3.178   4.735
    1C        C  165   4.440   3.113   4.857
    1C        C  166   4.510   3.320   4.973
    1C        C  167   4.488   3.182   4.969
    1C        C  168   3.478   2.436   2.072
    1C        C  169   3.397   2.456   2.185
    1C        C  170   3.617   2.471   2.306
    1C        C  171   3.474   2.466   2.303
    1C        C  172   3.691   2.484   2.425
    1C        C  173   3.618   2.482   2.546
    1C        C  174   3.823   2.539   2.668
    1C        C  175   3.688   2.498   2.668
    1C        C  176   3.893   2.559   2.789
    1C        C  177   3.827   2.533   2.911
    1C        C  178   4.019   2.627   3.030
    1C        C  179   3.895   2.561   3.032
    1C        C  180   4.079   2.666   3.152
    1C        C  181   4.020   2.630   3.275
    1C        C  182   4.186   2.757   3.397
    1C        C  183   4.078   2.666   3.399
    1C        C  184   4.238   2.809   3.518
    1C        C  185   4.190   2.758   3.641
    1C        C  186   4.333   2.918   3.762
    1C        C  187   4.245   2.807   3.762
    1C        C  188   4.372   2.978   3.883
    1C        C  189   4.334   2.921   4.007
    1C        C  190   4.446   3.100   4.126
    1C        C  191   4.375   2.978   4.129
    1C        C  192   4.470   3.170   4.247
    1C        C  193   4.446   3.107   4.372
    1C        C  194   4.510   3.313   4.490
    1C        C  195   4.469   3.177   4.492
    1C        C  196   4.518   3.386   4.611
    1C        C  197   4.507   3.315   4.733
    1C        C  198   4.547   3.531   4.850
    1C        C  199   4.527   3.390   4.852
    1C        C  200   4.578   3.619   4.959
    1C        C  201   3.617   2.422   2.070
    1C        C  202   3.826   2.512   2.184
    1C        C  203   3.692   2.463   2.185
    1C        C  204   3.899   2.544   2.302
    1C        C  205   3.828   2.520   2.422
    1C        C  206   4.015   2.621   2.541
    1C        C  207   3.888   2.559   2.544
    1C        C  208   4.076   2.659   2.662
    1C        C  209   4.016   2.628   2.786
    1C        C  210   4.195   2.745   2.906
    1C        C  211   4.079   2.665   2.907
    1C        C  212   4.245   2.795   3.028
    1C        C  213   4.191   2.751   3.151
    1C        C  214   4.328   2.911   3.273
    1C        C  215   4.240   2.801   3.274
    1C        C  216   4.370   2.972   3.394
    1C        C  217   4.330   2.916   3.517
    1C        C  218   4.437   3.100   3.638
    1C        C  219   4.373   2.974   3.638
    1C        C  220   4.463   3.169   3.759
    1C        C  221   4.439   3.103   3.882
    1C        C  222   4.501   3.304   4.002
    1C        C  223   4.471   3.166   4.004
    1C        C  224   4.518   3.377   4.123
    1C        C  225   4.503   3.307   4.244
    1C        C  226   4.515   3.520   4.366
    1C        C  227   4.517   3.379   4.365
    1C        C  228   4.514   3.593   4.487
    1C        C  229   4.527   3.527   4.611
    1C        C  230   4.499   3.742   4.725
    1C        C  231   4.533   3.604   4.729
    1C        C  232   4.486   3.815   4.846
    1C        C  233   4.535   3.752   4.961
    1C        C  234   4.017   2.612   2.064
    1C        C  235   3.897   2.540   2.067
    1C        C  236   4.083   2.653   2.181
    1C        C  237   4.025   2.609   2.301
    1C        C  238   4.201   2.733   2.422
    1C        C  239   4.085   2.650   2.422
    1C        C  240   4.250   2.788   2.543
    1C        C  241   4.190   2.742   2.663
    1C        C  242   4.331   2.904   2.782
    1C        C  243   4.245   2.793   2.783
    1C        C  244   4.373   2.963   2.904
    1C        C  245   4.333   2.906   3.027
    1C        C  246   4.432   3.092   3.147
    1C        C  247   4.371   2.965   3.150
    1C        C  248   4.456   3.162   3.268
    1C        C  249   4.431   3.099   3.392
    1C        C  250   4.494   3.300   3.512
    1C        C  251   4.461   3.163   3.514
    1C        C  252   4.509   3.370   3.635
    1C        C  253   4.497   3.306   3.760
    1C        C  254   4.523   3.517   3.879
    1C        C  255   4.513   3.376   3.881
    1C        C  256   4.518   3.590   4.000
    1C        C  257   4.525   3.518   4.122
    1C        C  258   4.485   3.728   4.243
    1C        C  259   4.515   3.590   4.243
    1C        C  260   4.466   3.801   4.362
    1C        C  261   4.481   3.731   4.484
    1C        C  262   4.417   3.937   4.602
    1C        C  263   4.467   3.805   4.603
    1C        C  264   4.390   4.008   4.721
    1C        C  265   4.424   3.941   4.841
    1C        C  266   4.304   4.121   4.958
    1C        C  267   4.392   4.013   4.957
    1C        C  268   4.267   2.772   2.062
    1C        C  269   4.201   2.731   2.179
    1C        C  270   4.350   2.885   2.299
    1C        C  271   4.253   2.781   2.300
    1C        C  272   4.387   2.950   2.419
    1C        C  273   4.340   2.897   2.541
    1C        C  274   4.440   3.088   2.659
    1C        C  275   4.377   2.961   2.661
    1C        C  276   4.470   3.152   2.781
    1C        C  277   4.439   3.087   2.903
    1C        C  278   4.499   3.292   3.024
    1C        C  279   4.463   3.155   3.025
    1C        C  280   4.504   3.367   3.143
    1C        C  281   4.496   3.298   3.266
    1C        C  282   4.519   3.508   3.390
    1C        C  283   4.509   3.367   3.389
    1C        C  284   4.518   3.581   3.511
    1C        C  285   4.521   3.511   3.633
    1C        C  286   4.490   3.722   3.752
    1C        C  287   4.520   3.584   3.754
    1C        C  288   4.466   3.790   3.874
    1C        C  289   4.484   3.727   3.999
    1C        C  290   4.416   3.928   4.116
    1C        C  291   4.470   3.797   4.121
    1C        C  292   4.388   3.996   4.237
    1C        C  293   4.420   3.935   4.361
    1C        C  294   4.323   4.128   4.480
    1C        C  295   4.392   4.005   4.480
    1C        C  296   4.284   4.192   4.600
    1C        C  297   4.318   4.131   4.723
    1C        C  298   4.194   4.312   4.841
    1C        C  299   4.277   4.196   4.842
    1C        C  300   4.167   4.402   4.949
    1C        C  301   4.351   2.882   2.061
    1C        C  302   4.467   3.068   2.179
    1C        C  303   4.395   2.945   2.178
    1C        C  304   4.486   3.141   2.299
    1C        C  305   4.447   3.078   2.419
    1C        C  306   4.509   3.287   2.535
    1C        C  307   4.472   3.151   2.537
    1C        C  308   4.521   3.358   2.657
    1C        C  309   4.510   3.287   2.778
    1C        C  310   4.522   3.499   2.899
    1C        C  311   4.516   3.358   2.901
    1C        C  312   4.520   3.575   3.018
    1C        C  313   4.517   3.508   3.142
    1C        C  314   4.488   3.715   3.263
    1C        C  315   4.512   3.576   3.266
    1C        C  316   4.473   3.787   3.384
    1C        C  317   4.494   3.720   3.507
    1C        C  318   4.424   3.921   3.628
    1C        C  319   4.473   3.789   3.629
    1C        C  320   4.394   3.987   3.749
    1C        C  321   4.419   3.923   3.873
    1C        C  322   4.315   4.112   3.992
    1C        C  323   4.386   3.990   3.993
    1C        C  324   4.272   4.170   4.113
    1C        C  325   4.316   4.117   4.237
    1C        C  326   4.178   4.281   4.353
    1C        C  327   4.277   4.180   4.357
    1C        C  328   4.131   4.338   4.474
    1C        C  329   4.190   4.296   4.596
    1C        C  330   4.024   4.435   4.714
    1C        C  331   4.139   4.350   4.716
    1C        C  332   3.970   4.496   4.829
    1C        C  333   4.051   4.480   4.942
    1C        C  334   4.549   3.266   2.059
    1C        C  335   4.529   3.128   2.064
    1C        C  336   4.536   3.349   2.172
    1C        C  337   4.515   3.281   2.294
    1C        C  338   4.518   3.497   2.411
    1C        C  339   4.522   3.356   2.413
    1C        C  340   4.513   3.569   2.532
    1C        C  341   4.518   3.499   2.655
    1C        C  342   4.491   3.710   2.771
    1C        C  343   4.518   3.571   2.777
    1C        C  344   4.475   3.780   2.893
    1C        C  345   4.489   3.713   3.016
    1C        C  346   4.422   3.913   3.135
    1C        C  347   4.470   3.780   3.139
    1C        C  348   4.393   3.978   3.257
    1C        C  349   4.421   3.918   3.381
    1C        C  350   4.318   4.101   3.504
    1C        C  351   4.395   3.983   3.504
    1C        C  352   4.273   4.160   3.624
    1C        C  353   4.313   4.103   3.747
    1C        C  354   4.173   4.265   3.865
    1C        C  355   4.270   4.162   3.868
    1C        C  356   4.120   4.317   3.985
    1C        C  357   4.176   4.274   4.108
    1C        C  358   4.006   4.400   4.231
    1C        C  359   4.125   4.324   4.229
    1C        C  360   3.950   4.452   4.350
    1C        C  361   4.020   4.425   4.470
    1C        C  362   3.826   4.512   4.591
    1C        C  363   3.958   4.461   4.592
    1C        C  364   3.761   4.549   4.710
    1C        C  365   3.837   4.544   4.829
    1C        C  366   3.627   4.591   4.947
    1C        C  367   3.765   4.574   4.946
    1C        C  368   4.504   3.562   2.048
    1C        C  369   4.525   3.489   2.166
    1C        C  370   4.503   3.704   2.284
    1C        C  371   4.516   3.563   2.286
    1C        C  372   4.485   3.775   2.404
    1C        C  373   4.501   3.710   2.528
    1C        C  374   4.423   3.910   2.647
    1C        C  375   4.476   3.779   2.649
    1C        C  376   4.393   3.975   2.769
    1C        C  377   4.424   3.912   2.892
    1C        C  378   4.315   4.096   3.012
    1C        C  379   4.392   3.977   3.013
    1C        C  380   4.271   4.149   3.135
    1C        C  381   4.313   4.095   3.259
    1C        C  382   4.172   4.253   3.376
    1C        C  383   4.271   4.153   3.381
    1C        C  384   4.118   4.304   3.496
    1C        C  385   4.181   4.267   3.617
    1C        C  386   4.008   4.388   3.741
    1C        C  387   4.125   4.309   3.740
    1C        C  388   3.945   4.431   3.860
    1C        C  389   4.006   4.400   3.983
    1C        C  390   3.817   4.489   4.106
    1C        C  391   3.948   4.436   4.107
    1C        C  392   3.751   4.519   4.227
    1C        C  393   3.821   4.508   4.349
    1C        C  394   3.616   4.561   4.474
    1C        C  395   3.756   4.538   4.471
    1C        C  396   3.545   4.570   4.595
    1C        C  397   3.621   4.567   4.714
    1C        C  398   3.408   4.558   4.839
    1C        C  399   3.547   4.581   4.833
    1C        C  400   3.342   4.523   4.957
    1C        C  401   4.505   3.701   2.049
    1C        C  402   4.450   3.914   2.167
    1C        C  403   4.493   3.779   2.165
    1C        C  404   4.411   3.977   2.287
    1C        C  405   4.438   3.909   2.408
    1C        C  406   4.327   4.098   2.527
    1C        C  407   4.400   3.977   2.525
    1C        C  408   4.277   4.154   2.646
    1C        C  409   4.309   4.089   2.767
    1C        C  410   4.172   4.251   2.888
    1C        C  411   4.268   4.148   2.889
    1C        C  412   4.121   4.299   3.011
    1C        C  413   4.173   4.251   3.133
    1C        C  414   4.005   4.383   3.252
    1C        C  415   4.120   4.302   3.254
    1C        C  416   3.940   4.415   3.373
    1C        C  417   3.999   4.381   3.497
    1C        C  418   3.813   4.479   3.616
    1C        C  419   3.942   4.420   3.620
    1C        C  420   3.748   4.507   3.738
    1C        C  421   3.816   4.488   3.861
    1C        C  422   3.611   4.533   3.984
    1C        C  423   3.750   4.512   3.984
    1C        C  424   3.543   4.540   4.107
    1C        C  425   3.612   4.544   4.230
    1C        C  426   3.402   4.552   4.355
    1C        C  427   3.543   4.556   4.353
    1C        C  428   3.330   4.548   4.477
    1C        C  429   3.404   4.557   4.597
    1C        C  430   3.194   4.520   4.721
    1C        C  431   3.334   4.548   4.719
    1C        C  432   3.125   4.494   4.843
    1C        C  433   3.205   4.501   4.957
    1C        C  434   4.386   4.119   2.053
    1C        C  435   4.446   3.993   2.052
    1C        C  436   4.305   4.166   2.162
    1C        C  437   4.337   4.098   2.283
    1C        C  438   4.182   4.248   2.400
    1C        C  439   4.286   4.152   2.403
    1C        C  440   4.127   4.299   2.520
    1C        C  441   4.180   4.256   2.643
    1C        C  442   4.008   4.381   2.763
    1C        C  443   4.124   4.301   2.765
    1C        C  444   3.944   4.412   2.885
    1C        C  445   4.003   4.378   3.009
    1C        C  446   3.812   4.472   3.128
    1C        C  447   3.940   4.414   3.130
    1C        C  448   3.746   4.497   3.250
    1C        C  449   3.813   4.477   3.373
    1C        C  450   3.608   4.536   3.495
    1C        C  451   3.746   4.505   3.494
    1C        C  452   3.539   4.546   3.618
    1C        C  453   3.611   4.538   3.740
    1C        C  454   3.398   4.543   3.864
    1C        C  455   3.540   4.546   3.862
    1C        C  456   3.330   4.529   3.987
    1C        C  457   3.401   4.538   4.109
    1C        C  458   3.197   4.496   4.237
    1C        C  459   3.334   4.530   4.233
    1C        C  460   3.128   4.478   4.359
    1C        C  461   3.196   4.505   4.480
    1C        C  462   2.999   4.427   4.603
    1C        C  463   3.126   4.488   4.602
    1C        C  464   2.931   4.399   4.723
    1C        C  465   2.992   4.441   4.845
    1C        C  466   2.803   4.340   4.959
    1C        C  467   2.906   4.435   4.959
    1C        C  468   4.121   4.280   2.039
    1C        C  469   4.188   4.248   2.158
    1C        C  470   4.010   4.374   2.276
    1C        C  471   4.128   4.294   2.278
    1C        C  472   3.944   4.405   2.397
    1C        C  473   4.009   4.376   2.519
    1C        C  474   3.812   4.459   2.639
    1C        C  475   3.945   4.411   2.640
    1C        C  476   3.744   4.483   2.761
    1C        C  477   3.814   4.467   2.883
    1C        C  478   3.607   4.514   3.008
    1C        C  479   3.746   4.490   3.004
    1C        C  480   3.536   4.529   3.129
    1C        C  481   3.608   4.524   3.251
    1C        C  482   3.396   4.525   3.374
    1C        C  483   3.537   4.535   3.373
    1C        C  484   3.328   4.524   3.498
    1C        C  485   3.398   4.537   3.620
    1C        C  486   3.193   4.494   3.743
    1C        C  487   3.328   4.535   3.742
    1C        C  488   3.130   4.467   3.867
    1C        C  489   3.193   4.494   3.991
    1C        C  490   3.002   4.412   4.113
    1C        C  491   3.131   4.471   4.115
    1C        C  492   2.942   4.380   4.237
    1C        C  493   2.998   4.422   4.359
    1C        C  494   2.830   4.295   4.481
    1C        C  495   2.939   4.385   4.482
    1C        C  496   2.773   4.255   4.604
    1C        C  497   2.820   4.310   4.726
    1C        C  498   2.663   4.167   4.844
    1C        C  499   2.752   4.276   4.845
    1C        C  500   2.590   4.123   4.955
    1C        C  501   4.006   4.358   2.040
    1C        C  502   3.814   4.462   2.153
    1C        C  503   3.943   4.404   2.156
    1C        C  504   3.746   4.480   2.275
    1C        C  505   3.813   4.458   2.397
    1C        C  506   3.605   4.506   2.518
    1C        C  507   3.744   4.483   2.518
    1C        C  508   3.533   4.515   2.639
    1C        C  509   3.605   4.509   2.761
    1C        C  510   3.396   4.526   2.884
    1C        C  511   3.537   4.516   2.884
    1C        C  512   3.321   4.522   3.004
    1C        C  513   3.395   4.527   3.124
    1C        C  514   3.192   4.488   3.255
    1C        C  515   3.331   4.514   3.249
    1C        C  516   3.123   4.463   3.376
    1C        C  517   3.191   4.490   3.498
    1C        C  518   3.000   4.403   3.621
    1C        C  519   3.127   4.466   3.621
    1C        C  520   2.944   4.366   3.745
    1C        C  521   3.005   4.401   3.867
    1C        C  522   2.841   4.275   3.993
    1C        C  523   2.945   4.369   3.991
    1C        C  524   2.794   4.227   4.117
    1C        C  525   2.836   4.286   4.239
    1C        C  526   2.694   4.130   4.367
    1C        C  527   2.779   4.242   4.360
    1C        C  528   2.650   4.075   4.489
    1C        C  529   2.684   4.145   4.607
    1C        C  530   2.584   3.959   4.731
    1C        C  531   2.638   4.090   4.728
    1C        C  532   2.546   3.899   4.854
    1C        C  533   2.537   3.993   4.961
    1C        C  534   3.618   4.563   2.041
    1C        C  535   3.747   4.508   2.039
    1C        C  536   3.535   4.536   2.154
    1C        C  537   3.607   4.510   2.275
    1C        C  538   3.393   4.511   2.397
    1C        C  539   3.534   4.512   2.396
    1C        C  540   3.321   4.499   2.518
    1C        C  541   3.392   4.507   2.639
    1C        C  542   3.188   4.478   2.763
    1C        C  543   3.325   4.511   2.763
    1C        C  544   3.121   4.457   2.886
    1C        C  545   3.185   4.486   3.008
    1C        C  546   2.997   4.402   3.133
    1C        C  547   3.123   4.467   3.134
    1C        C  548   2.936   4.363   3.254
    1C        C  549   2.996   4.402   3.376
    1C        C  550   2.826   4.279   3.505
    1C        C  551   2.939   4.364   3.500
    1C        C  552   2.778   4.230   3.628
    1C        C  553   2.834   4.277   3.749
    1C        C  554   2.698   4.116   3.877
    1C        C  555   2.785   4.227   3.872
    1C        C  556   2.655   4.063   4.000
    1C        C  557   2.698   4.123   4.120
    1C        C  558   2.598   3.941   4.247
    1C        C  559   2.660   4.068   4.244
    1C        C  560   2.565   3.877   4.368
    1C        C  561   2.588   3.948   4.488
    1C        C  562   2.522   3.750   4.615
    1C        C  563   2.562   3.885   4.612
    1C        C  564   2.515   3.680   4.738
    1C        C  565   2.523   3.757   4.858
    1C        C  566   2.515   3.543   4.978
    1C        C  567   2.522   3.682   4.976
    1C        C  568   3.328   4.465   2.041
    1C        C  569   3.396   4.509   2.155
    1C        C  570   3.182   4.472   2.279
    1C        C  571   3.320   4.505   2.276
    1C        C  572   3.113   4.451   2.400
    1C        C  573   3.183   4.470   2.522
    1C        C  574   2.985   4.400   2.648
    1C        C  575   3.114   4.458   2.644
    1C        C  576   2.931   4.357   2.770
    1C        C  577   2.994   4.394   2.891
    1C        C  578   2.829   4.265   3.015
    1C        C  579   2.935   4.358   3.014
    1C        C  580   2.777   4.218   3.138
    1C        C  581   2.829   4.271   3.258
    1C        C  582   2.693   4.114   3.387
    1C        C  583   2.782   4.224   3.383
    1C        C  584   2.658   4.053   3.510
    1C        C  585   2.697   4.114   3.631
    1C        C  586   2.587   3.936   3.757
    1C        C  587   2.656   4.059   3.754
    1C        C  588   2.565   3.870   3.880
    1C        C  589   2.588   3.938   4.002
    1C        C  590   2.535   3.737   4.127
    1C        C  591   2.566   3.875   4.126
    1C        C  592   2.524   3.669   4.251
    1C        C  593   2.530   3.740   4.373
    1C        C  594   2.509   3.533   4.500
    1C        C  595   2.514   3.674   4.496
    1C        C  596   2.516   3.461   4.622
    1C        C  597   2.518   3.538   4.740
    1C        C  598   2.530   3.325   4.867
    1C        C  599   2.517   3.465   4.861
    1C        C  600   2.532   3.246   4.982
    1C        C  601   3.193   4.437   2.043
    1C        C  602   2.978   4.394   2.158
    1C        C  603   3.113   4.442   2.158
    1C        C  604   2.919   4.362   2.283
    1C        C  605   2.982   4.398   2.404
    1C        C  606   2.817   4.268   2.527
    1C        C  607   2.923   4.360   2.527
    1C        C  608   2.774   4.213   2.650
    1C        C  609   2.823   4.266   2.772
    1C        C  610   2.684   4.106   2.895
    1C        C  611   2.772   4.217   2.894
    1C        C  612   2.644   4.053   3.020
    1C        C  613   2.686   4.111   3.142
    1C        C  614   2.586   3.928   3.265
    1C        C  615   2.647   4.056   3.267
    1C        C  616   2.563   3.866   3.389
    1C        C  617   2.591   3.929   3.513
    1C        C  618   2.524   3.731   3.638
    1C        C  619   2.560   3.867   3.636
    1C        C  620   2.515   3.663   3.762
    1C        C  621   2.528   3.734   3.883
    1C        C  622   2.512   3.525   4.008
    1C        C  623   2.519   3.666   4.007
    1C        C  624   2.520   3.458   4.132
    1C        C  625   2.520   3.528   4.255
    1C        C  626   2.542   3.322   4.378
    1C        C  627   2.515   3.461   4.379
    1C        C  628   2.558   3.255   4.501
    1C        C  629   2.534   3.321   4.624
    1C        C  630   2.595   3.119   4.744
    1C        C  631   2.545   3.252   4.747
    1C        C  632   2.619   3.050   4.866
    1C        C  633   2.562   3.109   4.984
    1C        C  634   2.781   4.298   2.050
    1C        C  635   2.886   4.390   2.049
    1C        C  636   2.748   4.227   2.167
    1C        C  637   2.805   4.276   2.287
    1C        C  638   2.674   4.107   2.408
    1C        C  639   2.760   4.218   2.407
    1C        C  640   2.639   4.047   2.531
    1C        C  641   2.687   4.102   2.652
    1C        C  642   2.583   3.918   2.774
    1C        C  643   2.650   4.042   2.775
    1C        C  644   2.558   3.857   2.899
    1C        C  645   2.585   3.925   3.020
    1C        C  646   2.522   3.725   3.147
    1C        C  647   2.558   3.862   3.143
    1C        C  648   2.511   3.658   3.270
    1C        C  649   2.528   3.729   3.392
    1C        C  650   2.501   3.521   3.516
    1C        C  651   2.518   3.661   3.515
    1C        C  652   2.506   3.452   3.640
    1C        C  653   2.507   3.522   3.763
    1C        C  654   2.536   3.315   3.887
    1C        C  655   2.508   3.453   3.886
    1C        C  656   2.554   3.250   4.012
    1C        C  657   2.540   3.318   4.135
    1C        C  658   2.612   3.119   4.258
    1C        C  659   2.559   3.250   4.257
    1C        C  660   2.641   3.057   4.382
    1C        C  661   2.604   3.122   4.502
    1C        C  662   2.706   2.936   4.625
    1C        C  663   2.628   3.053   4.624
    1C        C  664   2.748   2.876   4.746
    1C        C  665   2.701   2.933   4.868
    1C        C  666   2.743   2.865   4.983
    1C        C  667   2.674   4.026   2.050
    1C        C  668   2.681   4.103   2.167
    1C        C  669   2.583   3.912   2.288
    1C        C  670   2.641   4.041   2.287
    1C        C  671   2.556   3.847   2.411
    1C        C  672   2.580   3.918   2.531
    1C        C  673   2.513   3.716   2.658
    1C        C  674   2.553   3.852   2.652
    1C        C  675   2.509   3.648   2.781
    1C        C  676   2.524   3.720   2.902
    1C        C  677   2.506   3.512   3.029
    1C        C  678   2.510   3.653   3.026
    1C        C  679   2.507   3.442   3.152
    1C        C  680   2.508   3.517   3.272
    1C        C  681   2.529   3.309   3.399
    1C        C  682   2.505   3.448   3.395
    1C        C  683   2.554   3.242   3.521
    1C        C  684   2.536   3.315   3.641
    1C        C  685   2.611   3.119   3.769
    1C        C  686   2.552   3.247   3.764
    1C        C  687   2.647   3.058   3.892
    1C        C  688   2.608   3.119   4.013
    1C        C  689   2.717   2.938   4.138
    1C        C  690   2.641   3.056   4.135
    1C        C  691   2.762   2.883   4.260
    1C        C  692   2.720   2.940   4.382
    1C        C  693   2.756   2.880   4.505
    1C        C  694   2.624   3.895   2.054
    1C        C  695   2.524   3.703   2.176
    1C        C  696   2.575   3.834   2.170
    1C        C  697   2.504   3.634   2.298
    1C        C  698   2.517   3.712   2.416
    1C        C  699   2.482   3.504   2.543
    1C        C  700   2.492   3.645   2.538
    1C        C  701   2.492   3.432   2.664
    1C        C  702   2.503   3.507   2.783
    1C        C  703   2.523   3.300   2.910
    1C        C  704   2.505   3.440   2.908
    1C        C  705   2.544   3.230   3.032
    1C        C  706   2.535   3.303   3.153
    1C        C  707   2.606   3.109   3.278
    1C        C  708   2.551   3.239   3.278
    1C        C  709   2.639   3.047   3.401
    1C        C  710   2.606   3.111   3.523
    1C        C  711   2.716   2.935   3.648
    1C        C  712   2.636   3.052   3.647
    1C        C  713   2.759   2.878   3.770
    1C        C  714   2.725   2.940   3.892
    1C        C  715   2.762   2.882   4.016
    1C        C  716   2.448   3.499   2.062
    1C        C  717   2.492   3.632   2.059
    1C        C  718   2.460   3.421   2.181
    1C        C  719   2.474   3.495   2.301
    1C        C  720   2.510   3.289   2.425
    1C        C  721   2.480   3.427   2.425
    1C        C  722   2.534   3.221   2.546
    1C        C  723   2.512   3.292   2.667
    1C        C  724   2.581   3.094   2.793
    1C        C  725   2.530   3.226   2.790
    1C        C  726   2.611   3.028   2.915
    1C        C  727   2.587   3.096   3.036
    1C        C  728   2.713   2.924   3.157
    1C        C  729   2.631   3.039   3.158
    1C        C  730   2.762   2.876   3.281
    1C        C  731   2.713   2.927   3.403
    1C        C  732   2.758   2.876   3.527
    1C        C  733   2.492   3.197   2.071
    1C        C  734   2.489   3.281   2.183
    1C        C  735   2.581   3.086   2.306
    1C        C  736   2.524   3.216   2.305
    1C        C  737   2.614   3.024   2.428
    1C        C  738   2.591   3.092   2.549
    1C        C  739   2.697   2.912   2.670
    1C        C  740   2.620   3.031   2.673
    1C        C  741   2.745   2.860   2.792
    1C        C  742   2.699   2.918   2.912
    1C        C  743   2.751   2.867   3.033
    1C        C  744   2.546   3.069   2.073
    1C        C  745   2.682   2.895   2.188
    1C        C  746   2.609   3.016   2.186
    1C        C  747   2.726   2.839   2.309
    1C        C  748   2.687   2.903   2.429
    1C        C  749   2.739   2.851   2.550
    1C        C  750   2.728   2.839   2.068
    1C        C  751   3.664   2.313   1.981
    1C        O  752   3.657   2.191   2.012
    1C        O  753   3.674   2.338   1.843
    1C        C  754   4.645   3.054   2.008
    1C        O  755   4.669   3.053   1.885
    1C        O  756   4.751   3.009   2.087
    1C        C  757   4.399   4.200   1.930
    1C        O  758   4.491   4.282   1.904
    1C        O  759   4.364   4.138   1.809
    1C        C  760   3.589   4.658   1.931
    1C        O  761   3.641   4.773   1.938
    1C        O  762   3.548   4.613   1.805
    1C        C  763   2.883   4.495   1.945
    1C        O  764   2.930   4.478   1.830
    1C        O  765   2.797   4.605   1.962
    1C        C  766   2.372   3.464   1.940
    1C        O  767   2.427   3.434   1.830
    1C        O  768   2.243   3.412   1.936
    1C        C  769   4.686   3.593   5.057
    1C        O  770   4.673   3.591   5.183
    1C        O  771   4.809   3.542   5.014
    1C        C  772   4.259   4.440   5.058
    1C        O  773   4.209   4.461   5.172
    1C        O  774   4.369   4.527   5.050
    1C        C  775   4.141   2.496   5.053
    1C        O  776   4.196   2.392   5.007
    1C        O  777   4.174   2.531   5.184
    1C        C  778   2.877   4.548   5.049
    1C        O  779   2.818   4.652   5.008
    1C        O  780   2.927   4.554   5.180
    1C        C  781   2.472   3.027   5.068
    1C        O  782   2.358   3.001   5.021
    1C        O  783   2.479   3.023   5.206
    1C        C  784   2.426   3.984   5.059
    1C        O  785   2.305   4.001   5.028
    1C        O  786   2.448   3.981   5.198
    1C        C  787   2.952   2.424   1.994
    1C        O  788   2.952   2.434   1.868
    1C        O  789   2.887   2.304   2.024
    1C        C  790   3.192   2.378   5.075
    1C        O  791   3.194   2.254   5.052
    1C        O  792   3.224   2.410   5.208
    1C        H  793   4.245   3.039   5.029
    1C        H  794   4.252   2.777   5.064
    1C        H  795   4.470   3.141   5.066
    1C        H  796   4.464   3.367   5.057
    1C        H  797   4.519   3.801   5.055
    1C        H  798   4.468   4.008   5.033
    1C        H  799   4.249   4.141   5.047
    1C        H  800   4.017   4.526   5.033
    1C        H  801   3.819   4.626   5.023
    1C        H  802   3.584   4.634   5.035
    1C        H  803   3.399   4.482   5.038
    1C        H  804   3.162   4.508   5.055
    1C        H  805   3.895   2.477   5.063
    1C        H  806   3.676   2.443   5.069
    1C        H  807   2.995   2.548   5.060
    1C        H  808   3.445   2.428   5.066
    1C        H  809   2.855   2.712   5.074
    1C        H  810   2.669   2.872   5.061
    1C        H  811   2.532   3.289   5.080
    1C        H  812   2.492   3.496   5.071
    1C        H  813   2.550   3.725   5.070
    1C        H  814   2.535   4.197   5.009
    1C        H  815   2.811   4.279   5.046
    1C        H  816   2.707   2.885   1.974
    1C        H  817   2.808   2.672   1.979
    1C        H  818   3.205   2.422   1.990
    1C        H  819   3.438   2.475   1.981
    1C        H  820   3.845   2.517   1.977
    1C        H  821   4.077   2.589   1.979
    1C        H  822   4.304   2.690   2.003
    1C        H  823   4.413   2.895   1.974
    1C        H  824   4.603   3.313   1.979
    1C        H  825   4.473   3.510   1.960
    1C        H  826   4.543   3.747   1.960
    1C        H  827   3.807   4.535   1.955
    1C        H  828   3.952   4.351   1.947
    1C        H  829   4.134   4.216   1.954
    1C        H  830   4.520   3.974   1.976
    1C        H  831   2.666   3.829   1.982
    1C        H  832   2.734   4.048   1.964
    1C        H  833   2.703   4.298   1.977
    1C        H  834   3.383   4.436   1.953
    1C        H  835   3.144   4.437   1.948
    1C        H  836   2.522   3.008   1.988
    1C        H  837   2.437   3.227   1.984
    1C        H  838   2.519   3.672   1.963
    2V3OU   H29  839   2.807   3.553   2.474
    2V3OU   C27  840   2.785   3.500   2.570
    2V3OU   H27  841   2.725   3.567   2.637
    2V3OU   H28  842   2.732   3.402   2.559
    2V3OU   O11  843   2.910   3.480   2.635
    2V3OU   C15  844   2.928   3.399   2.745
    2V3OU   C13  845   3.052   3.376   2.808
    2V3OU   C14  846   3.076   3.270   2.897
    2V3OU   C16  847   2.975   3.186   2.942
    2V3OU    H6  848   2.988   3.104   3.014
    2V3OU   C12  849   3.211   3.228   2.941
    2V3OU    O2  850   3.234   3.122   3.002
    2V3OU   C10  851   3.323   3.308   2.888
    2V3OU    C8  852   3.454   3.267   2.908
    2V3OU   O10  853   3.487   3.155   2.978
    2V3OU   H26  854   3.401   3.111   2.987
    2V3OU    C6  855   3.564   3.346   2.862
    2V3OU    C5  856   3.536   3.465   2.796
    2V3OU    C4  857   3.704   3.293   2.866
    2V3OU    H4  858   3.721   3.228   2.956
    2V3OU    H5  859   3.706   3.231   2.772
    2V3OU    C2  860   3.814   3.400   2.859
    2V3OU    O6  861   3.805   3.467   2.985
    2V3OU   H21  862   3.762   3.552   2.969
    2V3OU    C3  863   3.780   3.496   2.745
    2V3OU    H2  864   3.859   3.575   2.736
    2V3OU    H3  865   3.781   3.436   2.651
    2V3OU   C25  866   3.949   3.330   2.841
    2V3OU    O7  867   4.002   3.299   2.735
    2V3OU   C26  868   4.026   3.290   2.967
    2V3OU   H22  869   4.063   3.383   3.017
    2V3OU   H23  870   4.116   3.231   2.937
    2V3OU    O8  871   3.959   3.213   3.064
    2V3OU   H24  872   3.930   3.270   3.137
    2V3OU    C1  873   3.644   3.562   2.759
    2V3OU    H1  874   3.623   3.618   2.663
    2V3OU    O3  875   3.655   3.657   2.866
    2V3OU   C19  876   3.616   3.793   2.846
    2V3OU    H9  877   3.517   3.803   2.792
    2V3OU    O4  878   3.715   3.840   2.758
    2V3OU   C20  879   3.842   3.874   2.815
    2V3OU   H10  880   3.888   3.773   2.838
    2V3OU   C24  881   3.611   3.858   2.985
    2V3OU   H16  882   3.551   3.792   3.053
    2V3OU   H17  883   3.563   3.958   2.972
    2V3OU   C23  884   3.747   3.874   3.052
    2V3OU   H15  885   3.790   3.770   3.070
    2V3OU    N1  886   3.736   3.955   3.171
    2V3OU   H19  887   3.802   3.922   3.239
    2V3OU   H20  888   3.648   3.930   3.211
    2V3OU   C21  889   3.840   3.947   2.949
    2V3OU   H11  890   3.945   3.921   2.980
    2V3OU    O5  891   3.825   4.089   2.946
    2V3OU   H18  892   3.782   4.110   3.030
    2V3OU   C22  893   3.914   3.946   2.703
    2V3OU   H12  894   3.865   4.045   2.685
    2V3OU   H13  895   3.910   3.888   2.608
    2V3OU   H14  896   4.024   3.950   2.724
    2V3OU   C11  897   3.159   3.474   2.784
    2V3OU    O1  898   3.127   3.588   2.744
    2V3OU    C9  899   3.296   3.424   2.810
    2V3OU    C7  900   3.401   3.502   2.764
    2V3OU    O9  901   3.388   3.609   2.678
    2V3OU   H25  902   3.296   3.628   2.652
    2V3OU   C17  903   2.827   3.311   2.792
    2V3OU    H7  904   2.726   3.347   2.773
    2V3OU   C18  905   2.849   3.215   2.890
    2V3OU    H8  906   2.778   3.170   2.960
    3SOL     OW  907   2.524   5.105   0.258
    3SOL    HW1  908   2.472   5.136   0.338
    3SOL    HW2  909   2.608   5.060   0.289
    4SOL     OW  910   0.069   6.861   2.102
    4SOL    HW1  911   0.053   6.916   2.020
    4SOL    HW2  912   7.005   6.812   2.126
    5SOL     OW  913   4.232   1.764   2.978
    5SOL    HW1  914   4.235   1.665   2.988
    5SOL    HW2  915   4.325   1.801   2.985
    6SOL     OW  916   4.137   1.143   1.905
    6SOL    HW1  917   4.166   1.187   1.820
    6SOL    HW2  918   4.194   1.174   1.981
    7SOL     OW  919   7.013   3.382   2.761
    7SOL    HW1  920   0.039   3.387   2.674
    7SOL    HW2  921   0.054   3.347   2.831
    8SOL     OW  922   3.507   0.602   0.143
    8SOL    HW1  923   3.412   0.587   0.117
    8SOL    HW2  924   3.534   0.534   0.212
    9SOL     OW  925   5.203   0.938   5.821
    9SOL    HW1  926   5.134   0.922   5.891
    9SOL    HW2  927   5.198   0.865   5.752
   10SOL     OW  928   1.668   4.928   6.142
   10SOL    HW1  929   1.684   4.956   6.236
   10SOL    HW2  930   1.570   4.931   6.123
   11SOL     OW  931   2.876   0.042   5.943
   11SOL    HW1  932   2.898   6.974   5.984
   11SOL    HW2  933   2.961   0.088   5.917
   12SOL     OW  934   3.450   5.845   3.453
   12SOL    HW1  935   3.460   5.872   3.357
   12SOL    HW2  936   3.511   5.901   3.510
   13SOL     OW  937   3.942   6.398   4.317
   13SOL    HW1  938   3.957   6.432   4.225
   13SOL    HW2  939   4.021   6.421   4.375
   14SOL     OW  940   3.783   5.761   5.787
   14SOL    HW1  941   3.740   5.756   5.697
   14SOL    HW2  942   3.850   5.687   5.796
   15SOL     OW  943   1.178   6.610   2.055
   15SOL    HW1  944   1.147   6.703   2.034
   15SOL    HW2  945   1.176   6.554   1.972
   16SOL     OW  946   5.068   2.531   6.003
   16SOL    HW1  947   5.086   2.629   6.009
   16SOL    HW2  948   4.972   2.516   5.980
   17SOL     OW  949   5.407   6.697   6.154
   17SOL    HW1  950   5.381   6.708   6.250
   17SOL    HW2  951   5.487   6.755   6.135
   18SOL     OW  952   3.181   0.811   5.607
   18SOL    HW1  953   3.094   0.837   5.564
   18SOL    HW2  954   3.188   0.712   5.612
   19SOL     OW  955   0.304   1.914   2.994
   19SOL    HW1  956   0.248   1.836   2.966
   19SOL    HW2  957   0.342   1.958   2.912
   20SOL     OW  958   5.129   1.721   3.920
   20SOL    HW1  959   5.061   1.648   3.922
   20SOL    HW2  960   5.220   1.681   3.904
   21SOL     OW  961   3.256   1.342   2.736
   21SOL    HW1  962   3.257   1.242   2.730
   21SOL    HW2  963   3.313   1.371   2.814
   22SOL     OW  964   2.475   6.726   6.915
   22SOL    HW1  965   2.468   6.761   6.822
   22SOL    HW2  966   2.537   6.647   6.916
   23SOL     OW  967   5.541   5.631   3.332
   23SOL    HW1  968   5.594   5.584   3.262
   23SOL    HW2  969   5.448   5.649   3.298
   24SOL     OW  970   4.347   0.153   3.241
   24SOL    HW1  971   4.391   0.202   3.316
   24SOL    HW2  972   4.254   0.187   3.230
   25SOL     OW  973   2.901   0.753   4.842
   25SOL    HW1  974   2.976   0.746   4.777
   25SOL    HW2  975   2.936   0.746   4.935
   26SOL     OW  976   0.530   0.725   0.392
   26SOL    HW1  977   0.435   0.730   0.423
   26SOL    HW2  978   0.586   0.787   0.447
   27SOL     OW  979   1.312   2.407   2.448
   27SOL    HW1  980   1.272   2.362   2.369
   27SOL    HW2  981   1.259   2.488   2.471
   28SOL     OW  982   3.017   1.724   5.872
   28SOL    HW1  983   2.970   1.741   5.959
   28SOL    HW2  984   2.949   1.706   5.801
   29SOL     OW  985   6.074   1.587   1.994
   29SOL    HW1  986   6.072   1.687   1.992
   29SOL    HW2  987   6.168   1.555   1.983
   30SOL     OW  988   4.143   0.793   3.832
   30SOL    HW1  989   4.102   0.703   3.841
   30SOL    HW2  990   4.175   0.825   3.921
   31SOL     OW  991   0.954   2.812   6.253
   31SOL    HW1  992   0.878   2.832   6.314
   31SOL    HW2  993   0.919   2.789   6.162
   32SOL     OW  994   0.701   1.721   2.626
   32SOL    HW1  995   0.649   1.671   2.696
   32SOL    HW2  996   0.702   1.667   2.542
   33SOL     OW  997   1.211   4.753   5.843
   33SOL    HW1  998   1.239   4.663   5.808
   33SOL    HW2  999   1.283   4.820   5.824
   34SOL     OW 1000   2.882   0.194   4.266
   34SOL    HW1 1001   2.930   0.260   4.208
   34SOL    HW2 1002   2.784   0.213   4.264
   35SOL     OW 1003   3.694   3.990   6.734
   35SOL    HW1 1004   3.623   4.045   6.688
   35SOL    HW2 1005   3.691   3.896   6.700
   36SOL     OW 1006   5.893   1.480   4.689
   36SOL    HW1 1007   5.952   1.401   4.672
   36SOL    HW2 1008   5.933   1.561   4.647
   37SOL     OW 1009   1.340   2.143   0.436
   37SOL    HW1 1010   1.386   2.061   0.471
   37SOL    HW2 1011   1.329   2.135   0.337
   38SOL     OW 1012   0.291   5.147   2.039
   38SOL    HW1 1013   0.341   5.232   2.056
   38SOL    HW2 1014   0.260   5.108   2.126
   39SOL     OW 1015   6.781   4.371   6.580
   39SOL    HW1 1016   6.737   4.451   6.539
   39SOL    HW2 1017   6.725   4.290   6.562
   40SOL     OW 1018   5.419   1.889   0.314
   40SOL    HW1 1019   5.366   1.814   0.353
   40SOL    HW2 1020   5.383   1.913   0.224
   41SOL     OW 1021   6.711   5.056   3.153
   41SOL    HW1 1022   6.663   5.128   3.102
   41SOL    HW2 1023   6.644   4.996   3.196
   42SOL     OW 1024   2.646   5.517   4.759
   42SOL    HW1 1025   2.599   5.565   4.685
   42SOL    HW2 1026   2.717   5.457   4.721
   43SOL     OW 1027   5.106   0.044   5.685
   43SOL    HW1 1028   5.129   0.015   5.778
   43SOL    HW2 1029   5.173   0.004   5.622
   44SOL     OW 1030   4.283   1.351   5.973
   44SOL    HW1 1031   4.280   1.380   6.069
   44SOL    HW2 1032   4.364   1.390   5.930
   45SOL     OW 1033   4.252   5.929   2.382
   45SOL    HW1 1034   4.174   5.868   2.366
   45SOL    HW2 1035   4.307   5.936   2.298
   46SOL     OW 1036   0.388   3.025   2.743
   46SOL    HW1 1037   0.465   3.085   2.764
   46SOL    HW2 1038   0.320   3.031   2.816
   47SOL     OW 1039   4.961   3.936   1.070
   47SOL    HW1 1040   5.020   3.856   1.083
   47SOL    HW2 1041   4.991   3.987   0.990
   48SOL     OW 1042   6.691   3.365   5.486
   48SOL    HW1 1043   6.704   3.438   5.553
   48SOL    HW2 1044   6.595   3.363   5.457
   49SOL     OW 1045   4.733   3.820   1.801
   49SOL    HW1 1046   4.800   3.846   1.870
   49SOL    HW2 1047   4.667   3.894   1.789
   50SOL     OW 1048   5.698   1.216   5.303
   50SOL    HW1 1049   5.609   1.259   5.322
   50SOL    HW2 1050   5.748   1.271   5.237
   51SOL     OW 1051   2.363   6.345   3.021
   51SOL    HW1 1052   2.267   6.358   2.999
   51SOL    HW2 1053   2.378   6.361   3.119
   52SOL     OW 1054   6.012   3.392   2.839
   52SOL    HW1 1055   6.111   3.386   2.848
   52SOL    HW2 1056   5.982   3.483   2.867
   53SOL     OW 1057   3.585   6.408   3.758
   53SOL    HW1 1058   3.550   6.380   3.847
   53SOL    HW2 1059   3.575   6.507   3.748
   54SOL     OW 1060   3.848   4.671   1.134
   54SOL    HW1 1061   3.871   4.758   1.178
   54SOL    HW2 1062   3.922   4.606   1.149
   55SOL     OW 1063   2.337   2.938   6.320
   55SOL    HW1 1064   2.383   2.997   6.386
   55SOL    HW2 1065   2.246   2.913   6.356
   56SOL     OW 1066   0.138   0.567   1.359
   56SOL    HW1 1067   0.212   0.612   1.309
   56SOL    HW2 1068   0.129   0.607   1.450
   57SOL     OW 1069   4.537   1.225   1.801
   57SOL    HW1 1070   4.630   1.236   1.766
   57SOL    HW2 1071   4.531   1.138   1.850
   58SOL     OW 1072   0.209   6.530   5.708
   58SOL    HW1 1073   0.201   6.617   5.758
   58SOL    HW2 1074   0.259   6.464   5.764
   59SOL     OW 1075   1.439   2.486   5.613
   59SOL    HW1 1076   1.366   2.540   5.655
   59SOL    HW2 1077   1.413   2.463   5.519
   60SOL     OW 1078   5.356   2.557   4.711
   60SOL    HW1 1079   5.394   2.536   4.620
   60SOL    HW2 1080   5.385   2.487   4.776
   61SOL     OW 1081   6.687   2.196   4.543
   61SOL    HW1 1082   6.674   2.129   4.616
   61SOL    HW2 1083   6.628   2.173   4.466
   62SOL     OW 1084   1.312   1.341   1.728
   62SOL    HW1 1085   1.259   1.298   1.655
   62SOL    HW2 1086   1.307   1.440   1.721
   63SOL     OW 1087   5.626   1.074   3.605
   63SOL    HW1 1088   5.598   1.093   3.511
   63SOL    HW2 1089   5.674   0.986   3.609
   64SOL     OW 1090   0.118   3.592   5.848
   64SOL    HW1 1091   0.202   3.585   5.793
   64SOL    HW2 1092   0.066   3.507   5.838
   65SOL     OW 1093   0.729   5.095   6.655
   65SOL    HW1 1094   0.675   5.020   6.694
   65SOL    HW2 1095   0.676   5.138   6.582
   66SOL     OW 1096   4.390   1.189   5.378
   66SOL    HW1 1097   4.488   1.204   5.366
   66SOL    HW2 1098   4.349   1.164   5.291
   67SOL     OW 1099   5.760   3.705   5.858
   67SOL    HW1 1100   5.852   3.688   5.892
   67SOL    HW2 1101   5.701   3.627   5.883
   68SOL     OW 1102   6.272   0.796   6.620
   68SOL    HW1 1103   6.183   0.752   6.619
   68SOL    HW2 1104   6.340   0.735   6.661
   69SOL     OW 1105   0.976   3.766   6.307
   69SOL    HW1 1106   0.909   3.840   6.312
   69SOL    HW2 1107   1.037   3.771   6.387
   70SOL     OW 1108   5.459   4.252   5.093
   70SOL    HW1 1109   5.388   4.245   5.163
   70SOL    HW2 1110   5.520   4.328   5.114
   71SOL     OW 1111   4.303   1.529   3.962
   71SOL    HW1 1112   4.214   1.485   3.963
   71SOL    HW2 1113   4.300   1.611   4.019
   72SOL     OW 1114   1.981   0.085   4.044
   72SOL    HW1 1115   1.955   0.106   4.138
   72SOL    HW2 1116   1.931   0.144   3.981
   73SOL     OW 1117   3.526   0.942   1.211
   73SOL    HW1 1118   3.529   0.854   1.257
   73SOL    HW2 1119   3.538   1.015   1.278
   74SOL     OW 1120   4.151   0.355   0.214
   74SOL    HW1 1121   4.068   0.301   0.202
   74SOL    HW2 1122   4.136   0.448   0.180
   75SOL     OW 1123   4.677   0.656   0.947
   75SOL    HW1 1124   4.709   0.744   0.983
   75SOL    HW2 1125   4.580   0.662   0.926
   76SOL     OW 1126   2.823   3.377   1.522
   76SOL    HW1 1127   2.898   3.318   1.554
   76SOL    HW2 1128   2.738   3.325   1.522
   77SOL     OW 1129   0.487   6.942   3.530
   77SOL    HW1 1130   0.412   6.995   3.570
   77SOL    HW2 1131   0.565   6.944   3.592
   78SOL     OW 1132   5.796   1.455   0.316
   78SOL    HW1 1133   5.703   1.437   0.284
   78SOL    HW2 1134   5.831   1.374   0.363
   79SOL     OW 1135   3.097   6.015   0.954
   79SOL    HW1 1136   3.025   5.956   0.992
   79SOL    HW2 1137   3.180   6.005   1.008
   80SOL     OW 1138   4.882   1.265   4.613
   80SOL    HW1 1139   4.897   1.312   4.700
   80SOL    HW2 1140   4.834   1.179   4.629
   81SOL     OW 1141   2.119   0.124   2.323
   81SOL    HW1 1142   2.034   0.071   2.322
   81SOL    HW2 1143   2.191   0.072   2.278
   82SOL     OW 1144   5.854   4.716   0.770
   82SOL    HW1 1145   5.839   4.692   0.674
   82SOL    HW2 1146   5.952   4.709   0.791
   83SOL     OW 1147   0.668   0.353   0.243
   83SOL    HW1 1148   0.696   0.449   0.242
   83SOL    HW2 1149   0.750   0.295   0.251
   84SOL     OW 1150   6.502   2.855   3.473
   84SOL    HW1 1151   6.537   2.770   3.513
   84SOL    HW2 1152   6.551   2.933   3.512
   85SOL     OW 1153   1.670   1.109   4.108
   85SOL    HW1 1154   1.757   1.061   4.120
   85SOL    HW2 1155   1.664   1.144   4.015
   86SOL     OW 1156   0.669   1.623   5.965
   86SOL    HW1 1157   0.607   1.619   5.887
   86SOL    HW2 1158   0.617   1.612   6.050
   87SOL     OW 1159   4.634   4.233   1.033
   87SOL    HW1 1160   4.682   4.321   1.038
   87SOL    HW2 1161   4.675   4.170   1.099
   88SOL     OW 1162   3.481   1.744   5.916
   88SOL    HW1 1163   3.570   1.786   5.903
   88SOL    HW2 1164   3.424   1.757   5.835
   89SOL     OW 1165   2.141   2.654   5.825
   89SOL    HW1 1166   2.183   2.697   5.905
   89SOL    HW2 1167   2.050   2.620   5.849
   90SOL     OW 1168   4.227   5.199   2.484
   90SOL    HW1 1169   4.177   5.152   2.411
   90SOL    HW2 1170   4.273   5.131   2.541
   91SOL     OW 1171   5.844   4.151   5.831
   91SOL    HW1 1172   5.782   4.121   5.758
   91SOL    HW2 1173   5.936   4.163   5.793
   92SOL     OW 1174   4.173   4.641   0.869
   92SOL    HW1 1175   4.248   4.576   0.866
   92SOL    HW2 1176   4.170   4.686   0.958
   93SOL     OW 1177   3.156   3.627   0.451
   93SOL    HW1 1178   3.186   3.532   0.439
   93SOL    HW2 1179   3.077   3.630   0.512
   94SOL     OW 1180   1.990   6.071   6.009
   94SOL    HW1 1181   1.931   6.029   5.940
   94SOL    HW2 1182   2.071   6.014   6.022
   95SOL     OW 1183   0.828   0.451   2.966
   95SOL    HW1 1184   0.816   0.537   2.916
   95SOL    HW2 1185   0.908   0.458   3.025
   96SOL     OW 1186   3.387   0.505   4.865
   96SOL    HW1 1187   3.436   0.439   4.921
   96SOL    HW2 1188   3.310   0.460   4.819
   97SOL     OW 1189   2.462   3.359   6.156
   97SOL    HW1 1190   2.397   3.289   6.127
   97SOL    HW2 1191   2.428   3.449   6.129
   98SOL     OW 1192   0.620   3.681   0.771
   98SOL    HW1 1193   0.596   3.600   0.825
   98SOL    HW2 1194   0.583   3.763   0.815
   99SOL     OW 1195   3.573   2.387   1.471
   99SOL    HW1 1196   3.510   2.456   1.436
   99SOL    HW2 1197   3.543   2.357   1.561
  100SOL     OW 1198   0.811   6.847   5.077
  100SOL    HW1 1199   0.753   6.787   5.021
  100SOL    HW2 1200   0.763   6.870   5.161
  101SOL     OW 1201   1.720   5.134   2.552
  101SOL    HW1 1202   1.716   5.182   2.464
  101SOL    HW2 1203   1.671   5.187   2.621
  102SOL     OW 1204   3.832   5.484   1.472
  102SOL    HW1 1205   3.802   5.393   1.501
  102SOL    HW2 1206   3.914   5.476   1.416
  103SOL     OW 1207   2.223   2.165   1.590
  103SOL    HW1 1208   2.319   2.189   1.603
  103SOL    HW2 1209   2.172   2.247   1.562
  104SOL     OW 1210   1.550   5.759   2.660
  104SOL    HW1 1211   1.587   5.710   2.740
  104SOL    HW2 1212   1.567   5.706   2.578
  105SOL     OW 1213   6.755   1.097   5.978
  105SOL    HW1 1214   6.821   1.065   5.910
  105SOL    HW2 1215   6.798   1.166   6.037
  106SOL     OW 1216   3.716   6.291   4.717
  106SOL    HW1 1217   3.622   6.313   4.690
  106SOL    HW2 1218   3.715   6.243   4.805
  107SOL     OW 1219   1.106   0.896   0.907
  107SOL    HW1 1220   1.062   0.913   0.995
  107SOL    HW2 1221   1.061   0.820   0.861
  108SOL     OW 1222   2.588   6.684   5.734
  108SOL    HW1 1223   2.603   6.599   5.685
  108SOL    HW2 1224   2.510   6.732   5.695
  109SOL     OW 1225   0.861   1.195   2.300
  109SOL    HW1 1226   0.792   1.136   2.260
  109SOL    HW2 1227   0.913   1.144   2.369
  110SOL     OW 1228   3.073   5.813   3.739
  110SOL    HW1 1229   3.027   5.725   3.750
  110SOL    HW2 1230   3.078   5.859   3.828
  111SOL     OW 1231   1.305   1.104   4.247
  111SOL    HW1 1232   1.266   1.073   4.334
  111SOL    HW2 1233   1.402   1.122   4.259
  112SOL     OW 1234   3.517   6.356   6.190
  112SOL    HW1 1235   3.490   6.276   6.137
  112SOL    HW2 1236   3.582   6.328   6.261
  113SOL     OW 1237   0.550   5.510   2.689
  113SOL    HW1 1238   0.560   5.443   2.763
  113SOL    HW2 1239   0.613   5.586   2.704
  114SOL     OW 1240   1.411   0.133   2.316
  114SOL    HW1 1241   1.509   0.113   2.312
  114SOL    HW2 1242   1.360   0.047   2.321
  115SOL     OW 1243   4.861   1.645   3.455
  115SOL    HW1 1244   4.925   1.611   3.387
  115SOL    HW2 1245   4.908   1.662   3.541
  116SOL     OW 1246   6.086   5.732   2.028
  116SOL    HW1 1247   5.993   5.697   2.025
  116SOL    HW2 1248   6.086   5.823   2.071
  117SOL     OW 1249   1.723   1.971   0.618
  117SOL    HW1 1250   1.716   2.070   0.609
  117SOL    HW2 1251   1.644   1.928   0.575
  118SOL     OW 1252   1.799   0.765   2.327
  118SOL    HW1 1253   1.744   0.712   2.262
  118SOL    HW2 1254   1.745   0.843   2.360
  119SOL     OW 1255   0.768   0.124   0.051
  119SOL    HW1 1256   0.699   0.055   0.071
  119SOL    HW2 1257   0.859   0.083   0.057
  120SOL     OW 1258   5.777   0.211   6.343
  120SOL    HW1 1259   5.783   0.153   6.262
  120SOL    HW2 1260   5.786   0.155   6.425
  121SOL     OW 1261   1.776   3.375   6.021
  121SOL    HW1 1262   1.857   3.387   5.963
  121SOL    HW2 1263   1.761   3.458   6.075
  122SOL     OW 1264   1.521   3.743   6.518
  122SOL    HW1 1265   1.558   3.816   6.575
  122SOL    HW2 1266   1.533   3.767   6.421
  123SOL     OW 1267   0.492   1.283   2.771
  123SOL    HW1 1268   0.485   1.246   2.864
  123SOL    HW2 1269   0.588   1.292   2.745
  124SOL     OW 1270   3.566   2.736   0.415
  124SOL    HW1 1271   3.638   2.668   0.428
  124SOL    HW2 1272   3.477   2.691   0.411
  125SOL     OW 1273   3.525   1.637   0.852
  125SOL    HW1 1274   3.574   1.721   0.828
  125SOL    HW2 1275   3.571   1.594   0.930
  126SOL     OW 1276   1.837   4.425   0.586
  126SOL    HW1 1277   1.874   4.392   0.673
  126SOL    HW2 1278   1.744   4.392   0.574
  127SOL     OW 1279   0.870   4.874   6.761
  127SOL    HW1 1280   0.861   4.821   6.677
  127SOL    HW2 1281   0.836   4.967   6.745
  128SOL     OW 1282   4.980   2.387   1.383
  128SOL    HW1 1283   4.967   2.310   1.321
  128SOL    HW2 1284   4.906   2.387   1.451
  129SOL     OW 1285   3.017   3.679   6.330
  129SOL    HW1 1286   3.021   3.728   6.417
  129SOL    HW2 1287   3.006   3.581   6.348
  130SOL     OW 1288   1.205   1.915   4.589
  130SOL    HW1 1289   1.168   1.871   4.507
  130SOL    HW2 1290   1.266   1.989   4.562
  131SOL     OW 1291   4.768   0.818   3.283
  131SOL    HW1 1292   4.784   0.858   3.373
  131SOL    HW2 1293   4.689   0.861   3.240
  132SOL     OW 1294   2.821   3.160   1.830
  132SOL    HW1 1295   2.818   3.086   1.763
  132SOL    HW2 1296   2.886   3.136   1.902
  133SOL     OW 1297   5.180   1.233   4.170
  133SOL    HW1 1298   5.271   1.202   4.199
  133SOL    HW2 1299   5.186   1.275   4.079
  134SOL     OW 1300   6.736   0.960   2.695
  134SOL    HW1 1301   6.755   0.874   2.647
  134SOL    HW2 1302   6.641   0.959   2.726
  135SOL     OW 1303   5.548   3.821   3.761
  135SOL    HW1 1304   5.597   3.734   3.767
  135SOL    HW2 1305   5.602   3.893   3.804
  136SOL     OW 1306   1.987   5.373   5.299
  136SOL    HW1 1307   2.044   5.429   5.239
  136SOL    HW2 1308   1.942   5.432   5.366
  137SOL     OW 1309   5.657   1.450   3.262
  137SOL    HW1 1310   5.689   1.358   3.283
  137SOL    HW2 1311   5.558   1.448   3.246
  138SOL     OW 1312   1.267   4.197   2.525
  138SOL    HW1 1313   1.354   4.229   2.562
  138SOL    HW2 1314   1.281   4.113   2.473
  139SOL     OW 1315   1.553   6.897   5.292
  139SOL    HW1 1316   1.592   6.951   5.367
  139SOL    HW2 1317   1.583   6.935   5.204
  140SOL     OW 1318   1.055   6.895   3.558
  140SOL    HW1 1319   0.968   6.887   3.510
  140SOL    HW2 1320   1.046   6.958   3.635
  141SOL     OW 1321   0.338   2.623   5.153
  141SOL    HW1 1322   0.266   2.685   5.184
  141SOL    HW2 1323   0.356   2.555   5.224
  142SOL     OW 1324   1.127   4.085   1.267
  142SOL    HW1 1325   1.177   4.000   1.248
  142SOL    HW2 1326   1.119   4.097   1.366
  143SOL     OW 1327   5.381   4.121   0.709
  143SOL    HW1 1328   5.473   4.094   0.679
  143SOL    HW2 1329   5.340   4.181   0.641
  144SOL     OW 1330   1.172   4.916   6.073
  144SOL    HW1 1331   1.186   4.885   5.979
  144SOL    HW2 1332   1.252   4.893   6.129
  145SOL     OW 1333   0.607   5.515   0.974
  145SOL    HW1 1334   0.663   5.440   0.938
  145SOL    HW2 1335   0.524   5.525   0.920
  146SOL     OW 1336   4.484   0.956   6.050
  146SOL    HW1 1337   4.386   0.971   6.064
  146SOL    HW2 1338   4.500   0.861   6.024
  147SOL     OW 1339   5.278   3.263   6.486
  147SOL    HW1 1340   5.220   3.238   6.564
  147SOL    HW2 1341   5.347   3.192   6.472
  148SOL     OW 1342   6.889   5.598   1.075
  148SOL    HW1 1343   6.861   5.626   1.167
  148SOL    HW2 1344   6.851   5.507   1.055
  149SOL     OW 1345   4.101   2.238   3.869
  149SOL    HW1 1346   4.167   2.300   3.827
  149SOL    HW2 1347   4.083   2.266   3.963
  150SOL     OW 1348   5.867   6.996   0.512
  150SOL    HW1 1349   5.810   6.916   0.490
  150SOL    HW2 1350   5.909   0.009   0.428
  151SOL     OW 1351   3.259   1.814   1.358
  151SOL    HW1 1352   3.291   1.722   1.339
  151SOL    HW2 1353   3.202   1.846   1.283
  152SOL     OW 1354   0.097   0.658   1.608
  152SOL    HW1 1355   0.115   0.608   1.693
  152SOL    HW2 1356   0.027   0.727   1.625
  153SOL     OW 1357   2.980   0.735   3.643
  153SOL    HW1 1358   3.054   0.796   3.615
  153SOL    HW2 1359   2.975   0.658   3.580
  154SOL     OW 1360   1.162   3.395   1.550
  154SOL    HW1 1361   1.243   3.357   1.593
  154SOL    HW2 1362   1.135   3.479   1.598
  155SOL     OW 1363   0.477   1.478   4.499
  155SOL    HW1 1364   0.572   1.448   4.490
  155SOL    HW2 1365   0.471   1.577   4.486
  156SOL     OW 1366   0.344   0.662   1.039
  156SOL    HW1 1367   0.421   0.614   1.082
  156SOL    HW2 1368   0.356   0.761   1.050
  157SOL     OW 1369   5.232   2.911   1.561
  157SOL    HW1 1370   5.171   2.834   1.578
  157SOL    HW2 1371   5.180   2.987   1.522
  158SOL     OW 1372   1.763   3.457   2.149
  158SOL    HW1 1373   1.724   3.466   2.057
  158SOL    HW2 1374   1.862   3.470   2.143
  159SOL     OW 1375   4.883   4.235   2.802
  159SOL    HW1 1376   4.881   4.179   2.719
  159SOL    HW2 1377   4.975   4.238   2.839
  160SOL     OW 1378   5.179   5.894   0.901
  160SOL    HW1 1379   5.159   5.894   0.999
  160SOL    HW2 1380   5.273   5.865   0.886
  161SOL     OW 1381   1.457   6.259   3.523
  161SOL    HW1 1382   1.387   6.258   3.451
  161SOL    HW2 1383   1.487   6.354   3.538
  162SOL     OW 1384   3.462   6.401   0.328
  162SOL    HW1 1385   3.432   6.366   0.416
  162SOL    HW2 1386   3.547   6.453   0.341
  163SOL     OW 1387   6.181   5.477   1.307
  163SOL    HW1 1388   6.264   5.432   1.277
  163SOL    HW2 1389   6.201   5.538   1.384
  164SOL     OW 1390   0.031   4.439   2.173
  164SOL    HW1 1391   6.989   4.441   2.096
  164SOL    HW2 1392   7.001   4.442   2.258
  165SOL     OW 1393   5.285   3.446   1.115
  165SOL    HW1 1394   5.308   3.484   1.204
  165SOL    HW2 1395   5.351   3.376   1.090
  166SOL     OW 1396   1.435   3.819   2.276
  166SOL    HW1 1397   1.380   3.899   2.303
  166SOL    HW2 1398   1.387   3.735   2.300
  167SOL     OW 1399   4.905   3.394   6.815
  167SOL    HW1 1400   4.899   3.337   6.733
  167SOL    HW2 1401   4.968   3.352   6.880
  168SOL     OW 1402   3.037   2.927   0.878
  168SOL    HW1 1403   3.087   2.857   0.930
  168SOL    HW2 1404   3.069   3.018   0.905
  169SOL     OW 1405   5.521   2.069   1.700
  169SOL    HW1 1406   5.615   2.078   1.667
  169SOL    HW2 1407   5.511   2.119   1.786
  170SOL     OW 1408   0.602   6.934   3.086
  170SOL    HW1 1409   0.564   6.870   3.019
  170SOL    HW2 1410   0.698   6.951   3.065
  171SOL     OW 1411   2.480   4.732   6.834
  171SOL    HW1 1412   2.413   4.773   6.772
  171SOL    HW2 1413   2.516   4.802   6.896
  172SOL     OW 1414   6.453   0.868   2.760
  172SOL    HW1 1415   6.366   0.913   2.739
  172SOL    HW2 1416   6.482   0.812   2.683
  173SOL     OW 1417   6.576   1.066   4.149
  173SOL    HW1 1418   6.581   1.006   4.069
  173SOL    HW2 1419   6.664   1.068   4.196
  174SOL     OW 1420   3.993   5.853   3.921
  174SOL    HW1 1421   4.078   5.806   3.942
  174SOL    HW2 1422   3.999   5.894   3.830
  175SOL     OW 1423   3.225   6.835   1.767
  175SOL    HW1 1424   3.143   6.891   1.751
  175SOL    HW2 1425   3.281   6.835   1.684
  176SOL     OW 1426   6.418   4.024   0.608
  176SOL    HW1 1427   6.352   4.041   0.535
  176SOL    HW2 1428   6.476   4.105   0.620
  177SOL     OW 1429   6.219   3.090   2.833
  177SOL    HW1 1430   6.274   3.140   2.766
  177SOL    HW2 1431   6.198   3.149   2.910
  178SOL     OW 1432   2.734   3.804   6.498
  178SOL    HW1 1433   2.716   3.720   6.549
  178SOL    HW2 1434   2.709   3.791   6.402
  179SOL     OW 1435   4.408   1.768   5.621
  179SOL    HW1 1436   4.340   1.776   5.694
  179SOL    HW2 1437   4.383   1.693   5.560
  180SOL     OW 1438   2.284   6.980   0.301
  180SOL    HW1 1439   2.206   6.969   0.362
  180SOL    HW2 1440   2.261   0.022   0.227
  181SOL     OW 1441   3.457   3.130   5.943
  181SOL    HW1 1442   3.424   3.213   5.988
  181SOL    HW2 1443   3.394   3.103   5.870
  182SOL     OW 1444   3.503   1.836   5.230
  182SOL    HW1 1445   3.414   1.831   5.183
  182SOL    HW2 1446   3.491   1.879   5.319
  183SOL     OW 1447   3.682   2.114   3.169
  183SOL    HW1 1448   3.698   2.196   3.223
  183SOL    HW2 1449   3.589   2.114   3.133
  184SOL     OW 1450   1.026   6.785   4.639
  184SOL    HW1 1451   1.035   6.784   4.739
  184SOL    HW2 1452   0.929   6.777   4.615
  185SOL     OW 1453   0.256   1.381   6.278
  185SOL    HW1 1454   0.241   1.333   6.191
  185SOL    HW2 1455   0.261   1.315   6.352
  186SOL     OW 1456   5.909   0.922   4.280
  186SOL    HW1 1457   5.952   0.900   4.193
  186SOL    HW2 1458   5.932   0.851   4.347
  187SOL     OW 1459   5.114   0.309   2.542
  187SOL    HW1 1460   5.086   0.255   2.621
  187SOL    HW2 1461   5.170   0.252   2.481
  188SOL     OW 1462   1.164   3.002   2.884
  188SOL    HW1 1463   1.109   2.953   2.952
  188SOL    HW2 1464   1.246   2.949   2.863
  189SOL     OW 1465   2.660   5.337   1.332
  189SOL    HW1 1466   2.635   5.270   1.402
  189SOL    HW2 1467   2.677   5.426   1.375
  190SOL     OW 1468   5.049   2.846   5.012
  190SOL    HW1 1469   5.108   2.804   4.942
  190SOL    HW2 1470   5.016   2.934   4.979
  191SOL     OW 1471   5.994   0.350   6.771
  191SOL    HW1 1472   6.036   0.324   6.683
  191SOL    HW2 1473   6.065   0.352   6.842
  192SOL     OW 1474   0.827   5.251   1.842
  192SOL    HW1 1475   0.757   5.308   1.884
  192SOL    HW2 1476   0.915   5.299   1.845
  193SOL     OW 1477   4.410   3.828   5.323
  193SOL    HW1 1478   4.332   3.770   5.300
  193SOL    HW2 1479   4.490   3.772   5.344
  194SOL     OW 1480   4.215   0.926   2.853
  194SOL    HW1 1481   4.232   0.933   2.755
  194SOL    HW2 1482   4.124   0.959   2.874
  195SOL     OW 1483   1.857   6.701   4.145
  195SOL    HW1 1484   1.894   6.718   4.054
  195SOL    HW2 1485   1.933   6.691   4.210
  196SOL     OW 1486   3.117   0.527   0.825
  196SOL    HW1 1487   3.122   0.472   0.909
  196SOL    HW2 1488   3.022   0.553   0.808
  197SOL     OW 1489   2.243   7.015   1.291
  197SOL    HW1 1490   2.337   0.023   1.307
  197SOL    HW2 1491   2.243   6.930   1.238
  198SOL     OW 1492   5.218   6.725   1.448
  198SOL    HW1 1493   5.160   6.646   1.465
  198SOL    HW2 1494   5.163   6.800   1.412
  199SOL     OW 1495   0.238   1.599   3.224
  199SOL    HW1 1496   0.173   1.622   3.295
  199SOL    HW2 1497   0.206   1.633   3.136
  200SOL     OW 1498   1.239   4.819   2.209
  200SOL    HW1 1499   1.156   4.834   2.263
  200SOL    HW2 1500   1.313   4.787   2.268
  201SOL     OW 1501   6.410   6.782   6.172
  201SOL    HW1 1502   6.339   6.731   6.123
  201SOL    HW2 1503   6.384   6.878   6.178
  202SOL     OW 1504   4.810   0.730   6.544
  202SOL    HW1 1505   4.868   0.749   6.623
  202SOL    HW2 1506   4.867   0.717   6.463
  203SOL     OW 1507   4.427   2.461   4.433
  203SOL    HW1 1508   4.452   2.518   4.510
  203SOL    HW2 1509   4.478   2.489   4.352
  204SOL     OW 1510   0.615   0.913   6.265
  204SOL    HW1 1511   0.566   0.832   6.230
  204SOL    HW2 1512   0.551   0.990   6.269
  205SOL     OW 1513   0.838   1.331   3.113
  205SOL    HW1 1514   0.815   1.417   3.068
  205SOL    HW2 1515   0.754   1.288   3.148
  206SOL     OW 1516   6.869   4.699   1.002
  206SOL    HW1 1517   6.863   4.605   1.037
  206SOL    HW2 1518   6.936   4.702   0.928
  207SOL     OW 1519   5.444   1.356   3.588
  207SOL    HW1 1520   5.402   1.304   3.662
  207SOL    HW2 1521   5.495   1.295   3.529
  208SOL     OW 1522   5.705   2.532   5.074
  208SOL    HW1 1523   5.779   2.482   5.118
  208SOL    HW2 1524   5.725   2.630   5.074
  209SOL     OW 1525   0.107   4.510   3.893
  209SOL    HW1 1526   0.194   4.460   3.885
  209SOL    HW2 1527   0.064   4.488   3.980
  210SOL     OW 1528   3.980   1.721   0.918
  210SOL    HW1 1529   3.885   1.730   0.948
  210SOL    HW2 1530   4.011   1.627   0.932
  211SOL     OW 1531   2.445   5.959   3.193
  211SOL    HW1 1532   2.388   5.877   3.204
  211SOL    HW2 1533   2.538   5.931   3.168
  212SOL     OW 1534   1.253   4.273   1.869
  212SOL    HW1 1535   1.306   4.339   1.922
  212SOL    HW2 1536   1.282   4.277   1.773
  213SOL     OW 1537   3.097   0.606   0.126
  213SOL    HW1 1538   3.087   0.686   0.185
  213SOL    HW2 1539   3.167   0.624   0.057
  214SOL     OW 1540   4.593   5.048   1.506
  214SOL    HW1 1541   4.629   5.062   1.413
  214SOL    HW2 1542   4.498   5.016   1.500
  215SOL     OW 1543   2.006   3.510   1.160
  215SOL    HW1 1544   1.988   3.512   1.061
  215SOL    HW2 1545   2.045   3.422   1.185
  216SOL     OW 1546   2.397   6.003   3.887
  216SOL    HW1 1547   2.418   5.917   3.842
  216SOL    HW2 1548   2.480   6.039   3.930
  217SOL     OW 1549   2.225   2.444   4.034
  217SOL    HW1 1550   2.164   2.366   4.050
  217SOL    HW2 1551   2.170   2.527   4.021
  218SOL     OW 1552   0.812   3.756   4.446
  218SOL    HW1 1553   0.802   3.746   4.545
  218SOL    HW2 1554   0.907   3.780   4.424
  219SOL     OW 1555   4.466   6.505   6.394
  219SOL    HW1 1556   4.561   6.490   6.423
  219SOL    HW2 1557   4.465   6.570   6.318
  220SOL     OW 1558   3.550   0.257   1.228
  220SOL    HW1 1559   3.498   0.201   1.163
  220SOL    HW2 1560   3.639   0.280   1.188
  221SOL     OW 1561   6.286   2.948   1.231
  221SOL    HW1 1562   6.284   2.997   1.143
  221SOL    HW2 1563   6.194   2.948   1.271
  222SOL     OW 1564   2.571   4.975   5.049
  222SOL    HW1 1565   2.621   4.905   5.100
  222SOL    HW2 1566   2.506   4.932   4.988
  223SOL     OW 1567   5.311   2.532   0.188
  223SOL    HW1 1568   5.279   2.599   0.255
  223SOL    HW2 1569   5.384   2.571   0.133
  224SOL     OW 1570   2.032   1.952   4.645
  224SOL    HW1 1571   1.991   2.037   4.610
  224SOL    HW2 1572   2.059   1.965   4.740
  225SOL     OW 1573   4.679   3.253   6.242
  225SOL    HW1 1574   4.680   3.213   6.334
  225SOL    HW2 1575   4.655   3.183   6.176
  226SOL     OW 1576   1.283   0.561   6.072
  226SOL    HW1 1577   1.294   0.596   6.165
  226SOL    HW2 1578   1.196   0.592   6.034
  227SOL     OW 1579   1.579   3.318   3.124
  227SOL    HW1 1580   1.590   3.224   3.093
  227SOL    HW2 1581   1.645   3.376   3.077
  228SOL     OW 1582   2.935   6.374   4.064
  228SOL    HW1 1583   2.924   6.349   3.968
  228SOL    HW2 1584   2.993   6.306   4.109
  229SOL     OW 1585   5.024   5.845   0.084
  229SOL    HW1 1586   5.043   5.826   0.181
  229SOL    HW2 1587   4.955   5.781   0.051
  230SOL     OW 1588   3.499   4.896   3.652
  230SOL    HW1 1589   3.440   4.936   3.582
  230SOL    HW2 1590   3.472   4.932   3.742
  231SOL     OW 1591   6.321   2.037   6.875
  231SOL    HW1 1592   6.326   1.984   6.959
  231SOL    HW2 1593   6.231   2.079   6.866
  232SOL     OW 1594   0.882   3.337   6.452
  232SOL    HW1 1595   0.972   3.380   6.455
  232SOL    HW2 1596   0.860   3.312   6.358
  233SOL     OW 1597   2.830   2.019   3.598
  233SOL    HW1 1598   2.735   2.013   3.628
  233SOL    HW2 1599   2.835   2.074   3.515
  234SOL     OW 1600   4.776   6.993   5.067
  234SOL    HW1 1601   4.782   0.007   4.974
  234SOL    HW2 1602   4.716   0.032   5.121
  235SOL     OW 1603   3.506   2.826   1.765
  235SOL    HW1 1604   3.509   2.896   1.695
  235SOL    HW2 1605   3.597   2.813   1.804
  236SOL     OW 1606   4.482   3.216   6.707
  236SOL    HW1 1607   4.530   3.148   6.652
  236SOL    HW2 1608   4.383   3.204   6.698
  237SOL     OW 1609   5.712   4.824   2.035
  237SOL    HW1 1610   5.733   4.734   1.998
  237SOL    HW2 1611   5.780   4.849   2.104
  238SOL     OW 1612   5.197   2.055   0.542
  238SOL    HW1 1613   5.268   2.004   0.591
  238SOL    HW2 1614   5.230   2.147   0.522
  239SOL     OW 1615   0.454   5.646   6.475
  239SOL    HW1 1616   0.409   5.584   6.410
  239SOL    HW2 1617   0.541   5.606   6.503
  240SOL     OW 1618   0.471   2.746   3.131
  240SOL    HW1 1619   0.379   2.707   3.131
  240SOL    HW2 1620   0.512   2.736   3.040
  241SOL     OW 1621   1.690   0.346   4.610
  241SOL    HW1 1622   1.773   0.296   4.636
  241SOL    HW2 1623   1.704   0.444   4.626
  242SOL     OW 1624   3.304   3.242   5.142
  242SOL    HW1 1625   3.222   3.206   5.098
  242SOL    HW2 1626   3.369   3.168   5.159
  243SOL     OW 1627   3.969   0.435   5.585
  243SOL    HW1 1628   4.055   0.389   5.561
  243SOL    HW2 1629   3.912   0.372   5.638
  244SOL     OW 1630   5.869   2.365   4.349
  244SOL    HW1 1631   5.803   2.430   4.388
  244SOL    HW2 1632   5.854   2.357   4.251
  245SOL     OW 1633   6.308   3.823   4.245
  245SOL    HW1 1634   6.406   3.817   4.225
  245SOL    HW2 1635   6.260   3.753   4.193
  246SOL     OW 1636   5.007   2.466   3.455
  246SOL    HW1 1637   5.093   2.503   3.488
  246SOL    HW2 1638   5.004   2.367   3.469
  247SOL     OW 1639   2.733   1.852   1.755
  247SOL    HW1 1640   2.785   1.824   1.836
  247SOL    HW2 1641   2.742   1.951   1.742
  248SOL     OW 1642   3.843   2.116   2.733
  248SOL    HW1 1643   3.929   2.134   2.685
  248SOL    HW2 1644   3.861   2.107   2.831
  249SOL     OW 1645   4.191   6.942   5.144
  249SOL    HW1 1646   4.162   0.011   5.112
  249SOL    HW2 1647   4.276   6.916   5.098
  250SOL     OW 1648   5.391   2.466   0.910
  250SOL    HW1 1649   5.318   2.402   0.888
  250SOL    HW2 1650   5.427   2.447   1.001
  251SOL     OW 1651   4.524   3.949   5.839
  251SOL    HW1 1652   4.488   3.865   5.798
  251SOL    HW2 1653   4.620   3.935   5.862
  252SOL     OW 1654   6.415   6.702   6.719
  252SOL    HW1 1655   6.398   6.621   6.663
  252SOL    HW2 1656   6.450   6.673   6.809
  253SOL     OW 1657   2.689   4.574   0.159
  253SOL    HW1 1658   2.702   4.525   0.245
  253SOL    HW2 1659   2.762   4.550   0.095
  254SOL     OW 1660   5.036   3.006   3.483
  254SOL    HW1 1661   5.096   2.935   3.520
  254SOL    HW2 1662   5.067   3.031   3.391
  255SOL     OW 1663   1.921   2.798   4.491
  255SOL    HW1 1664   1.933   2.785   4.590
  255SOL    HW2 1665   1.832   2.841   4.475
  256SOL     OW 1666   6.382   4.174   6.159
  256SOL    HW1 1667   6.284   4.153   6.162
  256SOL    HW2 1668   6.406   4.205   6.067
  257SOL     OW 1669   5.230   6.416   3.929
  257SOL    HW1 1670   5.275   6.484   3.986
  257SOL    HW2 1671   5.290   6.390   3.853
  258SOL     OW 1672   1.342   4.965   4.495
  258SOL    HW1 1673   1.375   4.985   4.403
  258SOL    HW2 1674   1.346   5.048   4.550
  259SOL     OW 1675   1.571   1.513   2.418
  259SOL    HW1 1676   1.479   1.504   2.381
  259SOL    HW2 1677   1.624   1.576   2.361
  260SOL     OW 1678   4.616   1.336   0.859
  260SOL    HW1 1679   4.698   1.305   0.813
  260SOL    HW2 1680   4.595   1.274   0.935
  261SOL     OW 1681   6.138   3.911   0.434
  261SOL    HW1 1682   6.141   3.860   0.520
  261SOL    HW2 1683   6.209   3.877   0.372
  262SOL     OW 1684   6.255   4.214   0.431
  262SOL    HW1 1685   6.182   4.268   0.390
  262SOL    HW2 1686   6.339   4.226   0.379
  263SOL     OW 1687   0.522   0.949   3.716
  263SOL    HW1 1688   0.495   1.007   3.640
  263SOL    HW2 1689   0.501   0.995   3.803
  264SOL     OW 1690   4.786   3.492   6.193
  264SOL    HW1 1691   4.769   3.395   6.211
  264SOL    HW2 1692   4.749   3.547   6.268
  265SOL     OW 1693   4.921   5.000   3.027
  265SOL    HW1 1694   5.011   4.991   2.985
  265SOL    HW2 1695   4.867   5.068   2.977
  266SOL     OW 1696   3.272   3.008   5.568
  266SOL    HW1 1697   3.242   2.933   5.509
  266SOL    HW2 1698   3.372   3.009   5.574
  267SOL     OW 1699   0.504   1.810   6.229
  267SOL    HW1 1700   0.603   1.801   6.226
  267SOL    HW2 1701   0.477   1.897   6.188
  268SOL     OW 1702   3.882   0.544   5.175
  268SOL    HW1 1703   3.941   0.510   5.101
  268SOL    HW2 1704   3.874   0.474   5.245
  269SOL     OW 1705   1.708   3.118   1.389
  269SOL    HW1 1706   1.719   3.070   1.302
  269SOL    HW2 1707   1.612   3.143   1.402
  270SOL     OW 1708   6.945   0.485   0.199
  270SOL    HW1 1709   6.927   0.388   0.179
  270SOL    HW2 1710   6.904   0.541   0.127
  271SOL     OW 1711   1.654   1.920   6.894
  271SOL    HW1 1712   1.638   1.844   6.957
  271SOL    HW2 1713   1.572   1.938   6.840
  272SOL     OW 1714   3.111   4.941   4.490
  272SOL    HW1 1715   3.187   5.003   4.509
  272SOL    HW2 1716   3.101   4.929   4.391
  273SOL     OW 1717   1.866   4.115   5.178
  273SOL    HW1 1718   1.877   4.151   5.086
  273SOL    HW2 1719   1.796   4.168   5.227
  274SOL     OW 1720   4.802   1.759   2.816
  274SOL    HW1 1721   4.898   1.787   2.821
  274SOL    HW2 1722   4.749   1.833   2.775
  275SOL     OW 1723   6.012   4.494   4.911
  275SOL    HW1 1724   6.025   4.408   4.960
  275SOL    HW2 1725   6.090   4.511   4.851
  276SOL     OW 1726   0.073   5.647   2.468
  276SOL    HW1 1727   0.058   5.724   2.407
  276SOL    HW2 1728   0.059   5.676   2.563
  277SOL     OW 1729   1.621   3.854   0.976
  277SOL    HW1 1730   1.671   3.861   1.062
  277SOL    HW2 1731   1.663   3.784   0.918
  278SOL     OW 1732   6.525   5.184   1.859
  278SOL    HW1 1733   6.457   5.110   1.861
  278SOL    HW2 1734   6.592   5.165   1.786
  279SOL     OW 1735   6.299   3.008   4.793
  279SOL    HW1 1736   6.303   2.929   4.854
  279SOL    HW2 1737   6.357   3.081   4.830
  280SOL     OW 1738   2.751   0.003   2.769
  280SOL    HW1 1739   2.681   0.022   2.701
  280SOL    HW2 1740   2.784   6.931   2.759
  281SOL     OW 1741   3.278   4.881   2.101
  281SOL    HW1 1742   3.355   4.881   2.038
  281SOL    HW2 1743   3.232   4.792   2.099
  282SOL     OW 1744   3.636   1.620   5.336
  282SOL    HW1 1745   3.574   1.688   5.298
  282SOL    HW2 1746   3.707   1.597   5.269
  283SOL     OW 1747   6.816   1.255   5.607
  283SOL    HW1 1748   6.753   1.324   5.572
  283SOL    HW2 1749   6.849   1.199   5.531
  284SOL     OW 1750   1.267   4.459   4.559
  284SOL    HW1 1751   1.174   4.484   4.534
  284SOL    HW2 1752   1.307   4.401   4.488
  285SOL     OW 1753   5.434   4.968   5.745
  285SOL    HW1 1754   5.443   4.921   5.657
  285SOL    HW2 1755   5.386   5.054   5.732
  286SOL     OW 1756   3.467   5.650   4.879
  286SOL    HW1 1757   3.496   5.695   4.964
  286SOL    HW2 1758   3.369   5.662   4.867
  287SOL     OW 1759   0.214   4.525   7.017
  287SOL    HW1 1760   0.244   4.430   0.004
  287SOL    HW2 1761   0.169   4.539   6.929
  288SOL     OW 1762   3.832   1.518   6.012
  288SOL    HW1 1763   3.750   1.503   5.957
  288SOL    HW2 1764   3.810   1.502   6.109
  289SOL     OW 1765   0.128   4.884   4.683
  289SOL    HW1 1766   0.147   4.862   4.779
  289SOL    HW2 1767   0.120   4.800   4.630
  290SOL     OW 1768   5.399   1.614   3.915
  290SOL    HW1 1769   5.463   1.644   3.844
  290SOL    HW2 1770   5.423   1.658   4.001
  291SOL     OW 1771   2.064   2.144   4.884
  291SOL    HW1 1772   2.142   2.206   4.894
  291SOL    HW2 1773   2.040   2.107   4.973
  292SOL     OW 1774   1.836   1.957   3.091
  292SOL    HW1 1775   1.850   1.879   3.151
  292SOL    HW2 1776   1.918   1.972   3.036
  293SOL     OW 1777   4.907   4.610   1.899
  293SOL    HW1 1778   4.925   4.612   1.800
  293SOL    HW2 1779   4.982   4.564   1.946
  294SOL     OW 1780   6.561   5.410   6.227
  294SOL    HW1 1781   6.521   5.422   6.317
  294SOL    HW2 1782   6.589   5.314   6.215
  295SOL     OW 1783   3.283   1.845   4.212
  295SOL    HW1 1784   3.379   1.835   4.188
  295SOL    HW2 1785   3.268   1.935   4.253
  296SOL     OW 1786   5.581   1.795   2.295
  296SOL    HW1 1787   5.642   1.850   2.238
  296SOL    HW2 1788   5.636   1.739   2.358
  297SOL     OW 1789   2.478   4.670   2.884
  297SOL    HW1 1790   2.411   4.744   2.885
  297SOL    HW2 1791   2.526   4.667   2.972
  298SOL     OW 1792   3.293   5.848   0.617
  298SOL    HW1 1793   3.315   5.808   0.528
  298SOL    HW2 1794   3.378   5.863   0.668
  299SOL     OW 1795   3.878   3.656   6.391
  299SOL    HW1 1796   3.940   3.735   6.393
  299SOL    HW2 1797   3.918   3.582   6.445
  300SOL     OW 1798   5.664   0.724   1.758
  300SOL    HW1 1799   5.671   0.652   1.827
  300SOL    HW2 1800   5.695   0.810   1.797
  301SOL     OW 1801   5.583   3.038   0.921
  301SOL    HW1 1802   5.532   2.952   0.915
  301SOL    HW2 1803   5.536   3.101   0.981
  302SOL     OW 1804   0.377   0.713   3.672
  302SOL    HW1 1805   0.418   0.804   3.681
  302SOL    HW2 1806   0.289   0.711   3.718
  303SOL     OW 1807   6.346   6.959   1.768
  303SOL    HW1 1808   6.249   6.938   1.778
  303SOL    HW2 1809   6.358   0.036   1.753
  304SOL     OW 1810   2.184   0.151   5.106
  304SOL    HW1 1811   2.137   0.063   5.100
  304SOL    HW2 1812   2.244   0.161   5.026
  305SOL     OW 1813   0.479   3.048   0.310
  305SOL    HW1 1814   0.530   3.031   0.394
  305SOL    HW2 1815   0.381   3.038   0.328
  306SOL     OW 1816   2.369   0.157   3.648
  306SOL    HW1 1817   2.335   0.119   3.562
  306SOL    HW2 1818   2.435   0.230   3.628
  307SOL     OW 1819   4.992   6.143   0.317
  307SOL    HW1 1820   5.018   6.047   0.308
  307SOL    HW2 1821   4.894   6.150   0.335
  308SOL     OW 1822   6.290   3.316   4.852
  308SOL    HW1 1823   6.249   3.311   4.761
  308SOL    HW2 1824   6.243   3.385   4.907
  309SOL     OW 1825   2.993   5.992   6.573
  309SOL    HW1 1826   2.927   6.001   6.648
  309SOL    HW2 1827   2.943   5.978   6.487
  310SOL     OW 1828   6.309   6.857   5.282
  310SOL    HW1 1829   6.211   6.872   5.267
  310SOL    HW2 1830   6.345   6.799   5.209
  311SOL     OW 1831   4.771   4.863   3.244
  311SOL    HW1 1832   4.690   4.860   3.184
  311SOL    HW2 1833   4.847   4.906   3.195
  312SOL     OW 1834   4.232   0.840   5.025
  312SOL    HW1 1835   4.264   0.931   5.051
  312SOL    HW2 1836   4.255   0.822   4.929
  313SOL     OW 1837   3.210   3.677   2.432
  313SOL    HW1 1838   3.130   3.731   2.405
  313SOL    HW2 1839   3.229   3.608   2.362
  314SOL     OW 1840   3.641   5.662   6.907
  314SOL    HW1 1841   3.687   5.675   6.819
  314SOL    HW2 1842   3.662   5.571   6.943
  315SOL     OW 1843   1.511   2.604   4.183
  315SOL    HW1 1844   1.571   2.531   4.215
  315SOL    HW2 1845   1.541   2.635   4.092
  316SOL     OW 1846   3.044   1.865   4.069
  316SOL    HW1 1847   3.139   1.876   4.099
  316SOL    HW2 1848   3.019   1.769   4.074
  317SOL     OW 1849   0.346   0.830   1.370
  317SOL    HW1 1850   0.365   0.808   1.466
  317SOL    HW2 1851   0.426   0.809   1.315
  318SOL     OW 1852   1.193   5.490   6.643
  318SOL    HW1 1853   1.262   5.556   6.613
  318SOL    HW2 1854   1.174   5.425   6.569
  319SOL     OW 1855   6.753   0.490   3.712
  319SOL    HW1 1856   6.740   0.573   3.766
  319SOL    HW2 1857   6.665   0.446   3.697
  320SOL     OW 1858   6.325   2.194   0.605
  320SOL    HW1 1859   6.273   2.250   0.542
  320SOL    HW2 1860   6.282   2.195   0.695
  321SOL     OW 1861   4.053   1.533   0.278
  321SOL    HW1 1862   4.080   1.447   0.236
  321SOL    HW2 1863   4.005   1.514   0.364
  322SOL     OW 1864   3.988   3.058   4.421
  322SOL    HW1 1865   4.076   3.065   4.372
  322SOL    HW2 1866   3.968   3.145   4.466
  323SOL     OW 1867   0.859   3.229   6.207
  323SOL    HW1 1868   0.863   3.279   6.121
  323SOL    HW2 1869   0.929   3.158   6.209
  324SOL     OW 1870   2.376   1.359   5.065
  324SOL    HW1 1871   2.474   1.353   5.049
  324SOL    HW2 1872   2.335   1.423   5.000
  325SOL     OW 1873   1.071   2.978   1.795
  325SOL    HW1 1874   1.073   2.884   1.828
  325SOL    HW2 1875   1.091   2.979   1.697
  326SOL     OW 1876   1.310   5.048   6.950
  326SOL    HW1 1877   1.290   5.145   6.935
  326SOL    HW2 1878   1.225   4.997   6.961
  327SOL     OW 1879   1.387   5.121   3.705
  327SOL    HW1 1880   1.478   5.093   3.735
  327SOL    HW2 1881   1.319   5.054   3.735
  328SOL     OW 1882   1.235   5.127   2.256
  328SOL    HW1 1883   1.292   5.052   2.221
  328SOL    HW2 1884   1.141   5.114   2.225
  329SOL     OW 1885   3.933   3.972   4.856
  329SOL    HW1 1886   3.982   4.054   4.886
  329SOL    HW2 1887   3.938   3.902   4.927
  330SOL     OW 1888   3.403   0.148   1.590
  330SOL    HW1 1889   3.397   0.053   1.560
  330SOL    HW2 1890   3.312   0.189   1.585
  331SOL     OW 1891   3.387   4.814   1.091
  331SOL    HW1 1892   3.404   4.732   1.147
  331SOL    HW2 1893   3.358   4.786   1.000
  332SOL     OW 1894   3.987   1.747   5.182
  332SOL    HW1 1895   3.896   1.788   5.178
  332SOL    HW2 1896   4.042   1.782   5.106
  333SOL     OW 1897   3.201   0.017   5.806
  333SOL    HW1 1898   3.187   0.023   5.905
  333SOL    HW2 1899   3.290   6.996   5.788
  334SOL     OW 1900   2.485   0.545   1.442
  334SOL    HW1 1901   2.476   0.560   1.541
  334SOL    HW2 1902   2.530   0.624   1.401
  335SOL     OW 1903   4.193   6.719   4.780
  335SOL    HW1 1904   4.161   6.675   4.696
  335SOL    HW2 1905   4.153   6.810   4.787
  336SOL     OW 1906   2.105   0.837   3.497
  336SOL    HW1 1907   2.144   0.875   3.581
  336SOL    HW2 1908   2.048   0.907   3.453
  337SOL     OW 1909   0.439   2.777   6.910
  337SOL    HW1 1910   0.368   2.846   6.895
  337SOL    HW2 1911   0.481   2.791   6.999
  338SOL     OW 1912   2.734   2.286   1.542
  338SOL    HW1 1913   2.792   2.300   1.623
  338SOL    HW2 1914   2.747   2.362   1.478
  339SOL     OW 1915   3.032   6.521   3.320
  339SOL    HW1 1916   3.072   6.516   3.412
  339SOL    HW2 1917   2.955   6.457   3.314
  340SOL     OW 1918   4.908   4.466   5.581
  340SOL    HW1 1919   4.956   4.549   5.609
  340SOL    HW2 1920   4.883   4.473   5.485
  341SOL     OW 1921   6.784   1.399   5.005
  341SOL    HW1 1922   6.831   1.313   4.984
  341SOL    HW2 1923   6.815   1.433   5.094
  342SOL     OW 1924   5.948   3.775   6.912
  342SOL    HW1 1925   5.858   3.750   6.949
  342SOL    HW2 1926   5.942   3.782   6.812
  343SOL     OW 1927   1.714   5.054   0.752
  343SOL    HW1 1928   1.810   5.036   0.730
  343SOL    HW2 1929   1.672   5.104   0.676
  344SOL     OW 1930   0.966   5.138   2.204
  344SOL    HW1 1931   0.887   5.159   2.261
  344SOL    HW2 1932   0.994   5.219   2.153
  345SOL     OW 1933   4.884   1.808   3.787
  345SOL    HW1 1934   4.979   1.786   3.809
  345SOL    HW2 1935   4.823   1.761   3.851
  346SOL     OW 1936   2.398   0.869   2.541
  346SOL    HW1 1937   2.310   0.854   2.586
  346SOL    HW2 1938   2.462   0.910   2.606
  347SOL     OW 1939   3.270   5.540   6.376
  347SOL    HW1 1940   3.339   5.579   6.315
  347SOL    HW2 1941   3.297   5.554   6.471
  348SOL     OW 1942   5.677   3.927   1.648
  348SOL    HW1 1943   5.683   4.021   1.682
  348SOL    HW2 1944   5.752   3.909   1.585
  349SOL     OW 1945   6.698   4.751   0.636
  349SOL    HW1 1946   6.766   4.796   0.693
  349SOL    HW2 1947   6.743   4.699   0.564
  350SOL     OW 1948   3.613   3.495   0.948
  350SOL    HW1 1949   3.519   3.513   0.977
  350SOL    HW2 1950   3.653   3.424   1.006
  351SOL     OW 1951   1.877   2.700   0.292
  351SOL    HW1 1952   1.819   2.638   0.345
  351SOL    HW2 1953   1.824   2.779   0.263
  352SOL     OW 1954   3.051   1.397   4.578
  352SOL    HW1 1955   3.014   1.467   4.517
  352SOL    HW2 1956   3.090   1.440   4.659
  353SOL     OW 1957   2.718   6.250   0.654
  353SOL    HW1 1958   2.701   6.152   0.647
  353SOL    HW2 1959   2.792   6.267   0.719
  354SOL     OW 1960   3.258   2.813   0.566
  354SOL    HW1 1961   3.219   2.785   0.654
  354SOL    HW2 1962   3.334   2.875   0.581
  355SOL     OW 1963   0.391   3.447   2.784
  355SOL    HW1 1964   0.356   3.506   2.711
  355SOL    HW2 1965   0.412   3.503   2.864
  356SOL     OW 1966   3.389   6.956   5.549
  356SOL    HW1 1967   3.455   7.016   5.594
  356SOL    HW2 1968   3.437   6.891   5.491
  357SOL     OW 1969   6.851   6.978   5.574
  357SOL    HW1 1970   6.753   6.970   5.590
  357SOL    HW2 1971   6.881   6.908   5.509
  358SOL     OW 1972   4.821   0.632   1.489
  358SOL    HW1 1973   4.834   0.673   1.399
  358SOL    HW2 1974   4.908   0.600   1.525
  359SOL     OW 1975   1.716   2.315   1.884
  359SOL    HW1 1976   1.810   2.283   1.874
  359SOL    HW2 1977   1.699   2.390   1.820
  360SOL     OW 1978   0.943   5.569   6.380
  360SOL    HW1 1979   0.969   5.666   6.385
  360SOL    HW2 1980   0.896   5.552   6.293
  361SOL     OW 1981   5.847   5.787   2.983
  361SOL    HW1 1982   5.900   5.862   3.022
  361SOL    HW2 1983   5.824   5.721   3.054
  362SOL     OW 1984   3.801   3.703   1.681
  362SOL    HW1 1985   3.849   3.653   1.753
  362SOL    HW2 1986   3.728   3.758   1.721
  363SOL     OW 1987   5.327   4.820   4.065
  363SOL    HW1 1988   5.376   4.871   3.995
  363SOL    HW2 1989   5.391   4.762   4.116
  364SOL     OW 1990   6.134   5.303   5.845
  364SOL    HW1 1991   6.179   5.368   5.907
  364SOL    HW2 1992   6.202   5.265   5.782
  365SOL     OW 1993   5.334   6.044   2.346
  365SOL    HW1 1994   5.236   6.058   2.364
  365SOL    HW2 1995   5.359   5.951   2.372
  366SOL     OW 1996   6.278   0.973   6.172
  366SOL    HW1 1997   6.308   1.000   6.264
  366SOL    HW2 1998   6.199   0.912   6.179
  367SOL     OW 1999   4.721   2.993   0.941
  367SOL    HW1 2000   4.733   2.895   0.932
  367SOL    HW2 2001   4.658   3.026   0.870
  368SOL     OW 2002   0.295   3.642   5.230
  368SOL    HW1 2003   0.306   3.546   5.206
  368SOL    HW2 2004   0.331   3.700   5.157
  369SOL     OW 2005   6.653   5.425   1.173
  369SOL    HW1 2006   6.644   5.471   1.261
  369SOL    HW2 2007   6.564   5.390   1.144
  370SOL     OW 2008   2.743   1.818   6.054
  370SOL    HW1 2009   2.706   1.728   6.033
  370SOL    HW2 2010   2.695   1.887   5.999
  371SOL     OW 2011   2.536   3.546   6.445
  371SOL    HW1 2012   2.607   3.499   6.497
  371SOL    HW2 2013   2.572   3.573   6.356
  372SOL     OW 2014   1.061   6.625   6.243
  372SOL    HW1 2015   1.159   6.622   6.260
  372SOL    HW2 2016   1.042   6.584   6.154
  373SOL     OW 2017   6.353   6.349   4.541
  373SOL    HW1 2018   6.388   6.258   4.518
  373SOL    HW2 2019   6.275   6.371   4.483
  374SOL     OW 2020   2.840   1.823   2.890
  374SOL    HW1 2021   2.878   1.826   2.798
  374SOL    HW2 2022   2.889   1.888   2.948
  375SOL     OW 2023   0.783   4.697   3.873
  375SOL    HW1 2024   0.862   4.739   3.918
  375SOL    HW2 2025   0.809   4.609   3.835
  376SOL     OW 2026   2.075   1.548   4.750
  376SOL    HW1 2027   1.992   1.491   4.747
  376SOL    HW2 2028   2.130   1.529   4.668
  377SOL     OW 2029   0.653   1.957   1.549
  377SOL    HW1 2030   0.638   2.055   1.557
  377SOL    HW2 2031   0.565   1.909   1.553
  378SOL     OW 2032   3.145   2.650   5.577
  378SOL    HW1 2033   3.117   2.640   5.481
  378SOL    HW2 2034   3.072   2.695   5.628
  379SOL     OW 2035   6.044   4.142   0.614
  379SOL    HW1 2036   6.094   4.091   0.544
  379SOL    HW2 2037   5.963   4.090   0.642
  380SOL     OW 2038   2.568   1.028   1.009
  380SOL    HW1 2039   2.590   1.101   0.944
  380SOL    HW2 2040   2.596   1.056   1.101
  381SOL     OW 2041   1.282   4.666   2.508
  381SOL    HW1 2042   1.246   4.751   2.547
  381SOL    HW2 2043   1.245   4.588   2.557
  382SOL     OW 2044   5.458   6.435   6.051
  382SOL    HW1 2045   5.390   6.430   5.979
  382SOL    HW2 2046   5.443   6.517   6.107
  383SOL     OW 2047   4.922   3.080   5.530
  383SOL    HW1 2048   4.881   3.041   5.613
  383SOL    HW2 2049   4.851   3.101   5.464
  384SOL     OW 2050   6.322   5.473   4.567
  384SOL    HW1 2051   6.259   5.428   4.630
  384SOL    HW2 2052   6.273   5.542   4.514
  385SOL     OW 2053   4.367   6.119   5.336
  385SOL    HW1 2054   4.357   6.218   5.330
  385SOL    HW2 2055   4.276   6.077   5.347
  386SOL     OW 2056   2.844   6.333   5.431
  386SOL    HW1 2057   2.877   6.380   5.348
  386SOL    HW2 2058   2.823   6.401   5.501
  387SOL     OW 2059   0.984   6.621   3.355
  387SOL    HW1 2060   1.014   6.604   3.449
  387SOL    HW2 2061   0.918   6.696   3.354
  388SOL     OW 2062   1.384   2.136   4.138
  388SOL    HW1 2063   1.403   2.225   4.096
  388SOL    HW2 2064   1.286   2.126   4.151
  389SOL     OW 2065   4.423   4.096   1.341
  389SOL    HW1 2066   4.410   4.187   1.379
  389SOL    HW2 2067   4.508   4.057   1.376
  390SOL     OW 2068   3.532   1.107   0.040
  390SOL    HW1 2069   3.614   1.107   7.004
  390SOL    HW2 2070   3.450   1.115   7.003
  391SOL     OW 2071   2.020   3.707   5.798
  391SOL    HW1 2072   1.938   3.763   5.785
  391SOL    HW2 2073   2.048   3.667   5.711
  392SOL     OW 2074   1.744   4.333   1.321
  392SOL    HW1 2075   1.819   4.310   1.383
  392SOL    HW2 2076   1.719   4.429   1.333
  393SOL     OW 2077   1.025   4.961   6.952
  393SOL    HW1 2078   0.983   4.935   0.018
  393SOL    HW2 2079   0.972   4.922   6.876
  394SOL     OW 2080   0.127   2.682   6.892
  394SOL    HW1 2081   0.171   2.753   6.947
  394SOL    HW2 2082   0.178   2.596   6.901
  395SOL     OW 2083   4.682   4.575   3.389
  395SOL    HW1 2084   4.650   4.485   3.419
  395SOL    HW2 2085   4.692   4.575   3.289
  396SOL     OW 2086   2.909   3.297   2.306
  396SOL    HW1 2087   2.927   3.348   2.390
  396SOL    HW2 2088   2.977   3.224   2.297
  397SOL     OW 2089   5.418   2.040   6.156
  397SOL    HW1 2090   5.349   1.977   6.120
  397SOL    HW2 2091   5.418   2.124   6.103
  398SOL     OW 2092   1.434   0.159   3.263
  398SOL    HW1 2093   1.417   0.255   3.243
  398SOL    HW2 2094   1.365   0.103   3.217
  399SOL     OW 2095   5.503   6.076   4.070
  399SOL    HW1 2096   5.533   6.140   4.140
  399SOL    HW2 2097   5.580   6.017   4.043
  400SOL     OW 2098   6.342   6.473   5.772
  400SOL    HW1 2099   6.303   6.549   5.719
  400SOL    HW2 2100   6.441   6.484   5.778
  401SOL     OW 2101   4.919   0.336   6.231
  401SOL    HW1 2102   4.958   0.355   6.141
  401SOL    HW2 2103   4.987   0.288   6.287
  402SOL     OW 2104   6.917   1.141   3.579
  402SOL    HW1 2105   6.861   1.059   3.572
  402SOL    HW2 2106   6.950   1.168   3.489
  403SOL     OW 2107   3.827   0.946   5.010
  403SOL    HW1 2108   3.729   0.938   5.028
  403SOL    HW2 2109   3.877   0.891   5.076
  404SOL     OW 2110   1.542   4.781   4.578
  404SOL    HW1 2111   1.457   4.800   4.528
  404SOL    HW2 2112   1.583   4.866   4.610
  405SOL     OW 2113   2.138   3.069   3.020
  405SOL    HW1 2114   2.167   3.022   3.104
  405SOL    HW2 2115   2.117   3.001   2.950
  406SOL     OW 2116   0.043   4.215   5.058
  406SOL    HW1 2117   0.111   4.194   5.128
  406SOL    HW2 2118   6.985   4.260   5.099
  407SOL     OW 2119   1.553   2.517   5.334
  407SOL    HW1 2120   1.574   2.611   5.306
  407SOL    HW2 2121   1.482   2.479   5.274
  408SOL     OW 2122   3.432   2.116   3.046
  408SOL    HW1 2123   3.498   2.113   2.971
  408SOL    HW2 2124   3.339   2.107   3.010
  409SOL     OW 2125   6.590   3.301   1.472
  409SOL    HW1 2126   6.492   3.283   1.481
  409SOL    HW2 2127   6.620   3.275   1.380
  410SOL     OW 2128   0.861   1.498   1.112
  410SOL    HW1 2129   0.806   1.535   1.187
  410SOL    HW2 2130   0.892   1.573   1.054
  411SOL     OW 2131   6.528   1.017   1.285
  411SOL    HW1 2132   6.462   1.038   1.213
  411SOL    HW2 2133   6.592   0.948   1.253
  412SOL     OW 2134   3.640   4.884   2.666
  412SOL    HW1 2135   3.657   4.913   2.760
  412SOL    HW2 2136   3.709   4.817   2.638
  413SOL     OW 2137   5.368   4.250   1.564
  413SOL    HW1 2138   5.269   4.249   1.573
  413SOL    HW2 2139   5.394   4.304   1.484
  414SOL     OW 2140   3.206   6.527   3.818
  414SOL    HW1 2141   3.212   6.467   3.897
  414SOL    HW2 2142   3.225   6.621   3.847
  415SOL     OW 2143   0.650   0.205   6.811
  415SOL    HW1 2144   0.572   0.194   6.873
  415SOL    HW2 2145   0.730   0.235   6.863
  416SOL     OW 2146   4.731   5.356   5.184
  416SOL    HW1 2147   4.714   5.454   5.171
  416SOL    HW2 2148   4.644   5.307   5.187
  417SOL     OW 2149   2.172   0.142   6.010
  417SOL    HW1 2150   2.177   0.169   5.913
  417SOL    HW2 2151   2.238   0.070   6.029
  418SOL     OW 2152   2.898   6.838   6.078
  418SOL    HW1 2153   2.876   6.741   6.081
  418SOL    HW2 2154   2.955   6.862   6.157
  419SOL     OW 2155   0.870   6.921   2.924
  419SOL    HW1 2156   0.843   7.002   2.871
  419SOL    HW2 2157   0.961   6.936   2.963
  420SOL     OW 2158   5.727   1.443   6.642
  420SOL    HW1 2159   5.738   1.499   6.559
  420SOL    HW2 2160   5.656   1.374   6.626
  421SOL     OW 2161   5.737   3.676   4.457
  421SOL    HW1 2162   5.647   3.637   4.476
  421SOL    HW2 2163   5.765   3.732   4.535
  422SOL     OW 2164   4.648   3.354   0.515
  422SOL    HW1 2165   4.723   3.418   0.500
  422SOL    HW2 2166   4.566   3.388   0.469
  423SOL     OW 2167   1.870   2.131   6.885
  423SOL    HW1 2168   1.856   2.166   6.792
  423SOL    HW2 2169   1.798   2.064   6.906
  424SOL     OW 2170   1.712   4.511   2.381
  424SOL    HW1 2171   1.794   4.555   2.415
  424SOL    HW2 2172   1.634   4.533   2.440
  425SOL     OW 2173   5.075   1.894   4.105
  425SOL    HW1 2174   4.981   1.880   4.135
  425SOL    HW2 2175   5.101   1.821   4.042
  426SOL     OW 2176   2.513   2.557   4.654
  426SOL    HW1 2177   2.501   2.624   4.581
  426SOL    HW2 2178   2.472   2.591   4.738
  427SOL     OW 2179   6.238   0.136   3.891
  427SOL    HW1 2180   6.191   0.111   3.807
  427SOL    HW2 2181   6.185   0.207   3.938
  428SOL     OW 2182   3.862   0.787   2.928
  428SOL    HW1 2183   3.797   0.782   3.004
  428SOL    HW2 2184   3.892   0.881   2.915
  429SOL     OW 2185   0.768   4.937   3.753
  429SOL    HW1 2186   0.688   4.984   3.788
  429SOL    HW2 2187   0.765   4.841   3.779
  430SOL     OW 2188   1.270   6.858   4.545
  430SOL    HW1 2189   1.179   6.837   4.578
  430SOL    HW2 2190   1.328   6.886   4.621
  431SOL     OW 2191   2.814   1.342   0.698
  431SOL    HW1 2192   2.885   1.395   0.651
  431SOL    HW2 2193   2.811   1.367   0.794
  432SOL     OW 2194   6.032   2.270   0.839
  432SOL    HW1 2195   5.976   2.276   0.757
  432SOL    HW2 2196   6.038   2.360   0.882
  433SOL     OW 2197   2.226   6.332   5.935
  433SOL    HW1 2198   2.132   6.298   5.943
  433SOL    HW2 2199   2.268   6.336   6.025
  434SOL     OW 2200   4.463   6.042   3.390
  434SOL    HW1 2201   4.423   6.102   3.321
  434SOL    HW2 2202   4.402   6.037   3.469
  435SOL     OW 2203   3.730   2.115   5.613
  435SOL    HW1 2204   3.762   2.022   5.634
  435SOL    HW2 2205   3.800   2.162   5.559
  436SOL     OW 2206   3.316   5.720   2.172
  436SOL    HW1 2207   3.384   5.748   2.240
  436SOL    HW2 2208   3.226   5.753   2.199
  437SOL     OW 2209   0.895   1.467   5.999
  437SOL    HW1 2210   0.817   1.530   5.997
  437SOL    HW2 2211   0.948   1.477   5.915
  438SOL     OW 2212   1.020   3.503   3.998
  438SOL    HW1 2213   1.008   3.533   4.092
  438SOL    HW2 2214   1.030   3.583   3.938
  439SOL     OW 2215   5.499   6.450   2.112
  439SOL    HW1 2216   5.512   6.449   2.013
  439SOL    HW2 2217   5.475   6.359   2.144
  440SOL     OW 2218   3.121   1.297   6.196
  440SOL    HW1 2219   3.180   1.307   6.275
  440SOL    HW2 2220   3.152   1.357   6.122
  441SOL     OW 2221   6.416   3.700   3.822
  441SOL    HW1 2222   6.438   3.608   3.854
  441SOL    HW2 2223   6.346   3.695   3.751
  442SOL     OW 2224   4.934   5.537   5.715
  442SOL    HW1 2225   4.907   5.464   5.652
  442SOL    HW2 2226   5.034   5.545   5.714
  443SOL     OW 2227   5.441   3.900   4.503
  443SOL    HW1 2228   5.447   3.808   4.541
  443SOL    HW2 2229   5.459   3.896   4.404
  444SOL     OW 2230   4.325   0.554   6.196
  444SOL    HW1 2231   4.340   0.461   6.163
  444SOL    HW2 2232   4.298   0.551   6.292
  445SOL     OW 2233   2.329   5.985   2.874
  445SOL    HW1 2234   2.345   6.057   2.807
  445SOL    HW2 2235   2.394   5.994   2.949
  446SOL     OW 2236   4.085   5.908   2.974
  446SOL    HW1 2237   4.124   5.980   2.915
  446SOL    HW2 2238   4.025   5.850   2.920
  447SOL     OW 2239   6.599   3.530   4.830
  447SOL    HW1 2240   6.676   3.469   4.845
  447SOL    HW2 2241   6.596   3.557   4.733
  448SOL     OW 2242   2.620   0.724   2.778
  448SOL    HW1 2243   2.653   0.671   2.856
  448SOL    HW2 2244   2.549   0.672   2.730
  449SOL     OW 2245   2.974   1.603   4.004
  449SOL    HW1 2246   2.936   1.554   4.082
  449SOL    HW2 2247   3.042   1.545   3.958
  450SOL     OW 2248   1.612   4.986   3.789
  450SOL    HW1 2249   1.547   4.930   3.840
  450SOL    HW2 2250   1.666   4.928   3.729
  451SOL     OW 2251   2.041   2.340   4.376
  451SOL    HW1 2252   1.984   2.304   4.450
  451SOL    HW2 2253   2.136   2.344   4.406
  452SOL     OW 2254   4.389   6.445   1.562
  452SOL    HW1 2255   4.321   6.447   1.489
  452SOL    HW2 2256   4.344   6.464   1.650
  453SOL     OW 2257   3.387   6.593   6.267
  453SOL    HW1 2258   3.436   6.512   6.236
  453SOL    HW2 2259   3.451   6.669   6.277
  454SOL     OW 2260   7.021   3.876   6.753
  454SOL    HW1 2261   6.948   3.928   6.797
  454SOL    HW2 2262   0.039   3.813   6.819
  455SOL     OW 2263   6.325   2.786   4.998
  455SOL    HW1 2264   6.402   2.738   4.956
  455SOL    HW2 2265   6.346   2.804   5.094
  456SOL     OW 2266   1.420   0.677   4.243
  456SOL    HW1 2267   1.495   0.612   4.234
  456SOL    HW2 2268   1.387   0.678   4.338
  457SOL     OW 2269   2.078   4.146   4.244
  457SOL    HW1 2270   2.004   4.199   4.286
  457SOL    HW2 2271   2.067   4.145   4.145
  458SOL     OW 2272   3.225   0.540   2.699
  458SOL    HW1 2273   3.292   0.530   2.772
  458SOL    HW2 2274   3.147   0.593   2.732
  459SOL     OW 2275   1.687   0.443   5.224
  459SOL    HW1 2276   1.758   0.374   5.235
  459SOL    HW2 2277   1.606   0.416   5.276
  460SOL     OW 2278   1.448   0.418   4.939
  460SOL    HW1 2279   1.444   0.411   4.839
  460SOL    HW2 2280   1.477   0.510   4.964
  461SOL     OW 2281   6.441   4.944   5.923
  461SOL    HW1 2282   6.372   4.963   5.853
  461SOL    HW2 2283   6.510   4.882   5.885
  462SOL     OW 2284   4.016   3.695   5.461
  462SOL    HW1 2285   3.985   3.779   5.506
  462SOL    HW2 2286   3.956   3.619   5.487
  463SOL     OW 2287   0.337   0.547   3.428
  463SOL    HW1 2288   0.412   0.614   3.427
  463SOL    HW2 2289   0.300   0.541   3.521
  464SOL     OW 2290   2.865   0.664   6.112
  464SOL    HW1 2291   2.923   0.630   6.039
  464SOL    HW2 2292   2.772   0.677   6.078
  465SOL     OW 2293   0.660   2.333   0.018
  465SOL    HW1 2294   0.577   2.386   0.037
  465SOL    HW2 2295   0.649   2.282   6.954
  466SOL     OW 2296   2.591   6.643   4.314
  466SOL    HW1 2297   2.533   6.707   4.265
  466SOL    HW2 2298   2.542   6.556   4.325
  467SOL     OW 2299   1.405   1.606   2.813
  467SOL    HW1 2300   1.342   1.606   2.736
  467SOL    HW2 2301   1.365   1.554   2.889
  468SOL     OW 2302   4.299   5.579   5.599
  468SOL    HW1 2303   4.221   5.634   5.570
  468SOL    HW2 2304   4.285   5.484   5.570
  469SOL     OW 2305   3.022   4.238   5.827
  469SOL    HW1 2306   2.954   4.298   5.785
  469SOL    HW2 2307   3.097   4.221   5.763
  470SOL     OW 2308   4.161   5.932   1.878
  470SOL    HW1 2309   4.208   5.910   1.964
  470SOL    HW2 2310   4.070   5.967   1.899
  471SOL     OW 2311   2.883   2.291   4.258
  471SOL    HW1 2312   2.795   2.340   4.262
  471SOL    HW2 2313   2.950   2.348   4.210
  472SOL     OW 2314   5.650   4.835   6.610
  472SOL    HW1 2315   5.706   4.804   6.686
  472SOL    HW2 2316   5.701   4.827   6.525
  473SOL     OW 2317   0.740   2.595   2.157
  473SOL    HW1 2318   0.779   2.643   2.078
  473SOL    HW2 2319   0.641   2.591   2.149
  474SOL     OW 2320   5.747   5.249   5.475
  474SOL    HW1 2321   5.846   5.260   5.466
  474SOL    HW2 2322   5.724   5.230   5.570
  475SOL     OW 2323   6.061   3.309   0.161
  475SOL    HW1 2324   6.016   3.363   0.092
  475SOL    HW2 2325   6.035   3.213   0.151
  476SOL     OW 2326   6.987   3.599   2.105
  476SOL    HW1 2327   6.985   3.591   2.006
  476SOL    HW2 2328   0.055   3.632   2.134
  477SOL     OW 2329   2.545   5.752   3.677
  477SOL    HW1 2330   2.494   5.808   3.611
  477SOL    HW2 2331   2.616   5.701   3.630
  478SOL     OW 2332   3.811   6.403   3.462
  478SOL    HW1 2333   3.792   6.323   3.519
  478SOL    HW2 2334   3.842   6.373   3.372
  479SOL     OW 2335   3.950   3.098   5.063
  479SOL    HW1 2336   3.926   3.178   5.007
  479SOL    HW2 2337   3.880   3.027   5.051
  480SOL     OW 2338   2.682   0.356   1.452
  480SOL    HW1 2339   2.645   0.301   1.526
  480SOL    HW2 2340   2.622   0.434   1.434
  481SOL     OW 2341   0.358   6.428   1.610
  481SOL    HW1 2342   0.342   6.474   1.698
  481SOL    HW2 2343   0.449   6.451   1.576
  482SOL     OW 2344   4.511   4.945   3.130
  482SOL    HW1 2345   4.452   5.025   3.144
  482SOL    HW2 2346   4.468   4.864   3.171
  483SOL     OW 2347   6.766   2.048   2.247
  483SOL    HW1 2348   6.791   2.125   2.189
  483SOL    HW2 2349   6.848   1.996   2.270
  484SOL     OW 2350   1.788   4.289   4.701
  484SOL    HW1 2351   1.744   4.372   4.736
  484SOL    HW2 2352   1.783   4.288   4.601
  485SOL     OW 2353   5.063   4.594   2.647
  485SOL    HW1 2354   4.963   4.587   2.647
  485SOL    HW2 2355   5.099   4.564   2.735
  486SOL     OW 2356   6.003   1.451   6.760
  486SOL    HW1 2357   6.046   1.521   6.703
  486SOL    HW2 2358   5.906   1.445   6.738
  487SOL     OW 2359   0.718   0.778   2.828
  487SOL    HW1 2360   0.812   0.747   2.840
  487SOL    HW2 2361   0.685   0.818   2.914
  488SOL     OW 2362   1.054   6.919   2.646
  488SOL    HW1 2363   0.970   6.971   2.658
  488SOL    HW2 2364   1.092   6.937   2.555
  489SOL     OW 2365   5.755   5.899   5.193
  489SOL    HW1 2366   5.802   5.811   5.197
  489SOL    HW2 2367   5.793   5.961   5.261
  490SOL     OW 2368   1.265   6.011   4.180
  490SOL    HW1 2369   1.256   6.070   4.099
  490SOL    HW2 2370   1.360   6.011   4.211
  491SOL     OW 2371   1.126   3.413   1.285
  491SOL    HW1 2372   1.149   3.408   1.382
  491SOL    HW2 2373   1.207   3.391   1.230
  492SOL     OW 2374   1.325   1.086   5.646
  492SOL    HW1 2375   1.364   1.156   5.706
  492SOL    HW2 2376   1.255   1.034   5.695
  493SOL     OW 2377   2.425   6.923   5.689
  493SOL    HW1 2378   2.513   6.930   5.644
  493SOL    HW2 2379   2.358   6.979   5.641
  494SOL     OW 2380   1.533   1.134   6.273
  494SOL    HW1 2381   1.519   1.129   6.372
  494SOL    HW2 2382   1.539   1.230   6.245
  495SOL     OW 2383   3.427   6.323   4.685
  495SOL    HW1 2384   3.425   6.225   4.665
  495SOL    HW2 2385   3.345   6.349   4.735
  496SOL     OW 2386   6.325   1.840   1.855
  496SOL    HW1 2387   6.402   1.779   1.837
  496SOL    HW2 2388   6.356   1.920   1.905
  497SOL     OW 2389   3.400   1.406   4.330
  497SOL    HW1 2390   3.370   1.322   4.376
  497SOL    HW2 2391   3.370   1.404   4.234
  498SOL     OW 2392   0.834   4.683   2.470
  498SOL    HW1 2393   0.920   4.634   2.455
  498SOL    HW2 2394   0.764   4.646   2.408
  499SOL     OW 2395   1.816   5.371   4.934
  499SOL    HW1 2396   1.731   5.383   4.985
  499SOL    HW2 2397   1.882   5.440   4.963
  500SOL     OW 2398   5.586   2.489   6.462
  500SOL    HW1 2399   5.583   2.539   6.548
  500SOL    HW2 2400   5.577   2.554   6.386
  501SOL     OW 2401   3.969   6.971   1.070
  501SOL    HW1 2402   3.954   0.042   1.036
  501SOL    HW2 2403   3.978   6.908   0.994
  502SOL     OW 2404   0.654   4.924   6.033
  502SOL    HW1 2405   0.585   4.918   6.105
  502SOL    HW2 2406   0.629   4.865   5.957
  503SOL     OW 2407   2.364   4.899   6.281
  503SOL    HW1 2408   2.309   4.958   6.340
  503SOL    HW2 2409   2.345   4.803   6.301
  504SOL     OW 2410   0.426   5.747   1.667
  504SOL    HW1 2411   0.390   5.766   1.576
  504SOL    HW2 2412   0.512   5.696   1.659
  505SOL     OW 2413   4.469   6.864   5.026
  505SOL    HW1 2414   4.568   6.859   5.018
  505SOL    HW2 2415   4.429   6.773   5.013
  506SOL     OW 2416   2.826   5.998   1.880
  506SOL    HW1 2417   2.761   5.958   1.815
  506SOL    HW2 2418   2.881   6.067   1.834
  507SOL     OW 2419   3.902   0.066   2.618
  507SOL    HW1 2420   3.835   0.133   2.585
  507SOL    HW2 2421   3.864   0.014   2.694
  508SOL     OW 2422   6.970   2.404   2.649
  508SOL    HW1 2423   0.013   2.331   2.624
  508SOL    HW2 2424   7.016   2.471   2.708
  509SOL     OW 2425   4.255   1.191   0.856
  509SOL    HW1 2426   4.247   1.224   0.950
  509SOL    HW2 2427   4.291   1.097   0.857
  510SOL     OW 2428   6.902   5.138   5.946
  510SOL    HW1 2429   6.933   5.116   6.038
  510SOL    HW2 2430   6.951   5.218   5.912
  511SOL     OW 2431   1.075   2.190   6.721
  511SOL    HW1 2432   1.034   2.243   6.647
  511SOL    HW2 2433   1.033   2.099   6.723
  512SOL     OW 2434   6.181   2.703   6.774
  512SOL    HW1 2435   6.134   2.781   6.816
  512SOL    HW2 2436   6.180   2.713   6.675
  513SOL     OW 2437   5.234   7.018   2.694
  513SOL    HW1 2438   5.154   0.001   2.754
  513SOL    HW2 2439   5.210   6.969   2.610
  514SOL     OW 2440   7.019   0.644   4.594
  514SOL    HW1 2441   0.082   0.596   4.570
  514SOL    HW2 2442   6.940   0.589   4.567
  515SOL     OW 2443   1.938   0.091   6.919
  515SOL    HW1 2444   1.878   0.078   6.998
  515SOL    HW2 2445   1.949   0.189   6.902
  516SOL     OW 2446   2.753   4.706   2.201
  516SOL    HW1 2447   2.836   4.738   2.247
  516SOL    HW2 2448   2.778   4.663   2.114
  517SOL     OW 2449   3.338   4.686   1.667
  517SOL    HW1 2450   3.413   4.684   1.733
  517SOL    HW2 2451   3.253   4.710   1.713
  518SOL     OW 2452   2.633   2.347   3.910
  518SOL    HW1 2453   2.616   2.344   3.811
  518SOL    HW2 2454   2.591   2.430   3.948
  519SOL     OW 2455   0.079   6.242   3.564
  519SOL    HW1 2456   7.014   6.292   3.556
  519SOL    HW2 2457   0.061   6.148   3.591
  520SOL     OW 2458   0.159   3.436   6.609
  520SOL    HW1 2459   0.217   3.355   6.603
  520SOL    HW2 2460   0.064   3.408   6.621
  521SOL     OW 2461   5.175   5.796   4.963
  521SOL    HW1 2462   5.270   5.824   4.953
  521SOL    HW2 2463   5.118   5.876   4.981
  522SOL     OW 2464   4.132   3.694   2.666
  522SOL    HW1 2465   4.195   3.770   2.651
  522SOL    HW2 2466   4.135   3.666   2.761
  523SOL     OW 2467   6.787   5.715   1.953
  523SOL    HW1 2468   6.689   5.735   1.962
  523SOL    HW2 2469   6.808   5.694   1.858
  524SOL     OW 2470   1.721   2.650   2.516
  524SOL    HW1 2471   1.668   2.716   2.571
  524SOL    HW2 2472   1.693   2.657   2.421
  525SOL     OW 2473   1.810   4.120   6.187
  525SOL    HW1 2474   1.712   4.127   6.205
  525SOL    HW2 2475   1.842   4.204   6.143
  526SOL     OW 2476   3.287   6.699   4.226
  526SOL    HW1 2477   3.198   6.695   4.272
  526SOL    HW2 2478   3.359   6.713   4.294
  527SOL     OW 2479   0.524   2.131   0.378
  527SOL    HW1 2480   0.443   2.072   0.381
  527SOL    HW2 2481   0.498   2.220   0.342
  528SOL     OW 2482   1.875   2.679   3.723
  528SOL    HW1 2483   1.935   2.750   3.686
  528SOL    HW2 2484   1.795   2.669   3.664
  529SOL     OW 2485   1.752   7.021   4.739
  529SOL    HW1 2486   1.690   0.054   4.796
  529SOL    HW2 2487   1.844   0.004   4.777
  530SOL     OW 2488   4.145   3.494   2.500
  530SOL    HW1 2489   4.111   3.573   2.552
  530SOL    HW2 2490   4.186   3.429   2.564
  531SOL     OW 2491   1.291   1.115   2.850
  531SOL    HW1 2492   1.243   1.192   2.892
  531SOL    HW2 2493   1.379   1.102   2.896
  532SOL     OW 2494   1.388   3.546   0.567
  532SOL    HW1 2495   1.357   3.457   0.600
  532SOL    HW2 2496   1.443   3.590   0.638
  533SOL     OW 2497   4.432   6.967   3.437
  533SOL    HW1 2498   4.351   6.913   3.460
  533SOL    HW2 2499   4.417   0.041   3.465
  534SOL     OW 2500   6.115   6.160   2.622
  534SOL    HW1 2501   6.177   6.093   2.581
  534SOL    HW2 2502   6.030   6.114   2.649
  535SOL     OW 2503   0.070   4.249   2.727
  535SOL    HW1 2504   0.007   4.297   2.788
  535SOL    HW2 2505   0.042   4.154   2.719
  536SOL     OW 2506   6.174   4.961   2.595
  536SOL    HW1 2507   6.258   4.998   2.554
  536SOL    HW2 2508   6.184   4.961   2.695
  537SOL     OW 2509   3.774   0.346   4.009
  537SOL    HW1 2510   3.798   0.346   4.106
  537SOL    HW2 2511   3.711   0.271   3.990
  538SOL     OW 2512   0.875   4.471   4.233
  538SOL    HW1 2513   0.837   4.382   4.207
  538SOL    HW2 2514   0.876   4.532   4.154
  539SOL     OW 2515   1.768   5.230   2.254
  539SOL    HW1 2516   1.693   5.166   2.240
  539SOL    HW2 2517   1.766   5.300   2.182
  540SOL     OW 2518   1.829   0.713   3.526
  540SOL    HW1 2519   1.833   0.731   3.428
  540SOL    HW2 2520   1.863   0.792   3.577
  541SOL     OW 2521   4.482   5.607   3.955
  541SOL    HW1 2522   4.499   5.508   3.952
  541SOL    HW2 2523   4.566   5.655   3.980
  542SOL     OW 2524   4.281   6.516   6.930
  542SOL    HW1 2525   4.378   6.497   6.914
  542SOL    HW2 2526   4.271   6.562   7.018
  543SOL     OW 2527   5.833   3.640   3.334
  543SOL    HW1 2528   5.861   3.570   3.400
  543SOL    HW2 2529   5.868   3.616   3.243
  544SOL     OW 2530   0.520   5.346   6.902
  544SOL    HW1 2531   0.531   5.404   6.821
  544SOL    HW2 2532   0.460   5.391   6.968
  545SOL     OW 2533   3.883   1.016   1.262
  545SOL    HW1 2534   3.849   0.943   1.203
  545SOL    HW2 2535   3.852   1.001   1.356
  546SOL     OW 2536   1.675   3.940   1.490
  546SOL    HW1 2537   1.668   3.941   1.589
  546SOL    HW2 2538   1.615   4.010   1.451
  547SOL     OW 2539   3.590   2.578   1.029
  547SOL    HW1 2540   3.636   2.595   0.942
  547SOL    HW2 2541   3.592   2.480   1.049
  548SOL     OW 2542   3.470   3.440   1.803
  548SOL    HW1 2543   3.483   3.377   1.727
  548SOL    HW2 2544   3.543   3.426   1.870
  549SOL     OW 2545   5.318   2.441   1.797
  549SOL    HW1 2546   5.266   2.422   1.714
  549SOL    HW2 2547   5.329   2.539   1.809
  550SOL     OW 2548   0.885   5.738   3.338
  550SOL    HW1 2549   0.895   5.690   3.251
  550SOL    HW2 2550   0.839   5.679   3.404
  551SOL     OW 2551   0.157   0.102   1.955
  551SOL    HW1 2552   0.194   0.156   1.880
  551SOL    HW2 2553   0.178   0.148   2.042
  552SOL     OW 2554   5.787   3.980   6.036
  552SOL    HW1 2555   5.707   3.925   6.012
  552SOL    HW2 2556   5.806   4.046   5.963
  553SOL     OW 2557   2.649   6.940   3.914
  553SOL    HW1 2558   2.564   6.991   3.925
  553SOL    HW2 2559   2.683   6.913   4.004
  554SOL     OW 2560   6.044   6.919   0.236
  554SOL    HW1 2561   6.125   6.891   0.185
  554SOL    HW2 2562   5.986   6.840   0.253
  555SOL     OW 2563   3.193   4.916   4.771
  555SOL    HW1 2564   3.120   4.884   4.832
  555SOL    HW2 2565   3.156   4.931   4.680
  556SOL     OW 2566   4.730   2.117   4.181
  556SOL    HW1 2567   4.640   2.075   4.193
  556SOL    HW2 2568   4.758   2.110   4.085
  557SOL     OW 2569   6.955   5.241   6.650
  557SOL    HW1 2570   6.963   5.194   6.738
  557SOL    HW2 2571   6.904   5.326   6.662
  558SOL     OW 2572   3.063   3.203   3.788
  558SOL    HW1 2573   3.132   3.137   3.816
  558SOL    HW2 2574   3.016   3.239   3.869
  559SOL     OW 2575   6.770   5.128   5.155
  559SOL    HW1 2576   6.866   5.148   5.176
  559SOL    HW2 2577   6.716   5.130   5.239
  560SOL     OW 2578   6.304   4.166   3.613
  560SOL    HW1 2579   6.289   4.264   3.598
  560SOL    HW2 2580   6.402   4.146   3.606
  561SOL     OW 2581   0.120   2.190   0.586
  561SOL    HW1 2582   0.162   2.252   0.520
  561SOL    HW2 2583   0.043   2.143   0.544
  562SOL     OW 2584   3.897   0.620   6.217
  562SOL    HW1 2585   3.973   0.603   6.154
  562SOL    HW2 2586   3.923   0.590   6.309
  563SOL     OW 2587   2.495   1.427   3.927
  563SOL    HW1 2588   2.408   1.475   3.938
  563SOL    HW2 2589   2.500   1.352   3.994
  564SOL     OW 2590   0.740   3.370   0.218
  564SOL    HW1 2591   0.703   3.358   0.310
  564SOL    HW2 2592   0.721   3.289   0.163
  565SOL     OW 2593   3.352   3.481   4.120
  565SOL    HW1 2594   3.307   3.523   4.041
  565SOL    HW2 2595   3.451   3.480   4.106
  566SOL     OW 2596   0.895   3.455   3.616
  566SOL    HW1 2597   0.825   3.520   3.648
  566SOL    HW2 2598   0.976   3.463   3.674
  567SOL     OW 2599   3.365   2.603   1.397
  567SOL    HW1 2600   3.330   2.668   1.465
  567SOL    HW2 2601   3.291   2.542   1.369
  568SOL     OW 2602   4.297   0.245   0.403
  568SOL    HW1 2603   4.264   0.289   0.320
  568SOL    HW2 2604   4.249   0.282   0.482
  569SOL     OW 2605   0.805   3.259   0.746
  569SOL    HW1 2606   0.887   3.202   0.746
  569SOL    HW2 2607   0.795   3.305   0.657
  570SOL     OW 2608   3.437   0.638   6.653
  570SOL    HW1 2609   3.398   0.708   6.593
  570SOL    HW2 2610   3.383   0.554   6.646
  571SOL     OW 2611   3.196   5.193   3.602
  571SOL    HW1 2612   3.144   5.108   3.592
  571SOL    HW2 2613   3.287   5.182   3.562
  572SOL     OW 2614   2.573   5.181   5.330
  572SOL    HW1 2615   2.576   5.133   5.242
  572SOL    HW2 2616   2.638   5.138   5.393
  573SOL     OW 2617   5.896   1.168   6.159
  573SOL    HW1 2618   5.804   1.206   6.148
  573SOL    HW2 2619   5.931   1.191   6.249
  574SOL     OW 2620   3.313   1.100   4.169
  574SOL    HW1 2621   3.357   1.010   4.164
  574SOL    HW2 2622   3.304   1.127   4.264
  575SOL     OW 2623   4.519   3.145   1.691
  575SOL    HW1 2624   4.582   3.115   1.762
  575SOL    HW2 2625   4.568   3.156   1.605
  576SOL     OW 2626   1.264   3.023   3.231
  576SOL    HW1 2627   1.283   2.950   3.296
  576SOL    HW2 2628   1.184   2.998   3.176
  577SOL     OW 2629   1.546   1.013   2.327
  577SOL    HW1 2630   1.471   0.949   2.311
  577SOL    HW2 2631   1.540   1.088   2.262
  578SOL     OW 2632   0.181   5.151   4.075
  578SOL    HW1 2633   0.100   5.208   4.085
  578SOL    HW2 2634   0.222   5.135   4.164
  579SOL     OW 2635   1.494   3.275   3.876
  579SOL    HW1 2636   1.402   3.246   3.900
  579SOL    HW2 2637   1.551   3.276   3.958
  580SOL     OW 2638   4.232   5.015   5.582
  580SOL    HW1 2639   4.194   4.965   5.660
  580SOL    HW2 2640   4.178   4.994   5.500
  581SOL     OW 2641   1.709   2.788   1.897
  581SOL    HW1 2642   1.704   2.809   1.994
  581SOL    HW2 2643   1.796   2.742   1.877
  582SOL     OW 2644   4.846   5.256   2.586
  582SOL    HW1 2645   4.776   5.211   2.530
  582SOL    HW2 2646   4.864   5.347   2.549
  583SOL     OW 2647   2.479   6.178   5.102
  583SOL    HW1 2648   2.475   6.133   5.192
  583SOL    HW2 2649   2.575   6.197   5.079
  584SOL     OW 2650   2.972   6.396   6.358
  584SOL    HW1 2651   2.880   6.358   6.367
  584SOL    HW2 2652   3.007   6.379   6.266
  585SOL     OW 2653   4.589   1.001   0.072
  585SOL    HW1 2654   4.492   0.988   0.051
  585SOL    HW2 2655   4.598   1.035   0.165
  586SOL     OW 2656   3.263   0.431   6.611
  586SOL    HW1 2657   3.250   0.363   6.684
  586SOL    HW2 2658   3.183   0.491   6.607
  587SOL     OW 2659   4.902   2.381   3.758
  587SOL    HW1 2660   4.959   2.320   3.703
  587SOL    HW2 2661   4.876   2.461   3.704
  588SOL     OW 2662   2.401   4.663   1.698
  588SOL    HW1 2663   2.427   4.656   1.794
  588SOL    HW2 2664   2.373   4.573   1.664
  589SOL     OW 2665   3.575   5.378   1.781
  589SOL    HW1 2666   3.562   5.429   1.696
  589SOL    HW2 2667   3.633   5.298   1.763
  590SOL     OW 2668   5.400   1.981   2.037
  590SOL    HW1 2669   5.382   2.063   1.982
  590SOL    HW2 2670   5.499   1.974   2.054
  591SOL     OW 2671   3.669   6.041   3.517
  591SOL    HW1 2672   3.658   6.095   3.433
  591SOL    HW2 2673   3.762   6.003   3.520
  592SOL     OW 2674   4.612   0.539   1.624
  592SOL    HW1 2675   4.638   0.538   1.721
  592SOL    HW2 2676   4.678   0.593   1.572
  593SOL     OW 2677   4.635   2.700   4.079
  593SOL    HW1 2678   4.625   2.762   4.157
  593SOL    HW2 2679   4.598   2.610   4.104
  594SOL     OW 2680   5.556   0.612   0.564
  594SOL    HW1 2681   5.507   0.559   0.494
  594SOL    HW2 2682   5.651   0.625   0.536
  595SOL     OW 2683   5.446   0.075   3.478
  595SOL    HW1 2684   5.486   7.004   3.475
  595SOL    HW2 2685   5.372   0.081   3.411
  596SOL     OW 2686   0.162   4.887   3.067
  596SOL    HW1 2687   0.173   4.973   3.118
  596SOL    HW2 2688   0.208   4.813   3.117
  597SOL     OW 2689   2.275   0.173   6.680
  597SOL    HW1 2690   2.214   0.207   6.609
  597SOL    HW2 2691   2.256   0.219   6.766
  598SOL     OW 2692   3.822   3.986   4.599
  598SOL    HW1 2693   3.732   4.030   4.598
  598SOL    HW2 2694   3.857   3.985   4.693
  599SOL     OW 2695   2.696   5.567   2.957
  599SOL    HW1 2696   2.639   5.649   2.964
  599SOL    HW2 2697   2.730   5.543   3.048
  600SOL     OW 2698   5.956   1.809   6.807
  600SOL    HW1 2699   6.014   1.744   6.759
  600SOL    HW2 2700   6.011   1.887   6.837
  601SOL     OW 2701   1.602   0.913   3.881
  601SOL    HW1 2702   1.542   0.930   3.959
  601SOL    HW2 2703   1.637   1.000   3.847
  602SOL     OW 2704   1.417   0.696   6.295
  602SOL    HW1 2705   1.469   0.688   6.209
  602SOL    HW2 2706   1.476   0.733   6.366
  603SOL     OW 2707   2.908   2.753   5.361
  603SOL    HW1 2708   3.005   2.776   5.358
  603SOL    HW2 2709   2.853   2.835   5.345
  604SOL     OW 2710   0.673   1.487   1.516
  604SOL    HW1 2711   0.645   1.494   1.612
  604SOL    HW2 2712   0.630   1.407   1.475
  605SOL     OW 2713   6.620   5.204   0.230
  605SOL    HW1 2714   6.601   5.232   0.136
  605SOL    HW2 2715   6.534   5.199   0.281
  606SOL     OW 2716   5.125   6.354   5.593
  606SOL    HW1 2717   5.089   6.446   5.577
  606SOL    HW2 2718   5.192   6.356   5.666
  607SOL     OW 2719   6.252   4.508   5.160
  607SOL    HW1 2720   6.348   4.491   5.137
  607SOL    HW2 2721   6.194   4.443   5.111
  608SOL     OW 2722   4.305   6.197   6.600
  608SOL    HW1 2723   4.255   6.213   6.685
  608SOL    HW2 2724   4.265   6.253   6.527
  609SOL     OW 2725   3.903   3.001   2.635
  609SOL    HW1 2726   3.907   3.096   2.603
  609SOL    HW2 2727   3.915   2.999   2.734
  610SOL     OW 2728   6.082   3.304   0.677
  610SOL    HW1 2729   6.119   3.253   0.599
  610SOL    HW2 2730   6.041   3.389   0.645
  611SOL     OW 2731   4.699   7.021   1.906
  611SOL    HW1 2732   4.643   0.037   1.832
  611SOL    HW2 2733   4.656   0.021   1.994
  612SOL     OW 2734   4.061   5.483   4.266
  612SOL    HW1 2735   4.089   5.463   4.173
  612SOL    HW2 2736   3.961   5.481   4.273
  613SOL     OW 2737   4.379   5.399   4.997
  613SOL    HW1 2738   4.420   5.487   5.020
  613SOL    HW2 2739   4.413   5.368   4.908
  614SOL     OW 2740   5.110   5.185   6.301
  614SOL    HW1 2741   5.027   5.135   6.275
  614SOL    HW2 2742   5.089   5.245   6.378
  615SOL     OW 2743   6.554   2.033   1.351
  615SOL    HW1 2744   6.532   1.998   1.260
  615SOL    HW2 2745   6.566   2.132   1.346
  616SOL     OW 2746   0.114   2.946   2.271
  616SOL    HW1 2747   0.080   2.872   2.328
  616SOL    HW2 2748   0.077   2.938   2.179
  617SOL     OW 2749   0.150   4.597   6.058
  617SOL    HW1 2750   0.186   4.638   6.142
  617SOL    HW2 2751   0.114   4.669   5.998
  618SOL     OW 2752   0.374   2.522   0.832
  618SOL    HW1 2753   0.459   2.470   0.823
  618SOL    HW2 2754   0.343   2.552   0.742
  619SOL     OW 2755   3.723   1.547   0.677
  619SOL    HW1 2756   3.627   1.518   0.671
  619SOL    HW2 2757   3.772   1.489   0.742
  620SOL     OW 2758   4.415   2.523   1.481
  620SOL    HW1 2759   4.360   2.528   1.565
  620SOL    HW2 2760   4.428   2.427   1.456
  621SOL     OW 2761   2.709   6.419   6.647
  621SOL    HW1 2762   2.786   6.454   6.700
  621SOL    HW2 2763   2.722   6.321   6.630
  622SOL     OW 2764   1.084   0.894   6.359
  622SOL    HW1 2765   1.162   0.944   6.321
  622SOL    HW2 2766   1.116   0.812   6.405
  623SOL     OW 2767   0.677   5.556   5.736
  623SOL    HW1 2768   0.622   5.568   5.818
  623SOL    HW2 2769   0.618   5.560   5.655
  624SOL     OW 2770   0.009   2.347   0.843
  624SOL    HW1 2771   0.058   2.304   0.767
  624SOL    HW2 2772   0.075   2.388   0.906
  625SOL     OW 2773   2.431   1.285   0.844
  625SOL    HW1 2774   2.459   1.362   0.902
  625SOL    HW2 2775   2.335   1.298   0.817
  626SOL     OW 2776   2.442   5.397   3.653
  626SOL    HW1 2777   2.431   5.362   3.747
  626SOL    HW2 2778   2.482   5.488   3.656
  627SOL     OW 2779   5.140   0.287   0.388
  627SOL    HW1 2780   5.074   0.213   0.400
  627SOL    HW2 2781   5.175   0.315   0.477
  628SOL     OW 2782   5.772   5.611   5.661
  628SOL    HW1 2783   5.860   5.577   5.627
  628SOL    HW2 2784   5.698   5.559   5.618
  629SOL     OW 2785   0.238   6.892   0.141
  629SOL    HW1 2786   0.154   6.938   0.113
  629SOL    HW2 2787   0.278   6.844   0.063
  630SOL     OW 2788   6.341   1.529   1.962
  630SOL    HW1 2789   6.389   1.549   1.876
  630SOL    HW2 2790   6.378   1.588   2.034
  631SOL     OW 2791   3.198   6.370   4.819
  631SOL    HW1 2792   3.170   6.299   4.884
  631SOL    HW2 2793   3.162   6.349   4.729
  632SOL     OW 2794   2.928   1.618   0.398
  632SOL    HW1 2795   2.988   1.697   0.408
  632SOL    HW2 2796   2.916   1.596   0.301
  633SOL     OW 2797   5.062   4.482   0.324
  633SOL    HW1 2798   5.144   4.454   0.276
  633SOL    HW2 2799   5.051   4.427   0.407
  634SOL     OW 2800   4.708   4.132   1.868
  634SOL    HW1 2801   4.628   4.191   1.876
  634SOL    HW2 2802   4.747   4.117   1.959
  635SOL     OW 2803   4.530   4.897   1.008
  635SOL    HW1 2804   4.507   4.811   1.054
  635SOL    HW2 2805   4.448   4.954   1.002
  636SOL     OW 2806   4.075   5.838   6.610
  636SOL    HW1 2807   4.160   5.857   6.658
  636SOL    HW2 2808   3.998   5.868   6.666
  637SOL     OW 2809   6.569   3.550   2.072
  637SOL    HW1 2810   6.606   3.477   2.129
  637SOL    HW2 2811   6.568   3.520   1.976
  638SOL     OW 2812   5.288   2.651   2.525
  638SOL    HW1 2813   5.384   2.646   2.551
  638SOL    HW2 2814   5.256   2.560   2.498
  639SOL     OW 2815   5.173   4.029   2.638
  639SOL    HW1 2816   5.237   4.106   2.642
  639SOL    HW2 2817   5.127   4.019   2.726
  640SOL     OW 2818   0.676   4.991   4.100
  640SOL    HW1 2819   0.613   5.035   4.165
  640SOL    HW2 2820   0.649   5.014   4.007
  641SOL     OW 2821   0.299   5.528   4.458
  641SOL    HW1 2822   0.239   5.511   4.536
  641SOL    HW2 2823   0.389   5.558   4.490
  642SOL     OW 2824   0.291   3.704   4.574
  642SOL    HW1 2825   0.353   3.626   4.568
  642SOL    HW2 2826   0.204   3.680   4.530
  643SOL     OW 2827   5.229   5.525   5.033
  643SOL    HW1 2828   5.189   5.616   5.019
  643SOL    HW2 2829   5.171   5.455   4.992
  644SOL     OW 2830   1.227   6.583   4.324
  644SOL    HW1 2831   1.305   6.614   4.379
  644SOL    HW2 2832   1.146   6.576   4.382
  645SOL     OW 2833   5.360   2.145   4.257
  645SOL    HW1 2834   5.446   2.127   4.304
  645SOL    HW2 2835   5.379   2.179   4.165
  646SOL     OW 2836   3.038   1.398   3.795
  646SOL    HW1 2837   2.966   1.365   3.855
  646SOL    HW2 2838   3.010   1.385   3.699
  647SOL     OW 2839   5.569   2.065   5.655
  647SOL    HW1 2840   5.586   2.035   5.748
  647SOL    HW2 2841   5.496   2.009   5.615
  648SOL     OW 2842   6.759   4.065   3.179
  648SOL    HW1 2843   6.838   4.044   3.237
  648SOL    HW2 2844   6.705   4.137   3.222
  649SOL     OW 2845   3.767   3.998   0.170
  649SOL    HW1 2846   3.806   4.087   0.147
  649SOL    HW2 2847   3.826   3.951   0.236
  650SOL     OW 2848   5.685   4.345   1.130
  650SOL    HW1 2849   5.604   4.288   1.143
  650SOL    HW2 2850   5.748   4.300   1.067
  651SOL     OW 2851   6.691   6.357   6.502
  651SOL    HW1 2852   6.790   6.363   6.503
  651SOL    HW2 2853   6.661   6.308   6.421
  652SOL     OW 2854   5.630   6.259   3.697
  652SOL    HW1 2855   5.677   6.184   3.651
  652SOL    HW2 2856   5.532   6.239   3.703
  653SOL     OW 2857   3.690   0.111   5.032
  653SOL    HW1 2858   3.672   0.075   5.123
  653SOL    HW2 2859   3.745   0.045   4.980
  654SOL     OW 2860   0.131   3.911   5.452
  654SOL    HW1 2861   0.137   3.819   5.413
  654SOL    HW2 2862   0.148   3.907   5.550
  655SOL     OW 2863   0.824   6.953   2.093
  655SOL    HW1 2864   0.857   6.991   2.179
  655SOL    HW2 2865   0.795   6.858   2.107
  656SOL     OW 2866   1.822   5.641   1.591
  656SOL    HW1 2867   1.894   5.683   1.536
  656SOL    HW2 2868   1.846   5.648   1.688
  657SOL     OW 2869   1.627   2.307   1.546
  657SOL    HW1 2870   1.678   2.221   1.553
  657SOL    HW2 2871   1.691   2.383   1.533
  658SOL     OW 2872   2.917   3.817   6.811
  658SOL    HW1 2873   2.826   3.846   6.841
  658SOL    HW2 2874   2.929   3.841   6.715
  659SOL     OW 2875   2.194   6.071   5.711
  659SOL    HW1 2876   2.210   5.973   5.699
  659SOL    HW2 2877   2.247   6.104   5.789
  660SOL     OW 2878   5.076   4.446   2.062
  660SOL    HW1 2879   5.134   4.509   2.113
  660SOL    HW2 2880   5.073   4.358   2.108
  661SOL     OW 2881   3.834   6.231   3.704
  661SOL    HW1 2882   3.901   6.305   3.716
  661SOL    HW2 2883   3.744   6.263   3.736
  662SOL     OW 2884   4.239   0.744   5.318
  662SOL    HW1 2885   4.253   0.771   5.223
  662SOL    HW2 2886   4.261   0.647   5.329
  663SOL     OW 2887   2.679   3.971   6.191
  663SOL    HW1 2888   2.625   4.033   6.134
  663SOL    HW2 2889   2.752   4.023   6.236
  664SOL     OW 2890   0.330   5.797   5.986
  664SOL    HW1 2891   0.318   5.809   5.887
  664SOL    HW2 2892   0.255   5.842   6.034
  665SOL     OW 2893   4.714   5.187   1.878
  665SOL    HW1 2894   4.797   5.133   1.875
  665SOL    HW2 2895   4.643   5.143   1.822
  666SOL     OW 2896   5.287   2.106   2.266
  666SOL    HW1 2897   5.325   2.040   2.200
  666SOL    HW2 2898   5.348   2.113   2.345
  667SOL     OW 2899   1.211   4.571   2.983
  667SOL    HW1 2900   1.167   4.497   2.934
  667SOL    HW2 2901   1.242   4.538   3.073
  668SOL     OW 2902   4.922   6.222   5.720
  668SOL    HW1 2903   4.844   6.258   5.669
  668SOL    HW2 2904   5.007   6.260   5.682
  669SOL     OW 2905   4.671   0.245   2.705
  669SOL    HW1 2906   4.756   0.208   2.744
  669SOL    HW2 2907   4.628   0.305   2.772
  670SOL     OW 2908   3.091   2.861   1.838
  670SOL    HW1 2909   3.077   2.781   1.780
  670SOL    HW2 2910   3.160   2.840   1.907
  671SOL     OW 2911   2.694   6.692   0.829
  671SOL    HW1 2912   2.730   6.641   0.907
  671SOL    HW2 2913   2.675   6.629   0.754
  672SOL     OW 2914   0.093   5.163   1.848
  672SOL    HW1 2915   0.164   5.145   1.916
  672SOL    HW2 2916   0.124   5.134   1.758
  673SOL     OW 2917   6.895   0.401   1.912
  673SOL    HW1 2918   6.812   0.346   1.903
  673SOL    HW2 2919   6.954   0.361   1.983
  674SOL     OW 2920   0.706   1.440   5.296
  674SOL    HW1 2921   0.704   1.450   5.196
  674SOL    HW2 2922   0.782   1.493   5.333
  675SOL     OW 2923   0.282   1.131   2.461
  675SOL    HW1 2924   0.296   1.230   2.461
  675SOL    HW2 2925   0.365   1.087   2.496
  676SOL     OW 2926   3.586   5.470   2.723
  676SOL    HW1 2927   3.502   5.421   2.699
  676SOL    HW2 2928   3.591   5.480   2.823
  677SOL     OW 2929   5.614   1.559   0.828
  677SOL    HW1 2930   5.706   1.524   0.847
  677SOL    HW2 2931   5.611   1.595   0.734
  678SOL     OW 2932   2.586   0.157   5.263
  678SOL    HW1 2933   2.540   0.141   5.176
  678SOL    HW2 2934   2.667   0.098   5.269
  679SOL     OW 2935   4.312   2.379   3.457
  679SOL    HW1 2936   4.254   2.304   3.490
  679SOL    HW2 2937   4.290   2.397   3.361
  680SOL     OW 2938   5.318   5.525   5.287
  680SOL    HW1 2939   5.412   5.493   5.297
  680SOL    HW2 2940   5.293   5.525   5.190
  681SOL     OW 2941   4.806   4.926   1.895
  681SOL    HW1 2942   4.785   4.922   1.797
  681SOL    HW2 2943   4.838   4.837   1.925
  682SOL     OW 2944   6.709   0.837   1.157
  682SOL    HW1 2945   6.741   0.818   1.064
  682SOL    HW2 2946   6.700   0.751   1.207
  683SOL     OW 2947   5.201   2.938   0.526
  683SOL    HW1 2948   5.143   2.909   0.602
  683SOL    HW2 2949   5.227   2.858   0.471
  684SOL     OW 2950   6.488   1.166   0.289
  684SOL    HW1 2951   6.474   1.162   0.190
  684SOL    HW2 2952   6.551   1.094   0.316
  685SOL     OW 2953   4.087   1.806   3.790
  685SOL    HW1 2954   4.007   1.751   3.815
  685SOL    HW2 2955   4.058   1.886   3.738
  686SOL     OW 2956   4.893   2.647   4.043
  686SOL    HW1 2957   4.963   2.645   4.115
  686SOL    HW2 2958   4.818   2.706   4.072
  687SOL     OW 2959   0.282   2.804   4.325
  687SOL    HW1 2960   0.239   2.856   4.398
  687SOL    HW2 2961   0.255   2.708   4.332
  688SOL     OW 2962   0.457   1.901   0.058
  688SOL    HW1 2963   0.548   1.916   0.097
  688SOL    HW2 2964   0.408   1.834   0.114
  689SOL     OW 2965   0.991   4.917   6.386
  689SOL    HW1 2966   0.940   4.837   6.416
  689SOL    HW2 2967   0.958   4.946   6.296
  690SOL     OW 2968   0.183   2.960   2.952
  690SOL    HW1 2969   0.179   2.944   3.051
  690SOL    HW2 2970   0.097   2.928   2.910
  691SOL     OW 2971   2.428   0.969   0.351
  691SOL    HW1 2972   2.347   0.925   0.313
  691SOL    HW2 2973   2.431   1.064   0.322
  692SOL     OW 2974   3.755   0.637   3.756
  692SOL    HW1 2975   3.768   0.547   3.715
  692SOL    HW2 2976   3.767   0.632   3.855
  693SOL     OW 2977   5.696   0.437   4.433
  693SOL    HW1 2978   5.656   0.472   4.517
  693SOL    HW2 2979   5.789   0.473   4.421
  694SOL     OW 2980   4.484   0.172   4.088
  694SOL    HW1 2981   4.396   0.215   4.066
  694SOL    HW2 2982   4.490   0.083   4.043
  695SOL     OW 2983   4.699   6.645   3.848
  695SOL    HW1 2984   4.708   6.569   3.784
  695SOL    HW2 2985   4.752   6.723   3.815
  696SOL     OW 2986   4.649   4.908   3.476
  696SOL    HW1 2987   4.704   4.878   3.397
  696SOL    HW2 2988   4.552   4.906   3.451
  697SOL     OW 2989   1.332   3.997   2.876
  697SOL    HW1 2990   1.296   3.963   2.789
  697SOL    HW2 2991   1.332   3.923   2.944
  698SOL     OW 2992   4.477   6.242   0.936
  698SOL    HW1 2993   4.558   6.269   0.988
  698SOL    HW2 2994   4.494   6.155   0.890
  699SOL     OW 2995   1.989   3.955   6.857
  699SOL    HW1 2996   2.000   3.933   6.760
  699SOL    HW2 2997   1.909   4.015   6.869
  700SOL     OW 2998   2.709   0.787   2.170
  700SOL    HW1 2999   2.736   0.696   2.203
  700SOL    HW2 3000   2.684   0.844   2.248
  701SOL     OW 3001   6.352   4.094   6.758
  701SOL    HW1 3002   6.385   4.185   6.732
  701SOL    HW2 3003   6.340   4.090   6.858
  702SOL     OW 3004   1.579   6.593   5.205
  702SOL    HW1 3005   1.622   6.679   5.178
  702SOL    HW2 3006   1.627   6.517   5.163
  703SOL     OW 3007   3.687   3.037   6.549
  703SOL    HW1 3008   3.667   2.952   6.597
  703SOL    HW2 3009   3.613   3.056   6.484
  704SOL     OW 3010   1.627   2.783   6.948
  704SOL    HW1 3011   1.557   2.787   6.878
  704SOL    HW2 3012   1.654   2.876   6.974
  705SOL     OW 3013   6.245   4.937   2.866
  705SOL    HW1 3014   6.183   4.919   2.943
  705SOL    HW2 3015   6.329   4.884   2.878
  706SOL     OW 3016   4.237   1.920   5.411
  706SOL    HW1 3017   4.245   1.878   5.321
  706SOL    HW2 3018   4.326   1.922   5.456
  707SOL     OW 3019   4.259   4.665   3.349
  707SOL    HW1 3020   4.321   4.664   3.271
  707SOL    HW2 3021   4.266   4.578   3.398
  708SOL     OW 3022   2.976   0.866   2.238
  708SOL    HW1 3023   2.947   0.956   2.270
  708SOL    HW2 3024   3.010   0.874   2.144
  709SOL     OW 3025   0.587   5.899   0.525
  709SOL    HW1 3026   0.593   5.968   0.597
  709SOL    HW2 3027   0.638   5.931   0.445
  710SOL     OW 3028   3.564   2.334   1.138
  710SOL    HW1 3029   3.528   2.240   1.133
  710SOL    HW2 3030   3.658   2.332   1.170
  711SOL     OW 3031   6.902   3.296   5.946
  711SOL    HW1 3032   6.918   3.302   5.848
  711SOL    HW2 3033   6.987   3.270   5.992
  712SOL     OW 3034   3.963   2.004   1.099
  712SOL    HW1 3035   4.006   1.963   1.019
  712SOL    HW2 3036   4.013   1.977   1.182
  713SOL     OW 3037   4.010   3.247   6.236
  713SOL    HW1 3038   3.912   3.235   6.252
  713SOL    HW2 3039   4.024   3.304   6.155
  714SOL     OW 3040   0.537   4.662   3.687
  714SOL    HW1 3041   0.627   4.638   3.721
  714SOL    HW2 3042   0.501   4.741   3.738
  715SOL     OW 3043   4.960   6.336   6.910
  715SOL    HW1 3044   4.981   6.355   7.006
  715SOL    HW2 3045   5.018   6.392   6.851
  716SOL     OW 3046   0.428   1.007   2.091
  716SOL    HW1 3047   0.420   0.992   1.992
  716SOL    HW2 3048   0.393   1.098   2.114
  717SOL     OW 3049   6.306   4.489   3.573
  717SOL    HW1 3050   6.267   4.529   3.490
  717SOL    HW2 3051   6.406   4.485   3.564
  718SOL     OW 3052   4.498   3.572   5.936
  718SOL    HW1 3053   4.511   3.473   5.928
  718SOL    HW2 3054   4.424   3.601   5.874
  719SOL     OW 3055   6.954   0.528   2.857
  719SOL    HW1 3056   7.012   0.592   2.907
  719SOL    HW2 3057   6.972   0.435   2.890
  720SOL     OW 3058   2.561   6.938   6.125
  720SOL    HW1 3059   2.658   6.925   6.103
  720SOL    HW2 3060   2.505   6.902   6.050
  721SOL     OW 3061   2.872   1.430   2.432
  721SOL    HW1 3062   2.789   1.421   2.377
  721SOL    HW2 3063   2.847   1.445   2.528
  722SOL     OW 3064   2.438   0.802   5.328
  722SOL    HW1 3065   2.438   0.847   5.239
  722SOL    HW2 3066   2.531   0.803   5.365
  723SOL     OW 3067   1.519   4.421   3.377
  723SOL    HW1 3068   1.522   4.351   3.305
  723SOL    HW2 3069   1.594   4.405   3.441
  724SOL     OW 3070   0.925   1.451   4.055
  724SOL    HW1 3071   0.945   1.395   4.136
  724SOL    HW2 3072   1.009   1.470   4.006
  725SOL     OW 3073   1.746   5.476   2.017
  725SOL    HW1 3074   1.685   5.544   2.058
  725SOL    HW2 3075   1.705   5.440   1.934
  726SOL     OW 3076   3.496   4.371   1.434
  726SOL    HW1 3077   3.422   4.326   1.384
  726SOL    HW2 3078   3.559   4.413   1.368
  727SOL     OW 3079   5.946   4.535   5.205
  727SOL    HW1 3080   5.878   4.462   5.208
  727SOL    HW2 3081   5.976   4.548   5.110
  728SOL     OW 3082   6.032   2.739   3.274
  728SOL    HW1 3083   5.945   2.718   3.318
  728SOL    HW2 3084   6.043   2.838   3.267
  729SOL     OW 3085   0.405   1.584   1.344
  729SOL    HW1 3086   0.409   1.670   1.294
  729SOL    HW2 3087   0.487   1.575   1.401
  730SOL     OW 3088   6.495   0.113   4.433
  730SOL    HW1 3089   6.562   0.065   4.376
  730SOL    HW2 3090   6.424   0.153   4.374
  731SOL     OW 3091   4.417   5.169   6.780
  731SOL    HW1 3092   4.365   5.169   6.865
  731SOL    HW2 3093   4.515   5.179   6.801
  732SOL     OW 3094   5.650   2.499   1.654
  732SOL    HW1 3095   5.562   2.545   1.654
  732SOL    HW2 3096   5.723   2.566   1.644
  733SOL     OW 3097   5.167   0.447   4.245
  733SOL    HW1 3098   5.240   0.427   4.309
  733SOL    HW2 3099   5.151   0.546   4.241
  734SOL     OW 3100   5.901   4.644   3.028
  734SOL    HW1 3101   5.914   4.546   3.037
  734SOL    HW2 3102   5.859   4.664   2.939
  735SOL     OW 3103   4.332   1.690   0.714
  735SOL    HW1 3104   4.325   1.592   0.728
  735SOL    HW2 3105   4.285   1.715   0.629
  736SOL     OW 3106   0.604   2.010   3.225
  736SOL    HW1 3107   0.656   1.981   3.145
  736SOL    HW2 3108   0.551   1.934   3.260
  737SOL     OW 3109   5.644   2.212   5.997
  737SOL    HW1 3110   5.634   2.260   5.909
  737SOL    HW2 3111   5.708   2.262   6.055
  738SOL     OW 3112   2.447   3.449   1.353
  738SOL    HW1 3113   2.402   3.471   1.267
  738SOL    HW2 3114   2.541   3.482   1.351
  739SOL     OW 3115   5.078   1.131   4.402
  739SOL    HW1 3116   5.043   1.210   4.452
  739SOL    HW2 3117   5.087   1.155   4.305
  740SOL     OW 3118   5.765   1.234   2.080
  740SOL    HW1 3119   5.810   1.227   2.169
  740SOL    HW2 3120   5.820   1.187   2.011
  741SOL     OW 3121   1.817   0.160   2.992
  741SOL    HW1 3122   1.792   0.108   3.073
  741SOL    HW2 3123   1.905   0.206   3.007
  742SOL     OW 3124   2.368   6.743   2.131
  742SOL    HW1 3125   2.463   6.762   2.106
  742SOL    HW2 3126   2.354   6.645   2.138
  743SOL     OW 3127   1.080   5.260   3.469
  743SOL    HW1 3128   1.030   5.284   3.386
  743SOL    HW2 3129   1.148   5.331   3.489
  744SOL     OW 3130   5.577   0.759   0.980
  744SOL    HW1 3131   5.664   0.777   0.934
  744SOL    HW2 3132   5.542   0.670   0.952
  745SOL     OW 3133   1.616   5.438   5.124
  745SOL    HW1 3134   1.614   5.440   5.224
  745SOL    HW2 3135   1.539   5.491   5.088
  746SOL     OW 3136   6.103   4.129   6.215
  746SOL    HW1 3137   6.042   4.206   6.235
  746SOL    HW2 3138   6.050   4.055   6.173
  747SOL     OW 3139   3.766   6.087   4.930
  747SOL    HW1 3140   3.784   6.011   4.867
  747SOL    HW2 3141   3.841   6.153   4.926
  748SOL     OW 3142   4.058   5.386   2.608
  748SOL    HW1 3143   4.006   5.333   2.676
  748SOL    HW2 3144   4.135   5.331   2.575
  749SOL     OW 3145   6.160   4.031   4.144
  749SOL    HW1 3146   6.219   3.966   4.191
  749SOL    HW2 3147   6.065   4.019   4.174
  750SOL     OW 3148   2.638   1.059   1.293
  750SOL    HW1 3149   2.725   1.108   1.289
  750SOL    HW2 3150   2.621   1.027   1.386
  751SOL     OW 3151   4.430   1.314   6.882
  751SOL    HW1 3152   4.339   1.346   6.855
  751SOL    HW2 3153   4.421   1.231   6.938
  752SOL     OW 3154   2.798   2.274   1.204
  752SOL    HW1 3155   2.867   2.233   1.264
  752SOL    HW2 3156   2.756   2.352   1.249
  753SOL     OW 3157   0.693   3.616   6.365
  753SOL    HW1 3158   0.775   3.669   6.382
  753SOL    HW2 3159   0.670   3.561   6.445
  754SOL     OW 3160   4.851   1.829   5.779
  754SOL    HW1 3161   4.819   1.741   5.746
  754SOL    HW2 3162   4.926   1.816   5.844
  755SOL     OW 3163   1.552   4.188   5.236
  755SOL    HW1 3164   1.578   4.107   5.289
  755SOL    HW2 3165   1.454   4.204   5.247
  756SOL     OW 3166   2.627   6.111   6.643
  756SOL    HW1 3167   2.535   6.108   6.682
  756SOL    HW2 3168   2.690   6.058   6.701
  757SOL     OW 3169   0.061   6.774   4.206
  757SOL    HW1 3170   0.127   6.850   4.200
  757SOL    HW2 3171   0.086   6.715   4.283
  758SOL     OW 3172   3.917   0.678   3.387
  758SOL    HW1 3173   3.847   0.725   3.441
  758SOL    HW2 3174   3.988   0.643   3.448
  759SOL     OW 3175   0.465   2.654   2.112
  759SOL    HW1 3176   0.434   2.598   2.035
  759SOL    HW2 3177   0.394   2.719   2.137
  760SOL     OW 3178   6.144   0.101   3.615
  760SOL    HW1 3179   6.063   0.084   3.670
  760SOL    HW2 3180   6.145   0.040   3.536
  761SOL     OW 3181   5.543   3.688   6.378
  761SOL    HW1 3182   5.556   3.770   6.434
  761SOL    HW2 3183   5.619   3.625   6.395
  762SOL     OW 3184   2.998   0.350   5.407
  762SOL    HW1 3185   2.906   0.324   5.438
  762SOL    HW2 3186   3.032   0.280   5.343
  763SOL     OW 3187   3.929   5.590   6.272
  763SOL    HW1 3188   3.897   5.684   6.277
  763SOL    HW2 3189   4.009   5.579   6.331
  764SOL     OW 3190   5.286   1.182   5.688
  764SOL    HW1 3191   5.364   1.225   5.734
  764SOL    HW2 3192   5.266   1.095   5.733
  765SOL     OW 3193   1.694   5.558   0.875
  765SOL    HW1 3194   1.729   5.465   0.879
  765SOL    HW2 3195   1.676   5.591   0.968
  766SOL     OW 3196   2.591   2.001   5.905
  766SOL    HW1 3197   2.661   2.013   5.834
  766SOL    HW2 3198   2.504   1.979   5.862
  767SOL     OW 3199   6.714   6.134   3.476
  767SOL    HW1 3200   6.689   6.188   3.557
  767SOL    HW2 3201   6.782   6.184   3.422
  768SOL     OW 3202   1.901   5.015   2.867
  768SOL    HW1 3203   1.951   4.972   2.943
  768SOL    HW2 3204   1.921   5.113   2.866
  769SOL     OW 3205   2.289   1.434   5.326
  769SOL    HW1 3206   2.279   1.428   5.227
  769SOL    HW2 3207   2.352   1.364   5.358
  770SOL     OW 3208   1.406   5.383   3.643
  770SOL    HW1 3209   1.382   5.286   3.650
  770SOL    HW2 3210   1.329   5.439   3.671
  771SOL     OW 3211   1.414   5.322   3.169
  771SOL    HW1 3212   1.344   5.391   3.150
  771SOL    HW2 3213   1.380   5.232   3.143
  772SOL     OW 3214   5.576   4.753   6.304
  772SOL    HW1 3215   5.570   4.653   6.312
  772SOL    HW2 3216   5.485   4.793   6.314
  773SOL     OW 3217   0.291   4.280   3.248
  773SOL    HW1 3218   0.213   4.342   3.256
  773SOL    HW2 3219   0.369   4.318   3.297
  774SOL     OW 3220   1.913   1.081   1.486
  774SOL    HW1 3221   1.823   1.059   1.525
  774SOL    HW2 3222   1.947   1.165   1.529
  775SOL     OW 3223   2.399   2.265   4.209
  775SOL    HW1 3224   2.363   2.172   4.194
  775SOL    HW2 3225   2.339   2.331   4.165
  776SOL     OW 3226   0.212   0.437   5.721
  776SOL    HW1 3227   0.165   0.526   5.720
  776SOL    HW2 3228   0.155   0.370   5.769
  777SOL     OW 3229   1.343   4.601   0.818
  777SOL    HW1 3230   1.375   4.695   0.802
  777SOL    HW2 3231   1.335   4.586   0.916
  778SOL     OW 3232   2.266   0.809   1.630
  778SOL    HW1 3233   2.245   0.800   1.533
  778SOL    HW2 3234   2.324   0.734   1.659
  779SOL     OW 3235   6.931   2.283   2.196
  779SOL    HW1 3236   6.889   2.368   2.227
  779SOL    HW2 3237   6.999   2.253   2.263
  780SOL     OW 3238   0.977   2.784   4.564
  780SOL    HW1 3239   1.052   2.733   4.524
  780SOL    HW2 3240   0.891   2.733   4.553
  781SOL     OW 3241   5.872   6.207   0.751
  781SOL    HW1 3242   5.814   6.160   0.684
  781SOL    HW2 3243   5.954   6.241   0.706
  782SOL     OW 3244   1.147   3.390   6.397
  782SOL    HW1 3245   1.219   3.346   6.343
  782SOL    HW2 3246   1.189   3.455   6.461
  783SOL     OW 3247   5.245   4.673   2.113
  783SOL    HW1 3248   5.250   4.722   2.026
  783SOL    HW2 3249   5.188   4.724   2.177
  784SOL     OW 3250   4.093   4.580   0.597
  784SOL    HW1 3251   4.134   4.652   0.540
  784SOL    HW2 3252   4.128   4.587   0.690
  785SOL     OW 3253   0.441   1.777   3.217
  785SOL    HW1 3254   0.371   1.707   3.232
  785SOL    HW2 3255   0.415   1.834   3.139
  786SOL     OW 3256   0.651   0.357   2.502
  786SOL    HW1 3257   0.622   0.452   2.519
  786SOL    HW2 3258   0.572   0.296   2.508
  787SOL     OW 3259   1.390   1.442   6.503
  787SOL    HW1 3260   1.388   1.420   6.600
  787SOL    HW2 3261   1.476   1.411   6.463
  788SOL     OW 3262   4.103   1.485   0.952
  788SOL    HW1 3263   4.043   1.442   1.020
  788SOL    HW2 3264   4.197   1.454   0.966
  789SOL     OW 3265   4.187   4.182   1.632
  789SOL    HW1 3266   4.233   4.230   1.557
  789SOL    HW2 3267   4.251   4.170   1.708
  790SOL     OW 3268   2.345   1.606   3.051
  790SOL    HW1 3269   2.306   1.596   2.959
  790SOL    HW2 3270   2.436   1.565   3.054
  791SOL     OW 3271   1.440   6.158   4.800
  791SOL    HW1 3272   1.397   6.114   4.879
  791SOL    HW2 3273   1.434   6.096   4.721
  792SOL     OW 3274   0.829   1.357   2.042
  792SOL    HW1 3275   0.851   1.339   2.138
  792SOL    HW2 3276   0.890   1.429   2.007
  793SOL     OW 3277   4.959   5.173   4.306
  793SOL    HW1 3278   4.885   5.230   4.272
  793SOL    HW2 3279   4.924   5.112   4.377
  794SOL     OW 3280   3.128   3.983   5.899
  794SOL    HW1 3281   3.096   3.958   5.990
  794SOL    HW2 3282   3.067   4.052   5.859
  795SOL     OW 3283   4.105   0.469   5.004
  795SOL    HW1 3284   4.099   0.513   4.914
  795SOL    HW2 3285   4.193   0.490   5.046
  796SOL     OW 3286   1.106   2.671   6.432
  796SOL    HW1 3287   1.041   2.721   6.374
  796SOL    HW2 3288   1.115   2.577   6.399
  797SOL     OW 3289   4.990   0.533   1.135
  797SOL    HW1 3290   5.028   0.475   1.063
  797SOL    HW2 3291   4.893   0.513   1.146
  798SOL     OW 3292   3.788   6.243   1.844
  798SOL    HW1 3293   3.711   6.306   1.839
  798SOL    HW2 3294   3.813   6.229   1.940
  799SOL     OW 3295   0.204   6.635   6.443
  799SOL    HW1 3296   0.284   6.689   6.415
  799SOL    HW2 3297   0.177   6.661   6.536
  800SOL     OW 3298   5.951   0.850   2.564
  800SOL    HW1 3299   5.928   0.945   2.540
  800SOL    HW2 3300   6.049   0.844   2.586
  801SOL     OW 3301   2.252   4.596   4.359
  801SOL    HW1 3302   2.311   4.534   4.411
  801SOL    HW2 3303   2.284   4.599   4.264
  802SOL     OW 3304   2.888   2.117   0.990
  802SOL    HW1 3305   2.974   2.109   0.940
  802SOL    HW2 3306   2.881   2.209   1.029
  803SOL     OW 3307   1.707   0.310   5.771
  803SOL    HW1 3308   1.631   0.286   5.711
  803SOL    HW2 3309   1.775   0.237   5.770
  804SOL     OW 3310   5.751   6.430   0.861
  804SOL    HW1 3311   5.778   6.346   0.814
  804SOL    HW2 3312   5.832   6.484   0.883
  805SOL     OW 3313   2.213   1.057   4.428
  805SOL    HW1 3314   2.275   1.069   4.350
  805SOL    HW2 3315   2.262   1.076   4.513
  806SOL     OW 3316   5.610   1.047   4.768
  806SOL    HW1 3317   5.632   1.096   4.683
  806SOL    HW2 3318   5.647   1.098   4.846
  807SOL     OW 3319   0.684   0.783   5.056
  807SOL    HW1 3320   0.687   0.881   5.076
  807SOL    HW2 3321   0.593   0.759   5.022
  808SOL     OW 3322   4.167   4.143   6.815
  808SOL    HW1 3323   4.209   4.228   6.783
  808SOL    HW2 3324   4.090   4.119   6.756
  809SOL     OW 3325   0.566   4.833   0.970
  809SOL    HW1 3326   0.485   4.781   0.999
  809SOL    HW2 3327   0.537   4.921   0.933
  810SOL     OW 3328   3.238   4.444   0.561
  810SOL    HW1 3329   3.193   4.454   0.650
  810SOL    HW2 3330   3.199   4.510   0.496
  811SOL     OW 3331   5.469   5.797   5.057
  811SOL    HW1 3332   5.450   5.826   5.150
  811SOL    HW2 3333   5.514   5.871   5.007
  812SOL     OW 3334   6.965   1.065   3.111
  812SOL    HW1 3335   6.973   1.079   3.012
  812SOL    HW2 3336   6.991   0.971   3.134
  813SOL     OW 3337   3.558   6.677   3.906
  813SOL    HW1 3338   3.600   6.629   3.984
  813SOL    HW2 3339   3.613   6.757   3.884
  814SOL     OW 3340   6.479   5.821   2.664
  814SOL    HW1 3341   6.510   5.745   2.607
  814SOL    HW2 3342   6.515   5.907   2.627
  815SOL     OW 3343   6.671   3.028   3.255
  815SOL    HW1 3344   6.582   3.000   3.289
  815SOL    HW2 3345   6.667   3.124   3.227
  816SOL     OW 3346   5.689   5.662   0.953
  816SOL    HW1 3347   5.687   5.581   1.011
  816SOL    HW2 3348   5.726   5.638   0.864
  817SOL     OW 3349   1.080   5.314   1.340
  817SOL    HW1 3350   1.152   5.253   1.305
  817SOL    HW2 3351   0.991   5.269   1.329
  818SOL     OW 3352   6.315   2.981   3.778
  818SOL    HW1 3353   6.391   3.036   3.744
  818SOL    HW2 3354   6.280   2.921   3.706
  819SOL     OW 3355   6.097   3.180   1.561
  819SOL    HW1 3356   6.126   3.200   1.654
  819SOL    HW2 3357   6.167   3.209   1.496
  820SOL     OW 3358   2.787   2.239   4.987
  820SOL    HW1 3359   2.773   2.153   5.035
  820SOL    HW2 3360   2.796   2.313   5.053
  821SOL     OW 3361   6.633   4.580   6.507
  821SOL    HW1 3362   6.548   4.541   6.472
  821SOL    HW2 3363   6.691   4.609   6.431
  822SOL     OW 3364   0.466   3.047   3.232
  822SOL    HW1 3365   0.406   2.969   3.215
  822SOL    HW2 3366   0.514   3.034   3.319
  823SOL     OW 3367   6.217   4.336   5.854
  823SOL    HW1 3368   6.175   4.425   5.871
  823SOL    HW2 3369   6.146   4.270   5.830
  824SOL     OW 3370   3.725   0.599   5.958
  824SOL    HW1 3371   3.751   0.505   5.936
  824SOL    HW2 3372   3.753   0.620   6.051
  825SOL     OW 3373   6.600   5.611   1.418
  825SOL    HW1 3374   6.573   5.627   1.513
  825SOL    HW2 3375   6.595   5.697   1.367
  826SOL     OW 3376   4.252   1.935   6.051
  826SOL    HW1 3377   4.260   1.855   5.993
  826SOL    HW2 3378   4.156   1.949   6.076
  827SOL     OW 3379   2.429   4.382   5.179
  827SOL    HW1 3380   2.453   4.470   5.137
  827SOL    HW2 3381   2.334   4.384   5.208
  828SOL     OW 3382   5.643   6.494   6.672
  828SOL    HW1 3383   5.670   6.580   6.716
  828SOL    HW2 3384   5.602   6.434   6.740
  829SOL     OW 3385   4.160   3.513   1.971
  829SOL    HW1 3386   4.238   3.499   1.910
  829SOL    HW2 3387   4.185   3.576   2.044
  830SOL     OW 3388   5.394   4.958   6.653
  830SOL    HW1 3389   5.366   4.900   6.577
  830SOL    HW2 3390   5.486   4.931   6.684
  831SOL     OW 3391   6.239   6.812   0.043
  831SOL    HW1 3392   6.197   6.741   7.007
  831SOL    HW2 3393   6.281   6.881   7.006
  832SOL     OW 3394   3.971   1.710   3.274
  832SOL    HW1 3395   3.941   1.760   3.355
  832SOL    HW2 3396   3.993   1.775   3.201
  833SOL     OW 3397   1.694   3.529   6.452
  833SOL    HW1 3398   1.711   3.563   6.359
  833SOL    HW2 3399   1.617   3.578   6.491
  834SOL     OW 3400   5.137   3.730   1.123
  834SOL    HW1 3401   5.211   3.726   1.055
  834SOL    HW2 3402   5.133   3.644   1.174
  835SOL     OW 3403   3.626   0.350   5.586
  835SOL    HW1 3404   3.528   0.364   5.596
  835SOL    HW2 3405   3.675   0.435   5.605
  836SOL     OW 3406   4.108   6.991   4.782
  836SOL    HW1 3407   4.074   6.990   4.688
  836SOL    HW2 3408   4.203   7.019   4.783
  837SOL     OW 3409   0.083   0.902   1.287
  837SOL    HW1 3410   0.027   0.912   1.369
  837SOL    HW2 3411   0.180   0.898   1.313
  838SOL     OW 3412   2.380   6.834   4.579
  838SOL    HW1 3413   2.342   6.782   4.502
  838SOL    HW2 3414   2.319   6.910   4.600
  839SOL     OW 3415   2.013   1.303   1.598
  839SOL    HW1 3416   2.028   1.288   1.695
  839SOL    HW2 3417   2.093   1.274   1.546
  840SOL     OW 3418   6.493   6.021   0.003
  840SOL    HW1 3419   6.444   6.109   7.019
  840SOL    HW2 3420   6.442   5.958   0.062
  841SOL     OW 3421   3.532   5.482   6.221
  841SOL    HW1 3422   3.516   5.394   6.176
  841SOL    HW2 3423   3.589   5.539   6.162
  842SOL     OW 3424   4.004   0.138   5.303
  842SOL    HW1 3425   4.007   0.142   5.203
  842SOL    HW2 3426   3.987   0.043   5.331
  843SOL     OW 3427   1.056   1.834   1.584
  843SOL    HW1 3428   1.070   1.906   1.517
  843SOL    HW2 3429   1.014   1.755   1.540
  844SOL     OW 3430   6.573   0.138   0.324
  844SOL    HW1 3431   6.499   0.174   0.381
  844SOL    HW2 3432   6.661   0.170   0.359
  845SOL     OW 3433   5.050   3.947   3.896
  845SOL    HW1 3434   5.117   3.911   3.831
  845SOL    HW2 3435   5.097   4.004   3.964
  846SOL     OW 3436   2.248   1.129   6.019
  846SOL    HW1 3437   2.264   1.224   5.994
  846SOL    HW2 3438   2.198   1.082   5.946
  847SOL     OW 3439   1.493   3.458   1.241
  847SOL    HW1 3440   1.453   3.539   1.283
  847SOL    HW2 3441   1.496   3.468   1.142
  848SOL     OW 3442   0.031   0.076   6.102
  848SOL    HW1 3443   0.078   7.015   6.134
  848SOL    HW2 3444   6.983   0.103   6.169
  849SOL     OW 3445   6.070   4.293   6.510
  849SOL    HW1 3446   6.077   4.195   6.529
  849SOL    HW2 3447   5.998   4.309   6.442
  850SOL     OW 3448   5.619   1.527   4.668
  850SOL    HW1 3449   5.597   1.464   4.594
  850SOL    HW2 3450   5.717   1.522   4.687
  851SOL     OW 3451   0.048   2.692   1.048
  851SOL    HW1 3452   0.032   2.735   0.959
  851SOL    HW2 3453   0.131   2.636   1.043
  852SOL     OW 3454   0.702   4.288   0.673
  852SOL    HW1 3455   0.763   4.295   0.593
  852SOL    HW2 3456   0.751   4.242   0.748
  853SOL     OW 3457   0.819   4.572   0.600
  853SOL    HW1 3458   0.870   4.503   0.651
  853SOL    HW2 3459   0.795   4.648   0.661
  854SOL     OW 3460   4.986   5.726   0.745
  854SOL    HW1 3461   5.027   5.749   0.833
  854SOL    HW2 3462   5.058   5.706   0.679
  855SOL     OW 3463   6.489   0.158   1.456
  855SOL    HW1 3464   6.421   0.215   1.502
  855SOL    HW2 3465   6.453   0.066   1.444
  856SOL     OW 3466   1.429   1.928   6.734
  856SOL    HW1 3467   1.468   2.020   6.729
  856SOL    HW2 3468   1.335   1.933   6.768
  857SOL     OW 3469   6.110   4.871   2.082
  857SOL    HW1 3470   6.017   4.899   2.107
  857SOL    HW2 3471   6.106   4.808   2.003
  858SOL     OW 3472   3.065   3.858   1.361
  858SOL    HW1 3473   3.162   3.839   1.377
  858SOL    HW2 3474   3.009   3.791   1.411
  859SOL     OW 3475   5.707   0.082   4.989
  859SOL    HW1 3476   5.726   0.098   4.893
  859SOL    HW2 3477   5.689   0.169   5.035
  860SOL     OW 3478   6.354   2.920   0.091
  860SOL    HW1 3479   6.442   2.881   0.120
  860SOL    HW2 3480   6.299   2.849   0.048
  861SOL     OW 3481   2.857   5.266   3.985
  861SOL    HW1 3482   2.901   5.260   3.895
  861SOL    HW2 3483   2.783   5.199   3.991
  862SOL     OW 3484   1.530   3.995   3.402
  862SOL    HW1 3485   1.446   3.985   3.454
  862SOL    HW2 3486   1.555   3.907   3.360
  863SOL     OW 3487   6.058   0.626   6.620
  863SOL    HW1 3488   5.958   0.622   6.620
  863SOL    HW2 3489   6.092   0.609   6.528
  864SOL     OW 3490   3.821   5.697   4.047
  864SOL    HW1 3491   3.885   5.768   4.018
  864SOL    HW2 3492   3.778   5.656   3.966
  865SOL     OW 3493   1.374   0.031   5.839
  865SOL    HW1 3494   1.335   6.968   5.876
  865SOL    HW2 3495   1.473   0.023   5.836
  866SOL     OW 3496   2.308   1.276   0.532
  866SOL    HW1 3497   2.408   1.274   0.536
  866SOL    HW2 3498   2.274   1.185   0.506
  867SOL     OW 3499   4.924   4.011   0.199
  867SOL    HW1 3500   4.934   3.924   0.248
  867SOL    HW2 3501   5.015   4.042   0.169
  868SOL     OW 3502   6.252   1.188   1.356
  868SOL    HW1 3503   6.241   1.140   1.269
  868SOL    HW2 3504   6.163   1.192   1.403
  869SOL     OW 3505   0.310   4.354   2.748
  869SOL    HW1 3506   0.213   4.331   2.745
  869SOL    HW2 3507   0.320   4.451   2.771
  870SOL     OW 3508   3.730   3.895   0.440
  870SOL    HW1 3509   3.801   3.843   0.488
  870SOL    HW2 3510   3.701   3.972   0.496
  871SOL     OW 3511   5.301   2.408   2.939
  871SOL    HW1 3512   5.360   2.405   3.019
  871SOL    HW2 3513   5.206   2.421   2.968
  872SOL     OW 3514   5.819   3.295   4.027
  872SOL    HW1 3515   5.913   3.322   4.049
  872SOL    HW2 3516   5.821   3.226   3.955
  873SOL     OW 3517   5.629   6.154   5.416
  873SOL    HW1 3518   5.542   6.127   5.458
  873SOL    HW2 3519   5.705   6.113   5.466
  874SOL     OW 3520   6.945   3.982   6.332
  874SOL    HW1 3521   0.010   3.960   6.288
  874SOL    HW2 3522   6.905   3.899   6.372
  875SOL     OW 3523   5.364   4.710   0.777
  875SOL    HW1 3524   5.294   4.702   0.706
  875SOL    HW2 3525   5.434   4.640   0.763
  876SOL     OW 3526   0.857   5.048   2.882
  876SOL    HW1 3527   0.780   5.005   2.929
  876SOL    HW2 3528   0.911   5.100   2.948
  877SOL     OW 3529   3.619   4.958   5.606
  877SOL    HW1 3530   3.708   5.003   5.605
  877SOL    HW2 3531   3.612   4.895   5.529
  878SOL     OW 3532   4.261   6.330   5.001
  878SOL    HW1 3533   4.296   6.355   5.092
  878SOL    HW2 3534   4.325   6.265   4.958
  879SOL     OW 3535   4.577   1.469   1.289
  879SOL    HW1 3536   4.602   1.397   1.353
  879SOL    HW2 3537   4.488   1.447   1.248
  880SOL     OW 3538   3.369   3.959   4.432
  880SOL    HW1 3539   3.298   3.972   4.501
  880SOL    HW2 3540   3.415   3.872   4.448
  881SOL     OW 3541   5.660   3.609   5.462
  881SOL    HW1 3542   5.641   3.684   5.525
  881SOL    HW2 3543   5.752   3.621   5.423
  882SOL     OW 3544   1.142   2.536   3.957
  882SOL    HW1 3545   1.112   2.527   4.051
  882SOL    HW2 3546   1.096   2.469   3.900
  883SOL     OW 3547   3.914   0.565   0.752
  883SOL    HW1 3548   3.844   0.516   0.803
  883SOL    HW2 3549   3.910   0.540   0.656
  884SOL     OW 3550   7.009   5.019   0.094
  884SOL    HW1 3551   6.959   5.054   0.173
  884SOL    HW2 3552   0.001   4.920   0.104
  885SOL     OW 3553   4.809   6.801   5.285
  885SOL    HW1 3554   4.806   6.798   5.185
  885SOL    HW2 3555   4.734   6.746   5.322
  886SOL     OW 3556   4.000   0.892   0.685
  886SOL    HW1 3557   3.933   0.958   0.652
  886SOL    HW2 3558   4.088   0.908   0.640
  887SOL     OW 3559   3.597   6.042   4.128
  887SOL    HW1 3560   3.551   5.977   4.067
  887SOL    HW2 3561   3.696   6.036   4.115
  888SOL     OW 3562   6.865   6.259   3.916
  888SOL    HW1 3563   6.925   6.305   3.851
  888SOL    HW2 3564   6.845   6.320   3.992
  889SOL     OW 3565   6.834   1.398   6.420
  889SOL    HW1 3566   6.912   1.420   6.480
  889SOL    HW2 3567   6.840   1.302   6.392
  890SOL     OW 3568   2.698   4.887   2.871
  890SOL    HW1 3569   2.616   4.943   2.864
  890SOL    HW2 3570   2.675   4.791   2.853
  891SOL     OW 3571   6.647   3.477   0.803
  891SOL    HW1 3572   6.743   3.453   0.816
  891SOL    HW2 3573   6.619   3.453   0.710
  892SOL     OW 3574   3.528   3.615   4.811
  892SOL    HW1 3575   3.465   3.542   4.785
  892SOL    HW2 3576   3.493   3.663   4.891
  893SOL     OW 3577   1.861   6.734   2.904
  893SOL    HW1 3578   1.920   6.802   2.947
  893SOL    HW2 3579   1.895   6.714   2.812
  894SOL     OW 3580   1.329   2.751   2.737
  894SOL    HW1 3581   1.396   2.725   2.806
  894SOL    HW2 3582   1.353   2.840   2.698
  895SOL     OW 3583   1.261   5.254   4.084
  895SOL    HW1 3584   1.361   5.248   4.082
  895SOL    HW2 3585   1.228   5.223   4.173
  896SOL     OW 3586   5.870   5.209   1.362
  896SOL    HW1 3587   5.881   5.227   1.264
  896SOL    HW2 3588   5.950   5.243   1.411
  897SOL     OW 3589   4.123   0.718   6.678
  897SOL    HW1 3590   4.113   0.810   6.716
  897SOL    HW2 3591   4.148   0.654   6.751
  898SOL     OW 3592   4.196   6.373   2.515
  898SOL    HW1 3593   4.258   6.297   2.536
  898SOL    HW2 3594   4.110   6.360   2.565
  899SOL     OW 3595   0.404   5.894   0.141
  899SOL    HW1 3596   0.357   5.863   0.058
  899SOL    HW2 3597   0.457   5.976   0.120
  900SOL     OW 3598   5.012   6.964   6.506
  900SOL    HW1 3599   4.994   6.914   6.590
  900SOL    HW2 3600   5.006   6.901   6.428
  901SOL     OW 3601   1.005   0.958   3.935
  901SOL    HW1 3602   1.035   0.865   3.913
  901SOL    HW2 3603   0.964   0.999   3.853
  902SOL     OW 3604   1.282   3.110   1.353
  902SOL    HW1 3605   1.225   3.190   1.375
  902SOL    HW2 3606   1.263   3.037   1.419
  903SOL     OW 3607   0.449   3.449   0.132
  903SOL    HW1 3608   0.548   3.449   0.123
  903SOL    HW2 3609   0.415   3.543   0.127
  904SOL     OW 3610   2.059   2.828   2.457
  904SOL    HW1 3611   2.035   2.732   2.467
  904SOL    HW2 3612   2.109   2.842   2.372
  905SOL     OW 3613   4.830   3.810   6.552
  905SOL    HW1 3614   4.777   3.894   6.567
  905SOL    HW2 3615   4.772   3.743   6.506
  906SOL     OW 3616   0.839   2.091   6.521
  906SOL    HW1 3617   0.911   2.095   6.452
  906SOL    HW2 3618   0.869   2.036   6.599
  907SOL     OW 3619   4.974   2.624   1.233
  907SOL    HW1 3620   4.962   2.538   1.283
  907SOL    HW2 3621   5.018   2.605   1.145
  908SOL     OW 3622   2.427   4.807   3.213
  908SOL    HW1 3623   2.407   4.748   3.291
  908SOL    HW2 3624   2.519   4.846   3.223
  909SOL     OW 3625   3.889   5.989   1.899
  909SOL    HW1 3626   3.892   5.968   1.801
  909SOL    HW2 3627   3.887   5.904   1.951
  910SOL     OW 3628   3.230   1.375   1.331
  910SOL    HW1 3629   3.198   1.292   1.286
  910SOL    HW2 3630   3.154   1.418   1.380
  911SOL     OW 3631   1.385   6.114   6.713
  911SOL    HW1 3632   1.366   6.082   6.806
  911SOL    HW2 3633   1.459   6.180   6.714
  912SOL     OW 3634   5.538   1.121   3.363
  912SOL    HW1 3635   5.532   1.115   3.264
  912SOL    HW2 3636   5.500   1.038   3.404
  913SOL     OW 3637   2.781   0.701   4.266
  913SOL    HW1 3638   2.701   0.733   4.216
  913SOL    HW2 3639   2.753   0.635   4.336
  914SOL     OW 3640   2.724   6.667   5.118
  914SOL    HW1 3641   2.662   6.724   5.065
  914SOL    HW2 3642   2.689   6.657   5.211
  915SOL     OW 3643   6.820   3.004   0.795
  915SOL    HW1 3644   6.843   3.044   0.707
  915SOL    HW2 3645   6.794   3.077   0.859
  916SOL     OW 3646   2.117   3.104   2.578
  916SOL    HW1 3647   2.151   3.010   2.572
  916SOL    HW2 3648   2.126   3.148   2.489
  917SOL     OW 3649   0.340   6.500   2.278
  917SOL    HW1 3650   0.247   6.505   2.241
  917SOL    HW2 3651   0.387   6.422   2.237
  918SOL     OW 3652   3.544   0.751   0.926
  918SOL    HW1 3653   3.479   0.679   0.952
  918SOL    HW2 3654   3.495   0.824   0.879
  919SOL     OW 3655   7.004   6.758   3.131
  919SOL    HW1 3656   0.014   6.730   3.222
  919SOL    HW2 3657   6.999   6.678   3.071
  920SOL     OW 3658   2.544   4.656   2.366
  920SOL    HW1 3659   2.548   4.747   2.406
  920SOL    HW2 3660   2.624   4.641   2.308
  921SOL     OW 3661   3.632   5.385   3.587
  921SOL    HW1 3662   3.559   5.453   3.574
  921SOL    HW2 3663   3.685   5.377   3.503
  922SOL     OW 3664   3.125   3.965   4.589
  922SOL    HW1 3665   3.061   3.896   4.623
  922SOL    HW2 3666   3.146   4.031   4.661
  923SOL     OW 3667   2.791   3.741   5.842
  923SOL    HW1 3668   2.820   3.779   5.930
  923SOL    HW2 3669   2.841   3.656   5.825
  924SOL     OW 3670   6.514   3.389   2.581
  924SOL    HW1 3671   6.506   3.298   2.620
  924SOL    HW2 3672   6.609   3.406   2.555
  925SOL     OW 3673   6.936   2.439   0.033
  925SOL    HW1 3674   6.847   2.397   0.047
  925SOL    HW2 3675   7.003   2.368   0.010
  926SOL     OW 3676   6.083   0.756   0.773
  926SOL    HW1 3677   6.171   0.714   0.794
  926SOL    HW2 3678   6.080   0.849   0.808
  927SOL     OW 3679   5.343   4.289   3.214
  927SOL    HW1 3680   5.279   4.213   3.204
  927SOL    HW2 3681   5.437   4.256   3.208
  928SOL     OW 3682   1.667   6.354   0.192
  928SOL    HW1 3683   1.623   6.372   0.280
  928SOL    HW2 3684   1.699   6.259   0.190
  929SOL     OW 3685   1.173   0.194   6.804
  929SOL    HW1 3686   1.127   0.185   6.893
  929SOL    HW2 3687   1.147   0.118   6.745
  930SOL     OW 3688   5.100   6.052   4.987
  930SOL    HW1 3689   5.031   6.101   4.934
  930SOL    HW2 3690   5.168   6.118   5.022
  931SOL     OW 3691   6.052   1.957   4.987
  931SOL    HW1 3692   6.140   1.921   4.958
  931SOL    HW2 3693   6.064   2.016   5.067
  932SOL     OW 3694   2.975   0.418   3.329
  932SOL    HW1 3695   2.980   0.458   3.237
  932SOL    HW2 3696   2.922   0.333   3.326
  933SOL     OW 3697   2.156   6.050   3.559
  933SOL    HW1 3698   2.230   6.109   3.591
  933SOL    HW2 3699   2.085   6.107   3.516
  934SOL     OW 3700   2.188   6.675   6.960
  934SOL    HW1 3701   2.287   6.686   6.950
  934SOL    HW2 3702   2.145   6.764   6.969
  935SOL     OW 3703   5.330   4.246   4.289
  935SOL    HW1 3704   5.280   4.177   4.341
  935SOL    HW2 3705   5.266   4.312   4.251
  936SOL     OW 3706   0.275   0.378   6.334
  936SOL    HW1 3707   0.317   0.463   6.302
  936SOL    HW2 3708   0.282   0.373   6.433
  937SOL     OW 3709   5.140   1.556   5.815
  937SOL    HW1 3710   5.092   1.483   5.766
  937SOL    HW2 3711   5.227   1.521   5.848
  938SOL     OW 3712   5.682   4.983   5.848
  938SOL    HW1 3713   5.699   4.915   5.920
  938SOL    HW2 3714   5.607   4.951   5.789
  939SOL     OW 3715   0.121   7.008   4.526
  939SOL    HW1 3716   0.069   6.923   4.515
  939SOL    HW2 3717   0.060   0.065   4.513
  940SOL     OW 3718   1.179   3.744   1.969
  940SOL    HW1 3719   1.140   3.705   2.053
  940SOL    HW2 3720   1.108   3.752   1.899
  941SOL     OW 3721   5.767   1.149   6.550
  941SOL    HW1 3722   5.849   1.107   6.589
  941SOL    HW2 3723   5.687   1.123   6.604
  942SOL     OW 3724   5.681   0.264   2.558
  942SOL    HW1 3725   5.685   0.346   2.614
  942SOL    HW2 3726   5.588   0.228   2.559
  943SOL     OW 3727   1.748   3.529   2.963
  943SOL    HW1 3728   1.793   3.567   2.882
  943SOL    HW2 3729   1.802   3.550   3.044
  944SOL     OW 3730   0.320   5.034   5.820
  944SOL    HW1 3731   0.341   5.117   5.769
  944SOL    HW2 3732   0.317   5.055   5.917
  945SOL     OW 3733   6.765   3.555   5.954
  945SOL    HW1 3734   6.819   3.471   5.959
  945SOL    HW2 3735   6.817   3.631   5.993
  946SOL     OW 3736   4.990   4.116   5.281
  946SOL    HW1 3737   4.897   4.092   5.256
  946SOL    HW2 3738   5.034   4.037   5.325
  947SOL     OW 3739   3.837   3.046   3.545
  947SOL    HW1 3740   3.779   3.123   3.572
  947SOL    HW2 3741   3.911   3.080   3.487
  948SOL     OW 3742   4.801   1.003   2.957
  948SOL    HW1 3743   4.876   1.013   2.892
  948SOL    HW2 3744   4.772   0.908   2.959
  949SOL     OW 3745   1.840   6.200   0.418
  949SOL    HW1 3746   1.778   6.278   0.428
  949SOL    HW2 3747   1.814   6.128   0.482
  950SOL     OW 3748   4.945   5.660   2.296
  950SOL    HW1 3749   5.018   5.655   2.228
  950SOL    HW2 3750   4.866   5.706   2.256
  951SOL     OW 3751   1.666   0.486   4.156
  951SOL    HW1 3752   1.692   0.581   4.141
  951SOL    HW2 3753   1.658   0.439   4.069
  952SOL     OW 3754   4.385   2.065   3.175
  952SOL    HW1 3755   4.451   2.046   3.249
  952SOL    HW2 3756   4.372   2.163   3.167
  953SOL     OW 3757   5.312   5.171   4.528
  953SOL    HW1 3758   5.266   5.259   4.536
  953SOL    HW2 3759   5.280   5.123   4.447
  954SOL     OW 3760   4.238   5.665   1.708
  954SOL    HW1 3761   4.232   5.761   1.682
  954SOL    HW2 3762   4.148   5.622   1.700
  955SOL     OW 3763   0.389   3.707   2.051
  955SOL    HW1 3764   0.488   3.717   2.054
  955SOL    HW2 3765   0.363   3.616   2.083
  956SOL     OW 3766   6.240   0.258   1.523
  956SOL    HW1 3767   6.165   0.215   1.473
  956SOL    HW2 3768   6.246   0.355   1.498
  957SOL     OW 3769   5.988   2.885   3.702
  957SOL    HW1 3770   6.077   2.840   3.698
  957SOL    HW2 3771   5.939   2.869   3.616
  958SOL     OW 3772   3.999   1.414   1.493
  958SOL    HW1 3773   3.976   1.500   1.538
  958SOL    HW2 3774   4.012   1.343   1.562
  959SOL     OW 3775   3.686   6.334   4.318
  959SOL    HW1 3776   3.782   6.351   4.298
  959SOL    HW2 3777   3.677   6.253   4.375
  960SOL     OW 3778   0.474   0.726   2.327
  960SOL    HW1 3779   0.434   0.801   2.379
  960SOL    HW2 3780   0.547   0.684   2.381
  961SOL     OW 3781   4.099   6.464   3.502
  961SOL    HW1 3782   4.001   6.447   3.502
  961SOL    HW2 3783   4.141   6.416   3.425
  962SOL     OW 3784   0.581   1.483   5.551
  962SOL    HW1 3785   0.593   1.438   5.462
  962SOL    HW2 3786   0.484   1.496   5.569
  963SOL     OW 3787   5.234   1.218   6.345
  963SOL    HW1 3788   5.173   1.249   6.418
  963SOL    HW2 3789   5.228   1.281   6.267
  964SOL     OW 3790   5.685   5.167   7.014
  964SOL    HW1 3791   5.771   5.146   6.967
  964SOL    HW2 3792   5.646   5.083   0.031
  965SOL     OW 3793   5.223   1.774   2.073
  965SOL    HW1 3794   5.284   1.853   2.057
  965SOL    HW2 3795   5.128   1.805   2.071
  966SOL     OW 3796   5.915   3.164   1.838
  966SOL    HW1 3797   5.942   3.144   1.932
  966SOL    HW2 3798   5.991   3.208   1.790
  967SOL     OW 3799   2.889   3.976   1.162
  967SOL    HW1 3800   2.954   3.940   1.230
  967SOL    HW2 3801   2.816   4.026   1.209
  968SOL     OW 3802   3.419   0.747   2.458
  968SOL    HW1 3803   3.396   0.661   2.414
  968SOL    HW2 3804   3.367   0.822   2.416
  969SOL     OW 3805   2.730   4.803   5.637
  969SOL    HW1 3806   2.715   4.742   5.715
  969SOL    HW2 3807   2.717   4.753   5.552
  970SOL     OW 3808   5.902   0.849   6.487
  970SOL    HW1 3809   5.847   0.767   6.477
  970SOL    HW2 3810   5.893   0.906   6.405
  971SOL     OW 3811   0.230   2.769   1.747
  971SOL    HW1 3812   0.176   2.817   1.677
  971SOL    HW2 3813   0.289   2.834   1.794
  972SOL     OW 3814   5.821   2.061   1.376
  972SOL    HW1 3815   5.748   1.994   1.394
  972SOL    HW2 3816   5.867   2.038   1.291
  973SOL     OW 3817   0.772   5.201   6.225
  973SOL    HW1 3818   0.838   5.130   6.203
  973SOL    HW2 3819   0.819   5.288   6.242
  974SOL     OW 3820   5.182   6.854   2.483
  974SOL    HW1 3821   5.208   6.781   2.546
  974SOL    HW2 3822   5.186   6.819   2.389
  975SOL     OW 3823   1.750   0.691   0.075
  975SOL    HW1 3824   1.779   0.745   0.155
  975SOL    HW2 3825   1.827   0.638   0.040
  976SOL     OW 3826   6.981   3.954   1.997
  976SOL    HW1 3827   0.038   3.934   2.056
  976SOL    HW2 3828   6.906   3.991   2.053
  977SOL     OW 3829   0.975   0.307   2.089
  977SOL    HW1 3830   1.071   0.302   2.117
  977SOL    HW2 3831   0.945   0.217   2.057
  978SOL     OW 3832   5.662   2.870   5.966
  978SOL    HW1 3833   5.744   2.911   5.925
  978SOL    HW2 3834   5.614   2.816   5.897
  979SOL     OW 3835   0.465   2.515   0.034
  979SOL    HW1 3836   0.389   2.480   7.000
  979SOL    HW2 3837   0.519   2.579   7.001
  980SOL     OW 3838   5.283   1.930   3.804
  980SOL    HW1 3839   5.203   1.908   3.860
  980SOL    HW2 3840   5.261   1.916   3.708
  981SOL     OW 3841   0.213   1.670   4.713
  981SOL    HW1 3842   0.135   1.634   4.763
  981SOL    HW2 3843   0.192   1.674   4.615
  982SOL     OW 3844   1.172   1.496   5.082
  982SOL    HW1 3845   1.082   1.455   5.096
  982SOL    HW2 3846   1.161   1.588   5.043
  983SOL     OW 3847   6.353   2.797   3.261
  983SOL    HW1 3848   6.269   2.849   3.275
  983SOL    HW2 3849   6.409   2.801   3.344
  984SOL     OW 3850   2.708   2.372   4.515
  984SOL    HW1 3851   2.640   2.418   4.571
  984SOL    HW2 3852   2.689   2.389   4.418
  985SOL     OW 3853   6.645   3.083   5.253
  985SOL    HW1 3854   6.566   3.144   5.256
  985SOL    HW2 3855   6.684   3.075   5.345
  986SOL     OW 3856   4.798   4.471   1.041
  986SOL    HW1 3857   4.756   4.527   0.970
  986SOL    HW2 3858   4.801   4.522   1.127
  987SOL     OW 3859   4.676   6.722   2.686
  987SOL    HW1 3860   4.623   6.804   2.707
  987SOL    HW2 3861   4.660   6.652   2.756
  988SOL     OW 3862   3.623   3.553   2.110
  988SOL    HW1 3863   3.687   3.499   2.056
  988SOL    HW2 3864   3.568   3.610   2.048
  989SOL     OW 3865   6.654   2.125   6.465
  989SOL    HW1 3866   6.627   2.188   6.392
  989SOL    HW2 3867   6.613   2.036   6.448
  990SOL     OW 3868   3.753   1.250   2.267
  990SOL    HW1 3869   3.826   1.317   2.254
  990SOL    HW2 3870   3.776   1.189   2.343
  991SOL     OW 3871   1.079   3.802   4.487
  991SOL    HW1 3872   1.152   3.848   4.538
  991SOL    HW2 3873   1.119   3.732   4.428
  992SOL     OW 3874   0.356   3.530   1.330
  992SOL    HW1 3875   0.304   3.454   1.291
  992SOL    HW2 3876   0.312   3.616   1.306
  993SOL     OW 3877   6.836   4.610   0.441
  993SOL    HW1 3878   6.920   4.650   0.404
  993SOL    HW2 3879   6.775   4.587   0.365
  994SOL     OW 3880   3.783   5.184   1.797
  994SOL    HW1 3881   3.871   5.191   1.843
  994SOL    HW2 3882   3.757   5.088   1.789
  995SOL     OW 3883   4.242   2.862   5.703
  995SOL    HW1 3884   4.279   2.915   5.626
  995SOL    HW2 3885   4.318   2.826   5.757
  996SOL     OW 3886   3.180   5.383   4.548
  996SOL    HW1 3887   3.197   5.307   4.485
  996SOL    HW2 3888   3.105   5.439   4.513
  997SOL     OW 3889   1.090   0.235   3.229
  997SOL    HW1 3890   1.128   0.152   3.187
  997SOL    HW2 3891   0.996   0.217   3.259
  998SOL     OW 3892   5.608   0.777   5.331
  998SOL    HW1 3893   5.597   0.692   5.279
  998SOL    HW2 3894   5.585   0.759   5.427
  999SOL     OW 3895   5.393   4.199   2.489
  999SOL    HW1 3896   5.421   4.113   2.447
  999SOL    HW2 3897   5.474   4.251   2.518
 1000SOL     OW 3898   3.688   1.627   1.686
 1000SOL    HW1 3899   3.611   1.689   1.668
 1000SOL    HW2 3900   3.762   1.678   1.729
 1001SOL     OW 3901   4.839   5.820   1.392
 1001SOL    HW1 3902   4.772   5.771   1.447
 1001SOL    HW2 3903   4.793   5.878   1.325
 1002SOL     OW 3904   5.660   1.846   1.412
 1002SOL    HW1 3905   5.613   1.789   1.479
 1002SOL    HW2 3906   5.736   1.795   1.371
 1003SOL     OW 3907   2.027   6.133   2.519
 1003SOL    HW1 3908   2.007   6.196   2.594
 1003SOL    HW2 3909   1.942   6.112   2.470
 1004SOL     OW 3910   0.452   0.936   1.787
 1004SOL    HW1 3911   0.430   0.880   1.708
 1004SOL    HW2 3912   0.551   0.937   1.801
 1005SOL     OW 3913   2.402   2.436   3.742
 1005SOL    HW1 3914   2.456   2.506   3.695
 1005SOL    HW2 3915   2.342   2.480   3.809
 1006SOL     OW 3916   1.230   4.600   0.138
 1006SOL    HW1 3917   1.323   4.635   0.127
 1006SOL    HW2 3918   1.225   4.507   0.102
 1007SOL     OW 3919   4.845   0.749   5.397
 1007SOL    HW1 3920   4.761   0.766   5.345
 1007SOL    HW2 3921   4.837   0.789   5.488
 1008SOL     OW 3922   0.676   2.804   6.158
 1008SOL    HW1 3923   0.634   2.869   6.222
 1008SOL    HW2 3924   0.743   2.851   6.101
 1009SOL     OW 3925   0.734   5.164   4.933
 1009SOL    HW1 3926   0.825   5.145   4.969
 1009SOL    HW2 3927   0.687   5.229   4.992
 1010SOL     OW 3928   2.872   1.997   0.131
 1010SOL    HW1 3929   2.956   1.989   0.186
 1010SOL    HW2 3930   2.872   2.085   0.083
 1011SOL     OW 3931   1.295   5.652   3.476
 1011SOL    HW1 3932   1.392   5.633   3.462
 1011SOL    HW2 3933   1.264   5.717   3.407
 1012SOL     OW 3934   0.304   6.708   2.638
 1012SOL    HW1 3935   0.335   6.798   2.609
 1012SOL    HW2 3936   0.363   6.637   2.599
 1013SOL     OW 3937   1.194   1.741   6.508
 1013SOL    HW1 3938   1.243   1.657   6.532
 1013SOL    HW2 3939   1.100   1.718   6.482
 1014SOL     OW 3940   0.071   4.698   5.429
 1014SOL    HW1 3941   0.084   4.603   5.458
 1014SOL    HW2 3942   0.091   4.759   5.506
 1015SOL     OW 3943   2.988   6.774   5.780
 1015SOL    HW1 3944   3.080   6.755   5.815
 1015SOL    HW2 3945   2.937   6.825   5.848
 1016SOL     OW 3946   4.680   3.592   0.189
 1016SOL    HW1 3947   4.703   3.672   0.244
 1016SOL    HW2 3948   4.764   3.544   0.163
 1017SOL     OW 3949   4.705   2.581   1.252
 1017SOL    HW1 3950   4.675   2.612   1.342
 1017SOL    HW2 3951   4.796   2.620   1.232
 1018SOL     OW 3952   0.994   4.204   3.952
 1018SOL    HW1 3953   0.931   4.209   4.030
 1018SOL    HW2 3954   0.942   4.217   3.867
 1019SOL     OW 3955   6.857   6.741   1.170
 1019SOL    HW1 3956   6.850   6.707   1.264
 1019SOL    HW2 3957   6.926   6.814   1.166
 1020SOL     OW 3958   6.426   0.979   1.007
 1020SOL    HW1 3959   6.475   0.894   0.986
 1020SOL    HW2 3960   6.487   1.057   0.990
 1021SOL     OW 3961   5.480   6.380   1.529
 1021SOL    HW1 3962   5.470   6.397   1.431
 1021SOL    HW2 3963   5.460   6.464   1.580
 1022SOL     OW 3964   2.718   4.807   5.184
 1022SOL    HW1 3965   2.730   4.746   5.263
 1022SOL    HW2 3966   2.740   4.757   5.100
 1023SOL     OW 3967   0.160   1.164   2.706
 1023SOL    HW1 3968   0.138   1.261   2.699
 1023SOL    HW2 3969   0.192   1.131   2.617
 1024SOL     OW 3970   0.457   2.918   4.155
 1024SOL    HW1 3971   0.403   2.868   4.222
 1024SOL    HW2 3972   0.462   2.866   4.070
 1025SOL     OW 3973   3.489   3.495   1.486
 1025SOL    HW1 3974   3.441   3.558   1.547
 1025SOL    HW2 3975   3.493   3.404   1.529
 1026SOL     OW 3976   3.053   2.768   1.474
 1026SOL    HW1 3977   3.106   2.848   1.503
 1026SOL    HW2 3978   3.022   2.718   1.555
 1027SOL     OW 3979   3.740   6.520   1.747
 1027SOL    HW1 3980   3.775   6.565   1.665
 1027SOL    HW2 3981   3.677   6.581   1.794
 1028SOL     OW 3982   1.774   6.993   2.546
 1028SOL    HW1 3983   1.825   6.966   2.464
 1028SOL    HW2 3984   1.837   7.004   2.622
 1029SOL     OW 3985   1.264   1.052   6.240
 1029SOL    HW1 3986   1.215   1.137   6.219
 1029SOL    HW2 3987   1.362   1.071   6.246
 1030SOL     OW 3988   3.357   3.109   2.064
 1030SOL    HW1 3989   3.289   3.180   2.051
 1030SOL    HW2 3990   3.377   3.098   2.162
 1031SOL     OW 3991   4.747   4.031   1.195
 1031SOL    HW1 3992   4.739   3.980   1.280
 1031SOL    HW2 3993   4.828   4.001   1.145
 1032SOL     OW 3994   1.271   1.772   5.829
 1032SOL    HW1 3995   1.319   1.810   5.750
 1032SOL    HW2 3996   1.336   1.749   5.900
 1033SOL     OW 3997   0.965   5.279   1.090
 1033SOL    HW1 3998   0.937   5.371   1.064
 1033SOL    HW2 3999   1.052   5.283   1.140
 1034SOL     OW 4000   1.423   5.217   4.597
 1034SOL    HW1 4001   1.340   5.268   4.617
 1034SOL    HW2 4002   1.498   5.251   4.655
 1035SOL     OW 4003   0.048   0.860   5.404
 1035SOL    HW1 4004   0.065   0.828   5.311
 1035SOL    HW2 4005   0.130   0.845   5.459
 1036SOL     OW 4006   3.676   0.463   1.959
 1036SOL    HW1 4007   3.592   0.415   1.985
 1036SOL    HW2 4008   3.722   0.412   1.887
 1037SOL     OW 4009   1.278   1.463   3.018
 1037SOL    HW1 4010   1.293   1.466   3.117
 1037SOL    HW2 4011   1.207   1.396   2.998
 1038SOL     OW 4012   1.997   0.721   5.491
 1038SOL    HW1 4013   2.089   0.761   5.496
 1038SOL    HW2 4014   1.961   0.710   5.584
 1039SOL     OW 4015   3.688   3.833   4.414
 1039SOL    HW1 4016   3.622   3.782   4.469
 1039SOL    HW2 4017   3.731   3.903   4.471
 1040SOL     OW 4018   4.722   1.182   2.071
 1040SOL    HW1 4019   4.810   1.138   2.053
 1040SOL    HW2 4020   4.736   1.281   2.079
 1041SOL     OW 4021   0.108   6.650   3.355
 1041SOL    HW1 4022   0.164   6.665   3.437
 1041SOL    HW2 4023   0.080   6.554   3.351
 1042SOL     OW 4024   4.003   5.660   2.587
 1042SOL    HW1 4025   4.045   5.569   2.593
 1042SOL    HW2 4026   4.005   5.692   2.493
 1043SOL     OW 4027   3.575   2.002   3.452
 1043SOL    HW1 4028   3.602   1.925   3.395
 1043SOL    HW2 4029   3.639   2.077   3.440
 1044SOL     OW 4030   5.496   4.993   2.115
 1044SOL    HW1 4031   5.564   5.056   2.152
 1044SOL    HW2 4032   5.538   4.904   2.100
 1045SOL     OW 4033   3.692   0.386   2.278
 1045SOL    HW1 4034   3.757   0.342   2.341
 1045SOL    HW2 4035   3.704   0.485   2.282
 1046SOL     OW 4036   1.642   1.220   0.027
 1046SOL    HW1 4037   1.608   1.220   6.954
 1046SOL    HW2 4038   1.565   1.227   0.090
 1047SOL     OW 4039   2.392   0.054   3.921
 1047SOL    HW1 4040   2.396   0.104   3.834
 1047SOL    HW2 4041   2.369   0.116   3.995
 1048SOL     OW 4042   3.701   6.559   3.225
 1048SOL    HW1 4043   3.624   6.614   3.258
 1048SOL    HW2 4044   3.671   6.498   3.152
 1049SOL     OW 4045   6.577   6.511   4.094
 1049SOL    HW1 4046   6.526   6.434   4.056
 1049SOL    HW2 4047   6.516   6.589   4.105
 1050SOL     OW 4048   3.342   5.196   2.125
 1050SOL    HW1 4049   3.319   5.102   2.102
 1050SOL    HW2 4050   3.441   5.207   2.127
 1051SOL     OW 4051   0.534   5.111   0.953
 1051SOL    HW1 4052   0.571   5.176   0.886
 1051SOL    HW2 4053   0.527   5.156   1.042
 1052SOL     OW 4054   4.474   0.850   5.414
 1052SOL    HW1 4055   4.378   0.865   5.391
 1052SOL    HW2 4056   4.532   0.895   5.346
 1053SOL     OW 4057   5.896   4.235   3.462
 1053SOL    HW1 4058   5.801   4.227   3.491
 1053SOL    HW2 4059   5.953   4.172   3.515
 1054SOL     OW 4060   2.998   3.404   0.747
 1054SOL    HW1 4061   2.978   3.329   0.810
 1054SOL    HW2 4062   3.008   3.368   0.655
 1055SOL     OW 4063   4.376   6.675   5.275
 1055SOL    HW1 4064   4.401   6.676   5.178
 1055SOL    HW2 4065   4.346   6.767   5.302
 1056SOL     OW 4066   1.798   3.615   0.451
 1056SOL    HW1 4067   1.834   3.704   0.480
 1056SOL    HW2 4068   1.763   3.622   0.357
 1057SOL     OW 4069   3.443   3.229   1.597
 1057SOL    HW1 4070   3.465   3.164   1.524
 1057SOL    HW2 4071   3.395   3.181   1.670
 1058SOL     OW 4072   5.291   2.545   3.502
 1058SOL    HW1 4073   5.317   2.519   3.595
 1058SOL    HW2 4074   5.311   2.470   3.439
 1059SOL     OW 4075   2.636   0.724   1.865
 1059SOL    HW1 4076   2.725   0.748   1.826
 1059SOL    HW2 4077   2.622   0.774   1.950
 1060SOL     OW 4078   0.345   4.840   3.895
 1060SOL    HW1 4079   0.256   4.852   3.939
 1060SOL    HW2 4080   0.404   4.782   3.952
 1061SOL     OW 4081   6.514   3.578   0.024
 1061SOL    HW1 4082   6.613   3.577   0.011
 1061SOL    HW2 4083   6.469   3.585   6.956
 1062SOL     OW 4084   5.467   5.538   5.932
 1062SOL    HW1 4085   5.559   5.534   5.971
 1062SOL    HW2 4086   5.403   5.570   6.001
 1063SOL     OW 4087   1.151   5.537   0.937
 1063SOL    HW1 4088   1.226   5.576   0.884
 1063SOL    HW2 4089   1.166   5.555   1.034
 1064SOL     OW 4090   1.787   4.522   2.984
 1064SOL    HW1 4091   1.724   4.598   2.997
 1064SOL    HW2 4092   1.736   4.441   2.955
 1065SOL     OW 4093   5.186   0.584   3.515
 1065SOL    HW1 4094   5.150   0.652   3.451
 1065SOL    HW2 4095   5.132   0.585   3.599
 1066SOL     OW 4096   4.957   6.991   2.866
 1066SOL    HW1 4097   5.013   6.924   2.914
 1066SOL    HW2 4098   4.863   6.987   2.900
 1067SOL     OW 4099   0.814   2.899   0.543
 1067SOL    HW1 4100   0.779   2.827   0.604
 1067SOL    HW2 4101   0.832   2.860   0.453
 1068SOL     OW 4102   6.415   5.016   2.408
 1068SOL    HW1 4103   6.496   4.969   2.372
 1068SOL    HW2 4104   6.362   5.054   2.333
 1069SOL     OW 4105   4.678   5.551   0.551
 1069SOL    HW1 4106   4.748   5.517   0.613
 1069SOL    HW2 4107   4.594   5.568   0.603
 1070SOL     OW 4108   0.795   0.081   1.739
 1070SOL    HW1 4109   0.868   0.133   1.782
 1070SOL    HW2 4110   0.711   0.091   1.793
 1071SOL     OW 4111   1.193   1.148   4.008
 1071SOL    HW1 4112   1.144   1.068   3.972
 1071SOL    HW2 4113   1.223   1.129   4.101
 1072SOL     OW 4114   2.043   0.724   1.159
 1072SOL    HW1 4115   2.137   0.730   1.128
 1072SOL    HW2 4116   1.991   0.666   1.096
 1073SOL     OW 4117   4.841   0.348   3.333
 1073SOL    HW1 4118   4.772   0.420   3.324
 1073SOL    HW2 4119   4.893   0.361   3.417
 1074SOL     OW 4120   2.291   5.573   1.688
 1074SOL    HW1 4121   2.314   5.607   1.779
 1074SOL    HW2 4122   2.353   5.500   1.662
 1075SOL     OW 4123   5.509   6.862   3.374
 1075SOL    HW1 4124   5.410   6.849   3.368
 1075SOL    HW2 4125   5.547   6.799   3.443
 1076SOL     OW 4126   0.588   2.751   5.514
 1076SOL    HW1 4127   0.640   2.689   5.454
 1076SOL    HW2 4128   0.624   2.745   5.607
 1077SOL     OW 4129   6.373   0.256   0.484
 1077SOL    HW1 4130   6.285   0.224   0.448
 1077SOL    HW2 4131   6.398   0.203   0.565
 1078SOL     OW 4132   0.151   0.678   2.460
 1078SOL    HW1 4133   0.122   0.768   2.425
 1078SOL    HW2 4134   0.239   0.654   2.419
 1079SOL     OW 4135   1.316   6.225   2.032
 1079SOL    HW1 4136   1.387   6.246   1.964
 1079SOL    HW2 4137   1.349   6.249   2.123
 1080SOL     OW 4138   2.023   5.377   3.438
 1080SOL    HW1 4139   1.976   5.328   3.512
 1080SOL    HW2 4140   2.104   5.423   3.475
 1081SOL     OW 4141   6.591   5.146   5.428
 1081SOL    HW1 4142   6.640   5.232   5.446
 1081SOL    HW2 4143   6.568   5.102   5.515
 1082SOL     OW 4144   5.455   2.391   5.269
 1082SOL    HW1 4145   5.401   2.341   5.337
 1082SOL    HW2 4146   5.503   2.327   5.209
 1083SOL     OW 4147   4.403   4.155   0.440
 1083SOL    HW1 4148   4.341   4.092   0.394
 1083SOL    HW2 4149   4.476   4.103   0.485
 1084SOL     OW 4150   6.197   5.878   6.583
 1084SOL    HW1 4151   6.242   5.945   6.525
 1084SOL    HW2 4152   6.260   5.802   6.600
 1085SOL     OW 4153   1.632   3.685   4.573
 1085SOL    HW1 4154   1.678   3.621   4.634
 1085SOL    HW2 4155   1.538   3.701   4.605
 1086SOL     OW 4156   0.026   4.720   0.130
 1086SOL    HW1 4157   0.031   4.722   0.230
 1086SOL    HW2 4158   0.113   4.689   0.093
 1087SOL     OW 4159   6.989   2.288   5.276
 1087SOL    HW1 4160   6.925   2.361   5.253
 1087SOL    HW2 4161   6.994   2.278   5.375
 1088SOL     OW 4162   0.338   3.573   2.521
 1088SOL    HW1 4163   0.369   3.661   2.557
 1088SOL    HW2 4164   0.257   3.587   2.464
 1089SOL     OW 4165   0.332   5.857   4.523
 1089SOL    HW1 4166   0.242   5.815   4.509
 1089SOL    HW2 4167   0.399   5.814   4.462
 1090SOL     OW 4168   2.912   1.662   3.443
 1090SOL    HW1 4169   2.924   1.738   3.508
 1090SOL    HW2 4170   3.001   1.634   3.408
 1091SOL     OW 4171   2.841   1.933   4.586
 1091SOL    HW1 4172   2.894   1.861   4.631
 1091SOL    HW2 4173   2.816   2.003   4.653
 1092SOL     OW 4174   0.876   4.246   0.465
 1092SOL    HW1 4175   0.896   4.264   0.368
 1092SOL    HW2 4176   0.951   4.280   0.521
 1093SOL     OW 4177   2.474   0.140   1.385
 1093SOL    HW1 4178   2.522   0.139   1.473
 1093SOL    HW2 4179   2.478   0.233   1.347
 1094SOL     OW 4180   1.156   0.013   2.877
 1094SOL    HW1 4181   1.223   0.078   2.841
 1094SOL    HW2 4182   1.114   6.984   2.801
 1095SOL     OW 4183   1.096   3.076   6.212
 1095SOL    HW1 4184   1.189   3.077   6.250
 1095SOL    HW2 4185   1.061   2.983   6.211
 1096SOL     OW 4186   3.414   4.127   1.924
 1096SOL    HW1 4187   3.363   4.068   1.987
 1096SOL    HW2 4188   3.512   4.121   1.945
 1097SOL     OW 4189   2.702   4.662   3.743
 1097SOL    HW1 4190   2.710   4.729   3.670
 1097SOL    HW2 4191   2.638   4.590   3.716
 1098SOL     OW 4192   4.540   3.511   6.605
 1098SOL    HW1 4193   4.476   3.582   6.634
 1098SOL    HW2 4194   4.526   3.429   6.660
 1099SOL     OW 4195   3.259   0.752   5.887
 1099SOL    HW1 4196   3.263   0.806   5.803
 1099SOL    HW2 4197   3.268   0.812   5.966
 1100SOL     OW 4198   4.111   1.411   4.992
 1100SOL    HW1 4199   4.116   1.342   5.064
 1100SOL    HW2 4200   4.096   1.366   4.904
 1101SOL     OW 4201   5.418   3.027   5.754
 1101SOL    HW1 4202   5.343   3.017   5.689
 1101SOL    HW2 4203   5.452   2.937   5.781
 1102SOL     OW 4204   0.952   0.398   4.732
 1102SOL    HW1 4205   0.901   0.370   4.813
 1102SOL    HW2 4206   0.961   0.321   4.669
 1103SOL     OW 4207   4.145   1.063   0.202
 1103SOL    HW1 4208   4.184   1.040   0.291
 1103SOL    HW2 4209   4.056   1.018   0.192
 1104SOL     OW 4210   1.997   3.152   5.274
 1104SOL    HW1 4211   1.999   3.131   5.371
 1104SOL    HW2 4212   1.902   3.165   5.245
 1105SOL     OW 4213   5.785   3.130   4.729
 1105SOL    HW1 4214   5.802   3.100   4.823
 1105SOL    HW2 4215   5.689   3.160   4.721
 1106SOL     OW 4216   0.188   2.453   1.019
 1106SOL    HW1 4217   0.259   2.497   0.964
 1106SOL    HW2 4218   0.226   2.424   1.107
 1107SOL     OW 4219   0.865   0.373   6.936
 1107SOL    HW1 4220   0.841   0.309   7.009
 1107SOL    HW2 4221   0.942   0.430   6.966
 1108SOL     OW 4222   3.543   6.768   5.380
 1108SOL    HW1 4223   3.628   6.808   5.347
 1108SOL    HW2 4224   3.554   6.669   5.388
 1109SOL     OW 4225   5.455   0.559   3.426
 1109SOL    HW1 4226   5.370   0.552   3.478
 1109SOL    HW2 4227   5.435   0.576   3.330
 1110SOL     OW 4228   4.102   1.951   3.129
 1110SOL    HW1 4229   4.157   2.011   3.187
 1110SOL    HW2 4230   4.163   1.892   3.075
 1111SOL     OW 4231   4.534   5.618   6.942
 1111SOL    HW1 4232   4.468   5.547   6.918
 1111SOL    HW2 4233   4.498   5.675   7.015
 1112SOL     OW 4234   5.663   0.891   2.064
 1112SOL    HW1 4235   5.730   0.958   2.032
 1112SOL    HW2 4236   5.707   0.826   2.126
 1113SOL     OW 4237   6.022   4.371   1.520
 1113SOL    HW1 4238   6.095   4.425   1.561
 1113SOL    HW2 4239   5.935   4.393   1.565
 1114SOL     OW 4240   2.986   1.302   5.833
 1114SOL    HW1 4241   3.045   1.339   5.905
 1114SOL    HW2 4242   2.970   1.374   5.764
 1115SOL     OW 4243   3.713   3.425   5.973
 1115SOL    HW1 4244   3.769   3.344   5.954
 1115SOL    HW2 4245   3.759   3.483   6.040
 1116SOL     OW 4246   4.708   6.321   5.573
 1116SOL    HW1 4247   4.697   6.231   5.531
 1116SOL    HW2 4248   4.632   6.380   5.546
 1117SOL     OW 4249   1.961   2.203   1.828
 1117SOL    HW1 4250   1.929   2.126   1.773
 1117SOL    HW2 4251   2.025   2.258   1.774
 1118SOL     OW 4252   2.664   4.766   0.745
 1118SOL    HW1 4253   2.705   4.770   0.837
 1118SOL    HW2 4254   2.592   4.697   0.744
 1119SOL     OW 4255   4.074   4.457   1.647
 1119SOL    HW1 4256   4.144   4.385   1.647
 1119SOL    HW2 4257   4.005   4.435   1.578
 1120SOL     OW 4258   5.414   6.148   0.868
 1120SOL    HW1 4259   5.483   6.104   0.926
 1120SOL    HW2 4260   5.450   6.235   0.834
 1121SOL     OW 4261   6.401   4.638   4.823
 1121SOL    HW1 4262   6.382   4.542   4.803
 1121SOL    HW2 4263   6.322   4.694   4.796
 1122SOL     OW 4264   5.133   2.596   1.520
 1122SOL    HW1 4265   5.185   2.514   1.544
 1122SOL    HW2 4266   5.035   2.575   1.519
 1123SOL     OW 4267   4.737   2.074   2.981
 1123SOL    HW1 4268   4.745   2.054   3.079
 1123SOL    HW2 4269   4.804   2.143   2.956
 1124SOL     OW 4270   6.993   3.557   5.529
 1124SOL    HW1 4271   7.008   3.539   5.432
 1124SOL    HW2 4272   6.937   3.639   5.539
 1125SOL     OW 4273   2.978   1.812   3.708
 1125SOL    HW1 4274   2.904   1.762   3.754
 1125SOL    HW2 4275   2.942   1.896   3.669
 1126SOL     OW 4276   5.387   5.654   6.862
 1126SOL    HW1 4277   5.310   5.623   6.806
 1126SOL    HW2 4278   5.353   5.698   6.945
 1127SOL     OW 4279   5.215   5.910   4.211
 1127SOL    HW1 4280   5.290   5.867   4.261
 1127SOL    HW2 4281   5.196   5.858   4.128
 1128SOL     OW 4282   6.182   1.417   4.532
 1128SOL    HW1 4283   6.124   1.481   4.481
 1128SOL    HW2 4284   6.215   1.346   4.470
 1129SOL     OW 4285   1.561   0.006   0.618
 1129SOL    HW1 4286   1.615   6.975   0.552
 1129SOL    HW2 4287   1.608   0.092   0.639
 1130SOL     OW 4288   2.039   5.251   0.484
 1130SOL    HW1 4289   2.113   5.316   0.503
 1130SOL    HW2 4290   2.045   5.174   0.548
 1131SOL     OW 4291   1.138   6.236   5.887
 1131SOL    HW1 4292   1.224   6.210   5.928
 1131SOL    HW2 4293   1.105   6.162   5.828
 1132SOL     OW 4294   5.300   0.549   2.763
 1132SOL    HW1 4295   5.247   0.522   2.682
 1132SOL    HW2 4296   5.340   0.468   2.805
 1133SOL     OW 4297   1.062   0.906   0.254
 1133SOL    HW1 4298   1.021   0.826   0.210
 1133SOL    HW2 4299   1.049   0.899   0.353
 1134SOL     OW 4300   5.257   0.118   2.396
 1134SOL    HW1 4301   5.290   0.108   2.302
 1134SOL    HW2 4302   5.234   0.028   2.433
 1135SOL     OW 4303   2.806   6.516   3.619
 1135SOL    HW1 4304   2.790   6.611   3.646
 1135SOL    HW2 4305   2.808   6.510   3.519
 1136SOL     OW 4306   4.617   4.592   3.663
 1136SOL    HW1 4307   4.636   4.500   3.698
 1136SOL    HW2 4308   4.639   4.595   3.565
 1137SOL     OW 4309   1.573   6.622   0.345
 1137SOL    HW1 4310   1.483   6.611   0.304
 1137SOL    HW2 4311   1.568   6.605   0.443
 1138SOL     OW 4312   0.235   0.861   5.674
 1138SOL    HW1 4313   0.291   0.936   5.710
 1138SOL    HW2 4314   0.290   0.777   5.671
 1139SOL     OW 4315   3.382   4.948   2.621
 1139SOL    HW1 4316   3.478   4.931   2.644
 1139SOL    HW2 4317   3.376   4.980   2.526
 1140SOL     OW 4318   2.832   1.112   2.325
 1140SOL    HW1 4319   2.735   1.105   2.346
 1140SOL    HW2 4320   2.845   1.180   2.252
 1141SOL     OW 4321   1.092   6.233   6.867
 1141SOL    HW1 4322   1.182   6.230   6.911
 1141SOL    HW2 4323   1.025   6.186   6.925
 1142SOL     OW 4324   3.218   0.104   3.818
 1142SOL    HW1 4325   3.166   0.025   3.850
 1142SOL    HW2 4326   3.163   0.187   3.827
 1143SOL     OW 4327   2.660   2.419   3.367
 1143SOL    HW1 4328   2.612   2.396   3.283
 1143SOL    HW2 4329   2.652   2.517   3.384
 1144SOL     OW 4330   6.106   4.519   3.759
 1144SOL    HW1 4331   6.189   4.503   3.704
 1144SOL    HW2 4332   6.130   4.515   3.856
 1145SOL     OW 4333   6.332   3.673   1.099
 1145SOL    HW1 4334   6.400   3.694   1.170
 1145SOL    HW2 4335   6.253   3.733   1.111
 1146SOL     OW 4336   6.878   0.866   2.301
 1146SOL    HW1 4337   6.888   0.865   2.202
 1146SOL    HW2 4338   6.961   0.903   2.342
 1147SOL     OW 4339   2.900   5.737   1.953
 1147SOL    HW1 4340   2.858   5.827   1.959
 1147SOL    HW2 4341   2.999   5.747   1.940
 1148SOL     OW 4342   4.359   6.048   0.310
 1148SOL    HW1 4343   4.272   6.005   0.331
 1148SOL    HW2 4344   4.354   6.089   0.218
 1149SOL     OW 4345   6.483   3.102   2.629
 1149SOL    HW1 4346   6.515   3.116   2.535
 1149SOL    HW2 4347   6.508   3.010   2.659
 1150SOL     OW 4348   0.527   3.997   6.908
 1150SOL    HW1 4349   0.581   3.922   6.869
 1150SOL    HW2 4350   0.432   3.988   6.878
 1151SOL     OW 4351   5.619   4.338   5.606
 1151SOL    HW1 4352   5.578   4.262   5.656
 1151SOL    HW2 4353   5.547   4.385   5.554
 1152SOL     OW 4354   4.668   5.190   6.872
 1152SOL    HW1 4355   4.707   5.279   6.894
 1152SOL    HW2 4356   4.741   5.125   6.851
 1153SOL     OW 4357   0.267   0.179   2.188
 1153SOL    HW1 4358   0.356   0.218   2.165
 1153SOL    HW2 4359   0.212   0.248   2.235
 1154SOL     OW 4360   0.037   4.335   1.220
 1154SOL    HW1 4361   7.018   4.259   1.271
 1154SOL    HW2 4362   0.068   4.405   1.283
 1155SOL     OW 4363   2.602   4.990   6.208
 1155SOL    HW1 4364   2.508   4.955   6.206
 1155SOL    HW2 4365   2.664   4.917   6.237
 1156SOL     OW 4366   4.563   2.100   4.871
 1156SOL    HW1 4367   4.497   2.124   4.800
 1156SOL    HW2 4368   4.555   2.165   4.947
 1157SOL     OW 4369   5.273   0.980   6.180
 1157SOL    HW1 4370   5.238   0.897   6.223
 1157SOL    HW2 4371   5.298   1.046   6.251
 1158SOL     OW 4372   6.907   5.082   4.902
 1158SOL    HW1 4373   6.845   5.086   4.980
 1158SOL    HW2 4374   6.887   5.000   4.848
 1159SOL     OW 4375   6.580   0.308   3.618
 1159SOL    HW1 4376   6.495   0.356   3.600
 1159SOL    HW2 4377   6.572   0.257   3.704
 1160SOL     OW 4378   5.226   4.536   1.008
 1160SOL    HW1 4379   5.207   4.446   0.967
 1160SOL    HW2 4380   5.183   4.607   0.952
 1161SOL     OW 4381   6.652   5.383   5.809
 1161SOL    HW1 4382   6.688   5.319   5.741
 1161SOL    HW2 4383   6.628   5.333   5.893
 1162SOL     OW 4384   2.446   2.237   6.694
 1162SOL    HW1 4385   2.479   2.324   6.732
 1162SOL    HW2 4386   2.524   2.179   6.672
 1163SOL     OW 4387   6.658   3.902   1.502
 1163SOL    HW1 4388   6.623   3.840   1.572
 1163SOL    HW2 4389   6.687   3.987   1.545
 1164SOL     OW 4390   5.139   2.751   3.638
 1164SOL    HW1 4391   5.209   2.760   3.709
 1164SOL    HW2 4392   5.179   2.707   3.558
 1165SOL     OW 4393   3.777   5.724   3.664
 1165SOL    HW1 4394   3.816   5.814   3.684
 1165SOL    HW2 4395   3.770   5.712   3.565
 1166SOL     OW 4396   3.626   6.687   0.524
 1166SOL    HW1 4397   3.588   6.657   0.612
 1166SOL    HW2 4398   3.596   6.780   0.505
 1167SOL     OW 4399   4.040   6.588   0.517
 1167SOL    HW1 4400   4.004   6.500   0.550
 1167SOL    HW2 4401   4.011   6.602   0.422
 1168SOL     OW 4402   5.220   2.683   1.937
 1168SOL    HW1 4403   5.182   2.686   2.029
 1168SOL    HW2 4404   5.310   2.726   1.937
 1169SOL     OW 4405   4.401   2.420   5.916
 1169SOL    HW1 4406   4.466   2.471   5.859
 1169SOL    HW2 4407   4.448   2.342   5.958
 1170SOL     OW 4408   5.431   6.894   2.903
 1170SOL    HW1 4409   5.352   6.897   2.843
 1170SOL    HW2 4410   5.427   6.811   2.960
 1171SOL     OW 4411   3.129   6.556   0.191
 1171SOL    HW1 4412   3.074   6.483   0.231
 1171SOL    HW2 4413   3.068   6.622   0.145
 1172SOL     OW 4414   3.301   3.785   1.483
 1172SOL    HW1 4415   3.380   3.761   1.425
 1172SOL    HW2 4416   3.315   3.749   1.575
 1173SOL     OW 4417   3.426   1.291   0.939
 1173SOL    HW1 4418   3.484   1.345   1.000
 1173SOL    HW2 4419   3.457   1.303   0.844
 1174SOL     OW 4420   2.374   4.820   2.050
 1174SOL    HW1 4421   2.298   4.808   2.115
 1174SOL    HW2 4422   2.428   4.736   2.048
 1175SOL     OW 4423   4.032   4.825   6.691
 1175SOL    HW1 4424   4.091   4.903   6.714
 1175SOL    HW2 4425   4.012   4.827   6.593
 1176SOL     OW 4426   5.772   3.533   6.456
 1176SOL    HW1 4427   5.821   3.526   6.543
 1176SOL    HW2 4428   5.831   3.578   6.389
 1177SOL     OW 4429   0.218   3.940   4.709
 1177SOL    HW1 4430   0.129   3.971   4.675
 1177SOL    HW2 4431   0.234   3.846   4.680
 1178SOL     OW 4432   3.553   4.435   0.984
 1178SOL    HW1 4433   3.529   4.366   0.916
 1178SOL    HW2 4434   3.562   4.524   0.940
 1179SOL     OW 4435   2.442   5.810   1.021
 1179SOL    HW1 4436   2.423   5.886   1.083
 1179SOL    HW2 4437   2.446   5.725   1.072
 1180SOL     OW 4438   2.592   5.637   4.235
 1180SOL    HW1 4439   2.602   5.580   4.153
 1180SOL    HW2 4440   2.495   5.657   4.249
 1181SOL     OW 4441   0.320   5.090   5.109
 1181SOL    HW1 4442   0.229   5.059   5.136
 1181SOL    HW2 4443   0.353   5.034   5.033
 1182SOL     OW 4444   4.250   5.490   3.715
 1182SOL    HW1 4445   4.251   5.399   3.756
 1182SOL    HW2 4446   4.155   5.519   3.702
 1183SOL     OW 4447   3.065   4.120   1.388
 1183SOL    HW1 4448   3.032   4.027   1.373
 1183SOL    HW2 4449   2.992   4.175   1.429
 1184SOL     OW 4450   0.092   1.366   5.327
 1184SOL    HW1 4451   0.127   1.319   5.246
 1184SOL    HW2 4452   7.019   1.395   5.311
 1185SOL     OW 4453   1.298   0.917   0.666
 1185SOL    HW1 4454   1.248   0.999   0.694
 1185SOL    HW2 4455   1.299   0.851   0.741
 1186SOL     OW 4456   4.804   5.764   5.592
 1186SOL    HW1 4457   4.855   5.683   5.622
 1186SOL    HW2 4458   4.867   5.828   5.548
 1187SOL     OW 4459   5.031   0.569   5.412
 1187SOL    HW1 4460   4.963   0.643   5.410
 1187SOL    HW2 4461   5.095   0.585   5.486
 1188SOL     OW 4462   3.430   5.794   6.077
 1188SOL    HW1 4463   3.406   5.776   5.981
 1188SOL    HW2 4464   3.527   5.778   6.090
 1189SOL     OW 4465   6.299   1.986   1.602
 1189SOL    HW1 4466   6.319   1.893   1.632
 1189SOL    HW2 4467   6.214   2.017   1.644
 1190SOL     OW 4468   3.521   5.925   3.208
 1190SOL    HW1 4469   3.558   5.832   3.215
 1190SOL    HW2 4470   3.592   5.987   3.175
 1191SOL     OW 4471   4.722   5.237   4.857
 1191SOL    HW1 4472   4.782   5.156   4.858
 1191SOL    HW2 4473   4.627   5.207   4.860
 1192SOL     OW 4474   5.216   4.506   2.886
 1192SOL    HW1 4475   5.296   4.551   2.847
 1192SOL    HW2 4476   5.232   4.488   2.983
 1193SOL     OW 4477   0.213   2.400   5.534
 1193SOL    HW1 4478   0.121   2.362   5.532
 1193SOL    HW2 4479   0.251   2.400   5.442
 1194SOL     OW 4480   5.997   0.558   1.047
 1194SOL    HW1 4481   6.090   0.570   1.081
 1194SOL    HW2 4482   5.999   0.498   0.966
 1195SOL     OW 4483   0.290   4.189   0.819
 1195SOL    HW1 4484   0.191   4.190   0.806
 1195SOL    HW2 4485   0.334   4.227   0.737
 1196SOL     OW 4486   6.325   4.917   3.639
 1196SOL    HW1 4487   6.255   4.880   3.578
 1196SOL    HW2 4488   6.410   4.930   3.589
 1197SOL     OW 4489   4.640   6.956   4.633
 1197SOL    HW1 4490   4.614   6.995   4.545
 1197SOL    HW2 4491   4.738   6.967   4.647
 1198SOL     OW 4492   1.878   3.648   2.750
 1198SOL    HW1 4493   1.975   3.632   2.770
 1198SOL    HW2 4494   1.858   3.616   2.658
 1199SOL     OW 4495   3.887   3.461   2.193
 1199SOL    HW1 4496   3.886   3.361   2.192
 1199SOL    HW2 4497   3.824   3.494   2.263
 1200SOL     OW 4498   3.289   4.123   4.764
 1200SOL    HW1 4499   3.266   4.219   4.748
 1200SOL    HW2 4500   3.278   4.102   4.861
 1201SOL     OW 4501   1.314   1.556   4.120
 1201SOL    HW1 4502   1.387   1.585   4.059
 1201SOL    HW2 4503   1.256   1.488   4.074
 1202SOL     OW 4504   0.262   5.619   5.022
 1202SOL    HW1 4505   0.247   5.521   5.023
 1202SOL    HW2 4506   0.352   5.639   4.984
 1203SOL     OW 4507   0.519   5.633   0.173
 1203SOL    HW1 4508   0.609   5.656   0.136
 1203SOL    HW2 4509   0.469   5.717   0.196
 1204SOL     OW 4510   4.763   1.238   1.657
 1204SOL    HW1 4511   4.698   1.221   1.583
 1204SOL    HW2 4512   4.857   1.235   1.620
 1205SOL     OW 4513   3.865   3.627   1.038
 1205SOL    HW1 4514   3.771   3.591   1.042
 1205SOL    HW2 4515   3.922   3.564   0.986
 1206SOL     OW 4516   2.564   2.625   5.201
 1206SOL    HW1 4517   2.576   2.561   5.277
 1206SOL    HW2 4518   2.486   2.684   5.219
 1207SOL     OW 4519   1.704   6.471   1.087
 1207SOL    HW1 4520   1.736   6.383   1.053
 1207SOL    HW2 4521   1.609   6.462   1.117
 1208SOL     OW 4522   3.475   3.475   1.207
 1208SOL    HW1 4523   3.457   3.479   1.305
 1208SOL    HW2 4524   3.396   3.510   1.157
 1209SOL     OW 4525   4.988   0.300   3.798
 1209SOL    HW1 4526   5.054   0.290   3.872
 1209SOL    HW2 4527   5.022   0.253   3.716
 1210SOL     OW 4528   4.226   6.788   3.438
 1210SOL    HW1 4529   4.256   6.766   3.345
 1210SOL    HW2 4530   4.185   6.708   3.480
 1211SOL     OW 4531   1.183   3.265   2.805
 1211SOL    HW1 4532   1.167   3.166   2.807
 1211SOL    HW2 4533   1.223   3.290   2.717
 1212SOL     OW 4534   6.393   0.455   6.594
 1212SOL    HW1 4535   6.441   0.533   6.634
 1212SOL    HW2 4536   6.458   0.380   6.580
 1213SOL     OW 4537   5.700   2.816   1.117
 1213SOL    HW1 4538   5.689   2.915   1.120
 1213SOL    HW2 4539   5.740   2.789   1.030
 1214SOL     OW 4540   0.933   3.989   6.936
 1214SOL    HW1 4541   1.000   4.053   6.897
 1214SOL    HW2 4542   0.977   3.901   6.950
 1215SOL     OW 4543   0.826   4.584   3.453
 1215SOL    HW1 4544   0.802   4.679   3.470
 1215SOL    HW2 4545   0.914   4.563   3.496
 1216SOL     OW 4546   5.092   0.169   0.798
 1216SOL    HW1 4547   5.005   0.195   0.756
 1216SOL    HW2 4548   5.106   0.071   0.787
 1217SOL     OW 4549   2.540   4.210   0.917
 1217SOL    HW1 4550   2.498   4.237   0.830
 1217SOL    HW2 4551   2.611   4.141   0.899
 1218SOL     OW 4552   0.975   3.171   4.653
 1218SOL    HW1 4553   0.903   3.203   4.592
 1218SOL    HW2 4554   1.051   3.135   4.599
 1219SOL     OW 4555   5.126   5.947   1.933
 1219SOL    HW1 4556   5.127   6.042   1.902
 1219SOL    HW2 4557   5.215   5.923   1.971
 1220SOL     OW 4558   1.302   4.831   3.126
 1220SOL    HW1 4559   1.249   4.851   3.208
 1220SOL    HW2 4560   1.240   4.820   3.048
 1221SOL     OW 4561   4.121   4.403   6.112
 1221SOL    HW1 4562   4.198   4.403   6.048
 1221SOL    HW2 4563   4.038   4.374   6.064
 1222SOL     OW 4564   6.789   1.207   0.006
 1222SOL    HW1 4565   6.868   1.155   0.038
 1222SOL    HW2 4566   6.762   1.273   0.077
 1223SOL     OW 4567   4.116   2.148   0.181
 1223SOL    HW1 4568   4.097   2.233   0.231
 1223SOL    HW2 4569   4.035   2.119   0.132
 1224SOL     OW 4570   3.488   5.510   0.607
 1224SOL    HW1 4571   3.400   5.470   0.631
 1224SOL    HW2 4572   3.520   5.568   0.682
 1225SOL     OW 4573   3.033   3.508   6.686
 1225SOL    HW1 4574   3.085   3.430   6.652
 1225SOL    HW2 4575   3.089   3.591   6.681
 1226SOL     OW 4576   2.195   6.383   1.718
 1226SOL    HW1 4577   2.232   6.299   1.756
 1226SOL    HW2 4578   2.178   6.371   1.620
 1227SOL     OW 4579   5.832   4.489   5.682
 1227SOL    HW1 4580   5.773   4.409   5.668
 1227SOL    HW2 4581   5.886   4.505   5.600
 1228SOL     OW 4582   3.263   2.162   6.061
 1228SOL    HW1 4583   3.188   2.135   6.121
 1228SOL    HW2 4584   3.232   2.161   5.966
 1229SOL     OW 4585   3.905   5.065   6.410
 1229SOL    HW1 4586   3.928   4.969   6.394
 1229SOL    HW2 4587   3.965   5.123   6.356
 1230SOL     OW 4588   4.512   6.938   2.733
 1230SOL    HW1 4589   4.553   7.014   2.783
 1230SOL    HW2 4590   4.463   6.973   2.653
 1231SOL     OW 4591   2.145   2.420   4.756
 1231SOL    HW1 4592   2.133   2.515   4.783
 1231SOL    HW2 4593   2.065   2.390   4.704
 1232SOL     OW 4594   0.535   2.191   5.585
 1232SOL    HW1 4595   0.500   2.097   5.584
 1232SOL    HW2 4596   0.460   2.254   5.605
 1233SOL     OW 4597   1.165   5.170   4.851
 1233SOL    HW1 4598   1.099   5.123   4.910
 1233SOL    HW2 4599   1.246   5.194   4.905
 1234SOL     OW 4600   6.167   3.024   5.999
 1234SOL    HW1 4601   6.149   3.057   5.906
 1234SOL    HW2 4602   6.265   3.013   6.012
 1235SOL     OW 4603   0.028   5.490   2.976
 1235SOL    HW1 4604   0.032   5.464   2.879
 1235SOL    HW2 4605   6.958   5.474   3.011
 1236SOL     OW 4606   5.065   1.509   7.006
 1236SOL    HW1 4607   4.988   1.566   6.977
 1236SOL    HW2 4608   5.151   1.556   6.987
 1237SOL     OW 4609   2.289   4.831   6.665
 1237SOL    HW1 4610   2.212   4.800   6.610
 1237SOL    HW2 4611   2.373   4.822   6.612
 1238SOL     OW 4612   1.601   1.398   0.405
 1238SOL    HW1 4613   1.671   1.435   0.467
 1238SOL    HW2 4614   1.545   1.332   0.454
 1239SOL     OW 4615   0.076   6.803   6.213
 1239SOL    HW1 4616   0.124   6.835   6.294
 1239SOL    HW2 4617   6.999   6.808   6.228
 1240SOL     OW 4618   5.188   6.223   1.529
 1240SOL    HW1 4619   5.257   6.164   1.487
 1240SOL    HW2 4620   5.098   6.179   1.523
 1241SOL     OW 4621   5.418   3.131   4.005
 1241SOL    HW1 4622   5.515   3.131   3.980
 1241SOL    HW2 4623   5.409   3.125   4.104
 1242SOL     OW 4624   0.443   3.365   1.544
 1242SOL    HW1 4625   0.365   3.325   1.591
 1242SOL    HW2 4626   0.411   3.440   1.485
 1243SOL     OW 4627   0.137   6.273   4.685
 1243SOL    HW1 4628   0.115   6.177   4.706
 1243SOL    HW2 4629   0.093   6.333   4.752
 1244SOL     OW 4630   5.917   6.732   4.948
 1244SOL    HW1 4631   5.986   6.689   4.891
 1244SOL    HW2 4632   5.832   6.742   4.896
 1245SOL     OW 4633   5.544   5.011   0.546
 1245SOL    HW1 4634   5.553   4.911   0.546
 1245SOL    HW2 4635   5.517   5.042   0.454
 1246SOL     OW 4636   3.042   6.778   1.106
 1246SOL    HW1 4637   2.993   6.864   1.112
 1246SOL    HW2 4638   3.084   6.770   1.015
 1247SOL     OW 4639   1.464   6.815   6.683
 1247SOL    HW1 4640   1.473   6.733   6.626
 1247SOL    HW2 4641   1.436   6.787   6.775
 1248SOL     OW 4642   2.342   6.827   5.218
 1248SOL    HW1 4643   2.309   6.874   5.300
 1248SOL    HW2 4644   2.423   6.872   5.183
 1249SOL     OW 4645   6.386   1.722   2.618
 1249SOL    HW1 4646   6.361   1.803   2.671
 1249SOL    HW2 4647   6.373   1.641   2.675
 1250SOL     OW 4648   5.502   5.582   4.352
 1250SOL    HW1 4649   5.437   5.585   4.276
 1250SOL    HW2 4650   5.531   5.488   4.367
 1251SOL     OW 4651   2.855   0.538   4.065
 1251SOL    HW1 4652   2.911   0.456   4.076
 1251SOL    HW2 4653   2.863   0.595   4.147
 1252SOL     OW 4654   4.352   3.619   6.170
 1252SOL    HW1 4655   4.284   3.685   6.139
 1252SOL    HW2 4656   4.408   3.591   6.092
 1253SOL     OW 4657   2.946   5.723   2.813
 1253SOL    HW1 4658   2.866   5.708   2.872
 1253SOL    HW2 4659   2.971   5.820   2.815
 1254SOL     OW 4660   1.096   2.599   2.122
 1254SOL    HW1 4661   1.060   2.505   2.122
 1254SOL    HW2 4662   1.068   2.646   2.205
 1255SOL     OW 4663   6.467   2.217   5.355
 1255SOL    HW1 4664   6.560   2.181   5.354
 1255SOL    HW2 4665   6.401   2.141   5.350
 1256SOL     OW 4666   6.886   6.410   3.552
 1256SOL    HW1 4667   6.850   6.486   3.498
 1256SOL    HW2 4668   6.813   6.372   3.609
 1257SOL     OW 4669   0.274   6.270   5.354
 1257SOL    HW1 4670   0.287   6.260   5.255
 1257SOL    HW2 4671   0.200   6.334   5.372
 1258SOL     OW 4672   1.803   5.212   3.175
 1258SOL    HW1 4673   1.825   5.189   3.270
 1258SOL    HW2 4674   1.746   5.140   3.137
 1259SOL     OW 4675   4.412   0.654   4.122
 1259SOL    HW1 4676   4.373   0.598   4.195
 1259SOL    HW2 4677   4.356   0.736   4.109
 1260SOL     OW 4678   2.074   1.369   6.953
 1260SOL    HW1 4679   2.011   1.366   6.875
 1260SOL    HW2 4680   2.145   1.437   6.935
 1261SOL     OW 4681   0.434   5.862   6.631
 1261SOL    HW1 4682   0.380   5.935   6.589
 1261SOL    HW2 4683   0.457   5.794   6.561
 1262SOL     OW 4684   5.575   4.568   1.038
 1262SOL    HW1 4685   5.484   4.557   1.078
 1262SOL    HW2 4686   5.634   4.492   1.066
 1263SOL     OW 4687   0.379   2.236   1.871
 1263SOL    HW1 4688   0.474   2.207   1.863
 1263SOL    HW2 4689   0.326   2.197   1.796
 1264SOL     OW 4690   6.292   4.527   0.467
 1264SOL    HW1 4691   6.332   4.618   0.459
 1264SOL    HW2 4692   6.286   4.502   0.564
 1265SOL     OW 4693   5.646   5.422   4.779
 1265SOL    HW1 4694   5.619   5.329   4.753
 1265SOL    HW2 4695   5.590   5.488   4.728
 1266SOL     OW 4696   0.455   1.219   4.253
 1266SOL    HW1 4697   0.363   1.181   4.260
 1266SOL    HW2 4698   0.450   1.317   4.234
 1267SOL     OW 4699   5.184   0.850   1.063
 1267SOL    HW1 4700   5.256   0.883   1.002
 1267SOL    HW2 4701   5.219   0.775   1.119
 1268SOL     OW 4702   3.288   2.890   6.852
 1268SOL    HW1 4703   3.207   2.854   6.807
 1268SOL    HW2 4704   3.296   2.988   6.833
 1269SOL     OW 4705   5.846   3.779   4.029
 1269SOL    HW1 4706   5.879   3.726   3.951
 1269SOL    HW2 4707   5.873   3.734   4.114
 1270SOL     OW 4708   1.342   3.793   3.070
 1270SOL    HW1 4709   1.316   3.777   3.165
 1270SOL    HW2 4710   1.394   3.715   3.036
 1271SOL     OW 4711   3.227   1.707   2.499
 1271SOL    HW1 4712   3.248   1.685   2.404
 1271SOL    HW2 4713   3.262   1.798   2.521
 1272SOL     OW 4714   5.636   4.456   6.923
 1272SOL    HW1 4715   5.552   4.499   6.891
 1272SOL    HW2 4716   5.625   4.357   6.924
 1273SOL     OW 4717   0.334   3.456   6.902
 1273SOL    HW1 4718   0.407   3.515   6.866
 1273SOL    HW2 4719   0.359   3.426   6.994
 1274SOL     OW 4720   6.809   4.469   1.116
 1274SOL    HW1 4721   6.748   4.484   1.193
 1274SOL    HW2 4722   6.890   4.418   1.146
 1275SOL     OW 4723   3.999   1.448   4.275
 1275SOL    HW1 4724   4.048   1.368   4.239
 1275SOL    HW2 4725   3.943   1.488   4.202
 1276SOL     OW 4726   6.337   5.226   5.121
 1276SOL    HW1 4727   6.385   5.178   5.047
 1276SOL    HW2 4728   6.359   5.323   5.117
 1277SOL     OW 4729   1.562   5.705   5.941
 1277SOL    HW1 4730   1.483   5.708   6.003
 1277SOL    HW2 4731   1.569   5.792   5.893
 1278SOL     OW 4732   1.315   0.305   5.142
 1278SOL    HW1 4733   1.219   0.324   5.124
 1278SOL    HW2 4734   1.371   0.340   5.067
 1279SOL     OW 4735   1.886   4.662   0.159
 1279SOL    HW1 4736   1.951   4.712   0.101
 1279SOL    HW2 4737   1.935   4.590   0.208
 1280SOL     OW 4738   4.490   6.905   4.072
 1280SOL    HW1 4739   4.507   6.908   3.973
 1280SOL    HW2 4740   4.566   6.858   4.118
 1281SOL     OW 4741   2.812   6.148   3.039
 1281SOL    HW1 4742   2.889   6.152   3.104
 1281SOL    HW2 4743   2.762   6.063   3.054
 1282SOL     OW 4744   6.461   2.688   6.817
 1282SOL    HW1 4745   6.509   2.705   6.903
 1282SOL    HW2 4746   6.365   2.714   6.827
 1283SOL     OW 4747   6.576   3.474   5.121
 1283SOL    HW1 4748   6.584   3.498   5.024
 1283SOL    HW2 4749   6.665   3.485   5.165
 1284SOL     OW 4750   4.606   2.276   1.908
 1284SOL    HW1 4751   4.653   2.342   1.850
 1284SOL    HW2 4752   4.665   2.249   1.983
 1285SOL     OW 4753   4.434   1.737   6.283
 1285SOL    HW1 4754   4.508   1.795   6.250
 1285SOL    HW2 4755   4.347   1.783   6.270
 1286SOL     OW 4756   4.197   3.593   1.138
 1286SOL    HW1 4757   4.228   3.681   1.176
 1286SOL    HW2 4758   4.140   3.547   1.205
 1287SOL     OW 4759   5.233   4.505   5.250
 1287SOL    HW1 4760   5.327   4.518   5.220
 1287SOL    HW2 4761   5.203   4.586   5.301
 1288SOL     OW 4762   3.503   3.389   6.343
 1288SOL    HW1 4763   3.520   3.441   6.427
 1288SOL    HW2 4764   3.533   3.444   6.264
 1289SOL     OW 4765   0.355   6.856   1.169
 1289SOL    HW1 4766   0.338   6.920   1.094
 1289SOL    HW2 4767   0.396   6.772   1.132
 1290SOL     OW 4768   1.080   6.514   0.110
 1290SOL    HW1 4769   1.119   6.422   0.122
 1290SOL    HW2 4770   1.130   6.579   0.167
 1291SOL     OW 4771   0.780   4.054   3.682
 1291SOL    HW1 4772   0.712   4.124   3.659
 1291SOL    HW2 4773   0.735   3.964   3.685
 1292SOL     OW 4774   0.503   5.758   2.408
 1292SOL    HW1 4775   0.455   5.786   2.325
 1292SOL    HW2 4776   0.601   5.755   2.391
 1293SOL     OW 4777   2.234   2.504   6.848
 1293SOL    HW1 4778   2.201   2.425   6.798
 1293SOL    HW2 4779   2.319   2.538   6.807
 1294SOL     OW 4780   6.941   3.786   5.787
 1294SOL    HW1 4781   7.011   3.719   5.813
 1294SOL    HW2 4782   6.924   3.848   5.863
 1295SOL     OW 4783   6.887   3.577   1.396
 1295SOL    HW1 4784   6.816   3.565   1.466
 1295SOL    HW2 4785   6.883   3.670   1.359
 1296SOL     OW 4786   4.045   6.265   5.280
 1296SOL    HW1 4787   4.126   6.216   5.249
 1296SOL    HW2 4788   4.061   6.301   5.373
 1297SOL     OW 4789   0.504   6.986   1.469
 1297SOL    HW1 4790   0.508   6.992   1.370
 1297SOL    HW2 4791   0.527   6.893   1.498
 1298SOL     OW 4792   4.817   5.394   3.714
 1298SOL    HW1 4793   4.779   5.301   3.712
 1298SOL    HW2 4794   4.743   5.460   3.705
 1299SOL     OW 4795   2.451   2.676   3.620
 1299SOL    HW1 4796   2.374   2.678   3.556
 1299SOL    HW2 4797   2.432   2.738   3.697
 1300SOL     OW 4798   1.725   3.178   0.608
 1300SOL    HW1 4799   1.746   3.082   0.630
 1300SOL    HW2 4800   1.670   3.181   0.524
 1301SOL     OW 4801   0.390   6.164   1.559
 1301SOL    HW1 4802   0.353   6.256   1.555
 1301SOL    HW2 4803   0.455   6.151   1.485
 1302SOL     OW 4804   5.129   6.660   5.226
 1302SOL    HW1 4805   5.097   6.713   5.147
 1302SOL    HW2 4806   5.072   6.578   5.237
 1303SOL     OW 4807   3.990   1.598   1.738
 1303SOL    HW1 4808   3.968   1.549   1.822
 1303SOL    HW2 4809   3.987   1.696   1.755
 1304SOL     OW 4810   1.873   0.521   0.307
 1304SOL    HW1 4811   1.966   0.487   0.317
 1304SOL    HW2 4812   1.873   0.620   0.312
 1305SOL     OW 4813   5.435   3.662   0.400
 1305SOL    HW1 4814   5.446   3.630   0.495
 1305SOL    HW2 4815   5.525   3.682   0.361
 1306SOL     OW 4816   1.234   5.847   3.887
 1306SOL    HW1 4817   1.281   5.875   3.804
 1306SOL    HW2 4818   1.211   5.928   3.941
 1307SOL     OW 4819   2.049   4.012   3.534
 1307SOL    HW1 4820   2.013   4.068   3.459
 1307SOL    HW2 4821   2.042   3.915   3.510
 1308SOL     OW 4822   6.346   0.108   5.697
 1308SOL    HW1 4823   6.360   0.199   5.657
 1308SOL    HW2 4824   6.280   0.057   5.643
 1309SOL     OW 4825   5.774   5.222   5.112
 1309SOL    HW1 4826   5.839   5.276   5.166
 1309SOL    HW2 4827   5.696   5.197   5.170
 1310SOL     OW 4828   6.736   3.819   3.958
 1310SOL    HW1 4829   6.710   3.765   3.878
 1310SOL    HW2 4830   6.733   3.916   3.935
 1311SOL     OW 4831   6.495   5.599   5.862
 1311SOL    HW1 4832   6.591   5.581   5.841
 1311SOL    HW2 4833   6.440   5.586   5.779
 1312SOL     OW 4834   1.874   6.642   0.286
 1312SOL    HW1 4835   1.775   6.630   0.292
 1312SOL    HW2 4836   1.918   6.598   0.365
 1313SOL     OW 4837   0.135   4.645   2.579
 1313SOL    HW1 4838   0.222   4.601   2.603
 1313SOL    HW2 4839   0.115   4.716   2.646
 1314SOL     OW 4840   4.017   1.645   4.901
 1314SOL    HW1 4841   4.057   1.563   4.941
 1314SOL    HW2 4842   3.917   1.635   4.899
 1315SOL     OW 4843   0.239   1.899   2.458
 1315SOL    HW1 4844   0.239   1.898   2.358
 1315SOL    HW2 4845   0.332   1.918   2.490
 1316SOL     OW 4846   3.324   6.459   5.773
 1316SOL    HW1 4847   3.312   6.545   5.824
 1316SOL    HW2 4848   3.298   6.474   5.677
 1317SOL     OW 4849   2.203   4.135   6.054
 1317SOL    HW1 4850   2.155   4.136   6.142
 1317SOL    HW2 4851   2.174   4.212   5.998
 1318SOL     OW 4852   0.780   2.698   1.036
 1318SOL    HW1 4853   0.789   2.695   1.136
 1318SOL    HW2 4854   0.737   2.614   1.004
 1319SOL     OW 4855   6.696   6.223   1.109
 1319SOL    HW1 4856   6.792   6.224   1.080
 1319SOL    HW2 4857   6.681   6.149   1.174
 1320SOL     OW 4858   3.874   4.525   6.427
 1320SOL    HW1 4859   3.955   4.493   6.476
 1320SOL    HW2 4860   3.792   4.493   6.474
 1321SOL     OW 4861   5.078   3.011   6.491
 1321SOL    HW1 4862   5.092   3.039   6.396
 1321SOL    HW2 4863   5.164   2.975   6.528
 1322SOL     OW 4864   4.176   1.700   4.185
 1322SOL    HW1 4865   4.149   1.605   4.195
 1322SOL    HW2 4866   4.100   1.753   4.147
 1323SOL     OW 4867   4.038   6.757   6.234
 1323SOL    HW1 4868   3.944   6.789   6.236
 1323SOL    HW2 4869   4.080   6.767   6.325
 1324SOL     OW 4870   0.220   3.349   0.295
 1324SOL    HW1 4871   0.310   3.392   0.283
 1324SOL    HW2 4872   0.155   3.419   0.325
 1325SOL     OW 4873   2.544   6.198   4.604
 1325SOL    HW1 4874   2.573   6.260   4.678
 1325SOL    HW2 4875   2.573   6.105   4.627
 1326SOL     OW 4876   5.053   3.312   5.376
 1326SOL    HW1 4877   4.958   3.330   5.403
 1326SOL    HW2 4878   5.062   3.322   5.277
 1327SOL     OW 4879   1.333   6.194   1.189
 1327SOL    HW1 4880   1.314   6.103   1.154
 1327SOL    HW2 4881   1.396   6.241   1.126
 1328SOL     OW 4882   2.620   3.082   1.128
 1328SOL    HW1 4883   2.694   3.146   1.147
 1328SOL    HW2 4884   2.657   2.998   1.089
 1329SOL     OW 4885   0.951   2.277   2.007
 1329SOL    HW1 4886   0.920   2.194   1.961
 1329SOL    HW2 4887   0.898   2.355   1.975
 1330SOL     OW 4888   1.247   1.606   1.722
 1330SOL    HW1 4889   1.294   1.692   1.704
 1330SOL    HW2 4890   1.175   1.592   1.654
 1331SOL     OW 4891   4.944   3.047   2.867
 1331SOL    HW1 4892   4.963   3.046   2.769
 1331SOL    HW2 4893   4.895   3.131   2.890
 1332SOL     OW 4894   2.840   6.994   6.850
 1332SOL    HW1 4895   2.785   6.912   6.830
 1332SOL    HW2 4896   2.783   0.040   6.897
 1333SOL     OW 4897   2.897   3.505   3.611
 1333SOL    HW1 4898   2.967   3.456   3.558
 1333SOL    HW2 4899   2.894   3.469   3.704
 1334SOL     OW 4900   6.332   1.425   3.759
 1334SOL    HW1 4901   6.368   1.514   3.789
 1334SOL    HW2 4902   6.407   1.369   3.725
 1335SOL     OW 4903   2.646   2.122   1.736
 1335SOL    HW1 4904   2.602   2.071   1.662
 1335SOL    HW2 4905   2.678   2.210   1.701
 1336SOL     OW 4906   2.565   2.003   5.319
 1336SOL    HW1 4907   2.628   2.015   5.396
 1336SOL    HW2 4908   2.533   2.093   5.288
 1337SOL     OW 4909   1.213   1.241   3.271
 1337SOL    HW1 4910   1.312   1.249   3.259
 1337SOL    HW2 4911   1.193   1.218   3.367
 1338SOL     OW 4912   6.864   2.840   4.519
 1338SOL    HW1 4913   6.839   2.774   4.447
 1338SOL    HW2 4914   6.791   2.845   4.586
 1339SOL     OW 4915   6.264   1.882   0.069
 1339SOL    HW1 4916   6.319   1.847   0.145
 1339SOL    HW2 4917   6.172   1.902   0.101
 1340SOL     OW 4918   5.778   2.225   2.536
 1340SOL    HW1 4919   5.839   2.286   2.587
 1340SOL    HW2 4920   5.744   2.154   2.597
 1341SOL     OW 4921   4.019   6.491   6.613
 1341SOL    HW1 4922   4.106   6.505   6.566
 1341SOL    HW2 4923   4.035   6.474   6.710
 1342SOL     OW 4924   3.139   6.035   6.142
 1342SOL    HW1 4925   3.059   6.054   6.083
 1342SOL    HW2 4926   3.163   5.938   6.135
 1343SOL     OW 4927   5.266   5.334   2.748
 1343SOL    HW1 4928   5.220   5.357   2.662
 1343SOL    HW2 4929   5.356   5.296   2.728
 1344SOL     OW 4930   0.500   6.055   4.623
 1344SOL    HW1 4931   0.562   6.104   4.562
 1344SOL    HW2 4932   0.462   5.976   4.575
 1345SOL     OW 4933   0.773   6.122   2.734
 1345SOL    HW1 4934   0.785   6.220   2.750
 1345SOL    HW2 4935   0.747   6.078   2.820
 1346SOL     OW 4936   1.469   5.758   4.559
 1346SOL    HW1 4937   1.501   5.719   4.473
 1346SOL    HW2 4938   1.508   5.705   4.635
 1347SOL     OW 4939   0.128   6.780   5.828
 1347SOL    HW1 4940   0.147   6.873   5.796
 1347SOL    HW2 4941   0.031   6.771   5.849
 1348SOL     OW 4942   5.833   6.487   4.118
 1348SOL    HW1 4943   5.887   6.494   4.202
 1348SOL    HW2 4944   5.880   6.426   4.053
 1349SOL     OW 4945   5.180   2.989   5.612
 1349SOL    HW1 4946   5.178   2.921   5.685
 1349SOL    HW2 4947   5.087   3.015   5.588
 1350SOL     OW 4948   5.301   5.318   5.458
 1350SOL    HW1 4949   5.298   5.379   5.379
 1350SOL    HW2 4950   5.367   5.354   5.524
 1351SOL     OW 4951   6.011   1.663   2.547
 1351SOL    HW1 4952   6.013   1.670   2.647
 1351SOL    HW2 4953   5.997   1.568   2.520
 1352SOL     OW 4954   6.559   5.781   4.082
 1352SOL    HW1 4955   6.650   5.819   4.099
 1352SOL    HW2 4956   6.550   5.692   4.127
 1353SOL     OW 4957   0.595   2.826   0.110
 1353SOL    HW1 4958   0.567   2.922   0.114
 1353SOL    HW2 4959   0.647   2.803   0.193
 1354SOL     OW 4960   0.466   3.821   1.720
 1354SOL    HW1 4961   0.434   3.872   1.799
 1354SOL    HW2 4962   0.457   3.876   1.638
 1355SOL     OW 4963   5.655   2.922   4.396
 1355SOL    HW1 4964   5.616   2.859   4.462
 1355SOL    HW2 4965   5.707   2.993   4.443
 1356SOL     OW 4966   3.184   3.289   2.434
 1356SOL    HW1 4967   3.108   3.232   2.467
 1356SOL    HW2 4968   3.264   3.231   2.417
 1357SOL     OW 4969   0.484   4.372   6.651
 1357SOL    HW1 4970   0.493   4.416   6.740
 1357SOL    HW2 4971   0.536   4.287   6.651
 1358SOL     OW 4972   4.708   6.592   6.503
 1358SOL    HW1 4973   4.680   6.672   6.450
 1358SOL    HW2 4974   4.806   6.579   6.494
 1359SOL     OW 4975   5.869   4.975   2.816
 1359SOL    HW1 4976   5.913   5.052   2.863
 1359SOL    HW2 4977   5.818   5.009   2.737
 1360SOL     OW 4978   2.424   3.651   0.113
 1360SOL    HW1 4979   2.460   3.669   0.205
 1360SOL    HW2 4980   2.367   3.569   0.115
 1361SOL     OW 4981   6.123   4.279   5.052
 1361SOL    HW1 4982   6.148   4.248   5.144
 1361SOL    HW2 4983   6.078   4.204   5.003
 1362SOL     OW 4984   3.790   3.623   3.583
 1362SOL    HW1 4985   3.697   3.625   3.620
 1362SOL    HW2 4986   3.855   3.635   3.658
 1363SOL     OW 4987   6.273   5.286   3.381
 1363SOL    HW1 4988   6.216   5.213   3.345
 1363SOL    HW2 4989   6.260   5.294   3.480
 1364SOL     OW 4990   5.381   4.418   1.343
 1364SOL    HW1 4991   5.453   4.487   1.334
 1364SOL    HW2 4992   5.293   4.463   1.358
 1365SOL     OW 4993   0.294   4.072   6.474
 1365SOL    HW1 4994   0.263   4.057   6.380
 1365SOL    HW2 4995   0.221   4.046   6.537
 1366SOL     OW 4996   1.476   5.933   0.431
 1366SOL    HW1 4997   1.487   5.977   0.342
 1366SOL    HW2 4998   1.566   5.921   0.474
 1367SOL     OW 4999   2.488   0.354   3.408
 1367SOL    HW1 5000   2.543   0.340   3.490
 1367SOL    HW2 5001   2.431   0.273   3.392
 1368SOL     OW 5002   6.108   0.305   4.387
 1368SOL    HW1 5003   6.055   0.389   4.389
 1368SOL    HW2 5004   6.156   0.293   4.474
 1369SOL     OW 5005   2.345   6.156   1.851
 1369SOL    HW1 5006   2.281   6.136   1.926
 1369SOL    HW2 5007   2.381   6.070   1.815
 1370SOL     OW 5008   3.688   1.007   0.993
 1370SOL    HW1 5009   3.624   0.975   1.063
 1370SOL    HW2 5010   3.638   1.054   0.920
 1371SOL     OW 5011   5.660   1.680   4.039
 1371SOL    HW1 5012   5.605   1.744   4.094
 1371SOL    HW2 5013   5.752   1.674   4.078
 1372SOL     OW 5014   1.203   2.931   0.589
 1372SOL    HW1 5015   1.160   2.877   0.517
 1372SOL    HW2 5016   1.278   2.985   0.550
 1373SOL     OW 5017   5.679   3.763   6.942
 1373SOL    HW1 5018   5.618   3.708   6.999
 1373SOL    HW2 5019   5.646   3.762   6.847
 1374SOL     OW 5020   4.634   2.300   0.256
 1374SOL    HW1 5021   4.601   2.376   0.199
 1374SOL    HW2 5022   4.558   2.239   0.277
 1375SOL     OW 5023   6.713   4.084   6.187
 1375SOL    HW1 5024   6.806   4.063   6.218
 1375SOL    HW2 5025   6.648   4.044   6.251
 1376SOL     OW 5026   5.141   3.471   3.842
 1376SOL    HW1 5027   5.050   3.503   3.869
 1376SOL    HW2 5028   5.134   3.415   3.760
 1377SOL     OW 5029   6.754   3.797   5.221
 1377SOL    HW1 5030   6.739   3.843   5.133
 1377SOL    HW2 5031   6.749   3.698   5.208
 1378SOL     OW 5032   6.508   1.418   5.057
 1378SOL    HW1 5033   6.602   1.407   5.026
 1378SOL    HW2 5034   6.458   1.333   5.041
 1379SOL     OW 5035   3.593   6.739   1.864
 1379SOL    HW1 5036   3.633   6.827   1.890
 1379SOL    HW2 5037   3.499   6.734   1.897
 1380SOL     OW 5038   0.700   0.232   2.275
 1380SOL    HW1 5039   0.763   0.155   2.275
 1380SOL    HW2 5040   0.684   0.263   2.369
 1381SOL     OW 5041   5.277   2.859   6.584
 1381SOL    HW1 5042   5.373   2.832   6.592
 1381SOL    HW2 5043   5.219   2.793   6.632
 1382SOL     OW 5044   4.659   4.649   0.627
 1382SOL    HW1 5045   4.722   4.574   0.644
 1382SOL    HW2 5046   4.661   4.674   0.530
 1383SOL     OW 5047   0.796   0.452   0.636
 1383SOL    HW1 5048   0.755   0.541   0.619
 1383SOL    HW2 5049   0.742   0.381   0.592
 1384SOL     OW 5050   3.645   1.008   2.655
 1384SOL    HW1 5051   3.546   1.002   2.647
 1384SOL    HW2 5052   3.669   1.049   2.743
 1385SOL     OW 5053   0.822   3.058   2.615
 1385SOL    HW1 5054   0.900   3.034   2.557
 1385SOL    HW2 5055   0.841   3.144   2.662
 1386SOL     OW 5056   2.332   1.203   4.657
 1386SOL    HW1 5057   2.286   1.169   4.739
 1386SOL    HW2 5058   2.343   1.302   4.663
 1387SOL     OW 5059   3.937   6.947   3.213
 1387SOL    HW1 5060   3.844   6.941   3.177
 1387SOL    HW2 5061   3.972   6.854   3.229
 1388SOL     OW 5062   0.540   6.398   3.885
 1388SOL    HW1 5063   0.571   6.328   3.949
 1388SOL    HW2 5064   0.453   6.435   3.916
 1389SOL     OW 5065   0.305   1.016   3.938
 1389SOL    HW1 5066   0.235   1.025   3.868
 1389SOL    HW2 5067   0.372   1.089   3.929
 1390SOL     OW 5068   4.599   1.973   6.178
 1390SOL    HW1 5069   4.632   1.936   6.265
 1390SOL    HW2 5070   4.575   2.069   6.190
 1391SOL     OW 5071   6.292   0.754   5.692
 1391SOL    HW1 5072   6.331   0.662   5.704
 1391SOL    HW2 5073   6.334   0.816   5.758
 1392SOL     OW 5074   5.231   5.259   5.869
 1392SOL    HW1 5075   5.246   5.171   5.914
 1392SOL    HW2 5076   5.289   5.328   5.911
 1393SOL     OW 5077   5.946   3.158   6.777
 1393SOL    HW1 5078   6.042   3.187   6.776
 1393SOL    HW2 5079   5.889   3.232   6.742
 1394SOL     OW 5080   3.779   0.370   3.597
 1394SOL    HW1 5081   3.767   0.271   3.600
 1394SOL    HW2 5082   3.876   0.392   3.609
 1395SOL     OW 5083   1.063   3.798   2.905
 1395SOL    HW1 5084   1.050   3.699   2.902
 1395SOL    HW2 5085   1.154   3.819   2.940
 1396SOL     OW 5086   1.881   7.004   3.230
 1396SOL    HW1 5087   1.907   0.021   3.318
 1396SOL    HW2 5088   1.785   6.976   3.232
 1397SOL     OW 5089   0.593   6.475   4.902
 1397SOL    HW1 5090   0.609   6.457   4.999
 1397SOL    HW2 5091   0.613   6.571   4.882
 1398SOL     OW 5092   0.997   1.740   0.312
 1398SOL    HW1 5093   1.012   1.823   0.365
 1398SOL    HW2 5094   1.062   1.737   0.235
 1399SOL     OW 5095   4.442   0.515   0.462
 1399SOL    HW1 5096   4.442   0.592   0.397
 1399SOL    HW2 5097   4.432   0.429   0.411
 1400SOL     OW 5098   6.266   1.046   4.508
 1400SOL    HW1 5099   6.288   0.986   4.585
 1400SOL    HW2 5100   6.347   1.096   4.479
 1401SOL     OW 5101   5.931   6.771   4.575
 1401SOL    HW1 5102   5.949   6.676   4.601
 1401SOL    HW2 5103   5.850   6.804   4.623
 1402SOL     OW 5104   5.923   4.444   6.800
 1402SOL    HW1 5105   5.852   4.464   6.868
 1402SOL    HW2 5106   5.998   4.510   6.811
 1403SOL     OW 5107   2.259   3.030   0.161
 1403SOL    HW1 5108   2.191   3.007   0.092
 1403SOL    HW2 5109   2.215   3.085   0.233
 1404SOL     OW 5110   4.409   6.985   0.928
 1404SOL    HW1 5111   4.384   6.945   1.016
 1404SOL    HW2 5112   4.376   6.926   0.854
 1405SOL     OW 5113   2.231   3.511   0.719
 1405SOL    HW1 5114   2.236   3.448   0.797
 1405SOL    HW2 5115   2.296   3.482   0.649
 1406SOL     OW 5116   2.115   4.366   1.043
 1406SOL    HW1 5117   2.207   4.383   1.009
 1406SOL    HW2 5118   2.083   4.444   1.096
 1407SOL     OW 5119   1.074   3.504   2.945
 1407SOL    HW1 5120   1.008   3.429   2.953
 1407SOL    HW2 5121   1.167   3.468   2.953
 1408SOL     OW 5122   5.596   6.320   6.906
 1408SOL    HW1 5123   5.678   6.298   6.958
 1408SOL    HW2 5124   5.544   6.236   6.890
 1409SOL     OW 5125   6.953   0.410   5.746
 1409SOL    HW1 5126   6.963   0.494   5.693
 1409SOL    HW2 5127   6.958   0.431   5.844
 1410SOL     OW 5128   2.593   3.725   6.930
 1410SOL    HW1 5129   2.519   3.709   6.995
 1410SOL    HW2 5130   2.662   3.653   6.939
 1411SOL     OW 5131   3.626   6.030   6.314
 1411SOL    HW1 5132   3.655   6.048   6.408
 1411SOL    HW2 5133   3.542   5.975   6.316
 1412SOL     OW 5134   0.411   3.993   1.479
 1412SOL    HW1 5135   0.458   3.965   1.395
 1412SOL    HW2 5136   0.466   4.062   1.526
 1413SOL     OW 5137   1.631   2.098   4.521
 1413SOL    HW1 5138   1.541   2.101   4.565
 1413SOL    HW2 5139   1.652   2.003   4.496
 1414SOL     OW 5140   1.525   2.844   1.392
 1414SOL    HW1 5141   1.599   2.894   1.346
 1414SOL    HW2 5142   1.509   2.758   1.344
 1415SOL     OW 5143   2.852   2.198   4.708
 1415SOL    HW1 5144   2.837   2.218   4.805
 1415SOL    HW2 5145   2.810   2.270   4.652
 1416SOL     OW 5146   4.479   0.589   4.704
 1416SOL    HW1 5147   4.450   0.524   4.633
 1416SOL    HW2 5148   4.477   0.544   4.793
 1417SOL     OW 5149   3.692   3.010   6.050
 1417SOL    HW1 5150   3.647   2.928   6.085
 1417SOL    HW2 5151   3.623   3.071   6.011
 1418SOL     OW 5152   3.017   3.662   0.838
 1418SOL    HW1 5153   3.060   3.736   0.785
 1418SOL    HW2 5154   3.036   3.575   0.794
 1419SOL     OW 5155   1.560   5.283   4.095
 1419SOL    HW1 5156   1.582   5.362   4.039
 1419SOL    HW2 5157   1.641   5.224   4.103
 1420SOL     OW 5158   4.333   5.556   2.980
 1420SOL    HW1 5159   4.237   5.573   2.959
 1420SOL    HW2 5160   4.341   5.525   3.075
 1421SOL     OW 5161   1.244   4.224   4.159
 1421SOL    HW1 5162   1.160   4.188   4.118
 1421SOL    HW2 5163   1.318   4.223   4.092
 1422SOL     OW 5164   2.351   4.856   5.993
 1422SOL    HW1 5165   2.379   4.893   6.082
 1422SOL    HW2 5166   2.321   4.931   5.934
 1423SOL     OW 5167   4.132   1.885   4.904
 1423SOL    HW1 5168   4.047   1.832   4.904
 1423SOL    HW2 5169   4.166   1.892   4.810
 1424SOL     OW 5170   5.940   3.649   6.635
 1424SOL    HW1 5171   5.976   3.733   6.596
 1424SOL    HW2 5172   6.014   3.584   6.651
 1425SOL     OW 5173   2.645   6.037   4.842
 1425SOL    HW1 5174   2.573   5.970   4.860
 1425SOL    HW2 5175   2.728   5.990   4.810
 1426SOL     OW 5176   2.056   2.204   6.211
 1426SOL    HW1 5177   2.048   2.223   6.113
 1426SOL    HW2 5178   1.996   2.128   6.236
 1427SOL     OW 5179   0.667   0.613   3.704
 1427SOL    HW1 5180   0.737   0.657   3.648
 1427SOL    HW2 5181   0.576   0.639   3.671
 1428SOL     OW 5182   0.288   2.053   1.073
 1428SOL    HW1 5183   0.202   2.003   1.060
 1428SOL    HW2 5184   0.272   2.131   1.134
 1429SOL     OW 5185   5.558   1.527   6.825
 1429SOL    HW1 5186   5.641   1.513   6.772
 1429SOL    HW2 5187   5.536   1.444   6.877
 1430SOL     OW 5188   2.079   3.964   4.712
 1430SOL    HW1 5189   2.079   3.891   4.780
 1430SOL    HW2 5190   2.094   3.925   4.621
 1431SOL     OW 5191   2.927   2.770   6.006
 1431SOL    HW1 5192   2.906   2.683   6.052
 1431SOL    HW2 5193   2.947   2.840   6.074
 1432SOL     OW 5194   2.163   1.272   0.802
 1432SOL    HW1 5195   2.066   1.248   0.801
 1432SOL    HW2 5196   2.200   1.263   0.709
 1433SOL     OW 5197   3.346   0.146   3.557
 1433SOL    HW1 5198   3.288   0.218   3.519
 1433SOL    HW2 5199   3.306   0.112   3.642
 1434SOL     OW 5200   6.394   1.629   6.435
 1434SOL    HW1 5201   6.456   1.551   6.449
 1434SOL    HW2 5202   6.372   1.637   6.338
 1435SOL     OW 5203   0.121   0.624   3.894
 1435SOL    HW1 5204   0.058   0.598   3.967
 1435SOL    HW2 5205   0.215   0.620   3.928
 1436SOL     OW 5206   5.789   3.535   0.488
 1436SOL    HW1 5207   5.823   3.443   0.506
 1436SOL    HW2 5208   5.857   3.586   0.435
 1437SOL     OW 5209   3.487   1.107   5.233
 1437SOL    HW1 5210   3.531   1.040   5.174
 1437SOL    HW2 5211   3.477   1.194   5.183
 1438SOL     OW 5212   2.974   1.218   1.596
 1438SOL    HW1 5213   2.980   1.305   1.547
 1438SOL    HW2 5214   2.997   1.232   1.692
 1439SOL     OW 5215   0.753   5.405   0.612
 1439SOL    HW1 5216   0.815   5.337   0.575
 1439SOL    HW2 5217   0.713   5.458   0.538
 1440SOL     OW 5218   3.597   3.207   4.618
 1440SOL    HW1 5219   3.692   3.235   4.622
 1440SOL    HW2 5220   3.592   3.107   4.619
 1441SOL     OW 5221   6.422   3.400   3.394
 1441SOL    HW1 5222   6.398   3.474   3.457
 1441SOL    HW2 5223   6.492   3.432   3.330
 1442SOL     OW 5224   5.953   4.922   0.266
 1442SOL    HW1 5225   5.870   4.879   0.301
 1442SOL    HW2 5226   5.996   4.975   0.339
 1443SOL     OW 5227   0.693   1.013   3.975
 1443SOL    HW1 5228   0.756   0.972   4.040
 1443SOL    HW2 5229   0.737   1.092   3.931
 1444SOL     OW 5230   4.404   5.741   2.566
 1444SOL    HW1 5231   4.361   5.804   2.501
 1444SOL    HW2 5232   4.389   5.646   2.535
 1445SOL     OW 5233   0.673   2.820   1.926
 1445SOL    HW1 5234   0.731   2.901   1.938
 1445SOL    HW2 5235   0.593   2.844   1.872
 1446SOL     OW 5236   5.258   2.893   0.029
 1446SOL    HW1 5237   5.199   2.919   6.974
 1446SOL    HW2 5238   5.209   2.832   0.090
 1447SOL     OW 5239   6.631   0.188   5.033
 1447SOL    HW1 5240   6.634   0.288   5.038
 1447SOL    HW2 5241   6.599   0.152   5.121
 1448SOL     OW 5242   5.873   1.570   0.634
 1448SOL    HW1 5243   5.796   1.584   0.572
 1448SOL    HW2 5244   5.850   1.499   0.700
 1449SOL     OW 5245   6.062   6.481   0.136
 1449SOL    HW1 5246   6.138   6.534   0.100
 1449SOL    HW2 5247   6.096   6.396   0.177
 1450SOL     OW 5248   0.193   1.930   2.172
 1450SOL    HW1 5249   0.196   1.877   2.087
 1450SOL    HW2 5250   0.202   2.027   2.150
 1451SOL     OW 5251   3.029   0.682   2.841
 1451SOL    HW1 5252   3.047   0.741   2.920
 1451SOL    HW2 5253   2.967   0.728   2.778
 1452SOL     OW 5254   5.059   1.684   4.675
 1452SOL    HW1 5255   5.138   1.738   4.706
 1452SOL    HW2 5256   5.050   1.692   4.576
 1453SOL     OW 5257   5.877   3.658   4.913
 1453SOL    HW1 5258   5.883   3.698   4.821
 1453SOL    HW2 5259   5.836   3.725   4.975
 1454SOL     OW 5260   6.261   3.314   2.301
 1454SOL    HW1 5261   6.186   3.350   2.356
 1454SOL    HW2 5262   6.346   3.316   2.354
 1455SOL     OW 5263   1.152   0.518   1.913
 1455SOL    HW1 5264   1.169   0.494   2.009
 1455SOL    HW2 5265   1.225   0.578   1.881
 1456SOL     OW 5266   6.726   6.504   5.184
 1456SOL    HW1 5267   6.790   6.555   5.126
 1456SOL    HW2 5268   6.723   6.409   5.154
 1457SOL     OW 5269   1.788   0.674   1.832
 1457SOL    HW1 5270   1.715   0.676   1.764
 1457SOL    HW2 5271   1.874   0.705   1.790
 1458SOL     OW 5272   5.427   6.627   4.576
 1458SOL    HW1 5273   5.505   6.687   4.557
 1458SOL    HW2 5274   5.460   6.536   4.602
 1459SOL     OW 5275   2.858   4.206   6.625
 1459SOL    HW1 5276   2.839   4.296   6.587
 1459SOL    HW2 5277   2.773   4.164   6.657
 1460SOL     OW 5278   6.749   5.622   5.735
 1460SOL    HW1 5279   6.736   5.527   5.765
 1460SOL    HW2 5280   6.836   5.629   5.686
 1461SOL     OW 5281   6.772   4.661   3.478
 1461SOL    HW1 5282   6.822   4.686   3.395
 1461SOL    HW2 5283   6.837   4.650   3.554
 1462SOL     OW 5284   6.141   1.666   6.656
 1462SOL    HW1 5285   6.238   1.687   6.662
 1462SOL    HW2 5286   6.121   1.626   6.566
 1463SOL     OW 5287   0.206   6.356   6.119
 1463SOL    HW1 5288   0.110   6.339   6.139
 1463SOL    HW2 5289   0.217   6.449   6.084
 1464SOL     OW 5290   6.988   0.441   1.096
 1464SOL    HW1 5291   0.044   0.424   1.035
 1464SOL    HW2 5292   0.001   0.470   1.186
 1465SOL     OW 5293   1.464   1.266   3.190
 1465SOL    HW1 5294   1.501   1.299   3.104
 1465SOL    HW2 5295   1.533   1.274   3.262
 1466SOL     OW 5296   0.630   0.073   3.313
 1466SOL    HW1 5297   0.606   0.002   3.247
 1466SOL    HW2 5298   0.565   0.071   3.389
 1467SOL     OW 5299   2.166   0.101   1.968
 1467SOL    HW1 5300   2.232   0.058   1.906
 1467SOL    HW2 5301   2.074   0.071   1.943
 1468SOL     OW 5302   5.553   5.882   3.047
 1468SOL    HW1 5303   5.615   5.803   3.050
 1468SOL    HW2 5304   5.608   5.966   3.047
 1469SOL     OW 5305   0.428   0.973   3.412
 1469SOL    HW1 5306   0.357   1.033   3.448
 1469SOL    HW2 5307   0.438   0.989   3.313
 1470SOL     OW 5308   0.968   0.998   2.476
 1470SOL    HW1 5309   1.000   0.916   2.429
 1470SOL    HW2 5310   1.020   1.011   2.561
 1471SOL     OW 5311   0.882   0.787   0.009
 1471SOL    HW1 5312   0.933   0.701   0.012
 1471SOL    HW2 5313   0.891   0.827   6.939
 1472SOL     OW 5314   4.140   5.481   4.790
 1472SOL    HW1 5315   4.199   5.421   4.738
 1472SOL    HW2 5316   4.184   5.505   4.876
 1473SOL     OW 5317   5.953   6.126   3.879
 1473SOL    HW1 5318   5.932   6.223   3.867
 1473SOL    HW2 5319   6.036   6.103   3.828
 1474SOL     OW 5320   6.752   5.923   3.641
 1474SOL    HW1 5321   6.678   5.898   3.703
 1474SOL    HW2 5322   6.719   5.992   3.577
 1475SOL     OW 5323   0.375   0.160   1.571
 1475SOL    HW1 5324   0.351   0.215   1.491
 1475SOL    HW2 5325   0.424   0.078   1.542
 1476SOL     OW 5326   1.427   1.169   1.304
 1476SOL    HW1 5327   1.477   1.244   1.346
 1476SOL    HW2 5328   1.426   1.180   1.205
 1477SOL     OW 5329   2.529   0.384   6.357
 1477SOL    HW1 5330   2.525   0.356   6.453
 1477SOL    HW2 5331   2.527   0.303   6.298
 1478SOL     OW 5332   5.290   4.259   0.479
 1478SOL    HW1 5333   5.322   4.299   0.393
 1478SOL    HW2 5334   5.193   4.280   0.491
 1479SOL     OW 5335   1.391   4.134   0.128
 1479SOL    HW1 5336   1.358   4.210   0.184
 1479SOL    HW2 5337   1.427   4.062   0.187
 1480SOL     OW 5338   2.922   0.625   6.960
 1480SOL    HW1 5339   2.993   0.617   0.008
 1480SOL    HW2 5340   2.833   0.632   7.005
 1481SOL     OW 5341   6.218   1.843   4.430
 1481SOL    HW1 5342   6.263   1.769   4.380
 1481SOL    HW2 5343   6.282   1.883   4.495
 1482SOL     OW 5344   5.425   1.535   1.042
 1482SOL    HW1 5345   5.426   1.620   1.095
 1482SOL    HW2 5346   5.495   1.540   0.971
 1483SOL     OW 5347   0.284   2.894   6.408
 1483SOL    HW1 5348   0.346   2.822   6.440
 1483SOL    HW2 5349   0.216   2.913   6.479
 1484SOL     OW 5350   6.129   4.132   3.884
 1484SOL    HW1 5351   6.174   4.063   3.940
 1484SOL    HW2 5352   6.192   4.207   3.864
 1485SOL     OW 5353   4.419   2.272   2.864
 1485SOL    HW1 5354   4.360   2.213   2.918
 1485SOL    HW2 5355   4.487   2.315   2.924
 1486SOL     OW 5356   4.628   2.646   3.306
 1486SOL    HW1 5357   4.632   2.742   3.278
 1486SOL    HW2 5358   4.560   2.636   3.379
 1487SOL     OW 5359   5.781   1.810   6.590
 1487SOL    HW1 5360   5.727   1.894   6.588
 1487SOL    HW2 5361   5.857   1.820   6.654
 1488SOL     OW 5362   6.098   2.075   2.624
 1488SOL    HW1 5363   6.091   2.053   2.527
 1488SOL    HW2 5364   6.033   2.147   2.647
 1489SOL     OW 5365   3.960   4.890   4.627
 1489SOL    HW1 5366   3.967   4.986   4.598
 1489SOL    HW2 5367   3.875   4.878   4.678
 1490SOL     OW 5368   1.312   2.753   1.122
 1490SOL    HW1 5369   1.294   2.754   1.024
 1490SOL    HW2 5370   1.228   2.772   1.172
 1491SOL     OW 5371   6.916   3.519   3.178
 1491SOL    HW1 5372   6.873   3.599   3.136
 1491SOL    HW2 5373   6.919   3.445   3.111
 1492SOL     OW 5374   6.017   1.760   1.498
 1492SOL    HW1 5375   5.955   1.727   1.426
 1492SOL    HW2 5376   6.101   1.794   1.456
 1493SOL     OW 5377   5.068   0.793   4.724
 1493SOL    HW1 5378   5.144   0.734   4.755
 1493SOL    HW2 5379   5.105   0.876   4.683
 1494SOL     OW 5380   4.209   2.528   6.076
 1494SOL    HW1 5381   4.222   2.620   6.039
 1494SOL    HW2 5382   4.274   2.466   6.032
 1495SOL     OW 5383   1.198   3.076   3.534
 1495SOL    HW1 5384   1.175   2.990   3.488
 1495SOL    HW2 5385   1.115   3.118   3.569
 1496SOL     OW 5386   0.789   1.019   2.036
 1496SOL    HW1 5387   0.795   1.081   1.958
 1496SOL    HW2 5388   0.708   1.042   2.091
 1497SOL     OW 5389   0.194   4.160   2.988
 1497SOL    HW1 5390   0.247   4.212   3.055
 1497SOL    HW2 5391   0.208   4.199   2.897
 1498SOL     OW 5392   1.635   4.952   6.464
 1498SOL    HW1 5393   1.574   4.877   6.488
 1498SOL    HW2 5394   1.595   5.039   6.493
 1499SOL     OW 5395   1.305   3.704   5.296
 1499SOL    HW1 5396   1.309   3.707   5.396
 1499SOL    HW2 5397   1.353   3.623   5.263
 1500SOL     OW 5398   5.853   6.632   0.217
 1500SOL    HW1 5399   5.795   6.559   0.251
 1500SOL    HW2 5400   5.939   6.594   0.183
 1501SOL     OW 5401   4.113   0.954   6.393
 1501SOL    HW1 5402   4.049   0.904   6.451
 1501SOL    HW2 5403   4.171   1.012   6.451
 1502SOL     OW 5404   6.005   6.506   1.006
 1502SOL    HW1 5405   6.062   6.561   0.946
 1502SOL    HW2 5406   6.049   6.499   1.096
 1503SOL     OW 5407   2.730   2.496   1.372
 1503SOL    HW1 5408   2.816   2.547   1.359
 1503SOL    HW2 5409   2.655   2.548   1.332
 1504SOL     OW 5410   2.311   0.163   4.873
 1504SOL    HW1 5411   2.352   0.249   4.842
 1504SOL    HW2 5412   2.384   0.101   4.902
 1505SOL     OW 5413   5.482   0.427   6.572
 1505SOL    HW1 5414   5.429   0.495   6.523
 1505SOL    HW2 5415   5.475   0.444   6.671
 1506SOL     OW 5416   1.530   5.213   2.734
 1506SOL    HW1 5417   1.575   5.255   2.813
 1506SOL    HW2 5418   1.457   5.274   2.701
 1507SOL     OW 5419   1.669   1.942   5.003
 1507SOL    HW1 5420   1.655   1.843   5.007
 1507SOL    HW2 5421   1.763   1.961   4.974
 1508SOL     OW 5422   5.148   6.916   0.726
 1508SOL    HW1 5423   5.166   6.836   0.783
 1508SOL    HW2 5424   5.091   6.889   0.648
 1509SOL     OW 5425   4.008   2.796   6.100
 1509SOL    HW1 5426   3.932   2.732   6.113
 1509SOL    HW2 5427   3.989   2.853   6.019
 1510SOL     OW 5428   5.936   1.805   3.901
 1510SOL    HW1 5429   5.961   1.732   3.838
 1510SOL    HW2 5430   5.923   1.768   3.993
 1511SOL     OW 5431   2.458   2.505   0.200
 1511SOL    HW1 5432   2.363   2.500   0.170
 1511SOL    HW2 5433   2.476   2.595   0.239
 1512SOL     OW 5434   6.705   6.503   1.793
 1512SOL    HW1 5435   6.686   6.495   1.891
 1512SOL    HW2 5436   6.619   6.516   1.743
 1513SOL     OW 5437   4.686   0.512   3.626
 1513SOL    HW1 5438   4.618   0.511   3.698
 1513SOL    HW2 5439   4.777   0.527   3.665
 1514SOL     OW 5440   5.263   2.128   4.588
 1514SOL    HW1 5441   5.345   2.172   4.624
 1514SOL    HW2 5442   5.209   2.196   4.538
 1515SOL     OW 5443   6.730   3.214   6.382
 1515SOL    HW1 5444   6.795   3.145   6.350
 1515SOL    HW2 5445   6.777   3.279   6.442
 1516SOL     OW 5446   0.816   0.324   0.948
 1516SOL    HW1 5447   0.879   0.303   0.873
 1516SOL    HW2 5448   0.725   0.342   0.910
 1517SOL     OW 5449   4.743   5.986   3.553
 1517SOL    HW1 5450   4.668   6.004   3.489
 1517SOL    HW2 5451   4.829   5.979   3.504
 1518SOL     OW 5452   6.858   2.937   0.052
 1518SOL    HW1 5453   6.919   3.016   0.049
 1518SOL    HW2 5454   6.900   2.864   0.107
 1519SOL     OW 5455   0.016   4.678   2.048
 1519SOL    HW1 5456   0.037   4.700   2.143
 1519SOL    HW2 5457   0.069   4.737   1.987
 1520SOL     OW 5458   1.641   3.100   2.391
 1520SOL    HW1 5459   1.673   3.072   2.301
 1520SOL    HW2 5460   1.630   3.020   2.450
 1521SOL     OW 5461   2.046   3.411   6.592
 1521SOL    HW1 5462   2.019   3.505   6.613
 1521SOL    HW2 5463   2.113   3.411   6.519
 1522SOL     OW 5464   6.896   1.600   5.507
 1522SOL    HW1 5465   6.989   1.629   5.485
 1522SOL    HW2 5466   6.840   1.681   5.528
 1523SOL     OW 5467   5.210   3.700   6.894
 1523SOL    HW1 5468   5.165   3.664   6.812
 1523SOL    HW2 5469   5.155   3.680   6.974
 1524SOL     OW 5470   0.865   1.844   1.768
 1524SOL    HW1 5471   0.949   1.847   1.713
 1524SOL    HW2 5472   0.786   1.857   1.708
 1525SOL     OW 5473   5.126   2.800   6.004
 1525SOL    HW1 5474   5.053   2.838   6.060
 1525SOL    HW2 5475   5.207   2.858   6.010
 1526SOL     OW 5476   1.158   1.158   0.823
 1526SOL    HW1 5477   1.121   1.076   0.866
 1526SOL    HW2 5478   1.124   1.164   0.729
 1527SOL     OW 5479   3.850   1.104   4.732
 1527SOL    HW1 5480   3.757   1.139   4.729
 1527SOL    HW2 5481   3.911   1.173   4.770
 1528SOL     OW 5482   5.138   6.075   2.840
 1528SOL    HW1 5483   5.139   6.112   2.933
 1528SOL    HW2 5484   5.057   6.019   2.827
 1529SOL     OW 5485   3.968   1.338   6.633
 1529SOL    HW1 5486   4.018   1.280   6.697
 1529SOL    HW2 5487   3.899   1.284   6.585
 1530SOL     OW 5488   3.401   0.473   1.271
 1530SOL    HW1 5489   3.462   0.397   1.248
 1530SOL    HW2 5490   3.455   0.552   1.300
 1531SOL     OW 5491   6.027   1.507   4.996
 1531SOL    HW1 5492   6.117   1.549   5.001
 1531SOL    HW2 5493   6.024   1.441   4.921
 1532SOL     OW 5494   2.558   2.305   4.836
 1532SOL    HW1 5495   2.541   2.403   4.843
 1532SOL    HW2 5496   2.632   2.279   4.898
 1533SOL     OW 5497   6.882   3.697   6.402
 1533SOL    HW1 5498   6.846   3.643   6.326
 1533SOL    HW2 5499   6.905   3.636   6.478
 1534SOL     OW 5500   1.522   5.180   0.062
 1534SOL    HW1 5501   1.443   5.124   0.037
 1534SOL    HW2 5502   1.525   5.263   0.006
 1535SOL     OW 5503   5.659   6.100   4.442
 1535SOL    HW1 5504   5.636   6.128   4.535
 1535SOL    HW2 5505   5.629   6.171   4.378
 1536SOL     OW 5506   3.720   5.086   5.043
 1536SOL    HW1 5507   3.716   5.109   4.945
 1536SOL    HW2 5508   3.641   5.030   5.067
 1537SOL     OW 5509   3.820   5.877   3.145
 1537SOL    HW1 5510   3.896   5.821   3.180
 1537SOL    HW2 5511   3.840   5.905   3.051
 1538SOL     OW 5512   3.322   5.547   5.336
 1538SOL    HW1 5513   3.312   5.457   5.294
 1538SOL    HW2 5514   3.235   5.595   5.334
 1539SOL     OW 5515   3.933   4.161   1.400
 1539SOL    HW1 5516   3.925   4.256   1.429
 1539SOL    HW2 5517   3.844   4.129   1.367
 1540SOL     OW 5518   0.728   6.912   5.326
 1540SOL    HW1 5519   0.697   6.842   5.389
 1540SOL    HW2 5520   0.672   6.994   5.337
 1541SOL     OW 5521   3.791   2.340   1.291
 1541SOL    HW1 5522   3.708   2.359   1.343
 1541SOL    HW2 5523   3.867   2.327   1.355
 1542SOL     OW 5524   6.138   5.858   1.743
 1542SOL    HW1 5525   6.161   5.954   1.729
 1542SOL    HW2 5526   6.159   5.832   1.837
 1543SOL     OW 5527   2.979   3.282   4.058
 1543SOL    HW1 5528   2.986   3.355   4.125
 1543SOL    HW2 5529   3.034   3.204   4.087
 1544SOL     OW 5530   3.116   4.050   2.461
 1544SOL    HW1 5531   3.072   4.111   2.527
 1544SOL    HW2 5532   3.214   4.068   2.459
 1545SOL     OW 5533   5.773   1.154   5.562
 1545SOL    HW1 5534   5.844   1.222   5.582
 1545SOL    HW2 5535   5.731   1.175   5.474
 1546SOL     OW 5536   4.658   0.243   6.252
 1546SOL    HW1 5537   4.757   0.256   6.258
 1546SOL    HW2 5538   4.613   0.294   6.326
 1547SOL     OW 5539   2.066   3.791   2.504
 1547SOL    HW1 5540   2.057   3.838   2.592
 1547SOL    HW2 5541   1.997   3.719   2.497
 1548SOL     OW 5542   4.479   3.822   5.598
 1548SOL    HW1 5543   4.457   3.898   5.537
 1548SOL    HW2 5544   4.501   3.741   5.543
 1549SOL     OW 5545   6.054   0.891   2.179
 1549SOL    HW1 5546   6.149   0.921   2.187
 1549SOL    HW2 5547   6.035   0.865   2.084
 1550SOL     OW 5548   2.936   6.528   5.664
 1550SOL    HW1 5549   2.961   6.611   5.715
 1550SOL    HW2 5550   2.939   6.547   5.566
 1551SOL     OW 5551   1.659   3.453   1.034
 1551SOL    HW1 5552   1.710   3.434   1.118
 1551SOL    HW2 5553   1.722   3.461   0.957
 1552SOL     OW 5554   1.095   0.024   1.388
 1552SOL    HW1 5555   1.122   0.072   1.305
 1552SOL    HW2 5556   1.017   6.986   1.369
 1553SOL     OW 5557   6.525   2.251   6.880
 1553SOL    HW1 5558   6.454   2.181   6.874
 1553SOL    HW2 5559   6.509   2.321   6.810
 1554SOL     OW 5560   3.574   2.096   2.797
 1554SOL    HW1 5561   3.671   2.080   2.776
 1554SOL    HW2 5562   3.528   2.134   2.717
 1555SOL     OW 5563   4.674   2.983   5.697
 1555SOL    HW1 5564   4.699   2.899   5.649
 1555SOL    HW2 5565   4.583   3.014   5.667
 1556SOL     OW 5566   4.201   0.965   0.534
 1556SOL    HW1 5567   4.201   1.064   0.548
 1556SOL    HW2 5568   4.259   0.942   0.456
 1557SOL     OW 5569   2.867   2.049   0.517
 1557SOL    HW1 5570   2.812   2.051   0.600
 1557SOL    HW2 5571   2.906   2.139   0.501
 1558SOL     OW 5572   5.902   2.094   4.416
 1558SOL    HW1 5573   5.906   2.192   4.402
 1558SOL    HW2 5574   5.946   2.047   4.339
 1559SOL     OW 5575   0.519   2.788   1.211
 1559SOL    HW1 5576   0.590   2.800   1.280
 1559SOL    HW2 5577   0.433   2.826   1.244
 1560SOL     OW 5578   3.153   1.352   6.733
 1560SOL    HW1 5579   3.087   1.299   6.786
 1560SOL    HW2 5580   3.167   1.441   6.777
 1561SOL     OW 5581   4.770   5.147   3.527
 1561SOL    HW1 5582   4.702   5.076   3.511
 1561SOL    HW2 5583   4.841   5.142   3.457
 1562SOL     OW 5584   3.634   6.278   2.341
 1562SOL    HW1 5585   3.620   6.185   2.375
 1562SOL    HW2 5586   3.545   6.319   2.319
 1563SOL     OW 5587   2.332   2.253   5.814
 1563SOL    HW1 5588   2.388   2.335   5.822
 1563SOL    HW2 5589   2.392   2.172   5.811
 1564SOL     OW 5590   1.611   1.925   2.392
 1564SOL    HW1 5591   1.696   1.970   2.421
 1564SOL    HW2 5592   1.533   1.968   2.437
 1565SOL     OW 5593   4.399   5.320   4.715
 1565SOL    HW1 5594   4.376   5.225   4.698
 1565SOL    HW2 5595   4.426   5.364   4.629
 1566SOL     OW 5596   6.213   5.286   4.239
 1566SOL    HW1 5597   6.270   5.235   4.175
 1566SOL    HW2 5598   6.211   5.382   4.213
 1567SOL     OW 5599   6.244   5.226   6.714
 1567SOL    HW1 5600   6.278   5.183   6.798
 1567SOL    HW2 5601   6.182   5.301   6.737
 1568SOL     OW 5602   2.562   6.226   2.854
 1568SOL    HW1 5603   2.484   6.256   2.909
 1568SOL    HW2 5604   2.629   6.180   2.913
 1569SOL     OW 5605   3.543   6.781   3.339
 1569SOL    HW1 5606   3.579   6.860   3.290
 1569SOL    HW2 5607   3.496   6.812   3.422
 1570SOL     OW 5608   2.253   6.559   6.652
 1570SOL    HW1 5609   2.293   6.565   6.560
 1570SOL    HW2 5610   2.207   6.644   6.674
 1571SOL     OW 5611   1.059   2.665   2.799
 1571SOL    HW1 5612   1.137   2.722   2.773
 1571SOL    HW2 5613   0.974   2.714   2.779
 1572SOL     OW 5614   1.975   5.197   2.600
 1572SOL    HW1 5615   1.892   5.164   2.555
 1572SOL    HW2 5616   1.957   5.210   2.697
 1573SOL     OW 5617   5.393   5.143   2.453
 1573SOL    HW1 5618   5.458   5.213   2.483
 1573SOL    HW2 5619   5.429   5.052   2.472
 1574SOL     OW 5620   6.557   3.126   2.375
 1574SOL    HW1 5621   6.489   3.114   2.302
 1574SOL    HW2 5622   6.640   3.075   2.351
 1575SOL     OW 5623   2.383   0.394   1.210
 1575SOL    HW1 5624   2.442   0.420   1.135
 1575SOL    HW2 5625   2.404   0.449   1.291
 1576SOL     OW 5626   0.998   6.397   3.223
 1576SOL    HW1 5627   1.000   6.429   3.128
 1576SOL    HW2 5628   1.003   6.475   3.285
 1577SOL     OW 5629   2.161   0.521   6.241
 1577SOL    HW1 5630   2.214   0.604   6.253
 1577SOL    HW2 5631   2.094   0.535   6.168
 1578SOL     OW 5632   4.855   1.284   6.280
 1578SOL    HW1 5633   4.762   1.309   6.254
 1578SOL    HW2 5634   4.853   1.200   6.334
 1579SOL     OW 5635   6.792   2.264   0.944
 1579SOL    HW1 5636   6.820   2.302   1.033
 1579SOL    HW2 5637   6.866   2.275   0.878
 1580SOL     OW 5638   3.354   4.147   3.198
 1580SOL    HW1 5639   3.302   4.134   3.283
 1580SOL    HW2 5640   3.450   4.163   3.220
 1581SOL     OW 5641   6.902   3.961   5.387
 1581SOL    HW1 5642   6.862   3.894   5.324
 1581SOL    HW2 5643   7.001   3.947   5.392
 1582SOL     OW 5644   3.122   6.262   4.590
 1582SOL    HW1 5645   3.024   6.257   4.573
 1582SOL    HW2 5646   3.171   6.260   4.503
 1583SOL     OW 5647   0.934   5.814   4.236
 1583SOL    HW1 5648   1.006   5.791   4.302
 1583SOL    HW2 5649   0.924   5.739   4.171
 1584SOL     OW 5650   1.453   4.758   6.552
 1584SOL    HW1 5651   1.431   4.786   6.646
 1584SOL    HW2 5652   1.527   4.690   6.554
 1585SOL     OW 5653   4.251   1.441   2.905
 1585SOL    HW1 5654   4.264   1.467   2.810
 1585SOL    HW2 5655   4.329   1.471   2.959
 1586SOL     OW 5656   3.176   4.845   3.147
 1586SOL    HW1 5657   3.167   4.843   3.048
 1586SOL    HW2 5658   3.264   4.886   3.172
 1587SOL     OW 5659   1.980   4.961   5.112
 1587SOL    HW1 5660   2.019   4.878   5.072
 1587SOL    HW2 5661   1.943   5.019   5.039
 1588SOL     OW 5662   4.821   1.096   2.606
 1588SOL    HW1 5663   4.775   1.037   2.672
 1588SOL    HW2 5664   4.906   1.131   2.646
 1589SOL     OW 5665   0.223   3.285   2.627
 1589SOL    HW1 5666   0.183   3.198   2.656
 1589SOL    HW2 5667   0.279   3.322   2.701
 1590SOL     OW 5668   4.946   0.550   3.718
 1590SOL    HW1 5669   4.920   0.600   3.801
 1590SOL    HW2 5670   4.978   0.458   3.744
 1591SOL     OW 5671   6.986   6.207   1.140
 1591SOL    HW1 5672   0.026   6.132   1.165
 1591SOL    HW2 5673   0.018   6.290   1.125
 1592SOL     OW 5674   2.025   3.564   0.054
 1592SOL    HW1 5675   1.959   3.534   0.123
 1592SOL    HW2 5676   2.040   3.490   7.010
 1593SOL     OW 5677   0.816   0.024   5.641
 1593SOL    HW1 5678   0.777   6.986   5.570
 1593SOL    HW2 5679   0.892   6.997   5.686
 1594SOL     OW 5680   0.072   6.088   2.281
 1594SOL    HW1 5681   0.081   6.178   2.324
 1594SOL    HW2 5682   0.106   6.093   2.187
 1595SOL     OW 5683   0.924   4.512   0.353
 1595SOL    HW1 5684   0.902   4.513   0.450
 1595SOL    HW2 5685   0.866   4.445   0.306
 1596SOL     OW 5686   6.783   3.308   2.604
 1596SOL    HW1 5687   6.754   3.213   2.590
 1596SOL    HW2 5688   6.862   3.310   2.664
 1597SOL     OW 5689   1.838   6.222   1.055
 1597SOL    HW1 5690   1.885   6.176   0.980
 1597SOL    HW2 5691   1.793   6.155   1.114
 1598SOL     OW 5692   1.383   4.939   6.243
 1598SOL    HW1 5693   1.373   4.864   6.310
 1598SOL    HW2 5694   1.367   5.026   6.289
 1599SOL     OW 5695   5.118   4.898   5.214
 1599SOL    HW1 5696   5.122   4.994   5.244
 1599SOL    HW2 5697   5.170   4.841   5.277
 1600SOL     OW 5698   3.134   1.367   2.356
 1600SOL    HW1 5699   3.212   1.386   2.415
 1600SOL    HW2 5700   3.051   1.404   2.397
 1601SOL     OW 5701   0.758   6.853   4.601
 1601SOL    HW1 5702   0.734   6.878   4.507
 1601SOL    HW2 5703   0.810   6.928   4.643
 1602SOL     OW 5704   4.290   5.210   4.392
 1602SOL    HW1 5705   4.367   5.271   4.411
 1602SOL    HW2 5706   4.287   5.189   4.294
 1603SOL     OW 5707   2.835   5.220   3.340
 1603SOL    HW1 5708   2.917   5.172   3.370
 1603SOL    HW2 5709   2.824   5.208   3.241
 1604SOL     OW 5710   3.757   4.898   1.448
 1604SOL    HW1 5711   3.716   4.895   1.539
 1604SOL    HW2 5712   3.696   4.855   1.382
 1605SOL     OW 5713   6.757   5.424   1.844
 1605SOL    HW1 5714   6.852   5.425   1.811
 1605SOL    HW2 5715   6.707   5.349   1.801
 1606SOL     OW 5716   3.877   5.607   5.407
 1606SOL    HW1 5717   3.823   5.660   5.342
 1606SOL    HW2 5718   3.816   5.550   5.463
 1607SOL     OW 5719   4.253   0.572   0.688
 1607SOL    HW1 5720   4.166   0.590   0.644
 1607SOL    HW2 5721   4.323   0.557   0.618
 1608SOL     OW 5722   6.670   0.623   2.787
 1608SOL    HW1 5723   6.695   0.694   2.722
 1608SOL    HW2 5724   6.752   0.573   2.815
 1609SOL     OW 5725   3.526   6.664   0.766
 1609SOL    HW1 5726   3.539   6.762   0.778
 1609SOL    HW2 5727   3.430   6.640   0.778
 1610SOL     OW 5728   4.781   5.890   0.655
 1610SOL    HW1 5729   4.710   5.838   0.610
 1610SOL    HW2 5730   4.837   5.830   0.712
 1611SOL     OW 5731   1.980   3.620   0.902
 1611SOL    HW1 5732   2.067   3.642   0.857
 1611SOL    HW2 5733   1.904   3.647   0.843
 1612SOL     OW 5734   3.664   7.002   1.418
 1612SOL    HW1 5735   3.601   0.054   1.393
 1612SOL    HW2 5736   3.758   0.010   1.400
 1613SOL     OW 5737   1.002   5.780   1.600
 1613SOL    HW1 5738   1.010   5.876   1.626
 1613SOL    HW2 5739   1.065   5.761   1.524
 1614SOL     OW 5740   5.796   1.591   6.427
 1614SOL    HW1 5741   5.768   1.673   6.477
 1614SOL    HW2 5742   5.896   1.588   6.421
 1615SOL     OW 5743   6.723   5.879   6.840
 1615SOL    HW1 5744   6.659   5.811   6.876
 1615SOL    HW2 5745   6.675   5.941   6.779
 1616SOL     OW 5746   4.187   0.295   3.555
 1616SOL    HW1 5747   4.153   0.381   3.591
 1616SOL    HW2 5748   4.130   0.265   3.479
 1617SOL     OW 5749   5.192   6.197   3.082
 1617SOL    HW1 5750   5.205   6.293   3.057
 1617SOL    HW2 5751   5.266   6.169   3.144
 1618SOL     OW 5752   1.448   6.500   3.279
 1618SOL    HW1 5753   1.369   6.438   3.284
 1618SOL    HW2 5754   1.445   6.550   3.192
 1619SOL     OW 5755   0.285   4.910   6.939
 1619SOL    HW1 5756   0.234   4.947   7.017
 1619SOL    HW2 5757   0.221   4.882   6.868
 1620SOL     OW 5758   3.512   4.367   1.692
 1620SOL    HW1 5759   3.533   4.454   1.736
 1620SOL    HW2 5760   3.505   4.381   1.593
 1621SOL     OW 5761   5.744   0.185   0.814
 1621SOL    HW1 5762   5.692   0.210   0.896
 1621SOL    HW2 5763   5.829   0.139   0.841
 1622SOL     OW 5764   0.750   3.747   5.442
 1622SOL    HW1 5765   0.677   3.811   5.416
 1622SOL    HW2 5766   0.790   3.776   5.529
 1623SOL     OW 5767   0.336   2.489   4.918
 1623SOL    HW1 5768   0.297   2.397   4.918
 1623SOL    HW2 5769   0.344   2.522   5.012
 1624SOL     OW 5770   4.117   1.259   5.641
 1624SOL    HW1 5771   4.119   1.219   5.733
 1624SOL    HW2 5772   4.197   1.318   5.630
 1625SOL     OW 5773   1.691   5.216   6.756
 1625SOL    HW1 5774   1.767   5.154   6.777
 1625SOL    HW2 5775   1.606   5.164   6.755
 1626SOL     OW 5776   3.214   1.172   1.053
 1626SOL    HW1 5777   3.237   1.105   1.123
 1626SOL    HW2 5778   3.298   1.211   1.014
 1627SOL     OW 5779   5.569   2.703   3.601
 1627SOL    HW1 5780   5.513   2.633   3.645
 1627SOL    HW2 5781   5.509   2.774   3.563
 1628SOL     OW 5782   4.264   5.092   6.999
 1628SOL    HW1 5783   4.293   4.996   7.001
 1628SOL    HW2 5784   4.169   5.098   6.969
 1629SOL     OW 5785   2.613   1.278   4.187
 1629SOL    HW1 5786   2.669   1.361   4.183
 1629SOL    HW2 5787   2.663   1.202   4.146
 1630SOL     OW 5788   6.787   4.180   5.523
 1630SOL    HW1 5789   6.835   4.091   5.524
 1630SOL    HW2 5790   6.775   4.210   5.429
 1631SOL     OW 5791   0.570   3.081   0.562
 1631SOL    HW1 5792   0.658   3.054   0.602
 1631SOL    HW2 5793   0.496   3.036   0.612
 1632SOL     OW 5794   4.917   3.397   2.706
 1632SOL    HW1 5795   4.880   3.361   2.620
 1632SOL    HW2 5796   4.905   3.497   2.708
 1633SOL     OW 5797   4.869   3.893   4.496
 1633SOL    HW1 5798   4.957   3.888   4.449
 1633SOL    HW2 5799   4.857   3.811   4.553
 1634SOL     OW 5800   4.838   0.022   4.104
 1634SOL    HW1 5801   4.783   6.979   4.158
 1634SOL    HW2 5802   4.864   0.099   4.161
 1635SOL     OW 5803   0.999   5.150   6.556
 1635SOL    HW1 5804   1.021   5.083   6.485
 1635SOL    HW2 5805   0.901   5.143   6.578
 1636SOL     OW 5806   3.218   5.059   1.717
 1636SOL    HW1 5807   3.142   5.094   1.773
 1636SOL    HW2 5808   3.192   4.970   1.678
 1637SOL     OW 5809   0.031   6.594   4.000
 1637SOL    HW1 5810   0.057   6.640   4.085
 1637SOL    HW2 5811   6.987   6.521   4.021
 1638SOL     OW 5812   0.853   3.228   2.348
 1638SOL    HW1 5813   0.801   3.166   2.288
 1638SOL    HW2 5814   0.909   3.174   2.411
 1639SOL     OW 5815   5.479   5.162   1.841
 1639SOL    HW1 5816   5.503   5.142   1.746
 1639SOL    HW2 5817   5.548   5.123   1.902
 1640SOL     OW 5818   6.315   0.369   0.105
 1640SOL    HW1 5819   6.299   0.279   0.064
 1640SOL    HW2 5820   6.234   0.396   0.157
 1641SOL     OW 5821   6.485   2.040   2.986
 1641SOL    HW1 5822   6.552   2.113   3.001
 1641SOL    HW2 5823   6.529   1.964   2.939
 1642SOL     OW 5824   6.694   3.447   6.856
 1642SOL    HW1 5825   6.645   3.408   6.778
 1642SOL    HW2 5826   6.663   3.403   6.940
 1643SOL     OW 5827   2.978   4.846   3.343
 1643SOL    HW1 5828   3.023   4.774   3.290
 1643SOL    HW2 5829   2.971   4.929   3.288
 1644SOL     OW 5830   5.400   3.508   6.621
 1644SOL    HW1 5831   5.322   3.499   6.685
 1644SOL    HW2 5832   5.406   3.426   6.565
 1645SOL     OW 5833   2.957   6.053   5.902
 1645SOL    HW1 5834   2.864   6.086   5.909
 1645SOL    HW2 5835   3.020   6.130   5.889
 1646SOL     OW 5836   2.529   6.964   0.451
 1646SOL    HW1 5837   2.457   6.957   0.383
 1646SOL    HW2 5838   2.489   6.975   0.542
 1647SOL     OW 5839   6.565   2.504   4.259
 1647SOL    HW1 5840   6.490   2.565   4.233
 1647SOL    HW2 5841   6.529   2.412   4.277
 1648SOL     OW 5842   5.715   6.400   0.342
 1648SOL    HW1 5843   5.720   6.434   0.436
 1648SOL    HW2 5844   5.628   6.353   0.328
 1649SOL     OW 5845   3.461   1.761   4.798
 1649SOL    HW1 5846   3.403   1.727   4.724
 1649SOL    HW2 5847   3.456   1.861   4.801
 1650SOL     OW 5848   0.964   5.383   4.837
 1650SOL    HW1 5849   0.993   5.293   4.806
 1650SOL    HW2 5850   0.921   5.433   4.762
 1651SOL     OW 5851   0.594   2.066   1.885
 1651SOL    HW1 5852   0.570   2.064   1.982
 1651SOL    HW2 5853   0.610   1.973   1.852
 1652SOL     OW 5854   1.260   3.470   2.623
 1652SOL    HW1 5855   1.162   3.487   2.611
 1652SOL    HW2 5856   1.290   3.509   2.711
 1653SOL     OW 5857   0.295   6.368   0.502
 1653SOL    HW1 5858   0.262   6.274   0.493
 1653SOL    HW2 5859   0.310   6.408   0.412
 1654SOL     OW 5860   6.772   3.319   1.170
 1654SOL    HW1 5861   6.690   3.262   1.173
 1654SOL    HW2 5862   6.745   3.415   1.177
 1655SOL     OW 5863   0.074   1.935   4.297
 1655SOL    HW1 5864   7.015   1.945   4.357
 1655SOL    HW2 5865   0.044   1.935   4.202
 1656SOL     OW 5866   1.729   5.457   3.238
 1656SOL    HW1 5867   1.816   5.503   3.255
 1656SOL    HW2 5868   1.746   5.361   3.214
 1657SOL     OW 5869   5.940   0.761   4.513
 1657SOL    HW1 5870   6.025   0.720   4.545
 1657SOL    HW2 5871   5.892   0.802   4.591
 1658SOL     OW 5872   5.964   0.832   1.093
 1658SOL    HW1 5873   5.976   0.734   1.077
 1658SOL    HW2 5874   5.945   0.847   1.190
 1659SOL     OW 5875   3.576   0.365   0.291
 1659SOL    HW1 5876   3.581   0.302   0.214
 1659SOL    HW2 5877   3.509   0.332   0.357
 1660SOL     OW 5878   1.851   6.127   2.317
 1660SOL    HW1 5879   1.785   6.201   2.329
 1660SOL    HW2 5880   1.925   6.157   2.258
 1661SOL     OW 5881   1.851   5.854   1.450
 1661SOL    HW1 5882   1.768   5.878   1.501
 1661SOL    HW2 5883   1.898   5.938   1.422
 1662SOL     OW 5884   0.174   0.829   4.417
 1662SOL    HW1 5885   0.273   0.821   4.410
 1662SOL    HW2 5886   0.138   0.752   4.470
 1663SOL     OW 5887   4.422   5.637   3.582
 1663SOL    HW1 5888   4.342   5.589   3.618
 1663SOL    HW2 5889   4.487   5.653   3.656
 1664SOL     OW 5890   2.070   5.858   5.397
 1664SOL    HW1 5891   2.023   5.806   5.326
 1664SOL    HW2 5892   2.071   5.955   5.373
 1665SOL     OW 5893   6.582   3.703   1.660
 1665SOL    HW1 5894   6.530   3.686   1.744
 1665SOL    HW2 5895   6.670   3.656   1.665
 1666SOL     OW 5896   5.895   0.566   0.005
 1666SOL    HW1 5897   5.821   0.535   0.065
 1666SOL    HW2 5898   5.864   0.647   6.976
 1667SOL     OW 5899   6.488   5.711   1.658
 1667SOL    HW1 5900   6.522   5.674   1.744
 1667SOL    HW2 5901   6.437   5.795   1.676
 1668SOL     OW 5902   4.821   4.782   3.741
 1668SOL    HW1 5903   4.749   4.781   3.673
 1668SOL    HW2 5904   4.839   4.876   3.770
 1669SOL     OW 5905   6.642   4.811   5.794
 1669SOL    HW1 5906   6.734   4.848   5.781
 1669SOL    HW2 5907   6.649   4.721   5.838
 1670SOL     OW 5908   0.372   4.790   5.278
 1670SOL    HW1 5909   0.440   4.766   5.209
 1670SOL    HW2 5910   0.300   4.720   5.279
 1671SOL     OW 5911   5.803   1.335   3.549
 1671SOL    HW1 5912   5.800   1.424   3.594
 1671SOL    HW2 5913   5.771   1.265   3.612
 1672SOL     OW 5914   2.663   3.300   0.578
 1672SOL    HW1 5915   2.690   3.243   0.500
 1672SOL    HW2 5916   2.624   3.241   0.650
 1673SOL     OW 5917   1.070   2.082   4.785
 1673SOL    HW1 5918   1.125   2.035   4.716
 1673SOL    HW2 5919   1.126   2.100   4.866
 1674SOL     OW 5920   0.169   3.286   1.942
 1674SOL    HW1 5921   0.208   3.333   2.020
 1674SOL    HW2 5922   0.071   3.305   1.936
 1675SOL     OW 5923   4.504   0.106   6.983
 1675SOL    HW1 5924   4.548   0.077   6.899
 1675SOL    HW2 5925   4.563   0.086   0.040
 1676SOL     OW 5926   2.338   2.711   1.870
 1676SOL    HW1 5927   2.359   2.629   1.923
 1676SOL    HW2 5928   2.250   2.749   1.901
 1677SOL     OW 5929   3.879   4.044   3.643
 1677SOL    HW1 5930   3.837   4.132   3.663
 1677SOL    HW2 5931   3.890   3.993   3.728
 1678SOL     OW 5932   0.250   4.961   2.275
 1678SOL    HW1 5933   0.161   4.936   2.237
 1678SOL    HW2 5934   0.291   4.882   2.320
 1679SOL     OW 5935   1.715   1.574   4.811
 1679SOL    HW1 5936   1.742   1.645   4.745
 1679SOL    HW2 5937   1.763   1.489   4.789
 1680SOL     OW 5938   6.081   4.146   5.691
 1680SOL    HW1 5939   6.165   4.151   5.638
 1680SOL    HW2 5940   6.012   4.095   5.640
 1681SOL     OW 5941   1.283   5.964   6.060
 1681SOL    HW1 5942   1.275   5.890   6.127
 1681SOL    HW2 5943   1.322   5.929   5.975
 1682SOL     OW 5944   1.791   0.525   5.471
 1682SOL    HW1 5945   1.867   0.589   5.455
 1682SOL    HW2 5946   1.733   0.522   5.389
 1683SOL     OW 5947   5.815   5.438   2.592
 1683SOL    HW1 5948   5.884   5.369   2.614
 1683SOL    HW2 5949   5.821   5.462   2.495
 1684SOL     OW 5950   0.160   5.785   1.960
 1684SOL    HW1 5951   0.215   5.848   1.905
 1684SOL    HW2 5952   0.173   5.692   1.928
 1685SOL     OW 5953   1.913   1.368   5.864
 1685SOL    HW1 5954   1.816   1.360   5.887
 1685SOL    HW2 5955   1.968   1.365   5.948
 1686SOL     OW 5956   2.514   6.028   4.394
 1686SOL    HW1 5957   2.419   5.997   4.386
 1686SOL    HW2 5958   2.521   6.092   4.471
 1687SOL     OW 5959   1.432   2.536   1.836
 1687SOL    HW1 5960   1.451   2.524   1.933
 1687SOL    HW2 5961   1.516   2.561   1.789
 1688SOL     OW 5962   1.759   1.377   3.696
 1688SOL    HW1 5963   1.850   1.347   3.669
 1688SOL    HW2 5964   1.742   1.470   3.663
 1689SOL     OW 5965   6.573   0.621   3.062
 1689SOL    HW1 5966   6.581   0.667   2.974
 1689SOL    HW2 5967   6.476   0.613   3.087
 1690SOL     OW 5968   1.532   2.691   4.590
 1690SOL    HW1 5969   1.550   2.605   4.542
 1690SOL    HW2 5970   1.565   2.767   4.534
 1691SOL     OW 5971   5.873   3.112   3.793
 1691SOL    HW1 5972   5.851   3.174   3.718
 1691SOL    HW2 5973   5.888   3.020   3.756
 1692SOL     OW 5974   4.147   5.977   1.524
 1692SOL    HW1 5975   4.244   5.973   1.548
 1692SOL    HW2 5976   4.128   6.065   1.480
 1693SOL     OW 5977   6.697   2.034   3.220
 1693SOL    HW1 5978   6.705   2.107   3.152
 1693SOL    HW2 5979   6.768   1.966   3.205
 1694SOL     OW 5980   6.484   1.652   3.799
 1694SOL    HW1 5981   6.509   1.724   3.735
 1694SOL    HW2 5982   6.563   1.591   3.813
 1695SOL     OW 5983   3.266   0.609   6.157
 1695SOL    HW1 5984   3.284   0.706   6.142
 1695SOL    HW2 5985   3.181   0.599   6.210
 1696SOL     OW 5986   3.279   5.948   1.347
 1696SOL    HW1 5987   3.297   5.920   1.253
 1696SOL    HW2 5988   3.200   5.897   1.382
 1697SOL     OW 5989   6.839   1.327   0.714
 1697SOL    HW1 5990   6.882   1.269   0.784
 1697SOL    HW2 5991   6.780   1.271   0.656
 1698SOL     OW 5992   3.835   0.291   1.417
 1698SOL    HW1 5993   3.878   0.362   1.363
 1698SOL    HW2 5994   3.900   0.216   1.431
 1699SOL     OW 5995   1.731   1.796   6.055
 1699SOL    HW1 5996   1.824   1.829   6.070
 1699SOL    HW2 5997   1.700   1.822   5.963
 1700SOL     OW 5998   6.594   4.415   2.974
 1700SOL    HW1 5999   6.622   4.445   2.883
 1700SOL    HW2 6000   6.618   4.318   2.985
 1701SOL     OW 6001   5.590   5.873   5.735
 1701SOL    HW1 6002   5.553   5.931   5.807
 1701SOL    HW2 6003   5.675   5.831   5.767
 1702SOL     OW 6004   6.745   1.358   1.245
 1702SOL    HW1 6005   6.793   1.271   1.240
 1702SOL    HW2 6006   6.794   1.427   1.191
 1703SOL     OW 6007   3.683   1.192   6.724
 1703SOL    HW1 6008   3.614   1.264   6.737
 1703SOL    HW2 6009   3.645   1.104   6.753
 1704SOL     OW 6010   1.137   2.429   0.230
 1704SOL    HW1 6011   1.117   2.331   0.234
 1704SOL    HW2 6012   1.166   2.461   0.320
 1705SOL     OW 6013   3.423   2.336   1.705
 1705SOL    HW1 6014   3.360   2.263   1.732
 1705SOL    HW2 6015   3.506   2.331   1.761
 1706SOL     OW 6016   4.072   1.856   2.325
 1706SOL    HW1 6017   4.142   1.862   2.396
 1706SOL    HW2 6018   4.115   1.856   2.235
 1707SOL     OW 6019   4.605   2.660   2.928
 1707SOL    HW1 6020   4.592   2.651   2.830
 1707SOL    HW2 6021   4.655   2.745   2.947
 1708SOL     OW 6022   4.486   5.082   1.757
 1708SOL    HW1 6023   4.408   5.019   1.754
 1708SOL    HW2 6024   4.547   5.063   1.680
 1709SOL     OW 6025   3.667   6.526   2.737
 1709SOL    HW1 6026   3.615   6.610   2.749
 1709SOL    HW2 6027   3.722   6.532   2.654
 1710SOL     OW 6028   4.344   4.865   3.482
 1710SOL    HW1 6029   4.347   4.817   3.570
 1710SOL    HW2 6030   4.319   4.801   3.409
 1711SOL     OW 6031   1.960   5.215   4.625
 1711SOL    HW1 6032   1.896   5.206   4.549
 1711SOL    HW2 6033   1.964   5.311   4.655
 1712SOL     OW 6034   6.603   2.353   5.033
 1712SOL    HW1 6035   6.687   2.398   5.063
 1712SOL    HW2 6036   6.622   2.258   5.008
 1713SOL     OW 6037   4.177   1.327   2.373
 1713SOL    HW1 6038   4.249   1.329   2.442
 1713SOL    HW2 6039   4.171   1.236   2.332
 1714SOL     OW 6040   4.073   1.510   5.812
 1714SOL    HW1 6041   4.144   1.446   5.842
 1714SOL    HW2 6042   3.988   1.488   5.859
 1715SOL     OW 6043   2.164   6.322   3.381
 1715SOL    HW1 6044   2.147   6.392   3.451
 1715SOL    HW2 6045   2.080   6.272   3.362
 1716SOL     OW 6046   4.000   0.251   3.879
 1716SOL    HW1 6047   3.913   0.266   3.927
 1716SOL    HW2 6048   4.009   0.154   3.857
 1717SOL     OW 6049   3.132   5.811   4.504
 1717SOL    HW1 6050   3.143   5.865   4.587
 1717SOL    HW2 6051   3.102   5.719   4.528
 1718SOL     OW 6052   2.738   1.268   2.075
 1718SOL    HW1 6053   2.778   1.323   2.000
 1718SOL    HW2 6054   2.728   1.326   2.156
 1719SOL     OW 6055   2.195   3.253   0.910
 1719SOL    HW1 6056   2.133   3.215   0.842
 1719SOL    HW2 6057   2.261   3.183   0.938
 1720SOL     OW 6058   0.081   2.898   6.192
 1720SOL    HW1 6059   0.001   2.873   6.247
 1720SOL    HW2 6060   0.163   2.897   6.249
 1721SOL     OW 6061   1.678   6.835   1.834
 1721SOL    HW1 6062   1.744   6.808   1.763
 1721SOL    HW2 6063   1.719   6.905   1.893
 1722SOL     OW 6064   4.061   1.396   3.905
 1722SOL    HW1 6065   3.988   1.328   3.914
 1722SOL    HW2 6066   4.021   1.485   3.884
 1723SOL     OW 6067   5.161   2.436   6.974
 1723SOL    HW1 6068   5.231   2.426   0.025
 1723SOL    HW2 6069   5.076   2.393   7.004
 1724SOL     OW 6070   7.021   2.849   2.061
 1724SOL    HW1 6071   7.017   2.930   2.004
 1724SOL    HW2 6072   7.007   2.767   2.005
 1725SOL     OW 6073   1.868   4.986   6.746
 1725SOL    HW1 6074   1.878   5.011   6.650
 1725SOL    HW2 6075   1.958   4.969   6.785
 1726SOL     OW 6076   5.190   3.694   4.598
 1726SOL    HW1 6077   5.200   3.777   4.652
 1726SOL    HW2 6078   5.273   3.639   4.605
 1727SOL     OW 6079   4.137   3.460   3.467
 1727SOL    HW1 6080   4.107   3.414   3.383
 1727SOL    HW2 6081   4.157   3.556   3.448
 1728SOL     OW 6082   5.609   4.671   5.750
 1728SOL    HW1 6083   5.677   4.598   5.744
 1728SOL    HW2 6084   5.520   4.631   5.770
 1729SOL     OW 6085   2.079   3.554   3.007
 1729SOL    HW1 6086   2.107   3.461   3.028
 1729SOL    HW2 6087   2.105   3.576   2.913
 1730SOL     OW 6088   2.808   7.011   4.896
 1730SOL    HW1 6089   2.751   6.961   4.831
 1730SOL    HW2 6090   2.892   0.018   4.850
 1731SOL     OW 6091   0.157   4.065   3.512
 1731SOL    HW1 6092   0.252   4.051   3.488
 1731SOL    HW2 6093   0.098   4.038   3.436
 1732SOL     OW 6094   2.039   4.716   6.544
 1732SOL    HW1 6095   2.022   4.736   6.448
 1732SOL    HW2 6096   2.068   4.620   6.553
 1733SOL     OW 6097   1.894   4.316   1.549
 1733SOL    HW1 6098   1.919   4.366   1.632
 1733SOL    HW2 6099   1.973   4.266   1.514
 1734SOL     OW 6100   5.382   3.109   1.764
 1734SOL    HW1 6101   5.346   3.048   1.693
 1734SOL    HW2 6102   5.372   3.064   1.853
 1735SOL     OW 6103   4.907   5.683   6.232
 1735SOL    HW1 6104   4.955   5.770   6.242
 1735SOL    HW2 6105   4.973   5.608   6.241
 1736SOL     OW 6106   4.047   3.722   0.771
 1736SOL    HW1 6107   4.084   3.795   0.830
 1736SOL    HW2 6108   4.036   3.639   0.825
 1737SOL     OW 6109   5.037   6.867   5.084
 1737SOL    HW1 6110   5.100   6.943   5.099
 1737SOL    HW2 6111   4.943   6.902   5.083
 1738SOL     OW 6112   2.345   2.818   3.820
 1738SOL    HW1 6113   2.302   2.789   3.906
 1738SOL    HW2 6114   2.318   2.912   3.800
 1739SOL     OW 6115   6.887   1.839   4.524
 1739SOL    HW1 6116   6.935   1.802   4.604
 1739SOL    HW2 6117   6.895   1.938   4.524
 1740SOL     OW 6118   0.034   1.932   4.991
 1740SOL    HW1 6119   0.040   1.948   4.893
 1740SOL    HW2 6120   0.107   1.870   5.020
 1741SOL     OW 6121   2.427   0.950   4.785
 1741SOL    HW1 6122   2.431   0.873   4.722
 1741SOL    HW2 6123   2.513   0.959   4.834
 1742SOL     OW 6124   5.321   0.683   5.536
 1742SOL    HW1 6125   5.252   0.684   5.608
 1742SOL    HW2 6126   5.349   0.776   5.515
 1743SOL     OW 6127   0.487   0.967   2.540
 1743SOL    HW1 6128   0.442   0.962   2.629
 1743SOL    HW2 6129   0.559   0.898   2.535
 1744SOL     OW 6130   5.568   3.384   3.199
 1744SOL    HW1 6131   5.533   3.306   3.147
 1744SOL    HW2 6132   5.665   3.370   3.220
 1745SOL     OW 6133   5.305   6.597   2.604
 1745SOL    HW1 6134   5.303   6.608   2.704
 1745SOL    HW2 6135   5.308   6.499   2.582
 1746SOL     OW 6136   1.553   4.511   4.319
 1746SOL    HW1 6137   1.618   4.553   4.382
 1746SOL    HW2 6138   1.495   4.446   4.369
 1747SOL     OW 6139   3.407   1.356   2.472
 1747SOL    HW1 6140   3.404   1.399   2.562
 1747SOL    HW2 6141   3.477   1.400   2.416
 1748SOL     OW 6142   6.749   2.198   4.223
 1748SOL    HW1 6143   6.669   2.174   4.277
 1748SOL    HW2 6144   6.759   2.132   4.148
 1749SOL     OW 6145   2.019   0.117   6.369
 1749SOL    HW1 6146   2.083   0.171   6.314
 1749SOL    HW2 6147   1.971   0.177   6.433
 1750SOL     OW 6148   5.853   0.312   4.141
 1750SOL    HW1 6149   5.790   0.390   4.138
 1750SOL    HW2 6150   5.875   0.290   4.236
 1751SOL     OW 6151   5.375   1.659   5.073
 1751SOL    HW1 6152   5.367   1.683   5.170
 1751SOL    HW2 6153   5.459   1.698   5.036
 1752SOL     OW 6154   5.825   0.725   1.376
 1752SOL    HW1 6155   5.737   0.753   1.416
 1752SOL    HW2 6156   5.809   0.666   1.297
 1753SOL     OW 6157   6.939   0.423   1.633
 1753SOL    HW1 6158   6.932   0.439   1.731
 1753SOL    HW2 6159   6.965   0.508   1.587
 1754SOL     OW 6160   1.855   5.362   6.180
 1754SOL    HW1 6161   1.953   5.341   6.175
 1754SOL    HW2 6162   1.808   5.323   6.101
 1755SOL     OW 6163   0.253   6.279   6.771
 1755SOL    HW1 6164   0.272   6.234   6.684
 1755SOL    HW2 6165   0.159   6.314   6.770
 1756SOL     OW 6166   4.152   5.594   6.450
 1756SOL    HW1 6167   4.205   5.524   6.497
 1756SOL    HW2 6168   4.102   5.649   6.518
 1757SOL     OW 6169   3.435   5.736   5.147
 1757SOL    HW1 6170   3.370   5.798   5.102
 1757SOL    HW2 6171   3.388   5.686   5.219
 1758SOL     OW 6172   1.622   1.226   4.729
 1758SOL    HW1 6173   1.529   1.245   4.697
 1758SOL    HW2 6174   1.626   1.239   4.829
 1759SOL     OW 6175   2.586   6.603   5.396
 1759SOL    HW1 6176   2.501   6.652   5.415
 1759SOL    HW2 6177   2.590   6.521   5.452
 1760SOL     OW 6178   6.185   1.240   4.259
 1760SOL    HW1 6179   6.242   1.170   4.303
 1760SOL    HW2 6180   6.237   1.281   4.183
 1761SOL     OW 6181   6.889   0.789   1.683
 1761SOL    HW1 6182   6.884   0.855   1.609
 1761SOL    HW2 6183   6.833   0.821   1.760
 1762SOL     OW 6184   0.181   1.681   4.430
 1762SOL    HW1 6185   0.120   1.739   4.376
 1762SOL    HW2 6186   0.170   1.585   4.402
 1763SOL     OW 6187   1.154   4.746   4.443
 1763SOL    HW1 6188   1.203   4.716   4.362
 1763SOL    HW2 6189   1.207   4.816   4.491
 1764SOL     OW 6190   1.264   3.254   2.299
 1764SOL    HW1 6191   1.356   3.292   2.291
 1764SOL    HW2 6192   1.262   3.163   2.259
 1765SOL     OW 6193   3.367   1.533   1.511
 1765SOL    HW1 6194   3.311   1.475   1.453
 1765SOL    HW2 6195   3.462   1.503   1.507
 1766SOL     OW 6196   5.493   4.636   3.887
 1766SOL    HW1 6197   5.525   4.546   3.859
 1766SOL    HW2 6198   5.497   4.643   3.987
 1767SOL     OW 6199   0.825   4.865   3.501
 1767SOL    HW1 6200   0.922   4.884   3.481
 1767SOL    HW2 6201   0.803   4.899   3.592
 1768SOL     OW 6202   3.844   0.992   6.984
 1768SOL    HW1 6203   3.875   1.060   6.918
 1768SOL    HW2 6204   3.868   0.901   6.952
 1769SOL     OW 6205   6.060   0.971   6.929
 1769SOL    HW1 6206   5.971   0.929   6.945
 1769SOL    HW2 6207   6.123   0.944   7.003
 1770SOL     OW 6208   0.521   4.590   5.112
 1770SOL    HW1 6209   0.526   4.497   5.149
 1770SOL    HW2 6210   0.608   4.613   5.068
 1771SOL     OW 6211   1.620   5.188   0.509
 1771SOL    HW1 6212   1.678   5.258   0.468
 1771SOL    HW2 6213   1.583   5.129   0.438
 1772SOL     OW 6214   3.518   5.869   3.934
 1772SOL    HW1 6215   3.486   5.919   3.853
 1772SOL    HW2 6216   3.539   5.775   3.910
 1773SOL     OW 6217   2.017   2.270   5.939
 1773SOL    HW1 6218   1.990   2.367   5.940
 1773SOL    HW2 6219   2.070   2.251   5.856
 1774SOL     OW 6220   5.020   6.187   1.878
 1774SOL    HW1 6221   4.969   6.153   1.799
 1774SOL    HW2 6222   4.967   6.258   1.924
 1775SOL     OW 6223   2.001   5.647   5.954
 1775SOL    HW1 6224   1.990   5.550   5.933
 1775SOL    HW2 6225   2.051   5.692   5.880
 1776SOL     OW 6226   4.908   0.676   6.147
 1776SOL    HW1 6227   4.826   0.641   6.192
 1776SOL    HW2 6228   4.972   0.709   6.217
 1777SOL     OW 6229   3.252   6.894   6.673
 1777SOL    HW1 6230   3.313   6.927   6.745
 1777SOL    HW2 6231   3.197   6.971   6.639
 1778SOL     OW 6232   4.787   2.083   4.465
 1778SOL    HW1 6233   4.749   1.993   4.487
 1778SOL    HW2 6234   4.788   2.096   4.366
 1779SOL     OW 6235   4.639   0.584   5.628
 1779SOL    HW1 6236   4.718   0.532   5.594
 1779SOL    HW2 6237   4.668   0.642   5.704
 1780SOL     OW 6238   1.902   3.578   5.216
 1780SOL    HW1 6239   2.001   3.573   5.229
 1780SOL    HW2 6240   1.880   3.643   5.144
 1781SOL     OW 6241   5.300   6.906   5.498
 1781SOL    HW1 6242   5.359   6.984   5.478
 1781SOL    HW2 6243   5.218   6.910   5.440
 1782SOL     OW 6244   2.687   1.176   2.980
 1782SOL    HW1 6245   2.708   1.186   2.883
 1782SOL    HW2 6246   2.612   1.236   3.004
 1783SOL     OW 6247   2.648   3.702   6.222
 1783SOL    HW1 6248   2.673   3.636   6.151
 1783SOL    HW2 6249   2.664   3.795   6.189
 1784SOL     OW 6250   2.074   1.565   1.310
 1784SOL    HW1 6251   2.127   1.505   1.252
 1784SOL    HW2 6252   2.093   1.544   1.406
 1785SOL     OW 6253   6.713   6.734   4.452
 1785SOL    HW1 6254   6.671   6.643   4.448
 1785SOL    HW2 6255   6.645   6.800   4.486
 1786SOL     OW 6256   2.001   5.389   0.190
 1786SOL    HW1 6257   1.993   5.464   0.255
 1786SOL    HW2 6258   2.090   5.345   0.202
 1787SOL     OW 6259   1.891   2.376   5.645
 1787SOL    HW1 6260   1.837   2.378   5.561
 1787SOL    HW2 6261   1.989   2.375   5.622
 1788SOL     OW 6262   4.713   4.080   6.587
 1788SOL    HW1 6263   4.667   4.096   6.675
 1788SOL    HW2 6264   4.665   4.130   6.515
 1789SOL     OW 6265   6.058   2.940   1.432
 1789SOL    HW1 6266   6.080   3.030   1.469
 1789SOL    HW2 6267   5.960   2.922   1.444
 1790SOL     OW 6268   2.928   1.427   4.199
 1790SOL    HW1 6269   2.996   1.355   4.214
 1790SOL    HW2 6270   2.911   1.474   4.285
 1791SOL     OW 6271   0.136   1.406   3.545
 1791SOL    HW1 6272   0.156   1.390   3.642
 1791SOL    HW2 6273   0.061   1.471   3.536
 1792SOL     OW 6274   0.242   2.038   4.561
 1792SOL    HW1 6275   0.291   2.106   4.617
 1792SOL    HW2 6276   0.308   1.973   4.524
 1793SOL     OW 6277   6.424   1.754   4.249
 1793SOL    HW1 6278   6.481   1.701   4.185
 1793SOL    HW2 6279   6.471   1.839   4.273
 1794SOL     OW 6280   5.754   6.911   5.513
 1794SOL    HW1 6281   5.808   6.866   5.584
 1794SOL    HW2 6282   5.689   6.846   5.473
 1795SOL     OW 6283   6.391   4.836   1.265
 1795SOL    HW1 6284   6.473   4.796   1.223
 1795SOL    HW2 6285   6.341   4.766   1.314
 1796SOL     OW 6286   2.039   1.571   5.741
 1796SOL    HW1 6287   2.011   1.490   5.793
 1796SOL    HW2 6288   1.974   1.586   5.666
 1797SOL     OW 6289   1.223   6.981   5.582
 1797SOL    HW1 6290   1.197   0.004   5.496
 1797SOL    HW2 6291   1.276   0.024   5.637
 1798SOL     OW 6292   3.585   2.918   4.872
 1798SOL    HW1 6293   3.499   2.890   4.829
 1798SOL    HW2 6294   3.567   2.955   4.963
 1799SOL     OW 6295   3.873   2.731   6.555
 1799SOL    HW1 6296   3.912   2.671   6.625
 1799SOL    HW2 6297   3.946   2.762   6.495
 1800SOL     OW 6298   5.181   4.835   3.708
 1800SOL    HW1 6299   5.141   4.916   3.752
 1800SOL    HW2 6300   5.159   4.836   3.610
 1801SOL     OW 6301   0.930   1.965   2.009
 1801SOL    HW1 6302   1.021   1.928   2.025
 1801SOL    HW2 6303   0.890   1.921   1.928
 1802SOL     OW 6304   6.480   6.027   3.388
 1802SOL    HW1 6305   6.564   6.072   3.418
 1802SOL    HW2 6306   6.433   6.085   3.321
 1803SOL     OW 6307   0.077   6.532   2.544
 1803SOL    HW1 6308   0.138   6.603   2.579
 1803SOL    HW2 6309   0.015   6.572   2.477
 1804SOL     OW 6310   3.677   3.241   5.107
 1804SOL    HW1 6311   3.721   3.218   5.020
 1804SOL    HW2 6312   3.729   3.313   5.153
 1805SOL     OW 6313   1.052   5.577   5.983
 1805SOL    HW1 6314   1.020   5.592   5.889
 1805SOL    HW2 6315   1.139   5.528   5.982
 1806SOL     OW 6316   0.339   2.494   1.954
 1806SOL    HW1 6317   0.253   2.512   1.907
 1806SOL    HW2 6318   0.368   2.400   1.936
 1807SOL     OW 6319   5.981   3.479   6.971
 1807SOL    HW1 6320   6.028   3.567   6.968
 1807SOL    HW2 6321   5.966   3.446   6.877
 1808SOL     OW 6322   5.962   3.671   4.285
 1808SOL    HW1 6323   6.047   3.690   4.333
 1808SOL    HW2 6324   5.885   3.694   4.344
 1809SOL     OW 6325   3.088   1.098   4.880
 1809SOL    HW1 6326   3.128   1.116   4.790
 1809SOL    HW2 6327   3.055   1.184   4.919
 1810SOL     OW 6328   0.398   0.741   5.297
 1810SOL    HW1 6329   0.402   0.643   5.275
 1810SOL    HW2 6330   0.445   0.793   5.226
 1811SOL     OW 6331   5.312   4.482   1.809
 1811SOL    HW1 6332   5.252   4.404   1.829
 1811SOL    HW2 6333   5.260   4.552   1.760
 1812SOL     OW 6334   4.167   6.836   6.441
 1812SOL    HW1 6335   4.226   6.770   6.487
 1812SOL    HW2 6336   4.141   6.908   6.505
 1813SOL     OW 6337   4.815   4.148   2.142
 1813SOL    HW1 6338   4.752   4.160   2.219
 1813SOL    HW2 6339   4.859   4.058   2.149
 1814SOL     OW 6340   6.156   6.688   0.789
 1814SOL    HW1 6341   6.109   6.774   0.771
 1814SOL    HW2 6342   6.255   6.703   0.786
 1815SOL     OW 6343   5.892   6.994   2.583
 1815SOL    HW1 6344   5.820   6.939   2.625
 1815SOL    HW2 6345   5.945   0.020   2.654
 1816SOL     OW 6346   3.724   5.476   6.411
 1816SOL    HW1 6347   3.797   5.491   6.345
 1816SOL    HW2 6348   3.635   5.484   6.365
 1817SOL     OW 6349   3.503   1.223   3.367
 1817SOL    HW1 6350   3.534   1.257   3.278
 1817SOL    HW2 6351   3.577   1.233   3.434
 1818SOL     OW 6352   2.193   6.725   0.510
 1818SOL    HW1 6353   2.292   6.716   0.500
 1818SOL    HW2 6354   2.147   6.645   0.470
 1819SOL     OW 6355   1.464   5.270   2.397
 1819SOL    HW1 6356   1.456   5.328   2.477
 1819SOL    HW2 6357   1.375   5.231   2.374
 1820SOL     OW 6358   3.787   0.486   2.772
 1820SOL    HW1 6359   3.856   0.443   2.830
 1820SOL    HW2 6360   3.831   0.546   2.706
 1821SOL     OW 6361   3.399   1.329   1.861
 1821SOL    HW1 6362   3.385   1.285   1.772
 1821SOL    HW2 6363   3.397   1.260   1.933
 1822SOL     OW 6364   1.427   3.448   1.641
 1822SOL    HW1 6365   1.496   3.520   1.648
 1822SOL    HW2 6366   1.463   3.371   1.590
 1823SOL     OW 6367   3.291   6.065   3.260
 1823SOL    HW1 6368   3.380   6.029   3.231
 1823SOL    HW2 6369   3.299   6.101   3.353
 1824SOL     OW 6370   3.923   3.627   0.278
 1824SOL    HW1 6371   3.920   3.647   0.376
 1824SOL    HW2 6372   3.832   3.635   0.239
 1825SOL     OW 6373   0.320   3.151   5.000
 1825SOL    HW1 6374   0.307   3.249   5.019
 1825SOL    HW2 6375   0.381   3.140   4.922
 1826SOL     OW 6376   3.926   1.458   0.497
 1826SOL    HW1 6377   3.940   1.389   0.568
 1826SOL    HW2 6378   3.839   1.505   0.512
 1827SOL     OW 6379   5.003   5.615   1.065
 1827SOL    HW1 6380   4.962   5.703   1.090
 1827SOL    HW2 6381   4.940   5.541   1.088
 1828SOL     OW 6382   1.878   3.627   6.672
 1828SOL    HW1 6383   1.836   3.602   6.584
 1828SOL    HW2 6384   1.847   3.564   6.743
 1829SOL     OW 6385   3.531   0.163   3.346
 1829SOL    HW1 6386   3.476   0.184   3.426
 1829SOL    HW2 6387   3.542   0.246   3.290
 1830SOL     OW 6388   5.740   6.822   5.129
 1830SOL    HW1 6389   5.804   6.768   5.075
 1830SOL    HW2 6390   5.720   6.907   5.081
 1831SOL     OW 6391   4.878   6.065   2.634
 1831SOL    HW1 6392   4.837   6.004   2.565
 1831SOL    HW2 6393   4.842   6.158   2.620
 1832SOL     OW 6394   3.000   3.447   0.134
 1832SOL    HW1 6395   2.987   3.415   0.227
 1832SOL    HW2 6396   3.096   3.471   0.119
 1833SOL     OW 6397   5.184   0.059   1.062
 1833SOL    HW1 6398   5.151   0.131   1.001
 1833SOL    HW2 6399   5.189   0.095   1.156
 1834SOL     OW 6400   2.557   2.669   1.181
 1834SOL    HW1 6401   2.536   2.657   1.084
 1834SOL    HW2 6402   2.641   2.724   1.190
 1835SOL     OW 6403   0.753   4.789   1.865
 1835SOL    HW1 6404   0.766   4.863   1.931
 1835SOL    HW2 6405   0.727   4.705   1.913
 1836SOL     OW 6406   5.837   2.674   2.343
 1836SOL    HW1 6407   5.765   2.612   2.375
 1836SOL    HW2 6408   5.920   2.622   2.326
 1837SOL     OW 6409   2.292   0.376   5.644
 1837SOL    HW1 6410   2.329   0.444   5.708
 1837SOL    HW2 6411   2.345   0.379   5.559
 1838SOL     OW 6412   6.530   0.668   6.722
 1838SOL    HW1 6413   6.513   0.638   6.816
 1838SOL    HW2 6414   6.541   0.767   6.721
 1839SOL     OW 6415   6.399   1.843   6.701
 1839SOL    HW1 6416   6.396   1.915   6.771
 1839SOL    HW2 6417   6.447   1.878   6.620
 1840SOL     OW 6418   3.893   0.717   2.641
 1840SOL    HW1 6419   3.879   0.737   2.738
 1840SOL    HW2 6420   3.807   0.732   2.592
 1841SOL     OW 6421   2.206   0.638   2.861
 1841SOL    HW1 6422   2.294   0.683   2.851
 1841SOL    HW2 6423   2.200   0.561   2.797
 1842SOL     OW 6424   1.310   5.071   0.695
 1842SOL    HW1 6425   1.295   5.029   0.606
 1842SOL    HW2 6426   1.331   5.168   0.683
 1843SOL     OW 6427   4.912   0.343   4.255
 1843SOL    HW1 6428   4.863   0.399   4.188
 1843SOL    HW2 6429   5.004   0.380   4.269
 1844SOL     OW 6430   5.055   1.728   5.303
 1844SOL    HW1 6431   4.990   1.653   5.319
 1844SOL    HW2 6432   5.019   1.813   5.342
 1845SOL     OW 6433   2.996   0.051   3.569
 1845SOL    HW1 6434   2.989   0.069   3.667
 1845SOL    HW2 6435   2.955   0.127   3.518
 1846SOL     OW 6436   5.175   1.348   3.357
 1846SOL    HW1 6437   5.264   1.345   3.311
 1846SOL    HW2 6438   5.105   1.379   3.293
 1847SOL     OW 6439   1.636   0.199   4.962
 1847SOL    HW1 6440   1.574   0.277   4.957
 1847SOL    HW2 6441   1.729   0.230   4.942
 1848SOL     OW 6442   1.907   6.349   4.004
 1848SOL    HW1 6443   1.965   6.426   4.032
 1848SOL    HW2 6444   1.817   6.357   4.048
 1849SOL     OW 6445   5.063   3.009   1.796
 1849SOL    HW1 6446   5.036   3.053   1.710
 1849SOL    HW2 6447   5.024   3.059   1.872
 1850SOL     OW 6448   5.355   1.607   2.226
 1850SOL    HW1 6449   5.285   1.662   2.179
 1850SOL    HW2 6450   5.442   1.655   2.222
 1851SOL     OW 6451   0.810   3.135   0.002
 1851SOL    HW1 6452   0.712   3.115   0.004
 1851SOL    HW2 6453   0.824   3.229   6.990
 1852SOL     OW 6454   0.038   4.874   1.292
 1852SOL    HW1 6455   0.089   4.960   1.296
 1852SOL    HW2 6456   0.060   4.826   1.207
 1853SOL     OW 6457   0.212   2.169   3.474
 1853SOL    HW1 6458   0.203   2.149   3.377
 1853SOL    HW2 6459   0.306   2.194   3.495
 1854SOL     OW 6460   1.518   5.277   3.415
 1854SOL    HW1 6461   1.483   5.329   3.493
 1854SOL    HW2 6462   1.485   5.317   3.330
 1855SOL     OW 6463   5.032   3.102   4.846
 1855SOL    HW1 6464   5.104   3.095   4.916
 1855SOL    HW2 6465   4.983   3.189   4.857
 1856SOL     OW 6466   4.084   3.841   6.554
 1856SOL    HW1 6467   4.027   3.910   6.598
 1856SOL    HW2 6468   4.137   3.883   6.481
 1857SOL     OW 6469   5.171   1.061   0.258
 1857SOL    HW1 6470   5.204   1.047   0.352
 1857SOL    HW2 6471   5.072   1.046   0.255
 1858SOL     OW 6472   5.285   2.848   3.234
 1858SOL    HW1 6473   5.260   2.752   3.229
 1858SOL    HW2 6474   5.241   2.898   3.159
 1859SOL     OW 6475   4.791   2.091   3.927
 1859SOL    HW1 6476   4.734   2.069   3.848
 1859SOL    HW2 6477   4.848   2.012   3.949
 1860SOL     OW 6478   0.914   2.239   5.257
 1860SOL    HW1 6479   0.942   2.332   5.232
 1860SOL    HW2 6480   0.847   2.205   5.190
 1861SOL     OW 6481   5.318   0.460   3.118
 1861SOL    HW1 6482   5.341   0.554   3.144
 1861SOL    HW2 6483   5.400   0.404   3.117
 1862SOL     OW 6484   1.247   0.101   0.247
 1862SOL    HW1 6485   1.272   0.067   0.338
 1862SOL    HW2 6486   1.232   0.200   0.252
 1863SOL     OW 6487   6.843   2.958   1.669
 1863SOL    HW1 6488   6.821   2.866   1.701
 1863SOL    HW2 6489   6.817   2.967   1.573
 1864SOL     OW 6490   3.129   5.931   4.006
 1864SOL    HW1 6491   3.093   5.942   4.098
 1864SOL    HW2 6492   3.211   5.988   3.996
 1865SOL     OW 6493   3.589   1.431   1.249
 1865SOL    HW1 6494   3.646   1.420   1.330
 1865SOL    HW2 6495   3.617   1.514   1.200
 1866SOL     OW 6496   6.526   4.462   4.055
 1866SOL    HW1 6497   6.589   4.419   3.990
 1866SOL    HW2 6498   6.509   4.556   4.028
 1867SOL     OW 6499   2.390   2.995   1.431
 1867SOL    HW1 6500   2.355   2.951   1.513
 1867SOL    HW2 6501   2.448   3.072   1.456
 1868SOL     OW 6502   4.829   3.494   5.384
 1868SOL    HW1 6503   4.833   3.575   5.442
 1868SOL    HW2 6504   4.804   3.522   5.291
 1869SOL     OW 6505   5.243   2.849   4.098
 1869SOL    HW1 6506   5.289   2.849   4.186
 1869SOL    HW2 6507   5.250   2.759   4.056
 1870SOL     OW 6508   0.629   3.413   4.730
 1870SOL    HW1 6509   0.628   3.508   4.701
 1870SOL    HW2 6510   0.678   3.404   4.817
 1871SOL     OW 6511   0.124   6.651   0.395
 1871SOL    HW1 6512   0.135   6.652   0.495
 1871SOL    HW2 6513   0.157   6.737   0.357
 1872SOL     OW 6514   3.343   2.579   0.382
 1872SOL    HW1 6515   3.274   2.544   0.445
 1872SOL    HW2 6516   3.300   2.639   0.314
 1873SOL     OW 6517   6.414   1.018   5.779
 1873SOL    HW1 6518   6.388   1.032   5.683
 1873SOL    HW2 6519   6.354   1.073   5.838
 1874SOL     OW 6520   1.174   1.026   6.764
 1874SOL    HW1 6521   1.135   1.027   6.857
 1874SOL    HW2 6522   1.105   1.058   6.699
 1875SOL     OW 6523   6.471   6.509   0.654
 1875SOL    HW1 6524   6.568   6.533   0.662
 1875SOL    HW2 6525   6.447   6.497   0.558
 1876SOL     OW 6526   5.169   6.998   5.932
 1876SOL    HW1 6527   5.237   6.940   5.888
 1876SOL    HW2 6528   5.214   0.054   5.978
 1877SOL     OW 6529   6.814   1.696   3.117
 1877SOL    HW1 6530   6.743   1.734   3.058
 1877SOL    HW2 6531   6.827   1.599   3.095
 1878SOL     OW 6532   6.973   4.360   3.472
 1878SOL    HW1 6533   7.008   4.272   3.505
 1878SOL    HW2 6534   6.944   4.350   3.376
 1879SOL     OW 6535   2.663   5.106   4.167
 1879SOL    HW1 6536   2.595   5.171   4.133
 1879SOL    HW2 6537   2.747   5.156   4.191
 1880SOL     OW 6538   1.111   2.475   2.981
 1880SOL    HW1 6539   1.107   2.545   2.909
 1880SOL    HW2 6540   1.025   2.475   3.032
 1881SOL     OW 6541   1.015   2.447   3.463
 1881SOL    HW1 6542   1.075   2.443   3.384
 1881SOL    HW2 6543   1.066   2.423   3.546
 1882SOL     OW 6544   1.084   6.069   6.633
 1882SOL    HW1 6545   1.097   6.134   6.708
 1882SOL    HW2 6546   1.173   6.033   6.604
 1883SOL     OW 6547   1.770   3.394   3.626
 1883SOL    HW1 6548   1.715   3.375   3.545
 1883SOL    HW2 6549   1.819   3.480   3.614
 1884SOL     OW 6550   5.003   1.087   1.878
 1884SOL    HW1 6551   5.031   1.184   1.880
 1884SOL    HW2 6552   4.923   1.077   1.819
 1885SOL     OW 6553   6.356   1.903   0.768
 1885SOL    HW1 6554   6.305   1.973   0.818
 1885SOL    HW2 6555   6.395   1.942   0.685
 1886SOL     OW 6556   2.173   2.287   6.703
 1886SOL    HW1 6557   2.271   2.268   6.710
 1886SOL    HW2 6558   2.128   2.214   6.652
 1887SOL     OW 6559   0.063   4.121   6.010
 1887SOL    HW1 6560   6.996   4.086   5.976
 1887SOL    HW2 6561   0.083   4.209   5.967
 1888SOL     OW 6562   2.235   1.580   6.177
 1888SOL    HW1 6563   2.276   1.564   6.087
 1888SOL    HW2 6564   2.306   1.577   6.247
 1889SOL     OW 6565   4.418   3.958   6.627
 1889SOL    HW1 6566   4.325   3.933   6.654
 1889SOL    HW2 6567   4.473   3.973   6.709
 1890SOL     OW 6568   1.741   5.598   6.231
 1890SOL    HW1 6569   1.753   5.687   6.185
 1890SOL    HW2 6570   1.801   5.531   6.189
 1891SOL     OW 6571   5.147   2.369   5.008
 1891SOL    HW1 6572   5.184   2.279   5.034
 1891SOL    HW2 6573   5.097   2.360   4.922
 1892SOL     OW 6574   3.667   5.809   1.304
 1892SOL    HW1 6575   3.687   5.737   1.371
 1892SOL    HW2 6576   3.583   5.856   1.331
 1893SOL     OW 6577   3.557   2.033   4.847
 1893SOL    HW1 6578   3.649   2.059   4.816
 1893SOL    HW2 6579   3.542   2.070   4.939
 1894SOL     OW 6580   4.157   3.500   1.583
 1894SOL    HW1 6581   4.087   3.449   1.632
 1894SOL    HW2 6582   4.116   3.547   1.504
 1895SOL     OW 6583   6.137   0.406   2.600
 1895SOL    HW1 6584   6.214   0.407   2.536
 1895SOL    HW2 6585   6.106   0.499   2.618
 1896SOL     OW 6586   6.668   0.817   3.286
 1896SOL    HW1 6587   6.663   0.766   3.200
 1896SOL    HW2 6588   6.760   0.856   3.296
 1897SOL     OW 6589   6.389   5.514   3.219
 1897SOL    HW1 6590   6.375   5.450   3.294
 1897SOL    HW2 6591   6.431   5.598   3.254
 1898SOL     OW 6592   3.748   6.288   1.404
 1898SOL    HW1 6593   3.810   6.231   1.458
 1898SOL    HW2 6594   3.655   6.280   1.441
 1899SOL     OW 6595   1.267   3.271   3.052
 1899SOL    HW1 6596   1.233   3.264   2.958
 1899SOL    HW2 6597   1.351   3.218   3.062
 1900SOL     OW 6598   0.951   6.994   5.973
 1900SOL    HW1 6599   1.033   0.024   5.997
 1900SOL    HW2 6600   0.974   6.926   5.903
 1901SOL     OW 6601   1.937   1.233   0.627
 1901SOL    HW1 6602   1.944   1.251   0.529
 1901SOL    HW2 6603   1.935   1.134   0.642
 1902SOL     OW 6604   1.510   2.612   4.851
 1902SOL    HW1 6605   1.546   2.519   4.848
 1902SOL    HW2 6606   1.515   2.653   4.760
 1903SOL     OW 6607   6.965   3.739   3.535
 1903SOL    HW1 6608   6.986   3.702   3.626
 1903SOL    HW2 6609   6.926   3.667   3.478
 1904SOL     OW 6610   0.008   0.238   4.456
 1904SOL    HW1 6611   6.932   0.244   4.478
 1904SOL    HW2 6612   0.019   0.231   4.357
 1905SOL     OW 6613   0.572   2.463   3.807
 1905SOL    HW1 6614   0.490   2.458   3.865
 1905SOL    HW2 6615   0.546   2.491   3.715
 1906SOL     OW 6616   2.825   0.265   5.619
 1906SOL    HW1 6617   2.911   0.219   5.641
 1906SOL    HW2 6618   2.749   0.201   5.633
 1907SOL     OW 6619   3.372   6.906   3.511
 1907SOL    HW1 6620   3.285   6.876   3.548
 1907SOL    HW2 6621   3.393   6.998   3.545
 1908SOL     OW 6622   4.578   0.935   4.962
 1908SOL    HW1 6623   4.610   0.901   5.051
 1908SOL    HW2 6624   4.644   1.001   4.926
 1909SOL     OW 6625   2.212   4.030   3.775
 1909SOL    HW1 6626   2.153   4.087   3.833
 1909SOL    HW2 6627   2.172   4.022   3.684
 1910SOL     OW 6628   5.626   2.794   6.338
 1910SOL    HW1 6629   5.644   2.884   6.299
 1910SOL    HW2 6630   5.527   2.780   6.345
 1911SOL     OW 6631   6.655   2.009   5.570
 1911SOL    HW1 6632   6.673   1.949   5.648
 1911SOL    HW2 6633   6.557   2.020   5.557
 1912SOL     OW 6634   3.820   6.461   2.502
 1912SOL    HW1 6635   3.751   6.422   2.441
 1912SOL    HW2 6636   3.862   6.540   2.459
 1913SOL     OW 6637   1.716   6.221   5.281
 1913SOL    HW1 6638   1.753   6.294   5.224
 1913SOL    HW2 6639   1.692   6.259   5.371
 1914SOL     OW 6640   2.798   2.638   6.597
 1914SOL    HW1 6641   2.791   2.539   6.586
 1914SOL    HW2 6642   2.707   2.678   6.599
 1915SOL     OW 6643   3.670   1.272   5.442
 1915SOL    HW1 6644   3.609   1.351   5.444
 1915SOL    HW2 6645   3.715   1.266   5.353
 1916SOL     OW 6646   3.609   5.562   0.854
 1916SOL    HW1 6647   3.546   5.501   0.902
 1916SOL    HW2 6648   3.661   5.615   0.922
 1917SOL     OW 6649   3.778   3.501   4.790
 1917SOL    HW1 6650   3.695   3.550   4.817
 1917SOL    HW2 6651   3.782   3.493   4.691
 1918SOL     OW 6652   6.420   6.411   6.181
 1918SOL    HW1 6653   6.348   6.384   6.118
 1918SOL    HW2 6654   6.474   6.484   6.140
 1919SOL     OW 6655   1.246   6.935   2.119
 1919SOL    HW1 6656   1.342   6.965   2.119
 1919SOL    HW2 6657   1.209   6.940   2.027
 1920SOL     OW 6658   0.575   4.626   3.148
 1920SOL    HW1 6659   0.663   4.667   3.170
 1920SOL    HW2 6660   0.550   4.649   3.054
 1921SOL     OW 6661   0.629   4.996   0.050
 1921SOL    HW1 6662   0.614   4.949   6.985
 1921SOL    HW2 6663   0.542   5.026   0.089
 1922SOL     OW 6664   3.789   3.350   1.128
 1922SOL    HW1 6665   3.880   3.310   1.117
 1922SOL    HW2 6666   3.791   3.418   1.200
 1923SOL     OW 6667   2.931   1.241   6.870
 1923SOL    HW1 6668   2.863   1.285   6.930
 1923SOL    HW2 6669   2.888   1.167   6.820
 1924SOL     OW 6670   5.716   5.664   2.727
 1924SOL    HW1 6671   5.763   5.678   2.814
 1924SOL    HW2 6672   5.753   5.583   2.682
 1925SOL     OW 6673   3.043   3.718   2.134
 1925SOL    HW1 6674   3.130   3.694   2.091
 1925SOL    HW2 6675   2.981   3.640   2.128
 1926SOL     OW 6676   1.062   0.118   3.769
 1926SOL    HW1 6677   1.156   0.088   3.785
 1926SOL    HW2 6678   1.024   0.158   3.852
 1927SOL     OW 6679   3.607   5.059   6.570
 1927SOL    HW1 6680   3.524   5.066   6.626
 1927SOL    HW2 6681   3.618   4.965   6.539
 1928SOL     OW 6682   6.482   3.539   5.894
 1928SOL    HW1 6683   6.436   3.454   5.868
 1928SOL    HW2 6684   6.572   3.518   5.931
 1929SOL     OW 6685   0.371   5.739   1.382
 1929SOL    HW1 6686   0.446   5.755   1.318
 1929SOL    HW2 6687   0.318   5.660   1.353
 1930SOL     OW 6688   4.829   4.561   0.195
 1930SOL    HW1 6689   4.910   4.519   0.236
 1930SOL    HW2 6690   4.854   4.601   0.107
 1931SOL     OW 6691   7.005   3.342   3.538
 1931SOL    HW1 6692   7.005   3.243   3.553
 1931SOL    HW2 6693   7.007   3.389   3.626
 1932SOL     OW 6694   5.005   3.973   2.863
 1932SOL    HW1 6695   4.941   4.049   2.852
 1932SOL    HW2 6696   4.955   3.889   2.882
 1933SOL     OW 6697   2.458   4.532   0.787
 1933SOL    HW1 6698   2.418   4.451   0.744
 1933SOL    HW2 6699   2.444   4.527   0.886
 1934SOL     OW 6700   0.448   0.300   5.678
 1934SOL    HW1 6701   0.439   0.209   5.717
 1934SOL    HW2 6702   0.374   0.359   5.710
 1935SOL     OW 6703   3.263   0.605   5.086
 1935SOL    HW1 6704   3.294   0.579   4.994
 1935SOL    HW2 6705   3.184   0.666   5.078
 1936SOL     OW 6706   5.777   4.575   4.030
 1936SOL    HW1 6707   5.771   4.497   4.093
 1936SOL    HW2 6708   5.790   4.542   3.937
 1937SOL     OW 6709   4.255   6.229   1.871
 1937SOL    HW1 6710   4.293   6.231   1.963
 1937SOL    HW2 6711   4.215   6.138   1.854
 1938SOL     OW 6712   4.459   1.541   3.068
 1938SOL    HW1 6713   4.533   1.553   3.003
 1938SOL    HW2 6714   4.491   1.489   3.147
 1939SOL     OW 6715   0.469   6.657   4.344
 1939SOL    HW1 6716   0.404   6.594   4.301
 1939SOL    HW2 6717   0.428   6.695   4.427
 1940SOL     OW 6718   4.907   5.317   5.541
 1940SOL    HW1 6719   4.847   5.376   5.488
 1940SOL    HW2 6720   4.931   5.236   5.488
 1941SOL     OW 6721   6.991   3.966   3.318
 1941SOL    HW1 6722   0.006   3.935   3.230
 1941SOL    HW2 6723   6.980   3.888   3.379
 1942SOL     OW 6724   6.544   0.294   3.099
 1942SOL    HW1 6725   6.468   0.254   3.150
 1942SOL    HW2 6726   6.595   0.356   3.158
 1943SOL     OW 6727   2.977   6.197   2.335
 1943SOL    HW1 6728   2.945   6.139   2.259
 1943SOL    HW2 6729   3.018   6.139   2.405
 1944SOL     OW 6730   4.452   2.274   6.268
 1944SOL    HW1 6731   4.548   2.303   6.269
 1944SOL    HW2 6732   4.425   2.251   6.174
 1945SOL     OW 6733   4.152   5.871   2.653
 1945SOL    HW1 6734   4.248   5.844   2.661
 1945SOL    HW2 6735   4.095   5.790   2.642
 1946SOL     OW 6736   7.018   0.599   0.451
 1946SOL    HW1 6737   6.970   0.675   0.494
 1946SOL    HW2 6738   6.967   0.568   0.371
 1947SOL     OW 6739   5.252   6.711   3.600
 1947SOL    HW1 6740   5.201   6.626   3.617
 1947SOL    HW2 6741   5.198   6.789   3.630
 1948SOL     OW 6742   6.294   5.908   3.535
 1948SOL    HW1 6743   6.351   5.969   3.479
 1948SOL    HW2 6744   6.319   5.813   3.515
 1949SOL     OW 6745   4.539   4.954   6.092
 1949SOL    HW1 6746   4.532   4.988   5.998
 1949SOL    HW2 6747   4.517   5.028   6.156
 1950SOL     OW 6748   3.732   4.054   1.033
 1950SOL    HW1 6749   3.788   4.124   0.987
 1950SOL    HW2 6750   3.703   3.986   0.966
 1951SOL     OW 6751   6.427   3.907   0.232
 1951SOL    HW1 6752   6.463   3.816   0.210
 1951SOL    HW2 6753   6.495   3.958   0.284
 1952SOL     OW 6754   3.608   2.280   6.755
 1952SOL    HW1 6755   3.539   2.330   6.703
 1952SOL    HW2 6756   3.691   2.335   6.762
 1953SOL     OW 6757   6.031   2.370   0.109
 1953SOL    HW1 6758   6.126   2.396   0.097
 1953SOL    HW2 6759   5.989   2.354   0.019
 1954SOL     OW 6760   5.885   1.381   4.023
 1954SOL    HW1 6761   5.787   1.361   4.011
 1954SOL    HW2 6762   5.898   1.431   4.108
 1955SOL     OW 6763   1.462   0.582   2.129
 1955SOL    HW1 6764   1.376   0.531   2.125
 1955SOL    HW2 6765   1.514   0.554   2.209
 1956SOL     OW 6766   6.353   0.237   2.374
 1956SOL    HW1 6767   6.410   0.312   2.340
 1956SOL    HW2 6768   6.379   0.215   2.468
 1957SOL     OW 6769   6.584   5.143   4.676
 1957SOL    HW1 6770   6.534   5.170   4.594
 1957SOL    HW2 6771   6.635   5.221   4.712
 1958SOL     OW 6772   6.008   2.538   4.073
 1958SOL    HW1 6773   5.958   2.584   4.146
 1958SOL    HW2 6774   5.946   2.521   3.996
 1959SOL     OW 6775   0.039   1.980   6.175
 1959SOL    HW1 6776   6.977   2.009   6.127
 1959SOL    HW2 6777   0.080   1.904   6.124
 1960SOL     OW 6778   6.560   4.951   0.522
 1960SOL    HW1 6779   6.607   4.885   0.580
 1960SOL    HW2 6780   6.483   4.906   0.477
 1961SOL     OW 6781   5.809   4.776   4.528
 1961SOL    HW1 6782   5.794   4.786   4.626
 1961SOL    HW2 6783   5.894   4.822   4.502
 1962SOL     OW 6784   3.160   6.266   2.992
 1962SOL    HW1 6785   3.170   6.195   3.061
 1962SOL    HW2 6786   3.141   6.354   3.036
 1963SOL     OW 6787   0.986   0.946   1.135
 1963SOL    HW1 6788   1.047   0.986   1.203
 1963SOL    HW2 6789   0.898   0.993   1.137
 1964SOL     OW 6790   4.250   2.705   1.182
 1964SOL    HW1 6791   4.278   2.685   1.088
 1964SOL    HW2 6792   4.311   2.775   1.220
 1965SOL     OW 6793   1.217   3.488   3.475
 1965SOL    HW1 6794   1.294   3.461   3.534
 1965SOL    HW2 6795   1.188   3.411   3.420
 1966SOL     OW 6796   6.959   5.662   5.178
 1966SOL    HW1 6797   6.972   5.567   5.207
 1966SOL    HW2 6798   0.027   5.708   5.172
 1967SOL     OW 6799   5.143   2.030   5.125
 1967SOL    HW1 6800   5.096   1.949   5.159
 1967SOL    HW2 6801   5.135   2.035   5.025
 1968SOL     OW 6802   2.639   5.842   0.851
 1968SOL    HW1 6803   2.717   5.855   0.912
 1968SOL    HW2 6804   2.561   5.810   0.904
 1969SOL     OW 6805   0.492   1.314   1.316
 1969SOL    HW1 6806   0.455   1.404   1.340
 1969SOL    HW2 6807   0.435   1.243   1.356
 1970SOL     OW 6808   2.130   0.406   6.512
 1970SOL    HW1 6809   2.155   0.435   6.419
 1970SOL    HW2 6810   2.045   0.354   6.508
 1971SOL     OW 6811   6.286   7.009   6.305
 1971SOL    HW1 6812   6.227   0.006   6.384
 1971SOL    HW2 6813   6.238   0.014   6.221
 1972SOL     OW 6814   6.394   2.862   3.009
 1972SOL    HW1 6815   6.386   2.849   3.108
 1972SOL    HW2 6816   6.313   2.824   2.964
 1973SOL     OW 6817   2.347   3.446   1.087
 1973SOL    HW1 6818   2.286   3.384   1.039
 1973SOL    HW2 6819   2.433   3.453   1.037
 1974SOL     OW 6820   6.285   5.875   3.958
 1974SOL    HW1 6821   6.355   5.853   4.025
 1974SOL    HW2 6822   6.211   5.926   4.003
 1975SOL     OW 6823   2.753   1.330   3.282
 1975SOL    HW1 6824   2.729   1.234   3.269
 1975SOL    HW2 6825   2.831   1.354   3.224
 1976SOL     OW 6826   0.795   5.664   6.749
 1976SOL    HW1 6827   0.819   5.759   6.730
 1976SOL    HW2 6828   0.872   5.618   6.793
 1977SOL     OW 6829   1.531   2.804   3.681
 1977SOL    HW1 6830   1.595   2.864   3.633
 1977SOL    HW2 6831   1.457   2.859   3.721
 1978SOL     OW 6832   0.817   1.025   3.701
 1978SOL    HW1 6833   0.718   1.009   3.703
 1978SOL    HW2 6834   0.839   1.081   3.622
 1979SOL     OW 6835   6.824   4.337   4.792
 1979SOL    HW1 6836   6.803   4.416   4.735
 1979SOL    HW2 6837   6.923   4.323   4.795
 1980SOL     OW 6838   2.544   0.677   6.385
 1980SOL    HW1 6839   2.558   0.602   6.320
 1980SOL    HW2 6840   2.596   0.757   6.354
 1981SOL     OW 6841   6.228   1.739   2.395
 1981SOL    HW1 6842   6.298   1.734   2.465
 1981SOL    HW2 6843   6.138   1.721   2.435
 1982SOL     OW 6844   0.167   4.163   5.329
 1982SOL    HW1 6845   0.164   4.067   5.360
 1982SOL    HW2 6846   0.128   4.221   5.400
 1983SOL     OW 6847   1.019   2.046   2.877
 1983SOL    HW1 6848   0.992   2.047   2.781
 1983SOL    HW2 6849   1.047   1.954   2.903
 1984SOL     OW 6850   5.680   1.174   4.518
 1984SOL    HW1 6851   5.638   1.234   4.450
 1984SOL    HW2 6852   5.769   1.212   4.544
 1985SOL     OW 6853   0.958   0.661   2.833
 1985SOL    HW1 6854   1.003   0.652   2.744
 1985SOL    HW2 6855   1.026   0.688   2.902
 1986SOL     OW 6856   1.680   0.389   0.469
 1986SOL    HW1 6857   1.708   0.322   0.537
 1986SOL    HW2 6858   1.759   0.420   0.417
 1987SOL     OW 6859   1.689   2.956   1.197
 1987SOL    HW1 6860   1.774   2.981   1.152
 1987SOL    HW2 6861   1.646   2.881   1.148
 1988SOL     OW 6862   4.752   4.693   0.877
 1988SOL    HW1 6863   4.846   4.725   0.866
 1988SOL    HW2 6864   4.706   4.696   0.789
 1989SOL     OW 6865   2.315   6.369   5.002
 1989SOL    HW1 6866   2.369   6.292   5.035
 1989SOL    HW2 6867   2.327   6.447   5.063
 1990SOL     OW 6868   3.140   6.739   0.839
 1990SOL    HW1 6869   3.200   6.790   0.777
 1990SOL    HW2 6870   3.091   6.669   0.788
 1991SOL     OW 6871   4.452   4.695   6.363
 1991SOL    HW1 6872   4.378   4.644   6.320
 1991SOL    HW2 6873   4.415   4.778   6.405
 1992SOL     OW 6874   1.096   6.924   6.922
 1992SOL    HW1 6875   1.050   6.835   6.920
 1992SOL    HW2 6876   1.115   6.953   6.828
 1993SOL     OW 6877   4.178   3.722   5.248
 1993SOL    HW1 6878   4.181   3.641   5.189
 1993SOL    HW2 6879   4.120   3.703   5.327
 1994SOL     OW 6880   1.227   1.811   0.557
 1994SOL    HW1 6881   1.189   1.869   0.485
 1994SOL    HW2 6882   1.213   1.715   0.533
 1995SOL     OW 6883   6.146   2.285   1.596
 1995SOL    HW1 6884   6.243   2.266   1.587
 1995SOL    HW2 6885   6.104   2.289   1.505
 1996SOL     OW 6886   2.909   3.528   1.035
 1996SOL    HW1 6887   2.921   3.432   1.011
 1996SOL    HW2 6888   2.931   3.585   0.956
 1997SOL     OW 6889   4.692   0.366   5.248
 1997SOL    HW1 6890   4.668   0.342   5.343
 1997SOL    HW2 6891   4.682   0.465   5.236
 1998SOL     OW 6892   3.211   3.696   6.589
 1998SOL    HW1 6893   3.146   3.772   6.582
 1998SOL    HW2 6894   3.253   3.679   6.500
 1999SOL     OW 6895   3.154   6.557   1.589
 1999SOL    HW1 6896   3.249   6.579   1.612
 1999SOL    HW2 6897   3.104   6.533   1.672
 2000SOL     OW 6898   3.912   2.246   5.452
 2000SOL    HW1 6899   3.964   2.330   5.460
 2000SOL    HW2 6900   3.975   2.168   5.445
 2001SOL     OW 6901   3.231   2.134   1.704
 2001SOL    HW1 6902   3.170   2.113   1.781
 2001SOL    HW2 6903   3.223   2.062   1.635
 2002SOL     OW 6904   1.279   5.453   5.998
 2002SOL    HW1 6905   1.335   5.421   5.922
 2002SOL    HW2 6906   1.230   5.376   6.038
 2003SOL     OW 6907   6.058   6.919   3.418
 2003SOL    HW1 6908   6.037   6.941   3.322
 2003SOL    HW2 6909   5.997   6.846   3.449
 2004SOL     OW 6910   5.236   1.364   5.222
 2004SOL    HW1 6911   5.170   1.381   5.296
 2004SOL    HW2 6912   5.241   1.444   5.163
 2005SOL     OW 6913   1.105   5.355   6.423
 2005SOL    HW1 6914   1.050   5.289   6.473
 2005SOL    HW2 6915   1.051   5.438   6.407
 2006SOL     OW 6916   5.298   4.362   4.717
 2006SOL    HW1 6917   5.303   4.289   4.785
 2006SOL    HW2 6918   5.368   4.348   4.647
 2007SOL     OW 6919   3.569   5.152   1.167
 2007SOL    HW1 6920   3.569   5.073   1.229
 2007SOL    HW2 6921   3.663   5.185   1.155
 2008SOL     OW 6922   0.790   6.229   3.256
 2008SOL    HW1 6923   0.808   6.194   3.348
 2008SOL    HW2 6924   0.850   6.308   3.238
 2009SOL     OW 6925   6.358   7.007   1.276
 2009SOL    HW1 6926   6.277   6.974   1.325
 2009SOL    HW2 6927   6.427   6.933   1.273
 2010SOL     OW 6928   1.638   1.326   1.390
 2010SOL    HW1 6929   1.685   1.372   1.465
 2010SOL    HW2 6930   1.701   1.312   1.314
 2011SOL     OW 6931   6.948   1.927   5.258
 2011SOL    HW1 6932   6.977   1.977   5.177
 2011SOL    HW2 6933   6.855   1.955   5.283
 2012SOL     OW 6934   0.875   3.134   1.565
 2012SOL    HW1 6935   0.853   3.220   1.610
 2012SOL    HW2 6936   0.897   3.152   1.469
 2013SOL     OW 6937   5.867   0.601   3.561
 2013SOL    HW1 6938   5.889   0.571   3.468
 2013SOL    HW2 6939   5.940   0.572   3.623
 2014SOL     OW 6940   1.908   5.277   2.860
 2014SOL    HW1 6941   1.828   5.274   2.920
 2014SOL    HW2 6942   1.974   5.344   2.895
 2015SOL     OW 6943   2.377   1.953   6.583
 2015SOL    HW1 6944   2.330   1.970   6.669
 2015SOL    HW2 6945   2.335   2.006   6.510
 2016SOL     OW 6946   1.346   5.307   5.274
 2016SOL    HW1 6947   1.298   5.248   5.339
 2016SOL    HW2 6948   1.322   5.403   5.292
 2017SOL     OW 6949   2.748   6.666   4.538
 2017SOL    HW1 6950   2.681   6.653   4.465
 2017SOL    HW2 6951   2.809   6.742   4.514
 2018SOL     OW 6952   5.915   6.913   6.226
 2018SOL    HW1 6953   5.919   6.818   6.256
 2018SOL    HW2 6954   5.990   6.933   6.163
 2019SOL     OW 6955   4.738   2.438   2.274
 2019SOL    HW1 6956   4.711   2.359   2.219
 2019SOL    HW2 6957   4.838   2.442   2.281
 2020SOL     OW 6958   1.079   5.295   5.636
 2020SOL    HW1 6959   1.119   5.247   5.558
 2020SOL    HW2 6960   1.110   5.253   5.721
 2021SOL     OW 6961   2.104   5.535   3.791
 2021SOL    HW1 6962   2.064   5.584   3.868
 2021SOL    HW2 6963   2.059   5.447   3.780
 2022SOL     OW 6964   1.854   3.256   2.348
 2022SOL    HW1 6965   1.803   3.312   2.282
 2022SOL    HW2 6966   1.798   3.177   2.374
 2023SOL     OW 6967   6.040   1.502   7.019
 2023SOL    HW1 6968   6.011   1.598   0.000
 2023SOL    HW2 6969   6.019   1.463   6.929
 2024SOL     OW 6970   0.169   0.384   2.743
 2024SOL    HW1 6971   0.111   0.345   2.814
 2024SOL    HW2 6972   0.126   0.369   2.653
 2025SOL     OW 6973   2.185   2.963   1.999
 2025SOL    HW1 6974   2.179   3.062   1.988
 2025SOL    HW2 6975   2.094   2.923   2.004
 2026SOL     OW 6976   1.105   2.409   6.211
 2026SOL    HW1 6977   1.132   2.476   6.141
 2026SOL    HW2 6978   1.018   2.367   6.184
 2027SOL     OW 6979   0.979   1.257   1.041
 2027SOL    HW1 6980   1.071   1.242   1.006
 2027SOL    HW2 6981   0.959   1.355   1.042
 2028SOL     OW 6982   3.111   1.035   6.117
 2028SOL    HW1 6983   3.108   1.128   6.153
 2028SOL    HW2 6984   3.039   1.023   6.049
 2029SOL     OW 6985   6.871   0.813   0.593
 2029SOL    HW1 6986   6.918   0.768   0.669
 2029SOL    HW2 6987   6.788   0.762   0.569
 2030SOL     OW 6988   2.682   0.589   3.885
 2030SOL    HW1 6989   2.740   0.549   3.955
 2030SOL    HW2 6990   2.735   0.651   3.828
 2031SOL     OW 6991   5.299   6.323   2.529
 2031SOL    HW1 6992   5.327   6.247   2.587
 2031SOL    HW2 6993   5.246   6.288   2.452
 2032SOL     OW 6994   3.798   6.542   2.155
 2032SOL    HW1 6995   3.835   6.453   2.130
 2032SOL    HW2 6996   3.873   6.602   2.184
 2033SOL     OW 6997   3.656   4.287   6.798
 2033SOL    HW1 6998   3.716   4.207   6.797
 2033SOL    HW2 6999   3.703   4.363   6.843
 2034SOL     OW 7000   3.670   0.067   4.634
 2034SOL    HW1 7001   3.584   0.067   4.583
 2034SOL    HW2 7002   3.710   6.996   4.632
 2035SOL     OW 7003   6.843   0.844   2.012
 2035SOL    HW1 7004   6.922   0.885   1.968
 2035SOL    HW2 7005   6.766   0.840   1.948
 2036SOL     OW 7006   0.948   5.620   3.086
 2036SOL    HW1 7007   0.872   5.565   3.051
 2036SOL    HW2 7008   0.974   5.687   3.016
 2037SOL     OW 7009   0.836   3.007   5.993
 2037SOL    HW1 7010   0.907   2.983   5.927
 2037SOL    HW2 7011   0.776   3.077   5.954
 2038SOL     OW 7012   1.574   2.091   6.362
 2038SOL    HW1 7013   1.592   2.172   6.418
 2038SOL    HW2 7014   1.548   2.119   6.270
 2039SOL     OW 7015   0.291   5.443   2.428
 2039SOL    HW1 7016   0.242   5.447   2.341
 2039SOL    HW2 7017   0.261   5.519   2.486
 2040SOL     OW 7018   3.457   3.448   5.064
 2040SOL    HW1 7019   3.552   3.417   5.074
 2040SOL    HW2 7020   3.395   3.372   5.084
 2041SOL     OW 7021   6.964   5.955   5.462
 2041SOL    HW1 7022   6.945   5.979   5.557
 2041SOL    HW2 7023   0.007   6.022   5.423
 2042SOL     OW 7024   5.326   5.088   6.958
 2042SOL    HW1 7025   5.381   5.171   6.947
 2042SOL    HW2 7026   5.333   5.032   6.876
 2043SOL     OW 7027   6.471   4.379   2.443
 2043SOL    HW1 7028   6.450   4.292   2.398
 2043SOL    HW2 7029   6.570   4.394   2.440
 2044SOL     OW 7030   4.930   0.402   1.939
 2044SOL    HW1 7031   4.938   0.309   1.905
 2044SOL    HW2 7032   5.008   0.456   1.904
 2045SOL     OW 7033   2.143   4.802   4.549
 2045SOL    HW1 7034   2.157   4.731   4.618
 2045SOL    HW2 7035   2.204   4.785   4.472
 2046SOL     OW 7036   0.375   0.951   4.611
 2046SOL    HW1 7037   0.460   0.973   4.659
 2046SOL    HW2 7038   0.393   0.881   4.542
 2047SOL     OW 7039   4.790   2.017   0.201
 2047SOL    HW1 7040   4.758   2.109   0.179
 2047SOL    HW2 7041   4.812   2.012   0.299
 2048SOL     OW 7042   2.165   5.878   0.691
 2048SOL    HW1 7043   2.159   5.880   0.790
 2048SOL    HW2 7044   2.147   5.786   0.658
 2049SOL     OW 7045   4.590   1.515   6.546
 2049SOL    HW1 7046   4.625   1.575   6.474
 2049SOL    HW2 7047   4.490   1.510   6.539
 2050SOL     OW 7048   0.225   2.616   2.472
 2050SOL    HW1 7049   0.317   2.655   2.468
 2050SOL    HW2 7050   0.204   2.589   2.566
 2051SOL     OW 7051   0.670   5.813   0.902
 2051SOL    HW1 7052   0.573   5.826   0.919
 2051SOL    HW2 7053   0.692   5.715   0.911
 2052SOL     OW 7054   0.292   4.366   0.370
 2052SOL    HW1 7055   0.300   4.275   0.328
 2052SOL    HW2 7056   0.199   4.379   0.404
 2053SOL     OW 7057   5.786   0.558   5.668
 2053SOL    HW1 7058   5.701   0.611   5.667
 2053SOL    HW2 7059   5.842   0.584   5.589
 2054SOL     OW 7060   4.161   2.755   1.575
 2054SOL    HW1 7061   4.110   2.729   1.493
 2054SOL    HW2 7062   4.189   2.673   1.624
 2055SOL     OW 7063   6.065   3.322   3.146
 2055SOL    HW1 7064   6.036   3.308   3.052
 2055SOL    HW2 7065   6.147   3.268   3.165
 2056SOL     OW 7066   2.449   0.496   3.167
 2056SOL    HW1 7067   2.383   0.566   3.196
 2056SOL    HW2 7068   2.468   0.435   3.244
 2057SOL     OW 7069   5.413   2.890   3.478
 2057SOL    HW1 7070   5.386   2.890   3.382
 2057SOL    HW2 7071   5.367   2.966   3.525
 2058SOL     OW 7072   1.328   1.857   3.241
 2058SOL    HW1 7073   1.299   1.828   3.150
 2058SOL    HW2 7074   1.428   1.860   3.245
 2059SOL     OW 7075   2.376   5.949   6.192
 2059SOL    HW1 7076   2.336   5.920   6.279
 2059SOL    HW2 7077   2.315   5.923   6.117
 2060SOL     OW 7078   5.579   4.479   0.203
 2060SOL    HW1 7079   5.636   4.452   0.126
 2060SOL    HW2 7080   5.636   4.521   0.274
 2061SOL     OW 7081   0.729   1.624   3.102
 2061SOL    HW1 7082   0.757   1.719   3.114
 2061SOL    HW2 7083   0.731   1.576   3.190
 2062SOL     OW 7084   5.948   0.138   3.802
 2062SOL    HW1 7085   5.938   0.201   3.879
 2062SOL    HW2 7086   5.890   0.168   3.726
 2063SOL     OW 7087   1.778   0.587   6.185
 2063SOL    HW1 7088   1.808   0.583   6.280
 2063SOL    HW2 7089   1.787   0.496   6.143
 2064SOL     OW 7090   0.926   2.258   6.056
 2064SOL    HW1 7091   0.914   2.302   5.967
 2064SOL    HW2 7092   1.013   2.208   6.057
 2065SOL     OW 7093   6.956   3.134   3.748
 2065SOL    HW1 7094   6.948   3.045   3.793
 2065SOL    HW2 7095   0.001   3.191   3.797
 2066SOL     OW 7096   0.312   5.593   3.641
 2066SOL    HW1 7097   0.342   5.541   3.562
 2066SOL    HW2 7098   0.332   5.690   3.627
 2067SOL     OW 7099   6.951   5.856   1.000
 2067SOL    HW1 7100   6.882   5.900   0.944
 2067SOL    HW2 7101   6.921   5.763   1.024
 2068SOL     OW 7102   1.518   1.983   5.691
 2068SOL    HW1 7103   1.463   2.061   5.722
 2068SOL    HW2 7104   1.470   1.937   5.617
 2069SOL     OW 7105   1.337   2.789   3.352
 2069SOL    HW1 7106   1.248   2.803   3.394
 2069SOL    HW2 7107   1.408   2.788   3.423
 2070SOL     OW 7108   1.359   0.774   2.581
 2070SOL    HW1 7109   1.383   0.819   2.494
 2070SOL    HW2 7110   1.441   0.734   2.621
 2071SOL     OW 7111   6.122   5.888   5.451
 2071SOL    HW1 7112   6.023   5.890   5.467
 2071SOL    HW2 7113   6.167   5.847   5.530
 2072SOL     OW 7114   4.378   6.806   2.414
 2072SOL    HW1 7115   4.303   6.804   2.348
 2072SOL    HW2 7116   4.402   6.901   2.434
 2073SOL     OW 7117   4.050   6.960   4.526
 2073SOL    HW1 7118   4.109   6.905   4.467
 2073SOL    HW2 7119   3.954   6.947   4.500
 2074SOL     OW 7120   1.461   3.050   0.165
 2074SOL    HW1 7121   1.393   3.072   0.094
 2074SOL    HW2 7122   1.416   3.004   0.241
 2075SOL     OW 7123   5.472   2.856   1.436
 2075SOL    HW1 7124   5.419   2.786   1.387
 2075SOL    HW2 7125   5.416   2.895   1.509
 2076SOL     OW 7126   5.444   6.741   6.479
 2076SOL    HW1 7127   5.488   6.789   6.556
 2076SOL    HW2 7128   5.439   6.643   6.500
 2077SOL     OW 7129   5.603   2.678   2.626
 2077SOL    HW1 7130   5.578   2.600   2.684
 2077SOL    HW2 7131   5.702   2.683   2.619
 2078SOL     OW 7132   1.666   6.044   6.533
 2078SOL    HW1 7133   1.765   6.055   6.543
 2078SOL    HW2 7134   1.647   5.957   6.489
 2079SOL     OW 7135   5.844   1.204   3.319
 2079SOL    HW1 7136   5.842   1.258   3.403
 2079SOL    HW2 7137   5.833   1.107   3.342
 2080SOL     OW 7138   1.350   0.785   4.603
 2080SOL    HW1 7139   1.319   0.770   4.697
 2080SOL    HW2 7140   1.352   0.883   4.583
 2081SOL     OW 7141   1.742   5.512   4.293
 2081SOL    HW1 7142   1.824   5.556   4.332
 2081SOL    HW2 7143   1.748   5.513   4.194
 2082SOL     OW 7144   0.052   0.002   2.998
 2082SOL    HW1 7145   7.001   6.966   3.037
 2082SOL    HW2 7146   0.131   0.003   3.059
 2083SOL     OW 7147   5.407   5.094   6.276
 2083SOL    HW1 7148   5.310   5.111   6.260
 2083SOL    HW2 7149   5.461   5.170   6.240
 2084SOL     OW 7150   0.820   3.586   4.212
 2084SOL    HW1 7151   0.779   3.496   4.227
 2084SOL    HW2 7152   0.810   3.641   4.295
 2085SOL     OW 7153   4.657   0.583   6.726
 2085SOL    HW1 7154   4.563   0.614   6.716
 2085SOL    HW2 7155   4.716   0.636   6.664
 2086SOL     OW 7156   4.194   6.610   6.007
 2086SOL    HW1 7157   4.273   6.566   6.049
 2086SOL    HW2 7158   4.129   6.636   6.078
 2087SOL     OW 7159   5.128   0.333   1.664
 2087SOL    HW1 7160   5.225   0.352   1.676
 2087SOL    HW2 7161   5.105   0.246   1.708
 2088SOL     OW 7162   2.938   6.327   0.783
 2088SOL    HW1 7163   2.962   6.424   0.791
 2088SOL    HW2 7164   2.953   6.282   0.870
 2089SOL     OW 7165   5.314   2.239   6.336
 2089SOL    HW1 7166   5.303   2.140   6.343
 2089SOL    HW2 7167   5.370   2.260   6.256
 2090SOL     OW 7168   3.569   3.007   5.571
 2090SOL    HW1 7169   3.606   2.964   5.653
 2090SOL    HW2 7170   3.575   2.943   5.494
 2091SOL     OW 7171   0.166   5.328   0.647
 2091SOL    HW1 7172   0.119   5.391   0.709
 2091SOL    HW2 7173   0.263   5.325   0.670
 2092SOL     OW 7174   4.941   4.368   6.721
 2092SOL    HW1 7175   4.982   4.450   6.760
 2092SOL    HW2 7176   4.864   4.340   6.778
 2093SOL     OW 7177   2.404   2.259   1.076
 2093SOL    HW1 7178   2.479   2.203   1.113
 2093SOL    HW2 7179   2.364   2.314   1.150
 2094SOL     OW 7180   5.688   1.437   1.220
 2094SOL    HW1 7181   5.626   1.495   1.272
 2094SOL    HW2 7182   5.639   1.357   1.185
 2095SOL     OW 7183   5.583   0.617   5.065
 2095SOL    HW1 7184   5.664   0.671   5.039
 2095SOL    HW2 7185   5.509   0.637   5.001
 2096SOL     OW 7186   5.088   4.001   3.466
 2096SOL    HW1 7187   4.990   3.992   3.483
 2096SOL    HW2 7188   5.136   3.922   3.505
 2097SOL     OW 7189   2.427   3.156   6.487
 2097SOL    HW1 7190   2.526   3.159   6.502
 2097SOL    HW2 7191   2.381   3.129   6.572
 2098SOL     OW 7192   4.379   5.884   3.039
 2098SOL    HW1 7193   4.287   5.897   3.003
 2098SOL    HW2 7194   4.391   5.790   3.069
 2099SOL     OW 7195   2.723   3.506   5.620
 2099SOL    HW1 7196   2.796   3.439   5.615
 2099SOL    HW2 7197   2.662   3.495   5.541
 2100SOL     OW 7198   4.685   3.315   5.646
 2100SOL    HW1 7199   4.775   3.342   5.612
 2100SOL    HW2 7200   4.694   3.283   5.740
 2101SOL     OW 7201   1.438   6.342   2.278
 2101SOL    HW1 7202   1.531   6.326   2.244
 2101SOL    HW2 7203   1.442   6.365   2.376
 2102SOL     OW 7204   6.249   5.076   1.795
 2102SOL    HW1 7205   6.248   5.167   1.752
 2102SOL    HW2 7206   6.160   5.057   1.834
 2103SOL     OW 7207   3.638   4.300   5.843
 2103SOL    HW1 7208   3.552   4.290   5.792
 2103SOL    HW2 7209   3.675   4.391   5.829
 2104SOL     OW 7210   1.269   3.283   0.989
 2104SOL    HW1 7211   1.327   3.362   0.965
 2104SOL    HW2 7212   1.326   3.213   1.032
 2105SOL     OW 7213   5.579   6.131   5.144
 2105SOL    HW1 7214   5.601   6.118   5.241
 2105SOL    HW2 7215   5.594   6.045   5.095
 2106SOL     OW 7216   4.835   4.230   1.392
 2106SOL    HW1 7217   4.863   4.194   1.481
 2106SOL    HW2 7218   4.737   4.214   1.378
 2107SOL     OW 7219   5.356   2.621   5.368
 2107SOL    HW1 7220   5.277   2.644   5.312
 2107SOL    HW2 7221   5.388   2.529   5.345
 2108SOL     OW 7222   6.672   6.254   5.060
 2108SOL    HW1 7223   6.625   6.170   5.088
 2108SOL    HW2 7224   6.765   6.231   5.031
 2109SOL     OW 7225   4.322   6.105   2.580
 2109SOL    HW1 7226   4.287   6.045   2.507
 2109SOL    HW2 7227   4.420   6.119   2.567
 2110SOL     OW 7228   3.092   1.840   6.752
 2110SOL    HW1 7229   3.150   1.850   6.671
 2110SOL    HW2 7230   2.996   1.836   6.724
 2111SOL     OW 7231   1.094   2.759   6.879
 2111SOL    HW1 7232   1.128   2.837   6.828
 2111SOL    HW2 7233   0.998   2.774   6.904
 2112SOL     OW 7234   5.078   3.012   6.831
 2112SOL    HW1 7235   5.005   3.076   6.853
 2112SOL    HW2 7236   5.049   2.955   6.754
 2113SOL     OW 7237   1.415   1.522   5.195
 2113SOL    HW1 7238   1.318   1.513   5.173
 2113SOL    HW2 7239   1.463   1.564   5.119
 2114SOL     OW 7240   1.130   2.738   0.382
 2114SOL    HW1 7241   1.030   2.729   0.373
 2114SOL    HW2 7242   1.165   2.660   0.433
 2115SOL     OW 7243   2.141   3.537   2.727
 2115SOL    HW1 7244   2.145   3.442   2.758
 2115SOL    HW2 7245   2.135   3.540   2.628
 2116SOL     OW 7246   6.655   4.886   2.909
 2116SOL    HW1 7247   6.699   4.933   2.832
 2116SOL    HW2 7248   6.663   4.942   2.991
 2117SOL     OW 7249   6.435   4.742   1.871
 2117SOL    HW1 7250   6.438   4.750   1.771
 2117SOL    HW2 7251   6.340   4.735   1.901
 2118SOL     OW 7252   6.060   3.663   1.679
 2118SOL    HW1 7253   6.102   3.692   1.593
 2118SOL    HW2 7254   6.030   3.744   1.730
 2119SOL     OW 7255   2.137   6.094   1.187
 2119SOL    HW1 7256   2.174   6.172   1.137
 2119SOL    HW2 7257   2.047   6.116   1.223
 2120SOL     OW 7258   0.122   5.072   3.683
 2120SOL    HW1 7259   0.065   5.127   3.622
 2120SOL    HW2 7260   0.077   4.986   3.703
 2121SOL     OW 7261   0.991   3.568   6.087
 2121SOL    HW1 7262   0.972   3.617   6.173
 2121SOL    HW2 7263   0.968   3.627   6.010
 2122SOL     OW 7264   5.746   4.303   6.060
 2122SOL    HW1 7265   5.784   4.279   5.971
 2122SOL    HW2 7266   5.652   4.333   6.049
 2123SOL     OW 7267   6.324   6.093   2.156
 2123SOL    HW1 7268   6.319   6.179   2.105
 2123SOL    HW2 7269   6.385   6.030   2.109
 2124SOL     OW 7270   2.457   1.746   1.784
 2124SOL    HW1 7271   2.554   1.745   1.762
 2124SOL    HW2 7272   2.426   1.841   1.794
 2125SOL     OW 7273   2.181   0.952   1.905
 2125SOL    HW1 7274   2.245   0.893   1.856
 2125SOL    HW2 7275   2.147   0.905   1.986
 2126SOL     OW 7276   3.623   1.234   6.386
 2126SOL    HW1 7277   3.715   1.195   6.382
 2126SOL    HW2 7278   3.606   1.269   6.478
 2127SOL     OW 7279   6.866   3.326   4.221
 2127SOL    HW1 7280   6.847   3.423   4.234
 2127SOL    HW2 7281   6.810   3.273   4.285
 2128SOL     OW 7282   6.913   2.880   3.363
 2128SOL    HW1 7283   6.977   2.933   3.418
 2128SOL    HW2 7284   6.841   2.940   3.328
 2129SOL     OW 7285   4.267   3.685   5.672
 2129SOL    HW1 7286   4.252   3.616   5.602
 2129SOL    HW2 7287   4.361   3.719   5.666
 2130SOL     OW 7288   3.550   0.789   1.750
 2130SOL    HW1 7289   3.564   0.858   1.679
 2130SOL    HW2 7290   3.587   0.823   1.837
 2131SOL     OW 7291   6.548   0.454   0.447
 2131SOL    HW1 7292   6.613   0.416   0.381
 2131SOL    HW2 7293   6.474   0.389   0.462
 2132SOL     OW 7294   3.275   1.571   1.778
 2132SOL    HW1 7295   3.333   1.511   1.832
 2132SOL    HW2 7296   3.309   1.577   1.684
 2133SOL     OW 7297   3.291   3.093   0.234
 2133SOL    HW1 7298   3.331   3.134   0.152
 2133SOL    HW2 7299   3.193   3.078   0.220
 2134SOL     OW 7300   6.993   2.099   6.850
 2134SOL    HW1 7301   6.933   2.062   6.921
 2134SOL    HW2 7302   6.970   2.195   6.834
 2135SOL     OW 7303   0.753   3.273   4.524
 2135SOL    HW1 7304   0.733   3.337   4.598
 2135SOL    HW2 7305   0.667   3.242   4.482
 2136SOL     OW 7306   1.433   3.679   2.761
 2136SOL    HW1 7307   1.520   3.712   2.724
 2136SOL    HW2 7308   1.445   3.650   2.855
 2137SOL     OW 7309   2.177   5.551   5.157
 2137SOL    HW1 7310   2.263   5.511   5.188
 2137SOL    HW2 7311   2.191   5.647   5.133
 2138SOL     OW 7312   6.532   6.844   3.052
 2138SOL    HW1 7313   6.579   6.756   3.063
 2138SOL    HW2 7314   6.594   6.918   3.078
 2139SOL     OW 7315   4.699   0.919   3.737
 2139SOL    HW1 7316   4.622   0.859   3.754
 2139SOL    HW2 7317   4.758   0.880   3.666
 2140SOL     OW 7318   3.315   6.736   3.960
 2140SOL    HW1 7319   3.296   6.723   4.057
 2140SOL    HW2 7320   3.397   6.685   3.934
 2141SOL     OW 7321   6.511   3.201   1.744
 2141SOL    HW1 7322   6.601   3.235   1.717
 2141SOL    HW2 7323   6.506   3.193   1.844
 2142SOL     OW 7324   1.983   1.299   3.032
 2142SOL    HW1 7325   1.983   1.342   3.122
 2142SOL    HW2 7326   2.027   1.359   2.965
 2143SOL     OW 7327   3.205   4.443   1.644
 2143SOL    HW1 7328   3.265   4.517   1.616
 2143SOL    HW2 7329   3.129   4.434   1.579
 2144SOL     OW 7330   0.828   5.553   4.100
 2144SOL    HW1 7331   0.757   5.482   4.100
 2144SOL    HW2 7332   0.916   5.513   4.075
 2145SOL     OW 7333   4.163   6.635   4.337
 2145SOL    HW1 7334   4.178   6.729   4.306
 2145SOL    HW2 7335   4.214   6.572   4.279
 2146SOL     OW 7336   2.285   3.816   1.471
 2146SOL    HW1 7337   2.319   3.821   1.565
 2146SOL    HW2 7338   2.358   3.786   1.410
 2147SOL     OW 7339   6.598   1.402   5.574
 2147SOL    HW1 7340   6.518   1.419   5.516
 2147SOL    HW2 7341   6.569   1.353   5.657
 2148SOL     OW 7342   6.281   3.331   5.873
 2148SOL    HW1 7343   6.248   3.247   5.831
 2148SOL    HW2 7344   6.223   3.408   5.846
 2149SOL     OW 7345   2.958   1.682   1.155
 2149SOL    HW1 7346   2.991   1.618   1.086
 2149SOL    HW2 7347   3.002   1.771   1.142
 2150SOL     OW 7348   2.309   2.586   2.136
 2150SOL    HW1 7349   2.407   2.586   2.153
 2150SOL    HW2 7350   2.268   2.503   2.176
 2151SOL     OW 7351   1.730   6.929   5.546
 2151SOL    HW1 7352   1.691   6.942   5.637
 2151SOL    HW2 7353   1.726   7.015   5.495
 2152SOL     OW 7354   3.025   5.310   2.014
 2152SOL    HW1 7355   3.111   5.350   2.044
 2152SOL    HW2 7356   2.950   5.374   2.030
 2153SOL     OW 7357   4.693   1.787   3.099
 2153SOL    HW1 7358   4.602   1.823   3.077
 2153SOL    HW2 7359   4.745   1.774   3.014
 2154SOL     OW 7360   5.357   1.364   4.872
 2154SOL    HW1 7361   5.363   1.279   4.925
 2154SOL    HW2 7362   5.284   1.421   4.909
 2155SOL     OW 7363   3.496   6.230   0.817
 2155SOL    HW1 7364   3.526   6.145   0.860
 2155SOL    HW2 7365   3.403   6.251   0.847
 2156SOL     OW 7366   1.215   2.160   5.010
 2156SOL    HW1 7367   1.162   2.103   5.072
 2156SOL    HW2 7368   1.175   2.252   5.007
 2157SOL     OW 7369   5.968   0.273   3.265
 2157SOL    HW1 7370   5.939   0.180   3.242
 2157SOL    HW2 7371   6.063   0.287   3.235
 2158SOL     OW 7372   3.603   5.829   0.715
 2158SOL    HW1 7373   3.658   5.839   0.631
 2158SOL    HW2 7374   3.631   5.745   0.762
 2159SOL     OW 7375   1.376   6.768   4.958
 2159SOL    HW1 7376   1.426   6.752   5.043
 2159SOL    HW2 7377   1.324   6.686   4.934
 2160SOL     OW 7378   4.592   3.990   6.834
 2160SOL    HW1 7379   4.683   3.986   6.875
 2160SOL    HW2 7380   4.531   3.926   6.881
 2161SOL     OW 7381   5.546   4.916   2.449
 2161SOL    HW1 7382   5.600   4.862   2.514
 2161SOL    HW2 7383   5.485   4.856   2.399
 2162SOL     OW 7384   3.552   6.965   2.316
 2162SOL    HW1 7385   3.528   6.883   2.265
 2162SOL    HW2 7386   3.609   0.003   2.259
 2163SOL     OW 7387   1.618   4.545   6.611
 2163SOL    HW1 7388   1.639   4.458   6.566
 2163SOL    HW2 7389   1.703   4.589   6.640
 2164SOL     OW 7390   1.935   2.444   6.330
 2164SOL    HW1 7391   1.982   2.364   6.293
 2164SOL    HW2 7392   1.968   2.526   6.284
 2165SOL     OW 7393   0.003   2.417   2.985
 2165SOL    HW1 7394   0.043   2.423   3.077
 2165SOL    HW2 7395   0.009   2.323   2.952
 2166SOL     OW 7396   1.257   2.672   4.985
 2166SOL    HW1 7397   1.341   2.655   4.932
 2166SOL    HW2 7398   1.281   2.723   5.067
 2167SOL     OW 7399   1.433   2.431   3.331
 2167SOL    HW1 7400   1.457   2.335   3.342
 2167SOL    HW2 7401   1.510   2.482   3.292
 2168SOL     OW 7402   0.756   2.381   3.513
 2168SOL    HW1 7403   0.684   2.450   3.506
 2168SOL    HW2 7404   0.844   2.422   3.489
 2169SOL     OW 7405   5.490   1.933   6.849
 2169SOL    HW1 7406   5.565   1.885   6.894
 2169SOL    HW2 7407   5.440   1.868   6.791
 2170SOL     OW 7408   6.779   3.890   4.946
 2170SOL    HW1 7409   6.756   3.833   4.868
 2170SOL    HW2 7410   6.848   3.957   4.919
 2171SOL     OW 7411   6.840   5.242   1.313
 2171SOL    HW1 7412   6.893   5.306   1.368
 2171SOL    HW2 7413   6.782   5.294   1.249
 2172SOL     OW 7414   1.888   2.007   6.318
 2172SOL    HW1 7415   1.951   1.929   6.309
 2172SOL    HW2 7416   1.795   1.973   6.333
 2173SOL     OW 7417   3.997   0.803   5.152
 2173SOL    HW1 7418   4.082   0.838   5.113
 2173SOL    HW2 7419   3.987   0.706   5.129
 2174SOL     OW 7420   6.004   6.049   4.788
 2174SOL    HW1 7421   5.978   5.966   4.838
 2174SOL    HW2 7422   6.068   6.102   4.843
 2175SOL     OW 7423   1.876   2.692   5.002
 2175SOL    HW1 7424   1.957   2.707   5.059
 2175SOL    HW2 7425   1.857   2.594   4.995
 2176SOL     OW 7426   5.772   1.808   0.472
 2176SOL    HW1 7427   5.789   1.753   0.391
 2176SOL    HW2 7428   5.720   1.889   0.447
 2177SOL     OW 7429   6.841   1.945   3.665
 2177SOL    HW1 7430   6.930   1.926   3.625
 2177SOL    HW2 7431   6.822   2.043   3.660
 2178SOL     OW 7432   2.349   1.999   1.755
 2178SOL    HW1 7433   2.294   2.054   1.819
 2178SOL    HW2 7434   2.323   2.022   1.661
 2179SOL     OW 7435   1.962   5.115   5.342
 2179SOL    HW1 7436   1.987   5.043   5.277
 2179SOL    HW2 7437   1.984   5.204   5.303
 2180SOL     OW 7438   2.030   2.129   2.311
 2180SOL    HW1 7439   2.088   2.086   2.242
 2180SOL    HW2 7440   2.083   2.148   2.393
 2181SOL     OW 7441   4.895   4.559   4.832
 2181SOL    HW1 7442   4.823   4.628   4.827
 2181SOL    HW2 7443   4.914   4.525   4.740
 2182SOL     OW 7444   1.704   4.063   3.865
 2182SOL    HW1 7445   1.671   3.969   3.876
 2182SOL    HW2 7446   1.697   4.089   3.769
 2183SOL     OW 7447   2.167   4.698   6.225
 2183SOL    HW1 7448   2.183   4.601   6.245
 2183SOL    HW2 7449   2.137   4.707   6.130
 2184SOL     OW 7450   3.863   1.110   6.061
 2184SOL    HW1 7451   3.787   1.174   6.055
 2184SOL    HW2 7452   3.930   1.130   5.989
 2185SOL     OW 7453   0.641   0.187   1.295
 2185SOL    HW1 7454   0.566   0.241   1.330
 2185SOL    HW2 7455   0.696   0.151   1.371
 2186SOL     OW 7456   6.979   5.916   1.260
 2186SOL    HW1 7457   6.947   5.836   1.309
 2186SOL    HW2 7458   6.980   5.897   1.162
 2187SOL     OW 7459   6.445   6.266   2.883
 2187SOL    HW1 7460   6.527   6.221   2.847
 2187SOL    HW2 7461   6.443   6.361   2.853
 2188SOL     OW 7462   6.853   5.650   4.203
 2188SOL    HW1 7463   6.941   5.625   4.243
 2188SOL    HW2 7464   6.851   5.621   4.107
 2189SOL     OW 7465   2.271   6.814   0.870
 2189SOL    HW1 7466   2.176   6.811   0.839
 2189SOL    HW2 7467   2.305   6.721   0.885
 2190SOL     OW 7468   0.493   3.381   1.888
 2190SOL    HW1 7469   0.452   3.354   1.801
 2190SOL    HW2 7470   0.586   3.345   1.894
 2191SOL     OW 7471   2.779   1.518   6.466
 2191SOL    HW1 7472   2.695   1.466   6.476
 2191SOL    HW2 7473   2.758   1.615   6.460
 2192SOL     OW 7474   5.030   0.797   2.503
 2192SOL    HW1 7475   5.062   0.874   2.448
 2192SOL    HW2 7476   5.063   0.712   2.462
 2193SOL     OW 7477   5.276   5.730   0.076
 2193SOL    HW1 7478   5.207   5.802   0.064
 2193SOL    HW2 7479   5.233   5.641   0.069
 2194SOL     OW 7480   2.298   4.692   5.641
 2194SOL    HW1 7481   2.365   4.765   5.646
 2194SOL    HW2 7482   2.292   4.658   5.547
 2195SOL     OW 7483   0.350   0.238   5.062
 2195SOL    HW1 7484   0.393   0.280   4.981
 2195SOL    HW2 7485   0.250   0.238   5.049
 2196SOL     OW 7486   4.011   0.335   4.678
 2196SOL    HW1 7487   3.923   0.308   4.718
 2196SOL    HW2 7488   4.025   0.433   4.691
 2197SOL     OW 7489   2.557   3.544   0.548
 2197SOL    HW1 7490   2.568   3.593   0.635
 2197SOL    HW2 7491   2.582   3.448   0.562
 2198SOL     OW 7492   5.478   0.398   0.403
 2198SOL    HW1 7493   5.521   0.344   0.475
 2198SOL    HW2 7494   5.427   0.338   0.341
 2199SOL     OW 7495   5.068   0.351   2.979
 2199SOL    HW1 7496   5.027   0.435   3.014
 2199SOL    HW2 7497   5.166   0.351   2.998
 2200SOL     OW 7498   2.538   2.140   4.490
 2200SOL    HW1 7499   2.599   2.194   4.548
 2200SOL    HW2 7500   2.540   2.177   4.397
 2201SOL     OW 7501   6.817   2.636   2.965
 2201SOL    HW1 7502   6.878   2.568   2.923
 2201SOL    HW2 7503   6.823   2.630   3.064
 2202SOL     OW 7504   3.109   5.563   2.357
 2202SOL    HW1 7505   3.141   5.526   2.270
 2202SOL    HW2 7506   3.027   5.513   2.386
 2203SOL     OW 7507   1.584   2.815   0.527
 2203SOL    HW1 7508   1.583   2.749   0.452
 2203SOL    HW2 7509   1.647   2.784   0.598
 2204SOL     OW 7510   4.533   1.900   1.376
 2204SOL    HW1 7511   4.609   1.835   1.378
 2204SOL    HW2 7512   4.501   1.917   1.470
 2205SOL     OW 7513   0.720   6.855   6.081
 2205SOL    HW1 7514   0.792   6.918   6.052
 2205SOL    HW2 7515   0.754   6.797   6.155
 2206SOL     OW 7516   3.644   5.096   6.315
 2206SOL    HW1 7517   3.603   5.082   6.405
 2206SOL    HW2 7518   3.743   5.102   6.324
 2207SOL     OW 7519   3.050   4.749   6.489
 2207SOL    HW1 7520   3.099   4.819   6.542
 2207SOL    HW2 7521   3.030   4.671   6.548
 2208SOL     OW 7522   1.515   5.789   3.076
 2208SOL    HW1 7523   1.455   5.867   3.096
 2208SOL    HW2 7524   1.586   5.783   3.146
 2209SOL     OW 7525   1.520   6.557   5.498
 2209SOL    HW1 7526   1.545   6.551   5.402
 2209SOL    HW2 7527   1.480   6.647   5.516
 2210SOL     OW 7528   0.067   5.007   4.441
 2210SOL    HW1 7529   0.069   4.953   4.524
 2210SOL    HW2 7530   0.159   5.014   4.403
 2211SOL     OW 7531   6.451   0.089   0.704
 2211SOL    HW1 7532   6.504   0.134   0.776
 2211SOL    HW2 7533   6.494   0.001   0.682
 2212SOL     OW 7534   2.454   5.849   6.905
 2212SOL    HW1 7535   2.428   5.877   6.997
 2212SOL    HW2 7536   2.411   5.910   6.838
 2213SOL     OW 7537   2.756   1.762   5.472
 2213SOL    HW1 7538   2.841   1.723   5.508
 2213SOL    HW2 7539   2.714   1.697   5.409
 2214SOL     OW 7540   3.639   3.603   5.473
 2214SOL    HW1 7541   3.712   3.649   5.422
 2214SOL    HW2 7542   3.590   3.669   5.528
 2215SOL     OW 7543   6.266   1.008   0.110
 2215SOL    HW1 7544   6.313   1.073   0.051
 2215SOL    HW2 7545   6.184   1.052   0.149
 2216SOL     OW 7546   1.975   1.038   6.205
 2216SOL    HW1 7547   2.035   1.047   6.126
 2216SOL    HW2 7548   1.984   1.119   6.263
 2217SOL     OW 7549   3.895   6.901   2.193
 2217SOL    HW1 7550   3.817   6.908   2.256
 2217SOL    HW2 7551   3.871   6.945   2.106
 2218SOL     OW 7552   6.856   5.542   6.659
 2218SOL    HW1 7553   6.933   5.601   6.635
 2218SOL    HW2 7554   6.771   5.594   6.655
 2219SOL     OW 7555   5.407   1.771   1.183
 2219SOL    HW1 7556   5.419   1.870   1.196
 2219SOL    HW2 7557   5.324   1.741   1.231
 2220SOL     OW 7558   2.155   6.878   5.023
 2220SOL    HW1 7559   2.178   6.848   4.931
 2220SOL    HW2 7560   2.208   6.826   5.090
 2221SOL     OW 7561   6.375   1.450   5.409
 2221SOL    HW1 7562   6.310   1.521   5.437
 2221SOL    HW2 7563   6.335   1.395   5.336
 2222SOL     OW 7564   5.108   0.941   0.030
 2222SOL    HW1 7565   5.138   0.998   0.107
 2222SOL    HW2 7566   5.029   0.886   0.057
 2223SOL     OW 7567   5.776   1.391   5.122
 2223SOL    HW1 7568   5.871   1.418   5.107
 2223SOL    HW2 7569   5.715   1.454   5.073
 2224SOL     OW 7570   0.288   3.501   0.861
 2224SOL    HW1 7571   0.256   3.586   0.903
 2224SOL    HW2 7572   0.359   3.460   0.919
 2225SOL     OW 7573   6.622   6.898   3.820
 2225SOL    HW1 7574   6.694   6.940   3.765
 2225SOL    HW2 7575   6.590   6.814   3.776
 2226SOL     OW 7576   3.076   5.226   1.069
 2226SOL    HW1 7577   3.169   5.220   1.107
 2226SOL    HW2 7578   3.011   5.243   1.142
 2227SOL     OW 7579   5.207   3.408   6.769
 2227SOL    HW1 7580   5.140   3.421   6.696
 2227SOL    HW2 7581   5.160   3.413   6.858
 2228SOL     OW 7582   3.641   4.866   1.145
 2228SOL    HW1 7583   3.690   4.781   1.125
 2228SOL    HW2 7584   3.548   4.859   1.108
 2229SOL     OW 7585   4.503   2.824   5.436
 2229SOL    HW1 7586   4.536   2.891   5.369
 2229SOL    HW2 7587   4.408   2.801   5.416
 2230SOL     OW 7588   5.311   6.522   0.218
 2230SOL    HW1 7589   5.339   6.485   0.130
 2230SOL    HW2 7590   5.355   6.470   0.292
 2231SOL     OW 7591   0.518   0.504   1.735
 2231SOL    HW1 7592   0.463   0.427   1.766
 2231SOL    HW2 7593   0.570   0.479   1.654
 2232SOL     OW 7594   0.944   2.655   5.003
 2232SOL    HW1 7595   0.990   2.616   4.923
 2232SOL    HW2 7596   0.955   2.755   5.002
 2233SOL     OW 7597   1.725   3.583   0.190
 2233SOL    HW1 7598   1.740   3.669   0.141
 2233SOL    HW2 7599   1.627   3.572   0.208
 2234SOL     OW 7600   4.242   1.575   1.617
 2234SOL    HW1 7601   4.150   1.592   1.653
 2234SOL    HW2 7602   4.310   1.608   1.682
 2235SOL     OW 7603   2.634   6.818   1.364
 2235SOL    HW1 7604   2.728   6.819   1.398
 2235SOL    HW2 7605   2.629   6.868   1.277
 2236SOL     OW 7606   1.773   4.122   6.616
 2236SOL    HW1 7607   1.681   4.087   6.628
 2236SOL    HW2 7608   1.812   4.148   6.704
 2237SOL     OW 7609   5.652   4.988   4.248
 2237SOL    HW1 7610   5.555   4.967   4.250
 2237SOL    HW2 7611   5.693   4.966   4.337
 2238SOL     OW 7612   4.595   4.513   1.820
 2238SOL    HW1 7613   4.686   4.515   1.860
 2238SOL    HW2 7614   4.552   4.425   1.838
 2239SOL     OW 7615   3.519   5.291   4.342
 2239SOL    HW1 7616   3.466   5.367   4.304
 2239SOL    HW2 7617   3.469   5.206   4.328
 2240SOL     OW 7618   4.081   5.958   3.453
 2240SOL    HW1 7619   4.137   6.015   3.513
 2240SOL    HW2 7620   4.088   5.992   3.359
 2241SOL     OW 7621   0.380   5.442   3.398
 2241SOL    HW1 7622   0.462   5.398   3.432
 2241SOL    HW2 7623   0.405   5.519   3.339
 2242SOL     OW 7624   5.518   3.186   2.690
 2242SOL    HW1 7625   5.508   3.280   2.723
 2242SOL    HW2 7626   5.430   3.139   2.699
 2243SOL     OW 7627   1.672   6.748   6.250
 2243SOL    HW1 7628   1.680   6.663   6.303
 2243SOL    HW2 7629   1.727   6.819   6.294
 2244SOL     OW 7630   1.534   6.315   1.868
 2244SOL    HW1 7631   1.497   6.406   1.887
 2244SOL    HW2 7632   1.632   6.322   1.849
 2245SOL     OW 7633   0.698   2.444   1.002
 2245SOL    HW1 7634   0.612   2.395   1.019
 2245SOL    HW2 7635   0.770   2.405   1.058
 2246SOL     OW 7636   0.939   1.281   4.639
 2246SOL    HW1 7637   0.885   1.200   4.617
 2246SOL    HW2 7638   0.884   1.363   4.623
 2247SOL     OW 7639   3.521   2.897   4.028
 2247SOL    HW1 7640   3.591   2.900   4.100
 2247SOL    HW2 7641   3.565   2.910   3.939
 2248SOL     OW 7642   6.094   3.695   5.558
 2248SOL    HW1 7643   6.074   3.611   5.508
 2248SOL    HW2 7644   6.103   3.771   5.493
 2249SOL     OW 7645   5.641   6.620   3.231
 2249SOL    HW1 7646   5.670   6.716   3.224
 2249SOL    HW2 7647   5.562   6.613   3.292
 2250SOL     OW 7648   4.137   3.751   6.100
 2250SOL    HW1 7649   4.096   3.828   6.150
 2250SOL    HW2 7650   4.125   3.765   6.002
 2251SOL     OW 7651   5.249   0.185   6.158
 2251SOL    HW1 7652   5.173   0.209   6.218
 2251SOL    HW2 7653   5.336   0.203   6.204
 2252SOL     OW 7654   4.641   2.591   1.959
 2252SOL    HW1 7655   4.698   2.548   1.890
 2252SOL    HW2 7656   4.698   2.644   2.022
 2253SOL     OW 7657   0.267   4.041   6.840
 2253SOL    HW1 7658   0.200   3.979   6.881
 2253SOL    HW2 7659   0.228   4.082   6.757
 2254SOL     OW 7660   3.810   2.601   5.363
 2254SOL    HW1 7661   3.787   2.593   5.460
 2254SOL    HW2 7662   3.755   2.537   5.310
 2255SOL     OW 7663   4.522   3.283   5.996
 2255SOL    HW1 7664   4.598   3.230   5.960
 2255SOL    HW2 7665   4.552   3.334   6.077
 2256SOL     OW 7666   5.066   6.073   2.437
 2256SOL    HW1 7667   5.028   6.126   2.361
 2256SOL    HW2 7668   5.014   6.091   2.520
 2257SOL     OW 7669   0.026   2.281   4.909
 2257SOL    HW1 7670   6.983   2.223   4.960
 2257SOL    HW2 7671   6.998   2.359   4.871
 2258SOL     OW 7672   1.378   5.507   5.005
 2258SOL    HW1 7673   1.290   5.545   4.978
 2258SOL    HW2 7674   1.380   5.409   4.982
 2259SOL     OW 7675   5.068   3.927   6.427
 2259SOL    HW1 7676   5.094   3.987   6.502
 2259SOL    HW2 7677   4.981   3.883   6.448
 2260SOL     OW 7678   6.475   4.253   1.739
 2260SOL    HW1 7679   6.493   4.196   1.659
 2260SOL    HW2 7680   6.537   4.226   1.813
 2261SOL     OW 7681   6.560   5.536   0.134
 2261SOL    HW1 7682   6.638   5.593   0.110
 2261SOL    HW2 7683   6.540   5.472   0.059
 2262SOL     OW 7684   6.328   0.881   3.017
 2262SOL    HW1 7685   6.332   0.879   2.917
 2262SOL    HW2 7686   6.239   0.916   3.046
 2263SOL     OW 7687   3.150   6.227   6.506
 2263SOL    HW1 7688   3.101   6.153   6.553
 2263SOL    HW2 7689   3.086   6.301   6.485
 2264SOL     OW 7690   2.450   4.425   0.478
 2264SOL    HW1 7691   2.354   4.446   0.494
 2264SOL    HW2 7692   2.457   4.345   0.418
 2265SOL     OW 7693   0.818   0.471   4.286
 2265SOL    HW1 7694   0.849   0.398   4.347
 2265SOL    HW2 7695   0.897   0.507   4.236
 2266SOL     OW 7696   5.315   1.954   0.066
 2266SOL    HW1 7697   5.320   2.014   7.007
 2266SOL    HW2 7698   5.220   1.944   0.095
 2267SOL     OW 7699   4.836   2.149   4.720
 2267SOL    HW1 7700   4.755   2.113   4.767
 2267SOL    HW2 7701   4.832   2.123   4.623
 2268SOL     OW 7702   6.089   3.568   0.314
 2268SOL    HW1 7703   6.045   3.645   0.267
 2268SOL    HW2 7704   6.061   3.483   0.270
 2269SOL     OW 7705   6.080   5.049   5.136
 2269SOL    HW1 7706   6.076   5.031   5.235
 2269SOL    HW2 7707   6.146   5.121   5.118
 2270SOL     OW 7708   3.217   2.584   6.262
 2270SOL    HW1 7709   3.279   2.511   6.231
 2270SOL    HW2 7710   3.172   2.555   6.347
 2271SOL     OW 7711   5.214   3.766   0.822
 2271SOL    HW1 7712   5.169   3.799   0.740
 2271SOL    HW2 7713   5.252   3.675   0.804
 2272SOL     OW 7714   5.794   2.890   6.733
 2272SOL    HW1 7715   5.821   2.976   6.775
 2272SOL    HW2 7716   5.837   2.882   6.643
 2273SOL     OW 7717   1.652   1.009   2.620
 2273SOL    HW1 7718   1.641   1.013   2.521
 2273SOL    HW2 7719   1.729   1.066   2.648
 2274SOL     OW 7720   6.948   2.356   6.769
 2274SOL    HW1 7721   6.909   2.386   6.682
 2274SOL    HW2 7722   6.999   2.432   6.810
 2275SOL     OW 7723   6.448   6.935   4.621
 2275SOL    HW1 7724   6.378   6.870   4.593
 2275SOL    HW2 7725   6.455   7.008   4.554
 2276SOL     OW 7726   2.105   5.575   0.903
 2276SOL    HW1 7727   2.053   5.592   0.819
 2276SOL    HW2 7728   2.201   5.558   0.880
 2277SOL     OW 7729   3.747   3.774   4.170
 2277SOL    HW1 7730   3.733   3.781   4.269
 2277SOL    HW2 7731   3.752   3.866   4.130
 2278SOL     OW 7732   6.252   4.756   4.516
 2278SOL    HW1 7733   6.210   4.760   4.607
 2278SOL    HW2 7734   6.299   4.842   4.497
 2279SOL     OW 7735   5.442   0.082   5.810
 2279SOL    HW1 7736   5.508   0.032   5.753
 2279SOL    HW2 7737   5.452   0.180   5.795
 2280SOL     OW 7738   6.276   6.778   4.916
 2280SOL    HW1 7739   6.359   6.803   4.966
 2280SOL    HW2 7740   6.282   6.683   4.887
 2281SOL     OW 7741   3.594   1.479   2.315
 2281SOL    HW1 7742   3.651   1.557   2.342
 2281SOL    HW2 7743   3.652   1.400   2.299
 2282SOL     OW 7744   5.408   1.127   4.287
 2282SOL    HW1 7745   5.500   1.087   4.293
 2282SOL    HW2 7746   5.348   1.083   4.354
 2283SOL     OW 7747   0.291   4.753   1.255
 2283SOL    HW1 7748   0.374   4.697   1.252
 2283SOL    HW2 7749   0.272   4.780   1.349
 2284SOL     OW 7750   0.687   2.754   6.650
 2284SOL    HW1 7751   0.782   2.725   6.639
 2284SOL    HW2 7752   0.676   2.847   6.614
 2285SOL     OW 7753   2.286   2.239   0.819
 2285SOL    HW1 7754   2.215   2.169   0.803
 2285SOL    HW2 7755   2.323   2.228   0.911
 2286SOL     OW 7756   6.905   6.961   4.120
 2286SOL    HW1 7757   6.978   6.894   4.137
 2286SOL    HW2 7758   6.840   6.924   4.053
 2287SOL     OW 7759   2.031   0.684   3.094
 2287SOL    HW1 7760   1.992   0.601   3.134
 2287SOL    HW2 7761   2.109   0.659   3.037
 2288SOL     OW 7762   6.211   5.115   4.692
 2288SOL    HW1 7763   6.117   5.087   4.711
 2288SOL    HW2 7764   6.232   5.097   4.596
 2289SOL     OW 7765   0.649   4.862   2.285
 2289SOL    HW1 7766   0.581   4.870   2.358
 2289SOL    HW2 7767   0.638   4.775   2.238
 2290SOL     OW 7768   0.827   4.159   0.877
 2290SOL    HW1 7769   0.903   4.101   0.848
 2290SOL    HW2 7770   0.851   4.204   0.963
 2291SOL     OW 7771   2.955   2.779   5.736
 2291SOL    HW1 7772   2.944   2.772   5.835
 2291SOL    HW2 7773   2.874   2.740   5.691
 2292SOL     OW 7774   6.433   2.449   5.245
 2292SOL    HW1 7775   6.479   2.436   5.156
 2292SOL    HW2 7776   6.439   2.364   5.298
 2293SOL     OW 7777   4.405   6.257   1.302
 2293SOL    HW1 7778   4.308   6.247   1.282
 2293SOL    HW2 7779   4.442   6.335   1.251
 2294SOL     OW 7780   3.225   0.819   6.804
 2294SOL    HW1 7781   3.194   0.913   6.820
 2294SOL    HW2 7782   3.211   0.795   6.708
 2295SOL     OW 7783   0.610   2.213   2.796
 2295SOL    HW1 7784   0.663   2.291   2.764
 2295SOL    HW2 7785   0.660   2.128   2.775
 2296SOL     OW 7786   4.293   5.023   0.973
 2296SOL    HW1 7787   4.203   5.062   0.991
 2296SOL    HW2 7788   4.329   5.058   0.887
 2297SOL     OW 7789   4.355   4.707   5.747
 2297SOL    HW1 7790   4.288   4.669   5.811
 2297SOL    HW2 7791   4.378   4.639   5.678
 2298SOL     OW 7792   3.995   2.955   1.772
 2298SOL    HW1 7793   4.022   2.886   1.705
 2298SOL    HW2 7794   4.073   2.977   1.830
 2299SOL     OW 7795   4.051   5.727   5.193
 2299SOL    HW1 7796   4.003   5.675   5.122
 2299SOL    HW2 7797   4.014   5.703   5.283
 2300SOL     OW 7798   2.418   5.623   1.919
 2300SOL    HW1 7799   2.507   5.658   1.891
 2300SOL    HW2 7800   2.418   5.608   2.018
 2301SOL     OW 7801   3.420   2.965   3.191
 2301SOL    HW1 7802   3.335   2.928   3.155
 2301SOL    HW2 7803   3.416   2.967   3.291
 2302SOL     OW 7804   4.163   0.473   1.041
 2302SOL    HW1 7805   4.142   0.414   1.119
 2302SOL    HW2 7806   4.084   0.532   1.022
 2303SOL     OW 7807   2.694   3.198   6.299
 2303SOL    HW1 7808   2.605   3.235   6.269
 2303SOL    HW2 7809   2.687   3.171   6.395
 2304SOL     OW 7810   4.484   6.542   3.539
 2304SOL    HW1 7811   4.425   6.583   3.608
 2304SOL    HW2 7812   4.558   6.607   3.517
 2305SOL     OW 7813   2.296   6.304   2.288
 2305SOL    HW1 7814   2.360   6.234   2.256
 2305SOL    HW2 7815   2.312   6.321   2.386
 2306SOL     OW 7816   2.953   4.851   2.324
 2306SOL    HW1 7817   3.027   4.881   2.383
 2306SOL    HW2 7818   2.925   4.927   2.264
 2307SOL     OW 7819   6.571   3.865   2.620
 2307SOL    HW1 7820   6.651   3.833   2.671
 2307SOL    HW2 7821   6.601   3.921   2.543
 2308SOL     OW 7822   0.686   5.532   1.424
 2308SOL    HW1 7823   0.598   5.490   1.401
 2308SOL    HW2 7824   0.718   5.587   1.347
 2309SOL     OW 7825   1.836   0.990   6.513
 2309SOL    HW1 7826   1.769   0.998   6.439
 2309SOL    HW2 7827   1.926   1.015   6.478
 2310SOL     OW 7828   4.940   6.312   0.879
 2310SOL    HW1 7829   5.008   6.293   0.950
 2310SOL    HW2 7830   4.985   6.316   0.790
 2311SOL     OW 7831   1.817   6.323   1.831
 2311SOL    HW1 7832   1.897   6.383   1.840
 2311SOL    HW2 7833   1.847   6.231   1.807
 2312SOL     OW 7834   3.792   6.669   3.539
 2312SOL    HW1 7835   3.821   6.599   3.472
 2312SOL    HW2 7836   3.720   6.725   3.499
 2313SOL     OW 7837   5.489   5.780   1.653
 2313SOL    HW1 7838   5.528   5.872   1.653
 2313SOL    HW2 7839   5.518   5.731   1.571
 2314SOL     OW 7840   5.764   0.035   4.517
 2314SOL    HW1 7841   5.715   6.975   4.486
 2314SOL    HW2 7842   5.806   0.081   4.439
 2315SOL     OW 7843   5.056   3.402   5.644
 2315SOL    HW1 7844   4.994   3.479   5.641
 2315SOL    HW2 7845   5.050   3.350   5.559
 2316SOL     OW 7846   3.632   0.772   4.316
 2316SOL    HW1 7847   3.615   0.680   4.350
 2316SOL    HW2 7848   3.572   0.790   4.238
 2317SOL     OW 7849   0.330   5.874   3.650
 2317SOL    HW1 7850   0.245   5.866   3.703
 2317SOL    HW2 7851   0.310   5.918   3.562
 2318SOL     OW 7852   2.043   2.984   4.723
 2318SOL    HW1 7853   2.073   3.038   4.644
 2318SOL    HW2 7854   2.084   3.020   4.806
 2319SOL     OW 7855   1.745   4.829   4.273
 2319SOL    HW1 7856   1.740   4.732   4.296
 2319SOL    HW2 7857   1.791   4.878   4.346
 2320SOL     OW 7858   0.653   2.899   4.850
 2320SOL    HW1 7859   0.656   2.890   4.751
 2320SOL    HW2 7860   0.727   2.959   4.880
 2321SOL     OW 7861   2.449   6.394   6.736
 2321SOL    HW1 7862   2.386   6.472   6.729
 2321SOL    HW2 7863   2.539   6.421   6.703
 2322SOL     OW 7864   2.253   2.177   3.685
 2322SOL    HW1 7865   2.287   2.262   3.726
 2322SOL    HW2 7866   2.310   2.101   3.715
 2323SOL     OW 7867   3.005   5.053   2.112
 2323SOL    HW1 7868   3.021   5.149   2.086
 2323SOL    HW2 7869   3.093   5.006   2.117
 2324SOL     OW 7870   6.575   6.759   1.005
 2324SOL    HW1 7871   6.662   6.773   1.053
 2324SOL    HW2 7872   6.518   6.696   1.058
 2325SOL     OW 7873   0.878   4.844   1.630
 2325SOL    HW1 7874   0.832   4.810   1.712
 2325SOL    HW2 7875   0.842   4.934   1.605
 2326SOL     OW 7876   3.868   5.250   6.587
 2326SOL    HW1 7877   3.811   5.304   6.525
 2326SOL    HW2 7878   3.878   5.157   6.551
 2327SOL     OW 7879   6.750   2.197   3.586
 2327SOL    HW1 7880   6.833   2.229   3.540
 2327SOL    HW2 7881   6.691   2.151   3.519
 2328SOL     OW 7882   2.930   1.791   2.637
 2328SOL    HW1 7883   2.959   1.835   2.552
 2328SOL    HW2 7884   2.903   1.697   2.619
 2329SOL     OW 7885   1.880   3.821   5.085
 2329SOL    HW1 7886   1.972   3.812   5.048
 2329SOL    HW2 7887   1.853   3.917   5.085
 2330SOL     OW 7888   0.763   4.072   1.493
 2330SOL    HW1 7889   0.732   3.977   1.486
 2330SOL    HW2 7890   0.735   4.122   1.411
 2331SOL     OW 7891   4.864   5.427   0.369
 2331SOL    HW1 7892   4.811   5.483   0.433
 2331SOL    HW2 7893   4.802   5.367   0.319
 2332SOL     OW 7894   4.690   1.874   5.027
 2332SOL    HW1 7895   4.656   1.942   4.962
 2332SOL    HW2 7896   4.756   1.814   4.981
 2333SOL     OW 7897   0.670   4.914   3.041
 2333SOL    HW1 7898   0.613   4.965   3.106
 2333SOL    HW2 7899   0.744   4.868   3.091
 2334SOL     OW 7900   2.313   0.577   6.952
 2334SOL    HW1 7901   2.345   0.668   6.927
 2334SOL    HW2 7902   2.373   0.538   0.001
 2335SOL     OW 7903   6.175   0.678   2.723
 2335SOL    HW1 7904   6.262   0.636   2.696
 2335SOL    HW2 7905   6.144   0.638   2.809
 2336SOL     OW 7906   4.322   2.398   4.779
 2336SOL    HW1 7907   4.322   2.302   4.749
 2336SOL    HW2 7908   4.282   2.404   4.870
 2337SOL     OW 7909   4.808   1.126   2.351
 2337SOL    HW1 7910   4.902   1.138   2.321
 2337SOL    HW2 7911   4.806   1.112   2.450
 2338SOL     OW 7912   1.491   2.203   5.411
 2338SOL    HW1 7913   1.416   2.270   5.419
 2338SOL    HW2 7914   1.472   2.142   5.334
 2339SOL     OW 7915   3.970   3.805   5.082
 2339SOL    HW1 7916   4.065   3.805   5.114
 2339SOL    HW2 7917   3.909   3.792   5.160
 2340SOL     OW 7918   5.695   4.839   0.316
 2340SOL    HW1 7919   5.624   4.904   0.291
 2340SOL    HW2 7920   5.663   4.781   0.391
 2341SOL     OW 7921   4.755   4.841   1.640
 2341SOL    HW1 7922   4.833   4.781   1.623
 2341SOL    HW2 7923   4.726   4.882   1.554
 2342SOL     OW 7924   0.462   0.016   5.150
 2342SOL    HW1 7925   0.532   0.051   5.211
 2342SOL    HW2 7926   0.415   0.092   5.105
 2343SOL     OW 7927   2.645   5.990   2.696
 2343SOL    HW1 7928   2.641   6.088   2.674
 2343SOL    HW2 7929   2.663   5.938   2.613
 2344SOL     OW 7930   1.521   6.982   1.174
 2344SOL    HW1 7931   1.537   0.023   1.097
 2344SOL    HW2 7932   1.465   6.905   1.144
 2345SOL     OW 7933   3.503   5.273   4.923
 2345SOL    HW1 7934   3.430   5.206   4.937
 2345SOL    HW2 7935   3.533   5.270   4.828
 2346SOL     OW 7936   4.949   2.452   4.829
 2346SOL    HW1 7937   4.876   2.388   4.808
 2346SOL    HW2 7938   4.910   2.538   4.863
 2347SOL     OW 7939   2.537   3.224   1.736
 2347SOL    HW1 7940   2.482   3.303   1.761
 2347SOL    HW2 7941   2.620   3.222   1.793
 2348SOL     OW 7942   3.531   6.376   3.396
 2348SOL    HW1 7943   3.621   6.411   3.421
 2348SOL    HW2 7944   3.469   6.453   3.381
 2349SOL     OW 7945   0.811   4.569   6.129
 2349SOL    HW1 7946   0.758   4.639   6.083
 2349SOL    HW2 7947   0.852   4.607   6.212
 2350SOL     OW 7948   4.658   6.779   6.314
 2350SOL    HW1 7949   4.660   6.744   6.220
 2350SOL    HW2 7950   4.602   6.862   6.318
 2351SOL     OW 7951   3.387   5.112   3.067
 2351SOL    HW1 7952   3.465   5.062   3.030
 2351SOL    HW2 7953   3.303   5.079   3.023
 2352SOL     OW 7954   0.655   4.602   2.059
 2352SOL    HW1 7955   0.721   4.536   2.023
 2352SOL    HW2 7956   0.575   4.553   2.094
 2353SOL     OW 7957   3.124   4.675   5.273
 2353SOL    HW1 7958   3.054   4.625   5.221
 2353SOL    HW2 7959   3.099   4.771   5.280
 2354SOL     OW 7960   2.299   1.565   5.896
 2354SOL    HW1 7961   2.218   1.552   5.840
 2354SOL    HW2 7962   2.376   1.592   5.839
 2355SOL     OW 7963   1.564   6.053   0.215
 2355SOL    HW1 7964   1.546   6.033   0.119
 2355SOL    HW2 7965   1.658   6.086   0.226
 2356SOL     OW 7966   1.871   3.865   0.525
 2356SOL    HW1 7967   1.779   3.875   0.486
 2356SOL    HW2 7968   1.920   3.953   0.517
 2357SOL     OW 7969   4.603   5.953   4.193
 2357SOL    HW1 7970   4.508   5.920   4.192
 2357SOL    HW2 7971   4.609   6.036   4.248
 2358SOL     OW 7972   3.300   5.324   5.180
 2358SOL    HW1 7973   3.344   5.299   5.094
 2358SOL    HW2 7974   3.284   5.242   5.235
 2359SOL     OW 7975   6.996   0.803   6.144
 2359SOL    HW1 7976   6.912   0.849   6.171
 2359SOL    HW2 7977   7.012   0.725   6.204
 2360SOL     OW 7978   5.466   5.770   6.347
 2360SOL    HW1 7979   5.485   5.863   6.316
 2360SOL    HW2 7980   5.469   5.767   6.447
 2361SOL     OW 7981   2.274   1.162   5.220
 2361SOL    HW1 7982   2.311   1.223   5.149
 2361SOL    HW2 7983   2.325   1.175   5.305
 2362SOL     OW 7984   2.703   0.813   5.394
 2362SOL    HW1 7985   2.760   0.742   5.355
 2362SOL    HW2 7986   2.727   0.826   5.490
 2363SOL     OW 7987   4.515   2.536   5.353
 2363SOL    HW1 7988   4.449   2.520   5.427
 2363SOL    HW2 7989   4.561   2.624   5.368
 2364SOL     OW 7990   0.945   2.090   2.614
 2364SOL    HW1 7991   0.940   2.050   2.523
 2364SOL    HW2 7992   1.021   2.155   2.618
 2365SOL     OW 7993   5.925   2.331   6.893
 2365SOL    HW1 7994   5.825   2.331   6.891
 2365SOL    HW2 7995   5.960   2.399   6.829
 2366SOL     OW 7996   1.541   4.391   6.104
 2366SOL    HW1 7997   1.541   4.448   6.186
 2366SOL    HW2 7998   1.631   4.393   6.062
 2367SOL     OW 7999   3.651   3.702   0.242
 2367SOL    HW1 8000   3.664   3.764   0.319
 2367SOL    HW2 8001   3.553   3.689   0.225
 2368SOL     OW 8002   4.658   0.051   2.972
 2368SOL    HW1 8003   4.725   0.124   2.984
 2368SOL    HW2 8004   4.566   0.087   2.991
 2369SOL     OW 8005   1.570   2.795   5.453
 2369SOL    HW1 8006   1.635   2.779   5.526
 2369SOL    HW2 8007   1.614   2.777   5.365
 2370SOL     OW 8008   4.851   4.238   6.251
 2370SOL    HW1 8009   4.761   4.226   6.208
 2370SOL    HW2 8010   4.844   4.305   6.325
 2371SOL     OW 8011   0.119   6.260   1.708
 2371SOL    HW1 8012   0.204   6.300   1.673
 2371SOL    HW2 8013   0.049   6.330   1.715
 2372SOL     OW 8014   6.861   2.015   1.181
 2372SOL    HW1 8015   6.864   2.112   1.207
 2372SOL    HW2 8016   6.766   1.987   1.167
 2373SOL     OW 8017   0.446   0.125   6.981
 2373SOL    HW1 8018   0.480   0.120   0.054
 2373SOL    HW2 8019   0.360   0.176   6.980
 2374SOL     OW 8020   6.235   0.637   4.047
 2374SOL    HW1 8021   6.218   0.699   4.123
 2374SOL    HW2 8022   6.232   0.688   3.961
 2375SOL     OW 8023   2.076   6.899   3.483
 2375SOL    HW1 8024   2.094   6.831   3.412
 2375SOL    HW2 8025   2.149   6.896   3.551
 2376SOL     OW 8026   6.148   2.392   4.375
 2376SOL    HW1 8027   6.191   2.465   4.428
 2376SOL    HW2 8028   6.050   2.410   4.368
 2377SOL     OW 8029   3.352   4.102   2.922
 2377SOL    HW1 8030   3.285   4.029   2.927
 2377SOL    HW2 8031   3.366   4.142   3.013
 2378SOL     OW 8032   4.865   2.425   0.357
 2378SOL    HW1 8033   4.904   2.386   0.441
 2378SOL    HW2 8034   4.777   2.381   0.337
 2379SOL     OW 8035   6.117   2.176   6.385
 2379SOL    HW1 8036   6.018   2.191   6.389
 2379SOL    HW2 8037   6.142   2.100   6.444
 2380SOL     OW 8038   0.168   0.165   5.900
 2380SOL    HW1 8039   0.233   0.220   5.951
 2380SOL    HW2 8040   0.102   0.123   5.963
 2381SOL     OW 8041   2.190   3.908   4.226
 2381SOL    HW1 8042   2.174   4.005   4.243
 2381SOL    HW2 8043   2.279   3.882   4.262
 2382SOL     OW 8044   2.362   4.985   3.711
 2382SOL    HW1 8045   2.269   4.984   3.675
 2382SOL    HW2 8046   2.425   4.954   3.639
 2383SOL     OW 8047   5.741   6.782   0.413
 2383SOL    HW1 8048   5.701   6.716   0.477
 2383SOL    HW2 8049   5.793   6.733   0.343
 2384SOL     OW 8050   6.578   6.190   2.235
 2384SOL    HW1 8051   6.605   6.098   2.264
 2384SOL    HW2 8052   6.504   6.223   2.293
 2385SOL     OW 8053   6.403   6.557   1.086
 2385SOL    HW1 8054   6.418   6.508   1.171
 2385SOL    HW2 8055   6.330   6.625   1.099
 2386SOL     OW 8056   5.323   5.638   4.558
 2386SOL    HW1 8057   5.240   5.582   4.554
 2386SOL    HW2 8058   5.372   5.631   4.472
 2387SOL     OW 8059   0.935   2.003   3.702
 2387SOL    HW1 8060   0.836   2.017   3.706
 2387SOL    HW2 8061   0.971   1.996   3.795
 2388SOL     OW 8062   1.339   2.204   3.685
 2388SOL    HW1 8063   1.321   2.297   3.653
 2388SOL    HW2 8064   1.280   2.139   3.637
 2389SOL     OW 8065   5.369   3.177   3.367
 2389SOL    HW1 8066   5.430   3.256   3.364
 2389SOL    HW2 8067   5.345   3.158   3.462
 2390SOL     OW 8068   3.621   3.867   3.891
 2390SOL    HW1 8069   3.544   3.897   3.947
 2390SOL    HW2 8070   3.602   3.776   3.854
 2391SOL     OW 8071   4.702   5.073   5.650
 2391SOL    HW1 8072   4.626   5.114   5.598
 2391SOL    HW2 8073   4.788   5.115   5.621
 2392SOL     OW 8074   4.097   0.150   5.001
 2392SOL    HW1 8075   4.118   0.092   4.921
 2392SOL    HW2 8076   4.060   0.238   4.970
 2393SOL     OW 8077   4.498   5.102   6.392
 2393SOL    HW1 8078   4.463   5.009   6.402
 2393SOL    HW2 8079   4.594   5.104   6.421
 2394SOL     OW 8080   2.098   3.364   4.184
 2394SOL    HW1 8081   2.169   3.416   4.230
 2394SOL    HW2 8082   2.008   3.390   4.221
 2395SOL     OW 8083   6.281   2.500   0.155
 2395SOL    HW1 8084   6.370   2.454   0.162
 2395SOL    HW2 8085   6.275   2.573   0.223
 2396SOL     OW 8086   3.837   5.205   1.193
 2396SOL    HW1 8087   3.927   5.203   1.148
 2396SOL    HW2 8088   3.850   5.211   1.292
 2397SOL     OW 8089   0.310   4.262   7.013
 2397SOL    HW1 8090   0.341   4.237   0.084
 2397SOL    HW2 8091   0.334   4.190   6.949
 2398SOL     OW 8092   3.006   3.868   6.529
 2398SOL    HW1 8093   2.907   3.868   6.517
 2398SOL    HW2 8094   3.042   3.959   6.509
 2399SOL     OW 8095   5.083   1.209   2.622
 2399SOL    HW1 8096   5.094   1.255   2.710
 2399SOL    HW2 8097   5.051   1.275   2.554
 2400SOL     OW 8098   3.635   5.499   0.375
 2400SOL    HW1 8099   3.587   5.496   0.463
 2400SOL    HW2 8100   3.711   5.433   0.377
 2401SOL     OW 8101   4.222   7.001   6.209
 2401SOL    HW1 8102   4.152   6.953   6.261
 2401SOL    HW2 8103   4.309   6.998   6.258
 2402SOL     OW 8104   0.679   1.129   4.606
 2402SOL    HW1 8105   0.676   1.214   4.658
 2402SOL    HW2 8106   0.652   1.146   4.511
 2403SOL     OW 8107   2.535   2.260   0.343
 2403SOL    HW1 8108   2.497   2.343   0.303
 2403SOL    HW2 8109   2.581   2.283   0.429
 2404SOL     OW 8110   5.548   0.939   1.168
 2404SOL    HW1 8111   5.534   0.899   1.258
 2404SOL    HW2 8112   5.546   0.866   1.099
 2405SOL     OW 8113   3.560   3.514   3.233
 2405SOL    HW1 8114   3.634   3.452   3.210
 2405SOL    HW2 8115   3.505   3.475   3.307
 2406SOL     OW 8116   2.362   0.746   3.311
 2406SOL    HW1 8117   2.280   0.705   3.349
 2406SOL    HW2 8118   2.411   0.796   3.382
 2407SOL     OW 8119   5.463   2.737   2.942
 2407SOL    HW1 8120   5.486   2.697   3.031
 2407SOL    HW2 8121   5.534   2.803   2.917
 2408SOL     OW 8122   3.899   4.875   4.068
 2408SOL    HW1 8123   3.801   4.859   4.060
 2408SOL    HW2 8124   3.943   4.855   3.981
 2409SOL     OW 8125   1.611   2.772   1.016
 2409SOL    HW1 8126   1.525   2.733   1.049
 2409SOL    HW2 8127   1.682   2.702   1.015
 2410SOL     OW 8128   4.711   2.347   6.267
 2410SOL    HW1 8129   4.743   2.427   6.318
 2410SOL    HW2 8130   4.761   2.341   6.180
 2411SOL     OW 8131   4.471   5.653   5.827
 2411SOL    HW1 8132   4.484   5.587   5.901
 2411SOL    HW2 8133   4.399   5.621   5.765
 2412SOL     OW 8134   3.714   4.611   0.411
 2412SOL    HW1 8135   3.768   4.686   0.372
 2412SOL    HW2 8136   3.694   4.544   0.339
 2413SOL     OW 8137   6.479   1.905   0.506
 2413SOL    HW1 8138   6.381   1.926   0.498
 2413SOL    HW2 8139   6.490   1.809   0.534
 2414SOL     OW 8140   4.974   3.820   1.916
 2414SOL    HW1 8141   4.990   3.813   1.818
 2414SOL    HW2 8142   5.033   3.892   1.954
 2415SOL     OW 8143   0.781   6.629   1.865
 2415SOL    HW1 8144   0.791   6.702   1.796
 2415SOL    HW2 8145   0.716   6.658   1.935
 2416SOL     OW 8146   3.420   2.124   5.078
 2416SOL    HW1 8147   3.457   2.127   5.171
 2416SOL    HW2 8148   3.342   2.187   5.071
 2417SOL     OW 8149   4.338   3.099   5.885
 2417SOL    HW1 8150   4.398   3.162   5.936
 2417SOL    HW2 8151   4.387   3.014   5.866
 2418SOL     OW 8152   3.082   3.842   3.953
 2418SOL    HW1 8153   3.118   3.866   3.863
 2418SOL    HW2 8154   3.128   3.896   4.023
 2419SOL     OW 8155   0.849   6.453   3.905
 2419SOL    HW1 8156   0.888   6.529   3.958
 2419SOL    HW2 8157   0.750   6.466   3.897
 2420SOL     OW 8158   3.886   1.830   1.387
 2420SOL    HW1 8159   3.940   1.862   1.465
 2420SOL    HW2 8160   3.792   1.814   1.416
 2421SOL     OW 8161   2.831   1.476   5.408
 2421SOL    HW1 8162   2.869   1.427   5.330
 2421SOL    HW2 8163   2.743   1.518   5.382
 2422SOL     OW 8164   6.403   0.260   1.765
 2422SOL    HW1 8165   6.387   0.337   1.828
 2422SOL    HW2 8166   6.364   0.282   1.676
 2423SOL     OW 8167   1.248   6.185   3.949
 2423SOL    HW1 8168   1.318   6.216   3.885
 2423SOL    HW2 8169   1.157   6.205   3.913
 2424SOL     OW 8170   6.086   6.114   6.085
 2424SOL    HW1 8171   6.137   6.192   6.049
 2424SOL    HW2 8172   5.991   6.118   6.054
 2425SOL     OW 8173   6.492   0.476   4.179
 2425SOL    HW1 8174   6.458   0.561   4.138
 2425SOL    HW2 8175   6.420   0.407   4.179
 2426SOL     OW 8176   0.950   5.456   4.549
 2426SOL    HW1 8177   1.046   5.481   4.564
 2426SOL    HW2 8178   0.943   5.358   4.530
 2427SOL     OW 8179   5.306   5.336   6.736
 2427SOL    HW1 8180   5.360   5.316   6.818
 2427SOL    HW2 8181   5.357   5.306   6.655
 2428SOL     OW 8182   6.705   6.877   3.503
 2428SOL    HW1 8183   6.678   6.966   3.465
 2428SOL    HW2 8184   6.785   6.889   3.562
 2429SOL     OW 8185   6.431   5.947   4.838
 2429SOL    HW1 8186   6.434   6.032   4.786
 2429SOL    HW2 8187   6.378   5.879   4.788
 2430SOL     OW 8188   6.458   1.420   1.085
 2430SOL    HW1 8189   6.480   1.372   1.170
 2430SOL    HW2 8190   6.514   1.503   1.078
 2431SOL     OW 8191   3.698   0.124   2.144
 2431SOL    HW1 8192   3.786   0.162   2.175
 2431SOL    HW2 8193   3.636   0.199   2.121
 2432SOL     OW 8194   3.419   6.770   2.891
 2432SOL    HW1 8195   3.500   6.778   2.949
 2432SOL    HW2 8196   3.374   6.683   2.908
 2433SOL     OW 8197   3.383   6.707   1.060
 2433SOL    HW1 8198   3.296   6.689   1.015
 2433SOL    HW2 8199   3.415   6.798   1.036
 2434SOL     OW 8200   4.648   1.401   3.786
 2434SOL    HW1 8201   4.652   1.313   3.738
 2434SOL    HW2 8202   4.554   1.435   3.785
 2435SOL     OW 8203   4.711   5.458   6.081
 2435SOL    HW1 8204   4.614   5.441   6.060
 2435SOL    HW2 8205   4.717   5.516   6.162
 2436SOL     OW 8206   1.954   6.119   1.452
 2436SOL    HW1 8207   1.968   6.217   1.440
 2436SOL    HW2 8208   2.028   6.082   1.509
 2437SOL     OW 8209   3.903   5.878   0.893
 2437SOL    HW1 8210   3.938   5.790   0.859
 2437SOL    HW2 8211   3.875   5.935   0.816
 2438SOL     OW 8212   3.664   1.628   5.589
 2438SOL    HW1 8213   3.654   1.614   5.491
 2438SOL    HW2 8214   3.596   1.694   5.621
 2439SOL     OW 8215   1.093   4.131   6.691
 2439SOL    HW1 8216   1.111   4.102   6.597
 2439SOL    HW2 8217   1.157   4.204   6.717
 2440SOL     OW 8218   4.948   6.373   4.923
 2440SOL    HW1 8219   4.851   6.397   4.931
 2440SOL    HW2 8220   4.998   6.451   4.884
 2441SOL     OW 8221   6.820   0.643   0.009
 2441SOL    HW1 8222   6.741   0.703   7.018
 2441SOL    HW2 8223   6.818   0.571   6.962
 2442SOL     OW 8224   6.478   5.528   4.167
 2442SOL    HW1 8225   6.499   5.511   4.263
 2442SOL    HW2 8226   6.379   5.522   4.154
 2443SOL     OW 8227   3.471   6.476   5.334
 2443SOL    HW1 8228   3.495   6.464   5.238
 2443SOL    HW2 8229   3.513   6.405   5.389
 2444SOL     OW 8230   3.608   4.734   5.801
 2444SOL    HW1 8231   3.631   4.817   5.750
 2444SOL    HW2 8232   3.517   4.743   5.841
 2445SOL     OW 8233   0.355   0.291   1.804
 2445SOL    HW1 8234   0.352   0.230   1.725
 2445SOL    HW2 8235   0.425   0.259   1.868
 2446SOL     OW 8236   0.070   3.674   3.763
 2446SOL    HW1 8237   0.142   3.608   3.784
 2446SOL    HW2 8238   7.009   3.652   3.816
 2447SOL     OW 8239   3.047   1.434   0.586
 2447SOL    HW1 8240   3.023   1.502   0.517
 2447SOL    HW2 8241   3.110   1.475   0.653
 2448SOL     OW 8242   1.225   0.569   5.513
 2448SOL    HW1 8243   1.317   0.547   5.546
 2448SOL    HW2 8244   1.193   0.497   5.452
 2449SOL     OW 8245   0.072   4.384   1.534
 2449SOL    HW1 8246   0.131   4.455   1.573
 2449SOL    HW2 8247   0.113   4.294   1.550
 2450SOL     OW 8248   2.873   4.766   4.512
 2450SOL    HW1 8249   2.954   4.825   4.504
 2450SOL    HW2 8250   2.848   4.758   4.608
 2451SOL     OW 8251   0.677   0.479   3.341
 2451SOL    HW1 8252   0.620   0.559   3.357
 2451SOL    HW2 8253   0.672   0.418   3.421
 2452SOL     OW 8254   2.158   2.236   2.859
 2452SOL    HW1 8255   2.155   2.328   2.819
 2452SOL    HW2 8256   2.225   2.180   2.810
 2453SOL     OW 8257   6.493   3.699   1.382
 2453SOL    HW1 8258   6.395   3.686   1.393
 2453SOL    HW2 8259   6.535   3.713   1.472
 2454SOL     OW 8260   3.452   1.408   0.537
 2454SOL    HW1 8261   3.517   1.340   0.505
 2454SOL    HW2 8262   3.442   1.480   0.468
 2455SOL     OW 8263   5.694   6.519   0.588
 2455SOL    HW1 8264   5.612   6.576   0.597
 2455SOL    HW2 8265   5.683   6.435   0.642
 2456SOL     OW 8266   6.150   0.180   0.348
 2456SOL    HW1 8267   6.157   0.084   0.322
 2456SOL    HW2 8268   6.096   0.229   0.279
 2457SOL     OW 8269   6.868   6.309   0.245
 2457SOL    HW1 8270   6.803   6.371   0.290
 2457SOL    HW2 8271   6.888   6.231   0.305
 2458SOL     OW 8272   2.594   5.515   3.969
 2458SOL    HW1 8273   2.691   5.515   3.945
 2458SOL    HW2 8274   2.544   5.574   3.905
 2459SOL     OW 8275   2.559   6.641   0.418
 2459SOL    HW1 8276   2.653   6.646   0.384
 2459SOL    HW2 8277   2.497   6.684   0.353
 2460SOL     OW 8278   2.017   0.586   0.918
 2460SOL    HW1 8279   1.931   0.581   0.867
 2460SOL    HW2 8280   2.071   0.664   0.884
 2461SOL     OW 8281   4.445   0.538   2.676
 2461SOL    HW1 8282   4.430   0.477   2.754
 2461SOL    HW2 8283   4.445   0.633   2.707
 2462SOL     OW 8284   2.387   5.453   0.106
 2462SOL    HW1 8285   2.475   5.482   0.144
 2462SOL    HW2 8286   2.372   5.498   0.019
 2463SOL     OW 8287   6.252   2.418   4.127
 2463SOL    HW1 8288   6.187   2.485   4.089
 2463SOL    HW2 8289   6.238   2.410   4.225
 2464SOL     OW 8290   1.613   4.327   1.702
 2464SOL    HW1 8291   1.692   4.279   1.665
 2464SOL    HW2 8292   1.607   4.418   1.661
 2465SOL     OW 8293   6.709   6.042   1.315
 2465SOL    HW1 8294   6.800   6.010   1.291
 2465SOL    HW2 8295   6.708   6.072   1.411
 2466SOL     OW 8296   3.341   1.151   1.627
 2466SOL    HW1 8297   3.343   1.071   1.687
 2466SOL    HW2 8298   3.255   1.152   1.576
 2467SOL     OW 8299   5.880   1.818   5.547
 2467SOL    HW1 8300   5.795   1.869   5.532
 2467SOL    HW2 8301   5.870   1.761   5.629
 2468SOL     OW 8302   5.668   6.595   2.286
 2468SOL    HW1 8303   5.609   6.562   2.213
 2468SOL    HW2 8304   5.641   6.553   2.373
 2469SOL     OW 8305   3.897   4.821   5.383
 2469SOL    HW1 8306   3.934   4.730   5.365
 2469SOL    HW2 8307   3.798   4.816   5.395
 2470SOL     OW 8308   2.979   4.343   6.098
 2470SOL    HW1 8309   3.000   4.305   6.008
 2470SOL    HW2 8310   3.035   4.426   6.112
 2471SOL     OW 8311   1.867   6.059   1.725
 2471SOL    HW1 8312   1.862   6.051   1.626
 2471SOL    HW2 8313   1.939   5.999   1.760
 2472SOL     OW 8314   4.771   1.530   4.168
 2472SOL    HW1 8315   4.809   1.525   4.261
 2472SOL    HW2 8316   4.674   1.505   4.171
 2473SOL     OW 8317   1.690   4.076   5.558
 2473SOL    HW1 8318   1.623   4.055   5.487
 2473SOL    HW2 8319   1.695   4.000   5.623
 2474SOL     OW 8320   0.416   5.317   0.537
 2474SOL    HW1 8321   0.496   5.332   0.479
 2474SOL    HW2 8322   0.358   5.246   0.496
 2475SOL     OW 8323   4.368   1.407   0.721
 2475SOL    HW1 8324   4.329   1.326   0.763
 2475SOL    HW2 8325   4.462   1.419   0.753
 2476SOL     OW 8326   0.477   2.911   3.489
 2476SOL    HW1 8327   0.515   2.936   3.578
 2476SOL    HW2 8328   0.535   2.841   3.446
 2477SOL     OW 8329   6.442   0.137   2.627
 2477SOL    HW1 8330   6.518   0.102   2.573
 2477SOL    HW2 8331   6.478   0.193   2.702
 2478SOL     OW 8332   5.413   7.000   2.165
 2478SOL    HW1 8333   5.486   6.982   2.230
 2478SOL    HW2 8334   5.449   6.993   2.072
 2479SOL     OW 8335   0.848   3.446   1.398
 2479SOL    HW1 8336   0.767   3.472   1.347
 2479SOL    HW2 8337   0.928   3.448   1.337
 2480SOL     OW 8338   5.857   3.967   0.762
 2480SOL    HW1 8339   5.784   3.902   0.742
 2480SOL    HW2 8340   5.938   3.918   0.792
 2481SOL     OW 8341   2.808   6.621   0.304
 2481SOL    HW1 8342   2.902   6.593   0.320
 2481SOL    HW2 8343   2.805   6.688   0.229
 2482SOL     OW 8344   5.355   2.996   5.409
 2482SOL    HW1 8345   5.282   2.968   5.471
 2482SOL    HW2 8346   5.316   3.043   5.330
 2483SOL     OW 8347   2.673   1.060   6.941
 2483SOL    HW1 8348   2.584   1.100   6.919
 2483SOL    HW2 8349   2.729   1.057   6.858
 2484SOL     OW 8350   2.099   0.589   0.543
 2484SOL    HW1 8351   2.161   0.597   0.466
 2484SOL    HW2 8352   2.150   0.563   0.625
 2485SOL     OW 8353   4.376   4.509   2.025
 2485SOL    HW1 8354   4.348   4.428   1.973
 2485SOL    HW2 8355   4.458   4.549   1.983
 2486SOL     OW 8356   3.225   5.864   2.913
 2486SOL    HW1 8357   3.147   5.920   2.886
 2486SOL    HW2 8358   3.223   5.850   3.012
 2487SOL     OW 8359   3.992   5.163   7.009
 2487SOL    HW1 8360   4.012   5.242   6.952
 2487SOL    HW2 8361   3.913   5.182   0.045
 2488SOL     OW 8362   2.375   4.084   1.566
 2488SOL    HW1 8363   2.424   4.000   1.593
 2488SOL    HW2 8364   2.279   4.062   1.548
 2489SOL     OW 8365   2.445   4.971   4.294
 2489SOL    HW1 8366   2.473   4.924   4.378
 2489SOL    HW2 8367   2.524   5.012   4.251
 2490SOL     OW 8368   6.549   5.323   0.851
 2490SOL    HW1 8369   6.598   5.249   0.804
 2490SOL    HW2 8370   6.451   5.311   0.837
 2491SOL     OW 8371   2.115   5.766   2.886
 2491SOL    HW1 8372   2.147   5.858   2.912
 2491SOL    HW2 8373   2.018   5.757   2.908
 2492SOL     OW 8374   3.947   3.021   6.877
 2492SOL    HW1 8375   3.848   3.008   6.870
 2492SOL    HW2 8376   3.984   3.048   6.788
 2493SOL     OW 8377   6.087   0.538   2.926
 2493SOL    HW1 8378   6.118   0.443   2.932
 2493SOL    HW2 8379   5.988   0.540   2.917
 2494SOL     OW 8380   5.708   3.723   2.527
 2494SOL    HW1 8381   5.751   3.809   2.501
 2494SOL    HW2 8382   5.706   3.662   2.448
 2495SOL     OW 8383   4.935   0.665   4.962
 2495SOL    HW1 8384   4.897   0.578   4.932
 2495SOL    HW2 8385   4.977   0.713   4.885
 2496SOL     OW 8386   0.953   5.298   6.821
 2496SOL    HW1 8387   0.962   5.250   6.733
 2496SOL    HW2 8388   0.874   5.262   6.870
 2497SOL     OW 8389   0.321   1.705   0.205
 2497SOL    HW1 8390   0.296   1.704   0.302
 2497SOL    HW2 8391   0.241   1.683   0.150
 2498SOL     OW 8392   3.157   2.176   3.447
 2498SOL    HW1 8393   3.164   2.106   3.519
 2498SOL    HW2 8394   3.248   2.195   3.411
 2499SOL     OW 8395   5.169   1.451   4.341
 2499SOL    HW1 8396   5.228   1.427   4.418
 2499SOL    HW2 8397   5.171   1.377   4.273
 2500SOL     OW 8398   4.453   3.456   5.681
 2500SOL    HW1 8399   4.530   3.395   5.660
 2500SOL    HW2 8400   4.389   3.457   5.604
 2501SOL     OW 8401   0.059   5.718   6.650
 2501SOL    HW1 8402   0.044   5.790   6.719
 2501SOL    HW2 8403   0.125   5.652   6.685
 2502SOL     OW 8404   2.574   6.138   3.349
 2502SOL    HW1 8405   2.609   6.096   3.432
 2502SOL    HW2 8406   2.547   6.066   3.284
 2503SOL     OW 8407   3.666   5.781   5.544
 2503SOL    HW1 8408   3.650   5.861   5.486
 2503SOL    HW2 8409   3.643   5.698   5.494
 2504SOL     OW 8410   2.692   5.401   5.023
 2504SOL    HW1 8411   2.737   5.315   5.000
 2504SOL    HW2 8412   2.664   5.449   4.940
 2505SOL     OW 8413   2.490   6.384   4.364
 2505SOL    HW1 8414   2.560   6.329   4.410
 2505SOL    HW2 8415   2.426   6.323   4.316
 2506SOL     OW 8416   0.102   3.201   6.088
 2506SOL    HW1 8417   0.195   3.223   6.058
 2506SOL    HW2 8418   0.101   3.110   6.128
 2507SOL     OW 8419   6.358   4.855   6.674
 2507SOL    HW1 8420   6.298   4.869   6.595
 2507SOL    HW2 8421   6.351   4.760   6.704
 2508SOL     OW 8422   2.377   1.729   2.127
 2508SOL    HW1 8423   2.370   1.662   2.201
 2508SOL    HW2 8424   2.347   1.686   2.041
 2509SOL     OW 8425   6.103   2.860   2.644
 2509SOL    HW1 8426   6.117   2.875   2.547
 2509SOL    HW2 8427   6.152   2.930   2.697
 2510SOL     OW 8428   2.808   4.331   0.694
 2510SOL    HW1 8429   2.805   4.341   0.794
 2510SOL    HW2 8430   2.793   4.235   0.670
 2511SOL     OW 8431   1.485   1.665   4.950
 2511SOL    HW1 8432   1.418   1.693   4.882
 2511SOL    HW2 8433   1.566   1.628   4.904
 2512SOL     OW 8434   5.542   4.563   4.986
 2512SOL    HW1 8435   5.466   4.597   4.930
 2512SOL    HW2 8436   5.604   4.511   4.928
 2513SOL     OW 8437   1.503   2.511   6.183
 2513SOL    HW1 8438   1.515   2.610   6.177
 2513SOL    HW2 8439   1.549   2.477   6.265
 2514SOL     OW 8440   0.614   3.042   3.702
 2514SOL    HW1 8441   0.597   3.032   3.800
 2514SOL    HW2 8442   0.711   3.062   3.688
 2515SOL     OW 8443   1.203   6.427   0.991
 2515SOL    HW1 8444   1.239   6.504   1.043
 2515SOL    HW2 8445   1.278   6.380   0.946
 2516SOL     OW 8446   6.331   5.527   2.552
 2516SOL    HW1 8447   6.269   5.477   2.612
 2516SOL    HW2 8448   6.289   5.615   2.528
 2517SOL     OW 8449   2.175   5.391   5.948
 2517SOL    HW1 8450   2.212   5.313   5.998
 2517SOL    HW2 8451   2.110   5.360   5.879
 2518SOL     OW 8452   1.865   3.338   0.218
 2518SOL    HW1 8453   1.951   3.351   0.267
 2518SOL    HW2 8454   1.834   3.426   0.181
 2519SOL     OW 8455   4.738   4.925   4.321
 2519SOL    HW1 8456   4.758   4.962   4.412
 2519SOL    HW2 8457   4.821   4.886   4.281
 2520SOL     OW 8458   1.070   2.799   1.317
 2520SOL    HW1 8459   1.096   2.858   1.393
 2520SOL    HW2 8460   1.058   2.854   1.235
 2521SOL     OW 8461   1.333   6.732   5.662
 2521SOL    HW1 8462   1.257   6.685   5.708
 2521SOL    HW2 8463   1.300   6.819   5.625
 2522SOL     OW 8464   0.794   3.080   5.504
 2522SOL    HW1 8465   0.841   3.138   5.438
 2522SOL    HW2 8466   0.706   3.051   5.466
 2523SOL     OW 8467   6.964   2.900   1.199
 2523SOL    HW1 8468   6.996   2.827   1.139
 2523SOL    HW2 8469   6.982   2.988   1.156
 2524SOL     OW 8470   0.691   6.175   4.429
 2524SOL    HW1 8471   0.754   6.122   4.373
 2524SOL    HW2 8472   0.725   6.268   4.440
 2525SOL     OW 8473   1.864   2.712   4.001
 2525SOL    HW1 8474   1.876   2.681   3.906
 2525SOL    HW2 8475   1.807   2.645   4.050
 2526SOL     OW 8476   0.325   3.463   5.680
 2526SOL    HW1 8477   0.282   3.419   5.601
 2526SOL    HW2 8478   0.347   3.394   5.749
 2527SOL     OW 8479   5.210   0.334   5.429
 2527SOL    HW1 8480   5.120   0.319   5.388
 2527SOL    HW2 8481   5.203   0.330   5.529
 2528SOL     OW 8482   6.241   4.634   1.398
 2528SOL    HW1 8483   6.151   4.659   1.360
 2528SOL    HW2 8484   6.239   4.538   1.426
 2529SOL     OW 8485   5.721   4.796   6.063
 2529SOL    HW1 8486   5.661   4.779   6.141
 2529SOL    HW2 8487   5.802   4.738   6.070
 2530SOL     OW 8488   1.254   6.527   4.910
 2530SOL    HW1 8489   1.211   6.551   4.997
 2530SOL    HW2 8490   1.197   6.461   4.862
 2531SOL     OW 8491   5.557   6.124   4.731
 2531SOL    HW1 8492   5.601   6.046   4.775
 2531SOL    HW2 8493   5.586   6.209   4.777
 2532SOL     OW 8494   0.870   5.754   0.615
 2532SOL    HW1 8495   0.780   5.758   0.573
 2532SOL    HW2 8496   0.862   5.728   0.712
 2533SOL     OW 8497   5.289   6.509   4.910
 2533SOL    HW1 8498   5.352   6.493   4.834
 2533SOL    HW2 8499   5.328   6.470   4.994
 2534SOL     OW 8500   2.423   0.933   3.111
 2534SOL    HW1 8501   2.388   0.866   3.176
 2534SOL    HW2 8502   2.384   0.915   3.021
 2535SOL     OW 8503   2.272   2.347   6.432
 2535SOL    HW1 8504   2.263   2.425   6.371
 2535SOL    HW2 8505   2.359   2.352   6.480
 2536SOL     OW 8506   0.874   2.111   3.308
 2536SOL    HW1 8507   0.909   2.157   3.226
 2536SOL    HW2 8508   0.819   2.175   3.361
 2537SOL     OW 8509   4.766   6.144   0.560
 2537SOL    HW1 8510   4.789   6.048   0.576
 2537SOL    HW2 8511   4.674   6.162   0.595
 2538SOL     OW 8512   1.924   3.886   5.434
 2538SOL    HW1 8513   1.993   3.904   5.365
 2538SOL    HW2 8514   1.872   3.970   5.451
 2539SOL     OW 8515   4.368   6.960   5.399
 2539SOL    HW1 8516   4.438   6.943   5.467
 2539SOL    HW2 8517   4.286   6.998   5.443
 2540SOL     OW 8518   5.047   0.649   1.815
 2540SOL    HW1 8519   5.002   0.689   1.895
 2540SOL    HW2 8520   5.146   0.647   1.829
 2541SOL     OW 8521   1.507   0.527   5.889
 2541SOL    HW1 8522   1.413   0.545   5.917
 2541SOL    HW2 8523   1.569   0.556   5.962
 2542SOL     OW 8524   3.808   2.080   4.737
 2542SOL    HW1 8525   3.821   1.982   4.726
 2542SOL    HW2 8526   3.892   2.128   4.714
 2543SOL     OW 8527   2.225   0.118   2.806
 2543SOL    HW1 8528   2.277   0.195   2.843
 2543SOL    HW2 8529   2.284   0.064   2.745
 2544SOL     OW 8530   0.401   5.190   2.305
 2544SOL    HW1 8531   0.342   5.113   2.329
 2544SOL    HW2 8532   0.393   5.261   2.374
 2545SOL     OW 8533   1.603   1.028   1.918
 2545SOL    HW1 8534   1.696   1.009   1.948
 2545SOL    HW2 8535   1.606   1.079   1.831
 2546SOL     OW 8536   6.551   3.126   1.159
 2546SOL    HW1 8537   6.480   3.195   1.140
 2546SOL    HW2 8538   6.554   3.061   1.083
 2547SOL     OW 8539   5.312   5.885   0.476
 2547SOL    HW1 8540   5.331   5.918   0.384
 2547SOL    HW2 8541   5.326   5.960   0.541
 2548SOL     OW 8542   2.052   0.338   4.736
 2548SOL    HW1 8543   1.989   0.407   4.700
 2548SOL    HW2 8544   2.145   0.375   4.738
 2549SOL     OW 8545   2.225   2.194   1.927
 2549SOL    HW1 8546   2.132   2.226   1.908
 2549SOL    HW2 8547   2.290   2.269   1.911
 2550SOL     OW 8548   5.735   0.631   6.580
 2550SOL    HW1 8549   5.688   0.707   6.626
 2550SOL    HW2 8550   5.725   0.548   6.635
 2551SOL     OW 8551   3.366   5.373   0.326
 2551SOL    HW1 8552   3.371   5.298   0.393
 2551SOL    HW2 8553   3.446   5.432   0.338
 2552SOL     OW 8554   2.096   5.201   6.627
 2552SOL    HW1 8555   2.115   5.128   6.694
 2552SOL    HW2 8556   2.018   5.175   6.571
 2553SOL     OW 8557   3.212   3.288   6.010
 2553SOL    HW1 8558   3.211   3.219   5.938
 2553SOL    HW2 8559   3.123   3.331   6.016
 2554SOL     OW 8560   1.927   6.011   6.636
 2554SOL    HW1 8561   1.951   5.943   6.705
 2554SOL    HW2 8562   2.010   6.054   6.600
 2555SOL     OW 8563   6.061   6.360   6.757
 2555SOL    HW1 8564   6.101   6.268   6.759
 2555SOL    HW2 8565   5.976   6.360   6.811
 2556SOL     OW 8566   4.207   6.209   0.597
 2556SOL    HW1 8567   4.169   6.268   0.668
 2556SOL    HW2 8568   4.274   6.147   0.637
 2557SOL     OW 8569   2.949   0.773   6.753
 2557SOL    HW1 8570   3.042   0.793   6.783
 2557SOL    HW2 8571   2.905   0.714   6.822
 2558SOL     OW 8572   4.426   4.183   5.374
 2558SOL    HW1 8573   4.428   4.140   5.465
 2558SOL    HW2 8574   4.347   4.150   5.323
 2559SOL     OW 8575   6.119   3.135   3.885
 2559SOL    HW1 8576   6.195   3.081   3.848
 2559SOL    HW2 8577   6.033   3.086   3.869
 2560SOL     OW 8578   5.236   3.756   3.815
 2560SOL    HW1 8579   5.197   3.733   3.904
 2560SOL    HW2 8580   5.331   3.784   3.827
 2561SOL     OW 8581   4.024   1.236   3.255
 2561SOL    HW1 8582   3.991   1.232   3.350
 2561SOL    HW2 8583   4.122   1.216   3.254
 2562SOL     OW 8584   2.961   5.279   3.732
 2562SOL    HW1 8585   3.038   5.252   3.674
 2562SOL    HW2 8586   2.878   5.283   3.677
 2563SOL     OW 8587   3.426   1.492   5.980
 2563SOL    HW1 8588   3.459   1.432   5.907
 2563SOL    HW2 8589   3.470   1.582   5.972
 2564SOL     OW 8590   1.961   6.448   0.090
 2564SOL    HW1 8591   1.866   6.417   0.100
 2564SOL    HW2 8592   1.972   6.535   0.137
 2565SOL     OW 8593   0.196   0.432   0.149
 2565SOL    HW1 8594   0.105   0.451   0.184
 2565SOL    HW2 8595   0.263   0.444   0.222
 2566SOL     OW 8596   2.268   6.766   1.159
 2566SOL    HW1 8597   2.198   6.776   1.088
 2566SOL    HW2 8598   2.239   6.694   1.223
 2567SOL     OW 8599   1.763   1.400   1.667
 2567SOL    HW1 8600   1.855   1.366   1.653
 2567SOL    HW2 8601   1.766   1.499   1.683
 2568SOL     OW 8602   3.369   0.117   0.770
 2568SOL    HW1 8603   3.423   0.197   0.793
 2568SOL    HW2 8604   3.271   0.138   0.781
 2569SOL     OW 8605   1.899   1.643   2.464
 2569SOL    HW1 8606   1.992   1.619   2.493
 2569SOL    HW2 8607   1.901   1.675   2.369
 2570SOL     OW 8608   4.286   6.631   6.637
 2570SOL    HW1 8609   4.228   6.622   6.718
 2570SOL    HW2 8610   4.340   6.547   6.625
 2571SOL     OW 8611   3.840   2.918   4.790
 2571SOL    HW1 8612   3.747   2.908   4.825
 2571SOL    HW2 8613   3.902   2.860   4.842
 2572SOL     OW 8614   2.232   6.304   0.973
 2572SOL    HW1 8615   2.174   6.274   0.898
 2572SOL    HW2 8616   2.321   6.257   0.968
 2573SOL     OW 8617   6.455   1.185   2.744
 2573SOL    HW1 8618   6.366   1.167   2.785
 2573SOL    HW2 8619   6.444   1.203   2.646
 2574SOL     OW 8620   5.710   3.744   0.657
 2574SOL    HW1 8621   5.642   3.733   0.730
 2574SOL    HW2 8622   5.722   3.657   0.609
 2575SOL     OW 8623   5.469   3.433   1.607
 2575SOL    HW1 8624   5.556   3.482   1.612
 2575SOL    HW2 8625   5.420   3.443   1.694
 2576SOL     OW 8626   3.786   6.883   3.922
 2576SOL    HW1 8627   3.812   6.877   3.825
 2576SOL    HW2 8628   3.763   6.978   3.944
 2577SOL     OW 8629   5.164   0.358   3.350
 2577SOL    HW1 8630   5.181   0.421   3.425
 2577SOL    HW2 8631   5.191   0.401   3.263
 2578SOL     OW 8632   4.981   2.698   5.389
 2578SOL    HW1 8633   5.031   2.701   5.475
 2578SOL    HW2 8634   5.033   2.646   5.321
 2579SOL     OW 8635   1.339   1.115   5.170
 2579SOL    HW1 8636   1.372   1.158   5.086
 2579SOL    HW2 8637   1.243   1.140   5.185
 2580SOL     OW 8638   1.576   2.781   6.200
 2580SOL    HW1 8639   1.638   2.828   6.138
 2580SOL    HW2 8640   1.583   2.820   6.291
 2581SOL     OW 8641   6.094   4.688   1.820
 2581SOL    HW1 8642   6.028   4.689   1.745
 2581SOL    HW2 8643   6.110   4.593   1.849
 2582SOL     OW 8644   2.141   4.694   3.139
 2582SOL    HW1 8645   2.237   4.718   3.155
 2582SOL    HW2 8646   2.109   4.635   3.213
 2583SOL     OW 8647   1.542   1.231   1.030
 2583SOL    HW1 8648   1.575   1.138   1.046
 2583SOL    HW2 8649   1.591   1.271   0.953
 2584SOL     OW 8650   4.172   5.764   0.033
 2584SOL    HW1 8651   4.192   5.668   0.010
 2584SOL    HW2 8652   4.086   5.791   7.011
 2585SOL     OW 8653   3.642   0.155   0.659
 2585SOL    HW1 8654   3.623   0.220   0.733
 2585SOL    HW2 8655   3.570   0.161   0.590
 2586SOL     OW 8656   4.956   1.413   4.825
 2586SOL    HW1 8657   4.914   1.495   4.786
 2586SOL    HW2 8658   5.054   1.428   4.837
 2587SOL     OW 8659   6.848   0.857   4.588
 2587SOL    HW1 8660   6.925   0.795   4.573
 2587SOL    HW2 8661   6.763   0.813   4.558
 2588SOL     OW 8662   4.579   0.283   0.302
 2588SOL    HW1 8663   4.500   0.232   0.335
 2588SOL    HW2 8664   4.636   0.223   0.246
 2589SOL     OW 8665   0.518   6.567   5.801
 2589SOL    HW1 8666   0.507   6.542   5.704
 2589SOL    HW2 8667   0.482   6.494   5.858
 2590SOL     OW 8668   3.959   6.603   2.910
 2590SOL    HW1 8669   4.026   6.581   2.981
 2590SOL    HW2 8670   3.889   6.532   2.907
 2591SOL     OW 8671   5.371   6.093   2.676
 2591SOL    HW1 8672   5.437   6.018   2.684
 2591SOL    HW2 8673   5.281   6.062   2.707
 2592SOL     OW 8674   2.457   6.285   1.560
 2592SOL    HW1 8675   2.556   6.302   1.557
 2592SOL    HW2 8676   2.416   6.339   1.633
 2593SOL     OW 8677   3.383   6.395   2.287
 2593SOL    HW1 8678   3.369   6.428   2.381
 2593SOL    HW2 8679   3.333   6.455   2.224
 2594SOL     OW 8680   7.011   6.264   5.735
 2594SOL    HW1 8681   7.013   6.357   5.773
 2594SOL    HW2 8682   7.020   6.197   5.808
 2595SOL     OW 8683   6.698   1.587   5.915
 2595SOL    HW1 8684   6.780   1.616   5.864
 2595SOL    HW2 8685   6.725   1.561   6.008
 2596SOL     OW 8686   3.924   2.137   2.095
 2596SOL    HW1 8687   3.942   2.157   2.191
 2596SOL    HW2 8688   3.827   2.152   2.075
 2597SOL     OW 8689   1.720   3.665   0.776
 2597SOL    HW1 8690   1.669   3.738   0.730
 2597SOL    HW2 8691   1.699   3.577   0.733
 2598SOL     OW 8692   5.776   1.901   4.534
 2598SOL    HW1 8693   5.829   1.969   4.482
 2598SOL    HW2 8694   5.687   1.939   4.557
 2599SOL     OW 8695   3.622   5.764   0.303
 2599SOL    HW1 8696   3.670   5.828   0.363
 2599SOL    HW2 8697   3.658   5.672   0.316
 2600SOL     OW 8698   4.924   3.629   4.605
 2600SOL    HW1 8699   4.896   3.628   4.701
 2600SOL    HW2 8700   5.019   3.661   4.599
 2601SOL     OW 8701   3.910   1.931   6.481
 2601SOL    HW1 8702   3.918   1.935   6.581
 2601SOL    HW2 8703   3.935   1.839   6.449
 2602SOL     OW 8704   0.029   4.807   4.216
 2602SOL    HW1 8705   6.951   4.796   4.203
 2602SOL    HW2 8706   0.047   4.830   4.311
 2603SOL     OW 8707   2.468   2.272   1.500
 2603SOL    HW1 8708   2.467   2.189   1.444
 2603SOL    HW2 8709   2.562   2.297   1.521
 2604SOL     OW 8710   4.975   1.470   2.548
 2604SOL    HW1 8711   4.887   1.517   2.545
 2604SOL    HW2 8712   5.045   1.535   2.580
 2605SOL     OW 8713   3.816   5.258   3.749
 2605SOL    HW1 8714   3.741   5.297   3.695
 2605SOL    HW2 8715   3.796   5.270   3.846
 2606SOL     OW 8716   6.151   4.536   0.218
 2606SOL    HW1 8717   6.201   4.590   0.149
 2606SOL    HW2 8718   6.205   4.532   0.302
 2607SOL     OW 8719   0.419   2.032   6.102
 2607SOL    HW1 8720   0.415   2.122   6.145
 2607SOL    HW2 8721   0.476   2.036   6.020
 2608SOL     OW 8722   3.945   6.052   2.586
 2608SOL    HW1 8723   4.035   6.019   2.615
 2608SOL    HW2 8724   3.909   5.992   2.515
 2609SOL     OW 8725   0.410   2.532   1.185
 2609SOL    HW1 8726   0.461   2.603   1.137
 2609SOL    HW2 8727   0.341   2.574   1.244
 2610SOL     OW 8728   6.670   5.229   3.826
 2610SOL    HW1 8729   6.758   5.182   3.832
 2610SOL    HW2 8730   6.656   5.284   3.908
 2611SOL     OW 8731   5.650   6.572   1.092
 2611SOL    HW1 8732   5.693   6.660   1.111
 2611SOL    HW2 8733   5.688   6.533   1.008
 2612SOL     OW 8734   6.963   6.764   5.384
 2612SOL    HW1 8735   6.907   6.682   5.394
 2612SOL    HW2 8736   0.039   6.739   5.389
 2613SOL     OW 8737   2.700   6.032   1.616
 2613SOL    HW1 8738   2.770   6.000   1.552
 2613SOL    HW2 8739   2.611   5.998   1.586
 2614SOL     OW 8740   6.618   6.523   5.821
 2614SOL    HW1 8741   6.701   6.517   5.878
 2614SOL    HW2 8742   6.628   6.598   5.755
 2615SOL     OW 8743   5.595   4.474   3.015
 2615SOL    HW1 8744   5.688   4.488   3.049
 2615SOL    HW2 8745   5.540   4.428   3.085
 2616SOL     OW 8746   3.611   3.522   4.093
 2616SOL    HW1 8747   3.675   3.579   4.146
 2616SOL    HW2 8748   3.659   3.479   4.017
 2617SOL     OW 8749   3.183   6.460   1.335
 2617SOL    HW1 8750   3.280   6.443   1.317
 2617SOL    HW2 8751   3.174   6.516   1.417
 2618SOL     OW 8752   0.524   6.642   3.727
 2618SOL    HW1 8753   0.516   6.589   3.642
 2618SOL    HW2 8754   0.456   6.611   3.792
 2619SOL     OW 8755   3.226   1.407   3.438
 2619SOL    HW1 8756   3.285   1.478   3.398
 2619SOL    HW2 8757   3.260   1.317   3.411
 2620SOL     OW 8758   0.690   5.952   3.347
 2620SOL    HW1 8759   0.730   6.021   3.407
 2620SOL    HW2 8760   0.753   5.874   3.340
 2621SOL     OW 8761   2.087   6.371   2.961
 2621SOL    HW1 8762   2.060   6.375   2.865
 2621SOL    HW2 8763   2.022   6.422   3.016
 2622SOL     OW 8764   2.286   2.076   6.346
 2622SOL    HW1 8765   2.222   2.134   6.396
 2622SOL    HW2 8766   2.281   2.098   6.249
 2623SOL     OW 8767   3.266   1.845   5.074
 2623SOL    HW1 8768   3.214   1.927   5.097
 2623SOL    HW2 8769   3.317   1.860   4.989
 2624SOL     OW 8770   6.537   3.394   4.408
 2624SOL    HW1 8771   6.444   3.386   4.444
 2624SOL    HW2 8772   6.593   3.318   4.441
 2625SOL     OW 8773   2.495   2.846   5.540
 2625SOL    HW1 8774   2.472   2.851   5.443
 2625SOL    HW2 8775   2.412   2.846   5.594
 2626SOL     OW 8776   0.527   0.016   4.379
 2626SOL    HW1 8777   0.509   0.053   4.288
 2626SOL    HW2 8778   0.453   6.974   4.404
 2627SOL     OW 8779   0.422   0.730   4.961
 2627SOL    HW1 8780   0.355   0.800   4.986
 2627SOL    HW2 8781   0.383   0.668   4.893
 2628SOL     OW 8782   3.205   5.780   6.554
 2628SOL    HW1 8783   3.127   5.842   6.550
 2628SOL    HW2 8784   3.192   5.714   6.628
 2629SOL     OW 8785   3.372   3.919   2.345
 2629SOL    HW1 8786   3.460   3.965   2.350
 2629SOL    HW2 8787   3.366   3.849   2.416
 2630SOL     OW 8788   3.093   1.664   3.211
 2630SOL    HW1 8789   3.028   1.626   3.145
 2630SOL    HW2 8790   3.181   1.680   3.166
 2631SOL     OW 8791   4.815   0.145   4.418
 2631SOL    HW1 8792   4.844   0.050   4.406
 2631SOL    HW2 8793   4.883   0.207   4.378
 2632SOL     OW 8794   2.578   2.168   6.126
 2632SOL    HW1 8795   2.605   2.094   6.064
 2632SOL    HW2 8796   2.488   2.146   6.165
 2633SOL     OW 8797   6.614   2.298   6.227
 2633SOL    HW1 8798   6.520   2.264   6.219
 2633SOL    HW2 8799   6.614   2.398   6.218
 2634SOL     OW 8800   2.038   4.041   2.769
 2634SOL    HW1 8801   2.020   4.088   2.855
 2634SOL    HW2 8802   2.063   3.946   2.787
 2635SOL     OW 8803   5.884   6.276   4.687
 2635SOL    HW1 8804   5.861   6.247   4.594
 2635SOL    HW2 8805   5.926   6.200   4.737
 2636SOL     OW 8806   4.543   0.686   6.064
 2636SOL    HW1 8807   4.621   0.637   6.104
 2636SOL    HW2 8808   4.458   0.644   6.094
 2637SOL     OW 8809   6.319   1.113   3.864
 2637SOL    HW1 8810   6.356   1.109   3.771
 2637SOL    HW2 8811   6.349   1.198   3.908
 2638SOL     OW 8812   0.113   6.742   2.836
 2638SOL    HW1 8813   0.185   6.725   2.768
 2638SOL    HW2 8814   0.109   6.840   2.856
 2639SOL     OW 8815   0.491   0.308   2.105
 2639SOL    HW1 8816   0.564   0.286   2.169
 2639SOL    HW2 8817   0.502   0.402   2.073
 2640SOL     OW 8818   6.665   5.965   5.203
 2640SOL    HW1 8819   6.574   5.924   5.210
 2640SOL    HW2 8820   6.686   6.014   5.287
 2641SOL     OW 8821   5.265   2.833   2.265
 2641SOL    HW1 8822   5.333   2.789   2.323
 2641SOL    HW2 8823   5.179   2.781   2.269
 2642SOL     OW 8824   5.350   6.958   4.665
 2642SOL    HW1 8825   5.373   6.946   4.762
 2642SOL    HW2 8826   5.304   6.876   4.632
 2643SOL     OW 8827   1.632   4.778   3.273
 2643SOL    HW1 8828   1.549   4.762   3.328
 2643SOL    HW2 8829   1.637   4.710   3.200
 2644SOL     OW 8830   6.480   4.464   5.523
 2644SOL    HW1 8831   6.526   4.549   5.500
 2644SOL    HW2 8832   6.533   4.416   5.594
 2645SOL     OW 8833   4.335   6.478   4.182
 2645SOL    HW1 8834   4.431   6.456   4.160
 2645SOL    HW2 8835   4.275   6.428   4.121
 2646SOL     OW 8836   5.931   6.640   6.391
 2646SOL    HW1 8837   5.991   6.689   6.455
 2646SOL    HW2 8838   5.901   6.554   6.433
 2647SOL     OW 8839   5.757   0.547   1.189
 2647SOL    HW1 8840   5.815   0.564   1.109
 2647SOL    HW2 8841   5.789   0.465   1.236
 2648SOL     OW 8842   6.917   0.424   3.955
 2648SOL    HW1 8843   6.822   0.394   3.968
 2648SOL    HW2 8844   6.919   0.500   3.889
 2649SOL     OW 8845   4.663   2.527   5.682
 2649SOL    HW1 8846   4.675   2.457   5.612
 2649SOL    HW2 8847   4.689   2.616   5.645
 2650SOL     OW 8848   0.503   3.418   3.779
 2650SOL    HW1 8849   0.487   3.370   3.693
 2650SOL    HW2 8850   0.568   3.492   3.764
 2651SOL     OW 8851   0.711   1.925   0.157
 2651SOL    HW1 8852   0.682   1.836   0.192
 2651SOL    HW2 8853   0.808   1.923   0.133
 2652SOL     OW 8854   2.890   3.452   3.865
 2652SOL    HW1 8855   2.879   3.539   3.913
 2652SOL    HW2 8856   2.882   3.376   3.929
 2653SOL     OW 8857   5.070   6.890   5.357
 2653SOL    HW1 8858   5.103   6.801   5.326
 2653SOL    HW2 8859   4.971   6.894   5.347
 2654SOL     OW 8860   4.457   3.596   1.026
 2654SOL    HW1 8861   4.539   3.652   1.011
 2654SOL    HW2 8862   4.378   3.657   1.034
 2655SOL     OW 8863   5.291   4.611   4.808
 2655SOL    HW1 8864   5.204   4.619   4.858
 2655SOL    HW2 8865   5.303   4.516   4.779
 2656SOL     OW 8866   4.269   5.083   4.631
 2656SOL    HW1 8867   4.173   5.055   4.627
 2656SOL    HW2 8868   4.291   5.137   4.550
 2657SOL     OW 8869   2.539   4.550   6.285
 2657SOL    HW1 8870   2.517   4.480   6.216
 2657SOL    HW2 8871   2.460   4.561   6.346
 2658SOL     OW 8872   4.956   3.786   0.338
 2658SOL    HW1 8873   5.008   3.707   0.307
 2658SOL    HW2 8874   4.987   3.813   0.429
 2659SOL     OW 8875   6.459   2.804   4.332
 2659SOL    HW1 8876   6.421   2.768   4.247
 2659SOL    HW2 8877   6.400   2.877   4.367
 2660SOL     OW 8878   0.386   1.094   1.433
 2660SOL    HW1 8879   0.307   1.134   1.479
 2660SOL    HW2 8880   0.357   1.015   1.379
 2661SOL     OW 8881   2.312   6.752   1.786
 2661SOL    HW1 8882   2.376   6.706   1.847
 2661SOL    HW2 8883   2.329   6.722   1.692
 2662SOL     OW 8884   4.437   0.209   5.660
 2662SOL    HW1 8885   4.523   0.241   5.700
 2662SOL    HW2 8886   4.381   0.166   5.732
 2663SOL     OW 8887   2.894   3.668   1.492
 2663SOL    HW1 8888   2.854   3.577   1.503
 2663SOL    HW2 8889   2.852   3.731   1.557
 2664SOL     OW 8890   3.980   3.967   4.283
 2664SOL    HW1 8891   4.013   4.058   4.309
 2664SOL    HW2 8892   3.914   3.976   4.208
 2665SOL     OW 8893   2.716   1.989   5.074
 2665SOL    HW1 8894   2.799   1.934   5.086
 2665SOL    HW2 8895   2.665   1.993   5.159
 2666SOL     OW 8896   4.497   3.952   1.704
 2666SOL    HW1 8897   4.433   4.021   1.737
 2666SOL    HW2 8898   4.450   3.864   1.692
 2667SOL     OW 8899   1.750   6.008   4.461
 2667SOL    HW1 8900   1.745   6.103   4.430
 2667SOL    HW2 8901   1.718   6.002   4.555
 2668SOL     OW 8902   6.807   3.026   2.834
 2668SOL    HW1 8903   6.903   3.003   2.823
 2668SOL    HW2 8904   6.753   2.942   2.844
 2669SOL     OW 8905   3.006   4.840   4.946
 2669SOL    HW1 8906   3.004   4.907   5.021
 2669SOL    HW2 8907   2.963   4.755   4.976
 2670SOL     OW 8908   5.510   1.532   6.409
 2670SOL    HW1 8909   5.515   1.433   6.396
 2670SOL    HW2 8910   5.540   1.555   6.501
 2671SOL     OW 8911   3.020   5.254   0.090
 2671SOL    HW1 8912   3.057   5.335   0.134
 2671SOL    HW2 8913   2.920   5.258   0.092
 2672SOL     OW 8914   0.376   5.412   0.088
 2672SOL    HW1 8915   0.420   5.481   0.145
 2672SOL    HW2 8916   0.305   5.456   0.033
 2673SOL     OW 8917   6.022   1.642   3.475
 2673SOL    HW1 8918   6.061   1.560   3.518
 2673SOL    HW2 8919   6.088   1.717   3.480
 2674SOL     OW 8920   2.163   3.805   4.482
 2674SOL    HW1 8921   2.165   3.840   4.388
 2674SOL    HW2 8922   2.144   3.707   4.480
 2675SOL     OW 8923   0.315   5.079   4.604
 2675SOL    HW1 8924   0.249   5.016   4.645
 2675SOL    HW2 8925   0.399   5.077   4.658
 2676SOL     OW 8926   4.328   1.198   2.104
 2676SOL    HW1 8927   4.419   1.181   2.143
 2676SOL    HW2 8928   4.258   1.174   2.170
 2677SOL     OW 8929   3.097   4.714   0.516
 2677SOL    HW1 8930   3.104   4.757   0.606
 2677SOL    HW2 8931   3.000   4.706   0.490
 2678SOL     OW 8932   0.399   4.394   0.975
 2678SOL    HW1 8933   0.331   4.339   0.927
 2678SOL    HW2 8934   0.354   4.466   1.027
 2679SOL     OW 8935   3.412   5.112   0.887
 2679SOL    HW1 8936   3.491   5.166   0.918
 2679SOL    HW2 8937   3.389   5.044   0.957
 2680SOL     OW 8938   1.291   1.603   1.010
 2680SOL    HW1 8939   1.322   1.603   1.105
 2680SOL    HW2 8940   1.290   1.509   0.975
 2681SOL     OW 8941   1.550   2.405   4.535
 2681SOL    HW1 8942   1.548   2.381   4.632
 2681SOL    HW2 8943   1.625   2.356   4.489
 2682SOL     OW 8944   5.496   3.762   2.193
 2682SOL    HW1 8945   5.400   3.732   2.191
 2682SOL    HW2 8946   5.552   3.690   2.234
 2683SOL     OW 8947   1.067   3.682   0.139
 2683SOL    HW1 8948   0.970   3.674   0.113
 2683SOL    HW2 8949   1.073   3.700   0.237
 2684SOL     OW 8950   4.390   5.448   2.454
 2684SOL    HW1 8951   4.419   5.363   2.498
 2684SOL    HW2 8952   4.307   5.431   2.401
 2685SOL     OW 8953   6.575   6.204   6.318
 2685SOL    HW1 8954   6.619   6.146   6.249
 2685SOL    HW2 8955   6.522   6.275   6.273
 2686SOL     OW 8956   1.633   1.769   5.798
 2686SOL    HW1 8957   1.588   1.857   5.781
 2686SOL    HW2 8958   1.597   1.700   5.736
 2687SOL     OW 8959   4.433   4.683   3.125
 2687SOL    HW1 8960   4.357   4.654   3.068
 2687SOL    HW2 8961   4.516   4.636   3.096
 2688SOL     OW 8962   4.758   5.481   6.738
 2688SOL    HW1 8963   4.716   5.570   6.754
 2688SOL    HW2 8964   4.699   5.426   6.679
 2689SOL     OW 8965   2.390   1.860   3.207
 2689SOL    HW1 8966   2.360   1.772   3.171
 2689SOL    HW2 8967   2.452   1.846   3.284
 2690SOL     OW 8968   2.875   3.682   4.028
 2690SOL    HW1 8969   2.863   3.684   4.128
 2690SOL    HW2 8970   2.950   3.743   4.003
 2691SOL     OW 8971   1.022   5.685   2.118
 2691SOL    HW1 8972   0.983   5.637   2.196
 2691SOL    HW2 8973   0.963   5.674   2.038
 2692SOL     OW 8974   4.449   4.966   3.824
 2692SOL    HW1 8975   4.524   4.972   3.890
 2692SOL    HW2 8976   4.420   4.871   3.816
 2693SOL     OW 8977   1.920   4.159   2.979
 2693SOL    HW1 8978   1.914   4.248   3.024
 2693SOL    HW2 8979   1.834   4.138   2.932
 2694SOL     OW 8980   3.689   0.260   2.573
 2694SOL    HW1 8981   3.603   0.209   2.569
 2694SOL    HW2 8982   3.685   0.324   2.650
 2695SOL     OW 8983   5.551   1.208   2.943
 2695SOL    HW1 8984   5.584   1.273   2.875
 2695SOL    HW2 8985   5.492   1.140   2.897
 2696SOL     OW 8986   3.777   3.495   5.146
 2696SOL    HW1 8987   3.822   3.517   5.060
 2696SOL    HW2 8988   3.743   3.579   5.189
 2697SOL     OW 8989   4.220   1.498   3.412
 2697SOL    HW1 8990   4.275   1.414   3.411
 2697SOL    HW2 8991   4.132   1.480   3.367
 2698SOL     OW 8992   2.074   5.630   0.636
 2698SOL    HW1 8993   1.986   5.633   0.588
 2698SOL    HW2 8994   2.122   5.546   0.612
 2699SOL     OW 8995   3.314   5.748   0.381
 2699SOL    HW1 8996   3.411   5.732   0.362
 2699SOL    HW2 8997   3.286   5.834   0.339
 2700SOL     OW 8998   2.117   4.124   1.170
 2700SOL    HW1 8999   2.094   4.219   1.147
 2700SOL    HW2 9000   2.210   4.104   1.137
 2701SOL     OW 9001   2.909   0.293   6.303
 2701SOL    HW1 9002   2.911   0.196   6.327
 2701SOL    HW2 9003   2.822   0.315   6.260
 2702SOL     OW 9004   0.062   2.630   2.794
 2702SOL    HW1 9005   0.158   2.651   2.810
 2702SOL    HW2 9006   0.022   2.592   2.878
 2703SOL     OW 9007   2.392   0.606   2.385
 2703SOL    HW1 9008   2.441   0.679   2.434
 2703SOL    HW2 9009   2.356   0.642   2.299
 2704SOL     OW 9010   0.373   5.593   0.836
 2704SOL    HW1 9011   0.404   5.678   0.878
 2704SOL    HW2 9012   0.373   5.603   0.736
 2705SOL     OW 9013   1.825   5.654   4.760
 2705SOL    HW1 9014   1.904   5.626   4.704
 2705SOL    HW2 9015   1.855   5.670   4.854
 2706SOL     OW 9016   0.802   0.655   1.368
 2706SOL    HW1 9017   0.794   0.638   1.270
 2706SOL    HW2 9018   0.817   0.753   1.384
 2707SOL     OW 9019   1.923   0.340   5.206
 2707SOL    HW1 9020   1.990   0.407   5.240
 2707SOL    HW2 9021   1.960   0.248   5.216
 2708SOL     OW 9022   1.604   1.939   1.072
 2708SOL    HW1 9023   1.577   2.020   1.125
 2708SOL    HW2 9024   1.673   1.887   1.122
 2709SOL     OW 9025   5.468   6.679   0.589
 2709SOL    HW1 9026   5.505   6.771   0.599
 2709SOL    HW2 9027   5.371   6.678   0.613
 2710SOL     OW 9028   0.603   3.014   2.467
 2710SOL    HW1 9029   0.684   3.034   2.523
 2710SOL    HW2 9030   0.550   3.098   2.455
 2711SOL     OW 9031   2.967   1.345   3.474
 2711SOL    HW1 9032   2.893   1.361   3.409
 2711SOL    HW2 9033   3.054   1.372   3.433
 2712SOL     OW 9034   3.258   5.262   1.453
 2712SOL    HW1 9035   3.163   5.230   1.456
 2712SOL    HW2 9036   3.301   5.242   1.541
 2713SOL     OW 9037   1.822   2.271   4.866
 2713SOL    HW1 9038   1.798   2.303   4.958
 2713SOL    HW2 9039   1.911   2.225   4.869
 2714SOL     OW 9040   4.993   2.097   6.332
 2714SOL    HW1 9041   5.029   2.185   6.299
 2714SOL    HW2 9042   4.918   2.113   6.395
 2715SOL     OW 9043   5.490   0.730   0.187
 2715SOL    HW1 9044   5.529   0.642   0.162
 2715SOL    HW2 9045   5.390   0.726   0.184
 2716SOL     OW 9046   5.546   5.188   2.781
 2716SOL    HW1 9047   5.615   5.183   2.708
 2716SOL    HW2 9048   5.559   5.112   2.844
 2717SOL     OW 9049   1.336   5.147   1.870
 2717SOL    HW1 9050   1.406   5.117   1.805
 2717SOL    HW2 9051   1.265   5.077   1.877
 2718SOL     OW 9052   2.128   3.631   4.793
 2718SOL    HW1 9053   2.191   3.664   4.723
 2718SOL    HW2 9054   2.159   3.662   4.883
 2719SOL     OW 9055   5.811   5.659   1.788
 2719SOL    HW1 9056   5.866   5.576   1.792
 2719SOL    HW2 9057   5.828   5.707   1.702
 2720SOL     OW 9058   2.067   5.883   3.341
 2720SOL    HW1 9059   2.051   5.953   3.271
 2720SOL    HW2 9060   2.033   5.916   3.429
 2721SOL     OW 9061   3.318   0.056   4.219
 2721SOL    HW1 9062   3.234   0.108   4.204
 2721SOL    HW2 9063   3.339   0.003   4.137
 2722SOL     OW 9064   6.150   5.362   2.381
 2722SOL    HW1 9065   6.136   5.460   2.376
 2722SOL    HW2 9066   6.144   5.331   2.476
 2723SOL     OW 9067   1.148   6.605   5.805
 2723SOL    HW1 9068   1.196   6.596   5.892
 2723SOL    HW2 9069   1.058   6.561   5.813
 2724SOL     OW 9070   2.840   6.564   6.132
 2724SOL    HW1 9071   2.887   6.477   6.116
 2724SOL    HW2 9072   2.786   6.558   6.215
 2725SOL     OW 9073   6.241   5.098   3.861
 2725SOL    HW1 9074   6.151   5.062   3.887
 2725SOL    HW2 9075   6.278   5.042   3.786
 2726SOL     OW 9076   0.004   4.155   0.771
 2726SOL    HW1 9077   6.994   4.250   0.776
 2726SOL    HW2 9078   6.966   4.098   0.828
 2727SOL     OW 9079   0.593   4.503   2.732
 2727SOL    HW1 9080   0.545   4.510   2.645
 2727SOL    HW2 9081   0.577   4.413   2.772
 2728SOL     OW 9082   3.739   6.893   5.226
 2728SOL    HW1 9083   3.728   6.861   5.132
 2728SOL    HW2 9084   3.828   6.863   5.261
 2729SOL     OW 9085   6.105   5.846   1.275
 2729SOL    HW1 9086   6.054   5.770   1.235
 2729SOL    HW2 9087   6.076   5.932   1.232
 2730SOL     OW 9088   1.240   5.440   1.526
 2730SOL    HW1 9089   1.155   5.405   1.485
 2730SOL    HW2 9090   1.221   5.473   1.618
 2731SOL     OW 9091   3.915   3.413   1.694
 2731SOL    HW1 9092   3.879   3.331   1.649
 2731SOL    HW2 9093   3.932   3.393   1.790
 2732SOL     OW 9094   5.707   3.011   1.704
 2732SOL    HW1 9095   5.768   3.073   1.754
 2732SOL    HW2 9096   5.612   3.042   1.716
 2733SOL     OW 9097   0.356   0.252   5.403
 2733SOL    HW1 9098   0.350   0.344   5.363
 2733SOL    HW2 9099   0.381   0.260   5.500
 2734SOL     OW 9100   2.360   5.552   2.214
 2734SOL    HW1 9101   2.336   5.455   2.202
 2734SOL    HW2 9102   2.323   5.584   2.301
 2735SOL     OW 9103   0.671   3.768   2.760
 2735SOL    HW1 9104   0.611   3.724   2.828
 2735SOL    HW2 9105   0.738   3.825   2.807
 2736SOL     OW 9106   5.208   0.427   4.750
 2736SOL    HW1 9107   5.232   0.500   4.686
 2736SOL    HW2 9108   5.291   0.397   4.799
 2737SOL     OW 9109   3.374   3.295   5.614
 2737SOL    HW1 9110   3.339   3.202   5.629
 2737SOL    HW2 9111   3.459   3.291   5.562
 2738SOL     OW 9112   5.205   5.096   4.256
 2738SOL    HW1 9113   5.111   5.126   4.267
 2738SOL    HW2 9114   5.209   4.996   4.262
 2739SOL     OW 9115   6.305   5.407   0.083
 2739SOL    HW1 9116   6.356   5.426   0.167
 2739SOL    HW2 9117   6.340   5.324   0.040
 2740SOL     OW 9118   6.380   3.652   2.505
 2740SOL    HW1 9119   6.393   3.562   2.546
 2740SOL    HW2 9120   6.448   3.716   2.541
 2741SOL     OW 9121   6.882   0.720   5.856
 2741SOL    HW1 9122   6.785   0.747   5.854
 2741SOL    HW2 9123   6.910   0.704   5.950
 2742SOL     OW 9124   1.706   4.878   6.929
 2742SOL    HW1 9125   1.751   4.920   6.850
 2742SOL    HW2 9126   1.743   4.918   7.013
 2743SOL     OW 9127   6.496   5.192   2.173
 2743SOL    HW1 9128   6.548   5.179   2.088
 2743SOL    HW2 9129   6.399   5.177   2.155
 2744SOL     OW 9130   4.408   1.919   6.842
 2744SOL    HW1 9131   4.461   1.960   6.916
 2744SOL    HW2 9132   4.366   1.834   6.874
 2745SOL     OW 9133   1.345   6.807   6.922
 2745SOL    HW1 9134   1.343   6.711   6.949
 2745SOL    HW2 9135   1.255   6.847   6.937
 2746SOL     OW 9136   2.758   1.685   4.254
 2746SOL    HW1 9137   2.728   1.742   4.178
 2746SOL    HW2 9138   2.680   1.661   4.311
 2747SOL     OW 9139   5.319   3.256   5.267
 2747SOL    HW1 9140   5.249   3.260   5.338
 2747SOL    HW2 9141   5.392   3.320   5.289
 2748SOL     OW 9142   4.017   1.651   1.230
 2748SOL    HW1 9143   4.060   1.723   1.175
 2748SOL    HW2 9144   3.946   1.691   1.287
 2749SOL     OW 9145   5.781   4.838   4.043
 2749SOL    HW1 9146   5.712   4.868   4.108
 2749SOL    HW2 9147   5.774   4.739   4.031
 2750SOL     OW 9148   0.524   5.330   1.738
 2750SOL    HW1 9149   0.568   5.241   1.723
 2750SOL    HW2 9150   0.472   5.327   1.824
 2751SOL     OW 9151   1.290   6.621   0.535
 2751SOL    HW1 9152   1.215   6.555   0.523
 2751SOL    HW2 9153   1.252   6.707   0.570
 2752SOL     OW 9154   4.851   5.152   5.289
 2752SOL    HW1 9155   4.828   5.235   5.239
 2752SOL    HW2 9156   4.951   5.146   5.301
 2753SOL     OW 9157   1.538   0.075   6.465
 2753SOL    HW1 9158   1.547   0.086   6.564
 2753SOL    HW2 9159   1.454   0.120   6.434
 2754SOL     OW 9160   6.468   0.795   4.264
 2754SOL    HW1 9161   6.394   0.777   4.329
 2754SOL    HW2 9162   6.440   0.868   4.201
 2755SOL     OW 9163   3.118   6.763   3.208
 2755SOL    HW1 9164   3.062   6.702   3.264
 2755SOL    HW2 9165   3.113   6.734   3.112
 2756SOL     OW 9166   6.476   3.892   4.913
 2756SOL    HW1 9167   6.443   3.807   4.873
 2756SOL    HW2 9168   6.576   3.891   4.916
 2757SOL     OW 9169   2.586   1.299   6.490
 2757SOL    HW1 9170   2.523   1.311   6.567
 2757SOL    HW2 9171   2.584   1.203   6.460
 2758SOL     OW 9172   5.199   6.301   3.466
 2758SOL    HW1 9173   5.111   6.301   3.512
 2758SOL    HW2 9174   5.207   6.220   3.408
 2759SOL     OW 9175   4.435   5.524   5.372
 2759SOL    HW1 9176   4.412   5.436   5.414
 2759SOL    HW2 9177   4.370   5.594   5.403
 2760SOL     OW 9178   6.943   5.141   2.957
 2760SOL    HW1 9179   0.004   5.118   3.008
 2760SOL    HW2 9180   6.862   5.110   3.007
 2761SOL     OW 9181   1.642   4.545   4.031
 2761SOL    HW1 9182   1.615   4.515   4.122
 2761SOL    HW2 9183   1.561   4.553   3.972
 2762SOL     OW 9184   1.788   1.927   6.648
 2762SOL    HW1 9185   1.718   1.902   6.715
 2762SOL    HW2 9186   1.756   1.903   6.556
 2763SOL     OW 9187   4.916   2.194   5.204
 2763SOL    HW1 9188   4.894   2.291   5.202
 2763SOL    HW2 9189   5.013   2.181   5.184
 2764SOL     OW 9190   0.361   6.207   2.509
 2764SOL    HW1 9191   0.446   6.157   2.490
 2764SOL    HW2 9192   0.349   6.215   2.608
 2765SOL     OW 9193   0.032   0.182   0.583
 2765SOL    HW1 9194   0.092   0.193   0.503
 2765SOL    HW2 9195   6.984   0.112   0.564
 2766SOL     OW 9196   3.891   1.596   6.878
 2766SOL    HW1 9197   3.942   1.555   6.803
 2766SOL    HW2 9198   3.837   1.526   6.924
 2767SOL     OW 9199   6.151   5.406   6.448
 2767SOL    HW1 9200   6.137   5.313   6.413
 2767SOL    HW2 9201   6.062   5.450   6.460
 2768SOL     OW 9202   4.790   1.362   0.203
 2768SOL    HW1 9203   4.889   1.361   0.214
 2768SOL    HW2 9204   4.754   1.451   0.232
 2769SOL     OW 9205   2.519   4.850   6.525
 2769SOL    HW1 9206   2.513   4.871   6.427
 2769SOL    HW2 9207   2.550   4.931   6.575
 2770SOL     OW 9208   4.080   5.726   5.556
 2770SOL    HW1 9209   4.063   5.825   5.556
 2770SOL    HW2 9210   4.006   5.680   5.507
 2771SOL     OW 9211   5.968   0.966   4.841
 2771SOL    HW1 9212   5.936   1.041   4.784
 2771SOL    HW2 9213   6.052   0.993   4.889
 2772SOL     OW 9214   3.063   1.478   1.514
 2772SOL    HW1 9215   2.983   1.514   1.466
 2772SOL    HW2 9216   3.073   1.525   1.601
 2773SOL     OW 9217   6.832   2.625   3.862
 2773SOL    HW1 9218   6.896   2.594   3.791
 2773SOL    HW2 9219   6.801   2.547   3.916
 2774SOL     OW 9220   5.292   3.053   2.645
 2774SOL    HW1 9221   5.264   2.958   2.651
 2774SOL    HW2 9222   5.306   3.078   2.549
 2775SOL     OW 9223   6.256   3.164   4.148
 2775SOL    HW1 9224   6.210   3.107   4.216
 2775SOL    HW2 9225   6.205   3.163   4.062
 2776SOL     OW 9226   5.373   4.110   5.574
 2776SOL    HW1 9227   5.385   4.197   5.527
 2776SOL    HW2 9228   5.284   4.070   5.548
 2777SOL     OW 9229   2.316   1.494   0.129
 2777SOL    HW1 9230   2.286   1.554   0.055
 2777SOL    HW2 9231   2.410   1.518   0.155
 2778SOL     OW 9232   1.639   5.784   6.429
 2778SOL    HW1 9233   1.546   5.749   6.422
 2778SOL    HW2 9234   1.699   5.733   6.368
 2779SOL     OW 9235   5.025   6.868   1.624
 2779SOL    HW1 9236   5.104   6.924   1.651
 2779SOL    HW2 9237   5.002   6.888   1.529
 2780SOL     OW 9238   6.559   6.852   5.933
 2780SOL    HW1 9239   6.595   6.821   5.845
 2780SOL    HW2 9240   6.608   6.807   6.007
 2781SOL     OW 9241   5.816   0.220   3.587
 2781SOL    HW1 9242   5.792   0.204   3.492
 2781SOL    HW2 9243   5.847   0.315   3.598
 2782SOL     OW 9244   4.654   1.226   5.321
 2782SOL    HW1 9245   4.654   1.175   5.235
 2782SOL    HW2 9246   4.726   1.295   5.319
 2783SOL     OW 9247   6.861   3.836   1.307
 2783SOL    HW1 9248   6.919   3.915   1.287
 2783SOL    HW2 9249   6.785   3.864   1.366
 2784SOL     OW 9250   3.206   1.595   2.062
 2784SOL    HW1 9251   3.213   1.496   2.056
 2784SOL    HW2 9252   3.194   1.633   1.970
 2785SOL     OW 9253   5.658   2.328   0.742
 2785SOL    HW1 9254   5.563   2.300   0.724
 2785SOL    HW2 9255   5.690   2.285   0.826
 2786SOL     OW 9256   6.583   6.426   1.313
 2786SOL    HW1 9257   6.650   6.462   1.379
 2786SOL    HW2 9258   6.628   6.359   1.254
 2787SOL     OW 9259   6.196   5.849   5.713
 2787SOL    HW1 9260   6.141   5.796   5.777
 2787SOL    HW2 9261   6.205   5.943   5.745
 2788SOL     OW 9262   2.752   6.224   6.274
 2788SOL    HW1 9263   2.803   6.138   6.278
 2788SOL    HW2 9264   2.666   6.209   6.227
 2789SOL     OW 9265   1.679   1.648   3.581
 2789SOL    HW1 9266   1.683   1.641   3.481
 2789SOL    HW2 9267   1.711   1.738   3.610
 2790SOL     OW 9268   2.959   5.424   0.915
 2790SOL    HW1 9269   3.006   5.345   0.953
 2790SOL    HW2 9270   2.907   5.470   0.987
 2791SOL     OW 9271   0.762   4.244   2.389
 2791SOL    HW1 9272   0.773   4.236   2.488
 2791SOL    HW2 9273   0.759   4.153   2.349
 2792SOL     OW 9274   3.079   1.138   4.589
 2792SOL    HW1 9275   2.997   1.085   4.569
 2792SOL    HW2 9276   3.061   1.235   4.576
 2793SOL     OW 9277   5.363   3.563   1.936
 2793SOL    HW1 9278   5.359   3.640   1.872
 2793SOL    HW2 9279   5.450   3.515   1.925
 2794SOL     OW 9280   6.805   2.085   6.106
 2794SOL    HW1 9281   6.792   1.986   6.104
 2794SOL    HW2 9282   6.734   2.127   6.163
 2795SOL     OW 9283   0.192   4.136   1.106
 2795SOL    HW1 9284   0.242   4.124   1.020
 2795SOL    HW2 9285   0.179   4.233   1.123
 2796SOL     OW 9286   0.688   5.741   3.953
 2796SOL    HW1 9287   0.633   5.749   3.870
 2796SOL    HW2 9288   0.727   5.649   3.958
 2797SOL     OW 9289   5.532   5.106   5.388
 2797SOL    HW1 9290   5.465   5.179   5.404
 2797SOL    HW2 9291   5.620   5.134   5.426
 2798SOL     OW 9292   5.842   6.124   2.758
 2798SOL    HW1 9293   5.802   6.143   2.848
 2798SOL    HW2 9294   5.777   6.149   2.687
 2799SOL     OW 9295   5.255   6.141   5.900
 2799SOL    HW1 9296   5.224   6.135   5.995
 2799SOL    HW2 9297   5.210   6.071   5.846
 2800SOL     OW 9298   5.857   0.506   5.931
 2800SOL    HW1 9299   5.834   0.536   5.838
 2800SOL    HW2 9300   5.800   0.556   5.997
 2801SOL     OW 9301   1.348   5.697   6.124
 2801SOL    HW1 9302   1.419   5.674   6.191
 2801SOL    HW2 9303   1.297   5.614   6.100
 2802SOL     OW 9304   6.859   6.250   5.506
 2802SOL    HW1 9305   6.887   6.247   5.602
 2802SOL    HW2 9306   6.775   6.197   5.493
 2803SOL     OW 9307   3.240   4.524   5.815
 2803SOL    HW1 9308   3.191   4.559   5.735
 2803SOL    HW2 9309   3.291   4.442   5.790
 2804SOL     OW 9310   0.259   4.207   4.579
 2804SOL    HW1 9311   0.324   4.212   4.503
 2804SOL    HW2 9312   0.289   4.136   4.643
 2805SOL     OW 9313   5.962   3.980   2.889
 2805SOL    HW1 9314   5.977   4.065   2.838
 2805SOL    HW2 9315   5.982   3.902   2.831
 2806SOL     OW 9316   1.567   4.532   6.329
 2806SOL    HW1 9317   1.619   4.479   6.396
 2806SOL    HW2 9318   1.520   4.607   6.375
 2807SOL     OW 9319   4.133   0.608   3.150
 2807SOL    HW1 9320   4.066   0.675   3.181
 2807SOL    HW2 9321   4.221   0.626   3.193
 2808SOL     OW 9322   6.467   6.053   0.876
 2808SOL    HW1 9323   6.382   6.051   0.928
 2808SOL    HW2 9324   6.520   6.134   0.902
 2809SOL     OW 9325   5.524   2.311   1.475
 2809SOL    HW1 9326   5.584   2.375   1.523
 2809SOL    HW2 9327   5.577   2.263   1.405
 2810SOL     OW 9328   2.221   5.406   2.694
 2810SOL    HW1 9329   2.260   5.323   2.655
 2810SOL    HW2 9330   2.167   5.382   2.776
 2811SOL     OW 9331   0.949   1.600   2.728
 2811SOL    HW1 9332   0.887   1.666   2.686
 2811SOL    HW2 9333   0.916   1.507   2.710
 2812SOL     OW 9334   6.262   3.511   0.820
 2812SOL    HW1 9335   6.187   3.463   0.865
 2812SOL    HW2 9336   6.332   3.533   0.887
 2813SOL     OW 9337   0.919   1.532   0.485
 2813SOL    HW1 9338   0.978   1.572   0.415
 2813SOL    HW2 9339   0.964   1.453   0.526
 2814SOL     OW 9340   2.858   4.467   5.692
 2814SOL    HW1 9341   2.908   4.537   5.641
 2814SOL    HW2 9342   2.791   4.510   5.752
 2815SOL     OW 9343   0.140   5.275   5.926
 2815SOL    HW1 9344   0.196   5.220   5.988
 2815SOL    HW2 9345   0.142   5.371   5.956
 2816SOL     OW 9346   6.559   5.633   4.632
 2816SOL    HW1 9347   6.622   5.598   4.563
 2816SOL    HW2 9348   6.465   5.610   4.605
 2817SOL     OW 9349   3.531   1.424   2.866
 2817SOL    HW1 9350   3.566   1.355   2.802
 2817SOL    HW2 9351   3.544   1.515   2.828
 2818SOL     OW 9352   6.768   1.388   2.187
 2818SOL    HW1 9353   6.715   1.321   2.136
 2818SOL    HW2 9354   6.843   1.343   2.235
 2819SOL     OW 9355   1.457   0.307   1.419
 2819SOL    HW1 9356   1.472   0.379   1.487
 2819SOL    HW2 9357   1.498   0.221   1.451
 2820SOL     OW 9358   0.955   2.204   2.276
 2820SOL    HW1 9359   0.930   2.228   2.182
 2820SOL    HW2 9360   0.946   2.105   2.288
 2821SOL     OW 9361   2.697   5.440   5.983
 2821SOL    HW1 9362   2.663   5.367   6.041
 2821SOL    HW2 9363   2.790   5.463   6.009
 2822SOL     OW 9364   4.639   2.555   0.134
 2822SOL    HW1 9365   4.728   2.532   0.096
 2822SOL    HW2 9366   4.645   2.643   0.181
 2823SOL     OW 9367   6.334   0.771   7.010
 2823SOL    HW1 9368   6.245   0.731   6.986
 2823SOL    HW2 9369   6.324   0.870   7.020
 2824SOL     OW 9370   1.506   3.139   5.699
 2824SOL    HW1 9371   1.549   3.063   5.748
 2824SOL    HW2 9372   1.518   3.126   5.601
 2825SOL     OW 9373   5.376   0.677   6.192
 2825SOL    HW1 9374   5.468   0.712   6.210
 2825SOL    HW2 9375   5.363   0.666   6.094
 2826SOL     OW 9376   2.886   3.385   6.413
 2826SOL    HW1 9377   2.838   3.322   6.351
 2826SOL    HW2 9378   2.981   3.356   6.423
 2827SOL     OW 9379   0.207   0.962   6.759
 2827SOL    HW1 9380   0.209   1.061   6.768
 2827SOL    HW2 9381   0.195   0.937   6.662
 2828SOL     OW 9382   2.041   3.368   1.523
 2828SOL    HW1 9383   2.125   3.401   1.564
 2828SOL    HW2 9384   2.040   3.389   1.426
 2829SOL     OW 9385   3.075   3.326   3.297
 2829SOL    HW1 9386   3.031   3.399   3.245
 2829SOL    HW2 9387   3.009   3.285   3.361
 2830SOL     OW 9388   3.462   4.397   5.280
 2830SOL    HW1 9389   3.557   4.374   5.259
 2830SOL    HW2 9390   3.403   4.323   5.250
 2831SOL     OW 9391   0.755   2.641   2.505
 2831SOL    HW1 9392   0.680   2.656   2.569
 2831SOL    HW2 9393   0.749   2.549   2.467
 2832SOL     OW 9394   0.705   3.416   1.632
 2832SOL    HW1 9395   0.764   3.435   1.553
 2832SOL    HW2 9396   0.610   3.406   1.601
 2833SOL     OW 9397   2.281   1.561   1.690
 2833SOL    HW1 9398   2.196   1.613   1.697
 2833SOL    HW2 9399   2.358   1.620   1.714
 2834SOL     OW 9400   4.730   6.530   4.513
 2834SOL    HW1 9401   4.816   6.580   4.523
 2834SOL    HW2 9402   4.671   6.549   4.591
 2835SOL     OW 9403   0.861   6.396   0.359
 2835SOL    HW1 9404   0.928   6.427   0.426
 2835SOL    HW2 9405   0.898   6.406   0.267
 2836SOL     OW 9406   2.051   6.288   2.143
 2836SOL    HW1 9407   2.046   6.384   2.117
 2836SOL    HW2 9408   2.123   6.275   2.211
 2837SOL     OW 9409   5.591   4.676   2.606
 2837SOL    HW1 9410   5.520   4.669   2.676
 2837SOL    HW2 9411   5.680   4.685   2.650
 2838SOL     OW 9412   4.659   3.856   0.380
 2838SOL    HW1 9413   4.754   3.832   0.362
 2838SOL    HW2 9414   4.612   3.874   0.293
 2839SOL     OW 9415   0.362   2.948   2.156
 2839SOL    HW1 9416   0.417   2.911   2.231
 2839SOL    HW2 9417   0.271   2.971   2.190
 2840SOL     OW 9418   1.193   5.798   2.835
 2840SOL    HW1 9419   1.238   5.882   2.804
 2840SOL    HW2 9420   1.120   5.822   2.900
 2841SOL     OW 9421   6.528   2.356   0.136
 2841SOL    HW1 9422   6.543   2.275   0.194
 2841SOL    HW2 9423   6.528   2.328   0.040
 2842SOL     OW 9424   1.312   5.871   4.801
 2842SOL    HW1 9425   1.334   5.870   4.898
 2842SOL    HW2 9426   1.349   5.789   4.758
 2843SOL     OW 9427   2.522   1.571   2.677
 2843SOL    HW1 9428   2.471   1.653   2.700
 2843SOL    HW2 9429   2.620   1.589   2.685
 2844SOL     OW 9430   5.722   4.788   1.263
 2844SOL    HW1 9431   5.706   4.819   1.169
 2844SOL    HW2 9432   5.716   4.688   1.267
 2845SOL     OW 9433   5.440   3.549   2.449
 2845SOL    HW1 9434   5.427   3.476   2.383
 2845SOL    HW2 9435   5.538   3.561   2.467
 2846SOL     OW 9436   3.084   1.153   0.499
 2846SOL    HW1 9437   3.072   1.248   0.528
 2846SOL    HW2 9438   3.158   1.147   0.432
 2847SOL     OW 9439   4.943   3.588   2.084
 2847SOL    HW1 9440   4.936   3.673   2.032
 2847SOL    HW2 9441   4.927   3.510   2.023
 2848SOL     OW 9442   2.514   2.473   5.423
 2848SOL    HW1 9443   2.579   2.461   5.498
 2848SOL    HW2 9444   2.429   2.513   5.460
 2849SOL     OW 9445   3.715   1.409   1.485
 2849SOL    HW1 9446   3.719   1.501   1.525
 2849SOL    HW2 9447   3.805   1.366   1.493
 2850SOL     OW 9448   2.289   6.672   3.117
 2850SOL    HW1 9449   2.343   6.718   3.047
 2850SOL    HW2 9450   2.349   6.640   3.191
 2851SOL     OW 9451   3.857   3.536   6.808
 2851SOL    HW1 9452   3.954   3.524   6.787
 2851SOL    HW2 9453   3.804   3.461   6.766
 2852SOL     OW 9454   6.059   4.697   6.923
 2852SOL    HW1 9455   6.137   4.722   6.981
 2852SOL    HW2 9456   5.979   4.750   6.951
 2853SOL     OW 9457   0.893   3.534   0.507
 2853SOL    HW1 9458   0.817   3.469   0.512
 2853SOL    HW2 9459   0.961   3.500   0.442
 2854SOL     OW 9460   3.033   0.602   5.922
 2854SOL    HW1 9461   2.973   0.600   5.842
 2854SOL    HW2 9462   3.116   0.653   5.901
 2855SOL     OW 9463   1.097   2.831   4.816
 2855SOL    HW1 9464   1.170   2.778   4.774
 2855SOL    HW2 9465   1.044   2.876   4.744
 2856SOL     OW 9466   1.550   2.655   3.928
 2856SOL    HW1 9467   1.584   2.575   3.880
 2856SOL    HW2 9468   1.596   2.737   3.894
 2857SOL     OW 9469   0.310   3.085   1.055
 2857SOL    HW1 9470   0.315   3.031   1.139
 2857SOL    HW2 9471   0.401   3.122   1.033
 2858SOL     OW 9472   5.183   6.700   2.258
 2858SOL    HW1 9473   5.246   6.654   2.195
 2858SOL    HW2 9474   5.142   6.633   2.319
 2859SOL     OW 9475   5.456   6.352   0.680
 2859SOL    HW1 9476   5.478   6.407   0.761
 2859SOL    HW2 9477   5.368   6.382   0.643
 2860SOL     OW 9478   1.670   6.793   2.153
 2860SOL    HW1 9479   1.644   6.831   2.242
 2860SOL    HW2 9480   1.595   6.735   2.119
 2861SOL     OW 9481   3.299   5.942   5.006
 2861SOL    HW1 9482   3.386   5.978   4.972
 2861SOL    HW2 9483   3.252   6.013   5.058
 2862SOL     OW 9484   4.371   2.435   1.964
 2862SOL    HW1 9485   4.443   2.370   1.940
 2862SOL    HW2 9486   4.412   2.521   1.995
 2863SOL     OW 9487   5.004   1.302   6.825
 2863SOL    HW1 9488   5.032   1.362   6.899
 2863SOL    HW2 9489   4.914   1.264   6.845
 2864SOL     OW 9490   4.556   2.776   1.071
 2864SOL    HW1 9491   4.614   2.718   1.128
 2864SOL    HW2 9492   4.496   2.830   1.130
 2865SOL     OW 9493   4.097   6.907   3.982
 2865SOL    HW1 9494   4.153   6.977   3.937
 2865SOL    HW2 9495   4.110   6.819   3.937
 2866SOL     OW 9496   5.689   4.012   0.306
 2866SOL    HW1 9497   5.740   4.093   0.279
 2866SOL    HW2 9498   5.753   3.936   0.322
 2867SOL     OW 9499   6.049   6.503   2.744
 2867SOL    HW1 9500   6.024   6.502   2.647
 2867SOL    HW2 9501   6.097   6.418   2.766
 2868SOL     OW 9502   1.019   1.649   5.376
 2868SOL    HW1 9503   0.990   1.722   5.314
 2868SOL    HW2 9504   0.975   1.661   5.465
 2869SOL     OW 9505   6.185   0.864   3.851
 2869SOL    HW1 9506   6.223   0.840   3.762
 2869SOL    HW2 9507   6.202   0.961   3.869
 2870SOL     OW 9508   0.682   1.682   6.494
 2870SOL    HW1 9509   0.653   1.590   6.469
 2870SOL    HW2 9510   0.729   1.725   6.417
 2871SOL     OW 9511   6.492   0.529   6.985
 2871SOL    HW1 9512   6.440   0.465   0.020
 2871SOL    HW2 9513   6.460   0.623   7.003
 2872SOL     OW 9514   2.717   1.646   0.897
 2872SOL    HW1 9515   2.763   1.567   0.938
 2872SOL    HW2 9516   2.736   1.648   0.799
 2873SOL     OW 9517   6.751   6.329   2.068
 2873SOL    HW1 9518   6.749   6.301   1.972
 2873SOL    HW2 9519   6.678   6.282   2.118
 2874SOL     OW 9520   4.294   6.861   2.924
 2874SOL    HW1 9521   4.382   6.880   2.880
 2874SOL    HW2 9522   4.221   6.871   2.857
 2875SOL     OW 9523   3.756   6.942   2.791
 2875SOL    HW1 9524   3.713   0.008   2.815
 2875SOL    HW2 9525   3.742   6.877   2.866
 2876SOL     OW 9526   1.149   6.429   2.268
 2876SOL    HW1 9527   1.235   6.378   2.272
 2876SOL    HW2 9528   1.153   6.496   2.194
 2877SOL     OW 9529   1.892   0.773   6.698
 2877SOL    HW1 9530   1.969   0.714   6.674
 2877SOL    HW2 9531   1.890   0.852   6.637
 2878SOL     OW 9532   2.931   3.806   4.690
 2878SOL    HW1 9533   2.924   3.726   4.630
 2878SOL    HW2 9534   2.943   3.775   4.784
 2879SOL     OW 9535   4.257   5.294   5.552
 2879SOL    HW1 9536   4.181   5.233   5.572
 2879SOL    HW2 9537   4.342   5.241   5.550
 2880SOL     OW 9538   0.195   1.709   3.696
 2880SOL    HW1 9539   0.294   1.705   3.706
 2880SOL    HW2 9540   0.168   1.664   3.611
 2881SOL     OW 9541   3.486   6.134   6.967
 2881SOL    HW1 9542   3.403   6.096   6.926
 2881SOL    HW2 9543   3.550   6.061   6.988
 2882SOL     OW 9544   6.287   5.903   1.456
 2882SOL    HW1 9545   6.210   5.874   1.400
 2882SOL    HW2 9546   6.268   5.884   1.552
 2883SOL     OW 9547   5.887   6.466   3.528
 2883SOL    HW1 9548   5.943   6.391   3.564
 2883SOL    HW2 9549   5.815   6.488   3.594
 2884SOL     OW 9550   6.869   5.960   2.075
 2884SOL    HW1 9551   6.821   5.877   2.047
 2884SOL    HW2 9552   6.960   5.936   2.108
 2885SOL     OW 9553   0.872   2.374   4.341
 2885SOL    HW1 9554   0.811   2.338   4.412
 2885SOL    HW2 9555   0.829   2.453   4.298
 2886SOL     OW 9556   2.113   4.412   6.587
 2886SOL    HW1 9557   2.065   4.376   6.667
 2886SOL    HW2 9558   2.057   4.397   6.505
 2887SOL     OW 9559   0.081   5.762   4.513
 2887SOL    HW1 9560   0.057   5.731   4.605
 2887SOL    HW2 9561   7.021   5.800   4.468
 2888SOL     OW 9562   0.403   5.124   0.175
 2888SOL    HW1 9563   0.399   5.208   0.121
 2888SOL    HW2 9564   0.322   5.118   0.233
 2889SOL     OW 9565   3.082   6.550   2.678
 2889SOL    HW1 9566   3.139   6.620   2.721
 2889SOL    HW2 9567   3.001   6.533   2.735
 2890SOL     OW 9568   1.750   5.276   0.933
 2890SOL    HW1 9569   1.708   5.211   0.871
 2890SOL    HW2 9570   1.849   5.280   0.916
 2891SOL     OW 9571   1.628   3.410   3.379
 2891SOL    HW1 9572   1.599   3.384   3.287
 2891SOL    HW2 9573   1.554   3.394   3.444
 2892SOL     OW 9574   5.835   3.076   1.029
 2892SOL    HW1 9575   5.822   3.132   1.110
 2892SOL    HW2 9576   5.749   3.067   0.979
 2893SOL     OW 9577   1.661   5.293   4.674
 2893SOL    HW1 9578   1.714   5.326   4.596
 2893SOL    HW2 9579   1.700   5.327   4.759
 2894SOL     OW 9580   1.949   3.962   1.476
 2894SOL    HW1 9581   1.854   3.932   1.483
 2894SOL    HW2 9582   2.005   3.887   1.442
 2895SOL     OW 9583   3.977   0.543   6.513
 2895SOL    HW1 9584   3.895   0.524   6.566
 2895SOL    HW2 9585   4.038   0.602   6.567
 2896SOL     OW 9586   4.573   0.152   5.419
 2896SOL    HW1 9587   4.501   0.187   5.479
 2896SOL    HW2 9588   4.589   0.056   5.439
 2897SOL     OW 9589   4.265   5.023   2.876
 2897SOL    HW1 9590   4.259   5.009   2.777
 2897SOL    HW2 9591   4.360   5.034   2.903
 2898SOL     OW 9592   5.304   4.028   4.005
 2898SOL    HW1 9593   5.324   3.938   4.043
 2898SOL    HW2 9594   5.349   4.098   4.060
 2899SOL     OW 9595   6.522   1.739   0.875
 2899SOL    HW1 9596   6.512   1.652   0.827
 2899SOL    HW2 9597   6.480   1.812   0.821
 2900SOL     OW 9598   4.273   4.879   6.448
 2900SOL    HW1 9599   4.253   4.958   6.505
 2900SOL    HW2 9600   4.187   4.838   6.415
 2901SOL     OW 9601   2.183   4.715   3.650
 2901SOL    HW1 9602   2.148   4.778   3.720
 2901SOL    HW2 9603   2.180   4.621   3.685
 2902SOL     OW 9604   6.594   4.958   3.571
 2902SOL    HW1 9605   6.597   4.924   3.477
 2902SOL    HW2 9606   6.569   5.055   3.571
 2903SOL     OW 9607   4.108   6.367   0.798
 2903SOL    HW1 9608   4.010   6.386   0.804
 2903SOL    HW2 9609   4.147   6.363   0.890
 2904SOL     OW 9610   3.225   5.165   4.952
 2904SOL    HW1 9611   3.197   5.081   4.907
 2904SOL    HW2 9612   3.166   5.240   4.922
 2905SOL     OW 9613   1.693   4.144   4.121
 2905SOL    HW1 9614   1.718   4.239   4.140
 2905SOL    HW2 9615   1.723   4.119   4.029
 2906SOL     OW 9616   5.566   5.871   2.755
 2906SOL    HW1 9617   5.575   5.874   2.854
 2906SOL    HW2 9618   5.624   5.799   2.718
 2907SOL     OW 9619   0.973   1.738   4.147
 2907SOL    HW1 9620   0.952   1.655   4.095
 2907SOL    HW2 9621   1.034   1.796   4.094
 2908SOL     OW 9622   5.408   6.490   3.371
 2908SOL    HW1 9623   5.446   6.542   3.447
 2908SOL    HW2 9624   5.323   6.445   3.400
 2909SOL     OW 9625   2.049   6.893   3.022
 2909SOL    HW1 9626   1.997   6.933   3.098
 2909SOL    HW2 9627   2.146   6.913   3.034
 2910SOL     OW 9628   6.725   0.749   3.870
 2910SOL    HW1 9629   6.652   0.789   3.814
 2910SOL    HW2 9630   6.686   0.717   3.957
 2911SOL     OW 9631   1.909   5.265   3.662
 2911SOL    HW1 9632   1.916   5.210   3.746
 2911SOL    HW2 9633   1.831   5.327   3.669
 2912SOL     OW 9634   6.550   5.988   6.643
 2912SOL    HW1 9635   6.506   5.899   6.644
 2912SOL    HW2 9636   6.482   6.060   6.657
 2913SOL     OW 9637   3.401   4.917   2.344
 2913SOL    HW1 9638   3.496   4.891   2.326
 2913SOL    HW2 9639   3.350   4.920   2.258
 2914SOL     OW 9640   5.777   5.850   1.187
 2914SOL    HW1 9641   5.769   5.789   1.266
 2914SOL    HW2 9642   5.768   5.797   1.103
 2915SOL     OW 9643   3.411   1.825   3.814
 2915SOL    HW1 9644   3.338   1.765   3.783
 2915SOL    HW2 9645   3.490   1.816   3.754
 2916SOL     OW 9646   1.766   5.391   0.368
 2916SOL    HW1 9647   1.805   5.308   0.328
 2916SOL    HW2 9648   1.707   5.436   0.300
 2917SOL     OW 9649   3.289   0.512   4.452
 2917SOL    HW1 9650   3.387   0.525   4.470
 2917SOL    HW2 9651   3.276   0.479   4.359
 2918SOL     OW 9652   5.931   3.621   6.248
 2918SOL    HW1 9653   5.952   3.708   6.291
 2918SOL    HW2 9654   5.961   3.622   6.153
 2919SOL     OW 9655   6.081   0.493   3.719
 2919SOL    HW1 9656   6.101   0.455   3.809
 2919SOL    HW2 9657   6.126   0.437   3.649
 2920SOL     OW 9658   3.215   0.365   1.623
 2920SOL    HW1 9659   3.281   0.438   1.641
 2920SOL    HW2 9660   3.142   0.368   1.691
 2921SOL     OW 9661   0.471   0.021   5.706
 2921SOL    HW1 9662   0.432   6.995   5.627
 2921SOL    HW2 9663   0.500   6.975   5.774
 2922SOL     OW 9664   3.911   6.168   1.616
 2922SOL    HW1 9665   3.874   6.197   1.705
 2922SOL    HW2 9666   4.003   6.206   1.605
 2923SOL     OW 9667   6.710   5.373   4.739
 2923SOL    HW1 9668   6.721   5.434   4.660
 2923SOL    HW2 9669   6.632   5.403   4.793
 2924SOL     OW 9670   0.351   1.919   4.306
 2924SOL    HW1 9671   0.389   1.839   4.352
 2924SOL    HW2 9672   0.252   1.922   4.321
 2925SOL     OW 9673   5.795   1.718   0.229
 2925SOL    HW1 9674   5.736   1.740   0.151
 2925SOL    HW2 9675   5.788   1.620   0.250
 2926SOL     OW 9676   6.428   2.104   5.982
 2926SOL    HW1 9677   6.478   2.185   5.953
 2926SOL    HW2 9678   6.479   2.057   6.054
 2927SOL     OW 9679   1.349   3.302   0.680
 2927SOL    HW1 9680   1.264   3.269   0.721
 2927SOL    HW2 9681   1.405   3.225   0.651
 2928SOL     OW 9682   6.410   1.417   0.020
 2928SOL    HW1 9683   6.436   1.458   6.954
 2928SOL    HW2 9684   6.331   1.465   0.057
 2929SOL     OW 9685   1.721   2.801   5.230
 2929SOL    HW1 9686   1.775   2.869   5.279
 2929SOL    HW2 9687   1.721   2.821   5.132
 2930SOL     OW 9688   5.413   6.350   5.123
 2930SOL    HW1 9689   5.411   6.373   5.221
 2930SOL    HW2 9690   5.468   6.267   5.110
 2931SOL     OW 9691   4.814   4.936   6.980
 2931SOL    HW1 9692   4.878   4.866   7.010
 2931SOL    HW2 9693   4.813   5.011   0.024
 2932SOL     OW 9694   6.922   6.015   1.634
 2932SOL    HW1 9695   6.986   5.939   1.633
 2932SOL    HW2 9696   6.972   6.101   1.627
 2933SOL     OW 9697   0.547   6.560   2.023
 2933SOL    HW1 9698   0.476   6.587   1.958
 2933SOL    HW2 9699   0.541   6.462   2.042
 2934SOL     OW 9700   5.206   2.737   0.993
 2934SOL    HW1 9701   5.230   2.746   1.089
 2934SOL    HW2 9702   5.149   2.656   0.980
 2935SOL     OW 9703   0.248   2.440   6.605
 2935SOL    HW1 9704   0.323   2.475   6.549
 2935SOL    HW2 9705   0.170   2.502   6.598
 2936SOL     OW 9706   3.967   6.307   0.495
 2936SOL    HW1 9707   4.038   6.252   0.538
 2936SOL    HW2 9708   3.884   6.305   0.552
 2937SOL     OW 9709   4.958   5.302   0.928
 2937SOL    HW1 9710   5.031   5.281   0.863
 2937SOL    HW2 9711   4.953   5.230   0.997
 2938SOL     OW 9712   0.099   5.380   0.329
 2938SOL    HW1 9713   0.195   5.408   0.336
 2938SOL    HW2 9714   0.043   5.438   0.388
 2939SOL     OW 9715   1.519   0.534   1.602
 2939SOL    HW1 9716   1.460   0.581   1.667
 2939SOL    HW2 9717   1.550   0.599   1.532
 2940SOL     OW 9718   6.166   5.841   5.059
 2940SOL    HW1 9719   6.233   5.913   5.079
 2940SOL    HW2 9720   6.211   5.767   5.008
 2941SOL     OW 9721   2.562   1.942   2.889
 2941SOL    HW1 9722   2.644   1.908   2.843
 2941SOL    HW2 9723   2.578   1.945   2.988
 2942SOL     OW 9724   3.712   2.653   0.780
 2942SOL    HW1 9725   3.765   2.670   0.697
 2942SOL    HW2 9726   3.730   2.725   0.846
 2943SOL     OW 9727   5.489   4.931   3.893
 2943SOL    HW1 9728   5.458   4.960   3.802
 2943SOL    HW2 9729   5.531   4.841   3.887
 2944SOL     OW 9730   2.597   6.499   3.908
 2944SOL    HW1 9731   2.671   6.437   3.933
 2944SOL    HW2 9732   2.587   6.502   3.809
 2945SOL     OW 9733   4.879   2.647   1.561
 2945SOL    HW1 9734   4.806   2.707   1.527
 2945SOL    HW2 9735   4.916   2.686   1.646
 2946SOL     OW 9736   2.349   4.296   5.723
 2946SOL    HW1 9737   2.267   4.251   5.688
 2946SOL    HW2 9738   2.424   4.230   5.726
 2947SOL     OW 9739   6.969   5.189   0.552
 2947SOL    HW1 9740   0.022   5.250   0.581
 2947SOL    HW2 9741   6.889   5.204   0.609
 2948SOL     OW 9742   6.966   3.983   3.684
 2948SOL    HW1 9743   0.007   4.034   3.625
 2948SOL    HW2 9744   6.944   3.895   3.642
 2949SOL     OW 9745   0.524   5.626   6.807
 2949SOL    HW1 9746   0.506   5.705   6.748
 2949SOL    HW2 9747   0.615   5.636   6.848
 2950SOL     OW 9748   5.686   5.933   3.637
 2950SOL    HW1 9749   5.729   5.958   3.724
 2950SOL    HW2 9750   5.735   5.855   3.597
 2951SOL     OW 9751   5.578   1.463   2.055
 2951SOL    HW1 9752   5.622   1.373   2.054
 2951SOL    HW2 9753   5.513   1.469   1.980
 2952SOL     OW 9754   0.316   6.876   5.011
 2952SOL    HW1 9755   0.392   6.933   5.043
 2952SOL    HW2 9756   0.248   6.935   4.967
 2953SOL     OW 9757   0.009   4.387   3.155
 2953SOL    HW1 9758   0.004   4.310   3.091
 2953SOL    HW2 9759   0.006   4.473   3.104
 2954SOL     OW 9760   6.872   4.537   0.031
 2954SOL    HW1 9761   6.927   4.455   0.050
 2954SOL    HW2 9762   6.913   4.616   0.076
 2955SOL     OW 9763   0.710   4.518   1.107
 2955SOL    HW1 9764   0.696   4.510   1.008
 2955SOL    HW2 9765   0.793   4.572   1.125
 2956SOL     OW 9766   6.566   5.466   3.502
 2956SOL    HW1 9767   6.566   5.368   3.519
 2956SOL    HW2 9768   6.639   5.489   3.438
 2957SOL     OW 9769   4.587   4.462   1.452
 2957SOL    HW1 9770   4.663   4.498   1.398
 2957SOL    HW2 9771   4.623   4.412   1.530
 2958SOL     OW 9772   2.158   4.930   3.463
 2958SOL    HW1 9773   2.152   4.839   3.505
 2958SOL    HW2 9774   2.081   4.943   3.401
 2959SOL     OW 9775   5.535   2.760   2.343
 2959SOL    HW1 9776   5.517   2.750   2.441
 2959SOL    HW2 9777   5.588   2.844   2.328
 2960SOL     OW 9778   3.530   6.924   6.781
 2960SOL    HW1 9779   3.574   6.835   6.794
 2960SOL    HW2 9780   3.535   6.950   6.685
 2961SOL     OW 9781   6.113   4.820   3.082
 2961SOL    HW1 9782   6.199   4.770   3.077
 2961SOL    HW2 9783   6.036   4.757   3.073
 2962SOL     OW 9784   4.681   6.375   3.389
 2962SOL    HW1 9785   4.593   6.422   3.395
 2962SOL    HW2 9786   4.670   6.288   3.342
 2963SOL     OW 9787   0.870   0.888   6.687
 2963SOL    HW1 9788   0.801   0.839   6.635
 2963SOL    HW2 9789   0.877   0.982   6.652
 2964SOL     OW 9790   0.254   1.962   5.864
 2964SOL    HW1 9791   0.320   2.006   5.923
 2964SOL    HW2 9792   0.208   1.889   5.914
 2965SOL     OW 9793   0.604   0.606   4.179
 2965SOL    HW1 9794   0.692   0.587   4.223
 2965SOL    HW2 9795   0.620   0.651   4.091
 2966SOL     OW 9796   4.671   5.640   3.714
 2966SOL    HW1 9797   4.644   5.638   3.810
 2966SOL    HW2 9798   4.705   5.730   3.690
 2967SOL     OW 9799   6.406   0.847   5.466
 2967SOL    HW1 9800   6.338   0.819   5.535
 2967SOL    HW2 9801   6.402   0.946   5.455
 2968SOL     OW 9802   1.120   2.476   0.877
 2968SOL    HW1 9803   1.072   2.399   0.918
 2968SOL    HW2 9804   1.168   2.446   0.794
 2969SOL     OW 9805   4.866   2.866   4.512
 2969SOL    HW1 9806   4.964   2.845   4.506
 2969SOL    HW2 9807   4.853   2.950   4.564
 2970SOL     OW 9808   2.726   2.951   5.326
 2970SOL    HW1 9809   2.748   3.018   5.397
 2970SOL    HW2 9810   2.633   2.968   5.291
 2971SOL     OW 9811   5.018   4.295   0.504
 2971SOL    HW1 9812   4.959   4.239   0.446
 2971SOL    HW2 9813   5.011   4.263   0.599
 2972SOL     OW 9814   5.785   5.065   6.289
 2972SOL    HW1 9815   5.694   5.026   6.272
 2972SOL    HW2 9816   5.836   5.070   6.203
 2973SOL     OW 9817   4.675   6.632   2.352
 2973SOL    HW1 9818   4.598   6.668   2.404
 2973SOL    HW2 9819   4.760   6.661   2.395
 2974SOL     OW 9820   6.576   4.252   3.270
 2974SOL    HW1 9821   6.489   4.263   3.222
 2974SOL    HW2 9822   6.576   4.310   3.352
 2975SOL     OW 9823   5.481   4.387   4.490
 2975SOL    HW1 9824   5.523   4.462   4.439
 2975SOL    HW2 9825   5.409   4.345   4.435
 2976SOL     OW 9826   5.066   1.896   2.841
 2976SOL    HW1 9827   5.135   1.846   2.789
 2976SOL    HW2 9828   5.075   1.994   2.823
 2977SOL     OW 9829   0.147   0.929   2.315
 2977SOL    HW1 9830   0.181   0.873   2.239
 2977SOL    HW2 9831   0.214   1.000   2.337
 2978SOL     OW 9832   3.635   4.418   0.237
 2978SOL    HW1 9833   3.704   4.359   0.196
 2978SOL    HW2 9834   3.571   4.448   0.166
 2979SOL     OW 9835   3.557   1.824   4.247
 2979SOL    HW1 9836   3.608   1.910   4.240
 2979SOL    HW2 9837   3.516   1.817   4.338
 2980SOL     OW 9838   2.318   5.610   6.111
 2980SOL    HW1 9839   2.266   5.690   6.082
 2980SOL    HW2 9840   2.278   5.528   6.070
 2981SOL     OW 9841   2.289   1.024   0.019
 2981SOL    HW1 9842   2.191   1.028   7.019
 2981SOL    HW2 9843   2.318   1.113   0.055
 2982SOL     OW 9844   2.153   6.000   1.584
 2982SOL    HW1 9845   2.131   5.949   1.667
 2982SOL    HW2 9846   2.251   6.017   1.580
 2983SOL     OW 9847   6.555   2.284   1.293
 2983SOL    HW1 9848   6.511   2.374   1.303
 2983SOL    HW2 9849   6.652   2.297   1.272
 2984SOL     OW 9850   5.621   5.625   6.165
 2984SOL    HW1 9851   5.716   5.652   6.176
 2984SOL    HW2 9852   5.563   5.678   6.226
 2985SOL     OW 9853   1.111   1.746   4.986
 2985SOL    HW1 9854   1.138   1.734   4.891
 2985SOL    HW2 9855   1.012   1.758   4.992
 2986SOL     OW 9856   3.783   3.708   2.495
 2986SOL    HW1 9857   3.693   3.681   2.461
 2986SOL    HW2 9858   3.772   3.762   2.578
 2987SOL     OW 9859   1.428   1.322   4.508
 2987SOL    HW1 9860   1.470   1.245   4.460
 2987SOL    HW2 9861   1.429   1.402   4.449
 2988SOL     OW 9862   1.638   0.123   1.900
 2988SOL    HW1 9863   1.663   0.220   1.899
 2988SOL    HW2 9864   1.703   0.072   1.843
 2989SOL     OW 9865   5.570   4.023   5.745
 2989SOL    HW1 9866   5.547   3.996   5.839
 2989SOL    HW2 9867   5.488   4.057   5.700
 2990SOL     OW 9868   4.948   2.514   4.406
 2990SOL    HW1 9869   4.949   2.613   4.396
 2990SOL    HW2 9870   4.878   2.475   4.345
 2991SOL     OW 9871   5.857   3.338   6.206
 2991SOL    HW1 9872   5.778   3.318   6.263
 2991SOL    HW2 9873   5.911   3.411   6.248
 2992SOL     OW 9874   1.832   4.789   4.843
 2992SOL    HW1 9875   1.872   4.880   4.833
 2992SOL    HW2 9876   1.899   4.720   4.814
 2993SOL     OW 9877   0.190   4.993   0.624
 2993SOL    HW1 9878   0.230   4.981   0.715
 2993SOL    HW2 9879   0.104   5.044   0.632
 2994SOL     OW 9880   3.717   5.954   0.469
 2994SOL    HW1 9881   3.670   6.034   0.432
 2994SOL    HW2 9882   3.749   5.974   0.562
 2995SOL     OW 9883   4.087   0.745   0.351
 2995SOL    HW1 9884   4.073   0.647   0.370
 2995SOL    HW2 9885   4.105   0.793   0.436
 2996SOL     OW 9886   0.772   2.151   4.664
 2996SOL    HW1 9887   0.810   2.243   4.666
 2996SOL    HW2 9888   0.773   2.112   4.757
 2997SOL     OW 9889   5.198   0.086   3.325
 2997SOL    HW1 9890   5.216   0.185   3.319
 2997SOL    HW2 9891   5.100   0.072   3.343
 2998SOL     OW 9892   4.371   6.454   3.313
 2998SOL    HW1 9893   4.392   6.506   3.396
 2998SOL    HW2 9894   4.407   6.504   3.233
 2999SOL     OW 9895   2.678   5.027   5.867
 2999SOL    HW1 9896   2.638   5.091   5.932
 2999SOL    HW2 9897   2.744   4.969   5.914
 3000SOL     OW 9898   2.499   3.908   6.724
 3000SOL    HW1 9899   2.483   3.844   6.649
 3000SOL    HW2 9900   2.517   3.856   6.808
 3001SOL     OW 9901   6.212   1.880   0.457
 3001SOL    HW1 9902   6.143   1.925   0.400
 3001SOL    HW2 9903   6.195   1.782   0.459
 3002SOL     OW 9904   3.393   2.162   0.447
 3002SOL    HW1 9905   3.416   2.241   0.390
 3002SOL    HW2 9906   3.341   2.096   0.393
 3003SOL     OW 9907   0.876   6.729   1.321
 3003SOL    HW1 9908   0.860   6.635   1.293
 3003SOL    HW2 9909   0.845   6.792   1.249
 3004SOL     OW 9910   1.173   5.058   2.864
 3004SOL    HW1 9911   1.079   5.037   2.837
 3004SOL    HW2 9912   1.231   5.059   2.782
 3005SOL     OW 9913   1.321   3.276   6.797
 3005SOL    HW1 9914   1.392   3.294   6.729
 3005SOL    HW2 9915   1.267   3.359   6.812
 3006SOL     OW 9916   5.739   1.764   5.187
 3006SOL    HW1 9917   5.836   1.764   5.164
 3006SOL    HW2 9918   5.685   1.765   5.103
 3007SOL     OW 9919   4.582   5.006   0.466
 3007SOL    HW1 9920   4.484   5.005   0.485
 3007SOL    HW2 9921   4.605   4.930   0.405
 3008SOL     OW 9922   3.424   2.298   6.399
 3008SOL    HW1 9923   3.452   2.347   6.317
 3008SOL    HW2 9924   3.451   2.202   6.391
 3009SOL     OW 9925   0.114   3.208   2.360
 3009SOL    HW1 9926   0.115   3.204   2.460
 3009SOL    HW2 9927   0.126   3.115   2.324
 3010SOL     OW 9928   2.871   5.649   4.294
 3010SOL    HW1 9929   2.785   5.669   4.247
 3010SOL    HW2 9930   2.919   5.576   4.245
 3011SOL     OW 9931   5.931   0.414   1.604
 3011SOL    HW1 9932   5.990   0.428   1.683
 3011SOL    HW2 9933   5.976   0.450   1.522
 3012SOL     OW 9934   2.058   3.062   0.329
 3012SOL    HW1 9935   2.022   3.132   0.390
 3012SOL    HW2 9936   1.999   3.054   0.248
 3013SOL     OW 9937   6.195   4.868   3.397
 3013SOL    HW1 9938   6.263   4.797   3.381
 3013SOL    HW2 9939   6.188   4.927   3.316
 3014SOL     OW 9940   4.649   1.957   6.455
 3014SOL    HW1 9941   4.685   1.865   6.440
 3014SOL    HW2 9942   4.713   2.009   6.511
 3015SOL     OW 9943   2.149   1.915   0.215
 3015SOL    HW1 9944   2.169   2.002   0.262
 3015SOL    HW2 9945   2.131   1.933   0.118
 3016SOL     OW 9946   3.559   6.778   4.398
 3016SOL    HW1 9947   3.567   6.746   4.304
 3016SOL    HW2 9948   3.545   6.700   4.459
 3017SOL     OW 9949   5.363   5.578   2.549
 3017SOL    HW1 9950   5.278   5.557   2.501
 3017SOL    HW2 9951   5.344   5.599   2.644
 3018SOL     OW 9952   3.269   0.170   6.807
 3018SOL    HW1 9953   3.227   0.111   6.876
 3018SOL    HW2 9954   3.342   0.224   6.849
 3019SOL     OW 9955   0.886   0.296   6.636
 3019SOL    HW1 9956   0.887   0.323   6.733
 3019SOL    HW2 9957   0.819   0.224   6.622
 3020SOL     OW 9958   4.177   3.066   1.028
 3020SOL    HW1 9959   4.149   3.105   0.940
 3020SOL    HW2 9960   4.180   2.966   1.021
 3021SOL     OW 9961   2.342   0.041   4.339
 3021SOL    HW1 9962   2.306   6.997   4.272
 3021SOL    HW2 9963   2.442   0.031   4.345
 3022SOL     OW 9964   3.924   5.312   4.886
 3022SOL    HW1 9965   4.004   5.342   4.835
 3022SOL    HW2 9966   3.925   5.351   4.978
 3023SOL     OW 9967   3.943   6.664   3.264
 3023SOL    HW1 9968   3.851   6.625   3.259
 3023SOL    HW2 9969   4.005   6.610   3.208
 3024SOL     OW 9970   5.606   6.411   5.662
 3024SOL    HW1 9971   5.544   6.332   5.665
 3024SOL    HW2 9972   5.679   6.398   5.730
 3025SOL     OW 9973   3.880   5.870   1.612
 3025SOL    HW1 9974   3.942   5.934   1.567
 3025SOL    HW2 9975   3.806   5.845   1.550
 3026SOL     OW 9976   0.187   1.251   6.070
 3026SOL    HW1 9977   0.149   1.164   6.038
 3026SOL    HW2 9978   0.248   1.289   6.000
 3027SOL     OW 9979   3.933   1.442   1.943
 3027SOL    HW1 9980   3.936   1.414   2.039
 3027SOL    HW2 9981   3.842   1.424   1.906
 3028SOL     OW 9982   1.278   4.427   6.047
 3028SOL    HW1 9983   1.245   4.507   6.096
 3028SOL    HW2 9984   1.375   4.413   6.066
 3029SOL     OW 9985   1.044   2.805   3.757
 3029SOL    HW1 9986   1.107   2.749   3.812
 3029SOL    HW2 9987   1.015   2.885   3.810
 3030SOL     OW 9988   1.266   3.828   1.211
 3030SOL    HW1 9989   1.315   3.764   1.271
 3030SOL    HW2 9990   1.248   3.784   1.123
 3031SOL     OW 9991   0.627   4.484   0.858
 3031SOL    HW1 9992   0.647   4.413   0.790
 3031SOL    HW2 9993   0.544   4.459   0.909
 3032SOL     OW 9994   2.167   6.347   1.449
 3032SOL    HW1 9995   2.156   6.413   1.374
 3032SOL    HW2 9996   2.263   6.322   1.458
 3033SOL     OW 9997   6.361   1.312   2.524
 3033SOL    HW1 9998   6.414   1.339   2.444
 3033SOL    HW2 9999   6.332   1.394   2.573
 3034SOL     OW10000   0.198   5.940   3.417
 3034SOL    HW110001   0.245   5.987   3.343
 3034SOL    HW210002   0.146   5.863   3.380
 3035SOL     OW10003   1.011   3.246   5.782
 3035SOL    HW110004   0.950   3.267   5.859
 3035SOL    HW210005   1.007   3.321   5.716
 3036SOL     OW10006   1.448   2.338   5.155
 3036SOL    HW110007   1.443   2.239   5.164
 3036SOL    HW210008   1.361   2.374   5.121
 3037SOL     OW10009   6.426   4.943   5.325
 3037SOL    HW110010   6.479   5.011   5.375
 3037SOL    HW210011   6.411   4.974   5.231
 3038SOL     OW10012   4.890   4.161   5.946
 3038SOL    HW110013   4.938   4.140   6.031
 3038SOL    HW210014   4.792   4.145   5.958
 3039SOL     OW10015   0.052   3.411   0.595
 3039SOL    HW110016   7.019   3.425   0.678
 3039SOL    HW210017   0.090   3.318   0.595
 3040SOL     OW10018   3.345   4.771   5.904
 3040SOL    HW110019   3.297   4.855   5.881
 3040SOL    HW210020   3.304   4.694   5.854
 3041SOL     OW10021   1.189   5.217   6.119
 3041SOL    HW110022   1.228   5.125   6.124
 3041SOL    HW210023   1.210   5.266   6.204
 3042SOL     OW10024   5.604   6.462   2.518
 3042SOL    HW110025   5.648   6.496   2.601
 3042SOL    HW210026   5.507   6.488   2.520
 3043SOL     OW10027   3.317   3.668   1.718
 3043SOL    HW110028   3.356   3.616   1.794
 3043SOL    HW210029   3.232   3.711   1.748
 3044SOL     OW10030   3.013   5.231   5.365
 3044SOL    HW110031   2.964   5.181   5.436
 3044SOL    HW210032   2.956   5.307   5.333
 3045SOL     OW10033   5.083   6.841   3.065
 3045SOL    HW110034   5.031   6.759   3.087
 3045SOL    HW210035   5.151   6.858   3.137
 3046SOL     OW10036   3.126   0.033   6.995
 3046SOL    HW110037   3.110   0.042   0.072
 3046SOL    HW210038   3.052   6.999   6.955
 3047SOL     OW10039   6.057   6.930   0.710
 3047SOL    HW110040   6.112   7.012   0.727
 3047SOL    HW210041   5.985   6.952   0.644
 3048SOL     OW10042   4.963   2.041   0.839
 3048SOL    HW110043   5.045   2.014   0.890
 3048SOL    HW210044   4.978   2.022   0.741
 3049SOL     OW10045   1.286   0.411   3.971
 3049SOL    HW110046   1.257   0.324   4.011
 3049SOL    HW210047   1.207   0.457   3.930
 3050SOL     OW10048   2.859   2.030   1.349
 3050SOL    HW110049   2.835   1.934   1.361
 3050SOL    HW210050   2.792   2.087   1.396
 3051SOL     OW10051   2.343   6.582   6.381
 3051SOL    HW110052   2.337   6.495   6.333
 3051SOL    HW210053   2.270   6.642   6.350
 3052SOL     OW10054   5.300   5.377   2.275
 3052SOL    HW110055   5.281   5.327   2.360
 3052SOL    HW210056   5.389   5.348   2.239
 3053SOL     OW10057   0.099   3.450   1.524
 3053SOL    HW110058   0.026   3.508   1.488
 3053SOL    HW210059   0.172   3.507   1.562
 3054SOL     OW10060   6.053   0.712   1.953
 3054SOL    HW110061   6.081   0.616   1.946
 3054SOL    HW210062   6.026   0.745   1.863
 3055SOL     OW10063   4.965   0.255   5.345
 3055SOL    HW110064   4.949   0.187   5.416
 3055SOL    HW210065   4.886   0.316   5.338
 3056SOL     OW10066   6.352   1.328   5.760
 3056SOL    HW110067   6.318   1.286   5.675
 3056SOL    HW210068   6.306   1.287   5.838
 3057SOL     OW10069   4.998   6.328   4.071
 3057SOL    HW110070   5.009   6.343   4.169
 3057SOL    HW210071   5.064   6.386   4.021
 3058SOL     OW10072   6.179   4.266   0.848
 3058SOL    HW110073   6.130   4.245   0.763
 3058SOL    HW210074   6.204   4.181   0.894
 3059SOL     OW10075   2.456   1.821   4.088
 3059SOL    HW110076   2.524   1.873   4.037
 3059SOL    HW210077   2.375   1.807   4.031
 3060SOL     OW10078   1.878   5.007   0.083
 3060SOL    HW110079   1.976   4.991   0.069
 3060SOL    HW210080   1.866   5.076   0.154
 3061SOL     OW10081   6.029   5.671   5.835
 3061SOL    HW110082   6.051   5.638   5.927
 3061SOL    HW210083   5.938   5.713   5.836
 3062SOL     OW10084   2.209   6.499   1.222
 3062SOL    HW110085   2.226   6.461   1.132
 3062SOL    HW210086   2.116   6.535   1.226
 3063SOL     OW10087   0.901   4.608   1.436
 3063SOL    HW110088   0.956   4.553   1.500
 3063SOL    HW210089   0.829   4.656   1.486
 3064SOL     OW10090   4.279   3.482   0.611
 3064SOL    HW110091   4.181   3.465   0.601
 3064SOL    HW210092   4.320   3.495   0.521
 3065SOL     OW10093   1.057   2.089   6.372
 3065SOL    HW110094   1.148   2.058   6.399
 3065SOL    HW210095   1.061   2.132   6.282
 3066SOL     OW10096   5.098   5.316   6.573
 3066SOL    HW110097   5.047   5.401   6.561
 3066SOL    HW210098   5.184   5.336   6.620
 3067SOL     OW10099   2.716   1.077   0.177
 3067SOL    HW110100   2.700   1.087   0.079
 3067SOL    HW210101   2.811   1.098   0.198
 3068SOL     OW10102   0.024   0.197   1.461
 3068SOL    HW110103   0.122   0.205   1.478
 3068SOL    HW210104   6.996   0.270   1.509
 3069SOL     OW10105   6.272   6.481   3.244
 3069SOL    HW110106   6.273   6.574   3.207
 3069SOL    HW210107   6.206   6.426   3.193
 3070SOL     OW10108   2.014   0.629   6.971
 3070SOL    HW110109   2.019   0.659   6.876
 3070SOL    HW210110   2.107   0.621   7.008
 3071SOL     OW10111   6.276   5.619   3.845
 3071SOL    HW110112   6.285   5.718   3.843
 3071SOL    HW210113   6.285   5.586   3.939
 3072SOL     OW10114   2.282   5.866   6.452
 3072SOL    HW110115   2.329   5.779   6.437
 3072SOL    HW210116   2.184   5.853   6.442
 3073SOL     OW10117   0.261   4.471   2.337
 3073SOL    HW110118   0.183   4.486   2.276
 3073SOL    HW210119   0.244   4.391   2.395
 3074SOL     OW10120   0.416   4.280   0.607
 3074SOL    HW110121   0.513   4.302   0.601
 3074SOL    HW210122   0.366   4.325   0.533
 3075SOL     OW10123   2.769   5.506   3.240
 3075SOL    HW110124   2.671   5.493   3.221
 3075SOL    HW210125   2.810   5.420   3.268
 3076SOL     OW10126   6.847   1.588   4.359
 3076SOL    HW110127   6.783   1.545   4.422
 3076SOL    HW210128   6.851   1.686   4.377
 3077SOL     OW10129   5.948   3.829   1.888
 3077SOL    HW110130   5.856   3.828   1.926
 3077SOL    HW210131   5.982   3.923   1.885
 3078SOL     OW10132   6.661   3.330   2.224
 3078SOL    HW110133   6.622   3.277   2.299
 3078SOL    HW210134   6.753   3.360   2.249
 3079SOL     OW10135   3.382   2.135   3.339
 3079SOL    HW110136   3.460   2.105   3.395
 3079SOL    HW210137   3.399   2.111   3.244
 3080SOL     OW10138   5.197   3.989   1.928
 3080SOL    HW110139   5.284   3.996   1.978
 3080SOL    HW210140   5.212   3.941   1.842
 3081SOL     OW10141   0.273   4.639   5.730
 3081SOL    HW110142   0.336   4.621   5.806
 3081SOL    HW210143   0.273   4.562   5.667
 3082SOL     OW10144   1.987   5.787   3.940
 3082SOL    HW110145   2.075   5.811   3.982
 3082SOL    HW210146   1.921   5.860   3.958
 3083SOL     OW10147   3.458   6.196   2.965
 3083SOL    HW110148   3.501   6.190   3.055
 3083SOL    HW210149   3.458   6.106   2.923
 3084SOL     OW10150   6.613   4.567   3.208
 3084SOL    HW110151   6.710   4.586   3.223
 3084SOL    HW210152   6.603   4.492   3.142
 3085SOL     OW10153   5.927   4.379   0.645
 3085SOL    HW110154   5.964   4.289   0.621
 3085SOL    HW210155   5.932   4.391   0.744
 3086SOL     OW10156   4.811   1.027   6.673
 3086SOL    HW110157   4.731   1.080   6.645
 3086SOL    HW210158   4.789   0.976   6.756
 3087SOL     OW10159   3.028   6.104   3.222
 3087SOL    HW110160   2.977   6.137   3.302
 3087SOL    HW210161   3.120   6.077   3.249
 3088SOL     OW10162   1.764   3.424   5.407
 3088SOL    HW110163   1.811   3.471   5.332
 3088SOL    HW210164   1.677   3.470   5.426
 3089SOL     OW10165   4.056   2.200   4.732
 3089SOL    HW110166   4.073   2.261   4.810
 3089SOL    HW210167   4.143   2.162   4.700
 3090SOL     OW10168   2.576   1.044   2.418
 3090SOL    HW110169   2.492   0.999   2.388
 3090SOL    HW210170   2.555   1.137   2.449
 3091SOL     OW10171   1.405   1.154   0.187
 3091SOL    HW110172   1.336   1.176   0.255
 3091SOL    HW210173   1.462   1.079   0.220
 3092SOL     OW10174   5.399   6.586   0.965
 3092SOL    HW110175   5.411   6.682   0.994
 3092SOL    HW210176   5.478   6.533   0.993
 3093SOL     OW10177   5.729   5.961   6.182
 3093SOL    HW110178   5.710   6.012   6.266
 3093SOL    HW210179   5.644   5.950   6.130
 3094SOL     OW10180   2.607   0.237   4.198
 3094SOL    HW110181   2.527   0.267   4.147
 3094SOL    HW210182   2.594   0.142   4.229
 3095SOL     OW10183   2.550   4.098   5.740
 3095SOL    HW110184   2.518   4.031   5.673
 3095SOL    HW210185   2.646   4.121   5.721
 3096SOL     OW10186   0.957   4.726   5.320
 3096SOL    HW110187   0.950   4.811   5.371
 3096SOL    HW210188   1.053   4.697   5.317
 3097SOL     OW10189   5.304   3.143   6.777
 3097SOL    HW110190   5.220   3.101   6.809
 3097SOL    HW210191   5.291   3.242   6.767
 3098SOL     OW10192   1.724   3.492   1.864
 3098SOL    HW110193   1.812   3.448   1.845
 3098SOL    HW210194   1.699   3.551   1.788
 3099SOL     OW10195   0.887   6.659   4.076
 3099SOL    HW110196   0.864   6.627   4.168
 3099SOL    HW210197   0.976   6.705   4.078
 3100SOL     OW10198   6.672   6.299   3.123
 3100SOL    HW110199   6.583   6.266   3.152
 3100SOL    HW210200   6.737   6.292   3.200
 3101SOL     OW10201   4.862   5.727   5.919
 3101SOL    HW110202   4.820   5.705   6.007
 3101SOL    HW210203   4.884   5.643   5.870
 3102SOL     OW10204   6.537   6.818   1.351
 3102SOL    HW110205   6.461   6.753   1.350
 3102SOL    HW210206   6.612   6.781   1.405
 3103SOL     OW10207   4.766   1.179   1.169
 3103SOL    HW110208   4.844   1.118   1.154
 3103SOL    HW210209   4.692   1.155   1.107
 3104SOL     OW10210   3.254   0.326   6.109
 3104SOL    HW110211   3.256   0.424   6.087
 3104SOL    HW210212   3.295   0.312   6.199
 3105SOL     OW10213   4.658   3.944   1.439
 3105SOL    HW110214   4.640   3.849   1.466
 3105SOL    HW210215   4.691   3.996   1.518
 3106SOL     OW10216   5.432   6.736   5.121
 3106SOL    HW110217   5.473   6.712   5.210
 3106SOL    HW210218   5.334   6.748   5.132
 3107SOL     OW10219   4.090   1.266   4.764
 3107SOL    HW110220   4.100   1.167   4.767
 3107SOL    HW210221   4.094   1.298   4.670
 3108SOL     OW10222   1.890   5.096   4.875
 3108SOL    HW110223   1.914   5.193   4.879
 3108SOL    HW210224   1.880   5.068   4.779
 3109SOL     OW10225   6.347   0.237   4.182
 3109SOL    HW110226   6.319   0.158   4.127
 3109SOL    HW210227   6.269   0.272   4.233
 3110SOL     OW10228   2.108   4.488   3.344
 3110SOL    HW110229   2.041   4.469   3.416
 3110SOL    HW210230   2.183   4.422   3.350
 3111SOL     OW10231   0.264   4.746   3.284
 3111SOL    HW110232   0.202   4.766   3.359
 3111SOL    HW210233   0.357   4.774   3.308
 3112SOL     OW10234   2.612   3.109   0.397
 3112SOL    HW110235   2.580   3.045   0.327
 3112SOL    HW210236   2.561   3.092   0.482
 3113SOL     OW10237   2.980   6.022   2.587
 3113SOL    HW110238   2.997   5.925   2.569
 3113SOL    HW210239   2.887   6.034   2.621
 3114SOL     OW10240   4.179   1.717   0.488
 3114SOL    HW110241   4.087   1.736   0.522
 3114SOL    HW210242   4.174   1.671   0.400
 3115SOL     OW10243   3.755   4.500   5.487
 3115SOL    HW110244   3.758   4.459   5.579
 3115SOL    HW210245   3.749   4.427   5.419
 3116SOL     OW10246   6.985   1.705   0.208
 3116SOL    HW110247   6.930   1.635   0.161
 3116SOL    HW210248   7.016   1.772   0.141
 3117SOL     OW10249   4.320   3.191   5.257
 3117SOL    HW110250   4.276   3.128   5.321
 3117SOL    HW210251   4.288   3.284   5.273
 3118SOL     OW10252   0.719   6.346   1.731
 3118SOL    HW110253   0.759   6.435   1.754
 3118SOL    HW210254   0.735   6.327   1.634
 3119SOL     OW10255   2.832   2.273   6.103
 3119SOL    HW110256   2.855   2.281   6.200
 3119SOL    HW210257   2.735   2.251   6.094
 3120SOL     OW10258   2.707   0.754   5.677
 3120SOL    HW110259   2.777   0.684   5.663
 3120SOL    HW210260   2.660   0.738   5.764
 3121SOL     OW10261   6.019   2.102   4.734
 3121SOL    HW110262   5.966   2.086   4.651
 3121SOL    HW210263   5.989   2.039   4.805
 3122SOL     OW10264   4.695   4.767   4.782
 3122SOL    HW110265   4.732   4.804   4.868
 3122SOL    HW210266   4.652   4.841   4.731
 3123SOL     OW10267   1.646   1.355   2.983
 3123SOL    HW110268   1.725   1.307   3.021
 3123SOL    HW210269   1.633   1.327   2.888
 3124SOL     OW10270   4.485   0.010   3.804
 3124SOL    HW110271   4.570   0.062   3.798
 3124SOL    HW210272   4.408   0.074   3.810
 3125SOL     OW10273   1.537   3.083   5.443
 3125SOL    HW110274   1.597   3.131   5.378
 3125SOL    HW210275   1.509   2.996   5.404
 3126SOL     OW10276   5.260   4.427   5.566
 3126SOL    HW110277   5.229   4.505   5.511
 3126SOL    HW210278   5.185   4.364   5.580
 3127SOL     OW10279   2.193   2.334   5.594
 3127SOL    HW110280   2.210   2.430   5.570
 3127SOL    HW210281   2.259   2.305   5.664
 3128SOL     OW10282   3.550   0.694   0.482
 3128SOL    HW110283   3.463   0.646   0.491
 3128SOL    HW210284   3.598   0.693   0.569
 3129SOL     OW10285   4.810   3.510   0.872
 3129SOL    HW110286   4.746   3.436   0.852
 3129SOL    HW210287   4.869   3.484   0.948
 3130SOL     OW10288   1.766   4.614   1.385
 3130SOL    HW110289   1.849   4.658   1.419
 3130SOL    HW210290   1.757   4.631   1.287
 3131SOL     OW10291   0.731   3.478   2.547
 3131SOL    HW110292   0.792   3.447   2.619
 3131SOL    HW210293   0.654   3.415   2.539
 3132SOL     OW10294   4.899   5.102   6.730
 3132SOL    HW110295   4.957   5.155   6.792
 3132SOL    HW210296   4.957   5.055   6.663
 3133SOL     OW10297   3.775   1.106   3.185
 3133SOL    HW110298   3.846   1.111   3.255
 3133SOL    HW210299   3.726   1.193   3.181
 3134SOL     OW10300   4.184   4.780   1.105
 3134SOL    HW110301   4.211   4.858   1.048
 3134SOL    HW210302   4.146   4.813   1.191
 3135SOL     OW10303   4.957   0.205   5.910
 3135SOL    HW110304   4.988   0.122   5.956
 3135SOL    HW210305   5.014   0.282   5.938
 3136SOL     OW10306   5.531   0.028   1.915
 3136SOL    HW110307   5.612   0.072   1.954
 3136SOL    HW210308   5.498   0.081   1.837
 3137SOL     OW10309   6.807   6.623   3.375
 3137SOL    HW110310   6.872   6.658   3.307
 3137SOL    HW210311   6.780   6.697   3.436
 3138SOL     OW10312   5.992   5.775   3.338
 3138SOL    HW110313   5.894   5.756   3.339
 3138SOL    HW210314   6.007   5.874   3.340
 3139SOL     OW10315   3.507   4.761   1.454
 3139SOL    HW110316   3.443   4.737   1.528
 3139SOL    HW210317   3.463   4.743   1.366
 3140SOL     OW10318   6.408   5.862   5.325
 3140SOL    HW110319   6.312   5.878   5.301
 3140SOL    HW210320   6.415   5.834   5.420
 3141SOL     OW10321   0.580   6.890   6.834
 3141SOL    HW110322   0.586   6.903   6.933
 3141SOL    HW210323   0.650   6.947   6.789
 3142SOL     OW10324   2.969   0.371   2.827
 3142SOL    HW110325   3.050   0.398   2.776
 3142SOL    HW210326   2.889   0.375   2.767
 3143SOL     OW10327   5.883   1.247   0.039
 3143SOL    HW110328   5.944   1.168   0.039
 3143SOL    HW210329   5.936   1.329   0.061
 3144SOL     OW10330   4.337   3.406   0.875
 3144SOL    HW110331   4.365   3.483   0.932
 3144SOL    HW210332   4.344   3.432   0.778
 3145SOL     OW10333   1.759   6.438   2.509
 3145SOL    HW110334   1.659   6.447   2.517
 3145SOL    HW210335   1.796   6.410   2.598
 3146SOL     OW10336   0.938   1.102   4.875
 3146SOL    HW110337   0.950   1.009   4.840
 3146SOL    HW210338   0.969   1.168   4.807
 3147SOL     OW10339   2.968   4.913   0.073
 3147SOL    HW110340   2.969   4.965   7.009
 3147SOL    HW210341   2.993   4.818   0.054
 3148SOL     OW10342   6.646   7.009   4.269
 3148SOL    HW110343   6.744   7.013   4.247
 3148SOL    HW210344   6.597   6.961   4.197
 3149SOL     OW10345   3.117   1.121   6.589
 3149SOL    HW110346   3.115   1.183   6.667
 3149SOL    HW210347   3.055   1.153   6.518
 3150SOL     OW10348   0.051   6.060   5.105
 3150SOL    HW110349   0.107   5.995   5.157
 3150SOL    HW210350   6.998   6.010   5.059
 3151SOL     OW10351   0.233   1.313   5.728
 3151SOL    HW110352   0.283   1.323   5.814
 3151SOL    HW210353   0.136   1.296   5.747
 3152SOL     OW10354   0.714   3.730   0.424
 3152SOL    HW110355   0.727   3.818   0.470
 3152SOL    HW210356   0.795   3.673   0.438
 3153SOL     OW10357   6.475   5.842   0.478
 3153SOL    HW110358   6.574   5.857   0.476
 3153SOL    HW210359   6.444   5.837   0.573
 3154SOL     OW10360   6.617   1.133   0.630
 3154SOL    HW110361   6.547   1.091   0.573
 3154SOL    HW210362   6.665   1.063   0.683
 3155SOL     OW10363   6.147   5.090   0.153
 3155SOL    HW110364   6.143   5.156   0.228
 3155SOL    HW210365   6.092   5.010   0.177
 3156SOL     OW10366   3.358   3.601   2.030
 3156SOL    HW110367   3.315   3.591   2.120
 3156SOL    HW210368   3.344   3.518   1.977
 3157SOL     OW10369   2.054   1.643   5.299
 3157SOL    HW110370   2.138   1.696   5.305
 3157SOL    HW210371   2.074   1.553   5.260
 3158SOL     OW10372   2.137   0.804   4.502
 3158SOL    HW110373   2.174   0.894   4.477
 3158SOL    HW210374   2.112   0.755   4.419
 3159SOL     OW10375   5.863   6.938   6.512
 3159SOL    HW110376   5.778   6.889   6.532
 3159SOL    HW210377   5.894   6.914   6.420
 3160SOL     OW10378   1.792   5.874   6.131
 3160SOL    HW110379   1.828   5.966   6.148
 3160SOL    HW210380   1.780   5.860   6.033
 3161SOL     OW10381   2.345   2.094   2.509
 3161SOL    HW110382   2.295   2.008   2.497
 3161SOL    HW210383   2.400   2.088   2.593
 3162SOL     OW10384   1.128   5.796   1.376
 3162SOL    HW110385   1.136   5.895   1.373
 3162SOL    HW210386   1.216   5.754   1.357
 3163SOL     OW10387   3.955   4.091   6.638
 3163SOL    HW110388   3.870   4.053   6.674
 3163SOL    HW210389   3.942   4.121   6.544
 3164SOL     OW10390   3.954   5.568   1.987
 3164SOL    HW110391   3.952   5.586   1.888
 3164SOL    HW210392   3.880   5.620   2.031
 3165SOL     OW10393   1.459   5.505   1.812
 3165SOL    HW110394   1.418   5.452   1.886
 3165SOL    HW210395   1.513   5.444   1.754
 3166SOL     OW10396   4.551   2.254   3.933
 3166SOL    HW110397   4.633   2.249   3.989
 3166SOL    HW210398   4.568   2.210   3.845
 3167SOL     OW10399   5.473   4.280   0.907
 3167SOL    HW110400   5.461   4.205   0.841
 3167SOL    HW210401   5.503   4.362   0.859
 3168SOL     OW10402   5.556   3.040   6.944
 3168SOL    HW110403   5.464   3.076   6.931
 3168SOL    HW210404   5.618   3.115   6.970
 3169SOL     OW10405   2.352   4.260   3.607
 3169SOL    HW110406   2.325   4.232   3.515
 3169SOL    HW210407   2.373   4.179   3.661
 3170SOL     OW10408   4.234   5.604   1.985
 3170SOL    HW110409   4.139   5.570   1.985
 3170SOL    HW210410   4.264   5.617   1.891
 3171SOL     OW10411   6.424   2.034   2.160
 3171SOL    HW110412   6.469   1.986   2.235
 3171SOL    HW210413   6.488   2.099   2.119
 3172SOL     OW10414   6.953   5.135   6.900
 3172SOL    HW110415   6.938   5.224   6.943
 3172SOL    HW210416   6.992   5.072   6.967
 3173SOL     OW10417   3.296   2.212   6.781
 3173SOL    HW110418   3.245   2.147   6.837
 3173SOL    HW210419   3.393   2.187   6.782
 3174SOL     OW10420   3.089   2.986   6.607
 3174SOL    HW110421   3.185   2.975   6.584
 3174SOL    HW210422   3.047   2.896   6.619
 3175SOL     OW10423   5.618   1.756   1.689
 3175SOL    HW110424   5.583   1.847   1.668
 3175SOL    HW210425   5.545   1.701   1.729
 3176SOL     OW10426   0.764   4.042   5.321
 3176SOL    HW110427   0.772   4.112   5.392
 3176SOL    HW210428   0.840   3.978   5.328
 3177SOL     OW10429   5.529   4.338   4.044
 3177SOL    HW110430   5.547   4.313   4.140
 3177SOL    HW210431   5.585   4.281   3.984
 3178SOL     OW10432   6.626   2.526   0.378
 3178SOL    HW110433   6.603   2.456   0.446
 3178SOL    HW210434   6.617   2.488   0.287
 3179SOL     OW10435   1.401   2.027   2.138
 3179SOL    HW110436   1.390   1.990   2.230
 3179SOL    HW210437   1.311   2.050   2.100
 3180SOL     OW10438   6.305   6.873   0.557
 3180SOL    HW110439   6.361   6.856   0.639
 3180SOL    HW210440   6.215   6.907   0.585
 3181SOL     OW10441   6.541   2.142   3.403
 3181SOL    HW110442   6.605   2.109   3.334
 3181SOL    HW210443   6.448   2.143   3.365
 3182SOL     OW10444   2.549   0.301   6.605
 3182SOL    HW110445   2.462   0.260   6.633
 3182SOL    HW210446   2.593   0.345   6.683
 3183SOL     OW10447   4.678   4.250   2.370
 3183SOL    HW110448   4.602   4.248   2.436
 3183SOL    HW210449   4.661   4.321   2.302
 3184SOL     OW10450   0.385   2.343   3.053
 3184SOL    HW110451   0.365   2.327   2.956
 3184SOL    HW210452   0.481   2.321   3.071
 3185SOL     OW10453   4.499   6.076   6.404
 3185SOL    HW110454   4.493   6.114   6.312
 3185SOL    HW210455   4.420   6.105   6.457
 3186SOL     OW10456   2.987   2.265   0.404
 3186SOL    HW110457   3.029   2.283   0.316
 3186SOL    HW210458   2.908   2.326   0.417
 3187SOL     OW10459   4.239   5.113   1.284
 3187SOL    HW110460   4.338   5.127   1.280
 3187SOL    HW210461   4.205   5.144   1.373
 3188SOL     OW10462   1.422   6.767   3.952
 3188SOL    HW110463   1.344   6.811   3.999
 3188SOL    HW210464   1.480   6.722   4.019
 3189SOL     OW10465   1.225   1.920   1.162
 3189SOL    HW110466   1.227   1.902   1.064
 3189SOL    HW210467   1.292   1.862   1.209
 3190SOL     OW10468   6.970   5.582   0.433
 3190SOL    HW110469   0.022   5.617   0.492
 3190SOL    HW210470   6.922   5.659   0.391
 3191SOL     OW10471   4.894   5.224   1.634
 3191SOL    HW110472   4.824   5.158   1.606
 3191SOL    HW210473   4.852   5.296   1.689
 3192SOL     OW10474   0.516   3.862   1.243
 3192SOL    HW110475   0.549   3.849   1.150
 3192SOL    HW210476   0.548   3.787   1.301
 3193SOL     OW10477   3.938   1.647   5.601
 3193SOL    HW110478   3.989   1.594   5.669
 3193SOL    HW210479   3.844   1.614   5.598
 3194SOL     OW10480   1.474   2.238   5.746
 3194SOL    HW110481   1.458   2.310   5.678
 3194SOL    HW210482   1.569   2.244   5.778
 3195SOL     OW10483   1.299   1.465   2.369
 3195SOL    HW110484   1.273   1.385   2.423
 3195SOL    HW210485   1.297   1.442   2.271
 3196SOL     OW10486   7.001   0.690   6.731
 3196SOL    HW110487   6.917   0.734   6.699
 3196SOL    HW210488   6.993   0.671   6.829
 3197SOL     OW10489   2.729   6.434   4.685
 3197SOL    HW110490   2.768   6.467   4.771
 3197SOL    HW210491   2.706   6.512   4.627
 3198SOL     OW10492   6.637   3.288   3.128
 3198SOL    HW110493   6.726   3.289   3.082
 3198SOL    HW210494   6.591   3.375   3.114
 3199SOL     OW10495   5.051   3.852   2.462
 3199SOL    HW110496   5.124   3.787   2.440
 3199SOL    HW210497   5.083   3.916   2.531
 3200SOL     OW10498   5.888   3.406   2.616
 3200SOL    HW110499   5.931   3.385   2.704
 3200SOL    HW210500   5.790   3.388   2.621
 3201SOL     OW10501   6.366   4.672   3.293
 3201SOL    HW110502   6.458   4.639   3.271
 3201SOL    HW210503   6.300   4.599   3.278
 3202SOL     OW10504   0.942   4.883   0.986
 3202SOL    HW110505   1.017   4.948   0.993
 3202SOL    HW210506   0.929   4.838   1.074
 3203SOL     OW10507   5.844   1.464   0.937
 3203SOL    HW110508   5.804   1.419   1.017
 3203SOL    HW210509   5.934   1.500   0.961
 3204SOL     OW10510   4.065   0.175   3.290
 3204SOL    HW110511   4.036   0.088   3.250
 3204SOL    HW210512   3.989   0.239   3.290
 3205SOL     OW10513   5.285   3.211   6.031
 3205SOL    HW110514   5.290   3.120   5.989
 3205SOL    HW210515   5.281   3.281   5.959
 3206SOL     OW10516   1.443   4.403   1.144
 3206SOL    HW110517   1.458   4.305   1.130
 3206SOL    HW210518   1.521   4.442   1.193
 3207SOL     OW10519   1.540   0.812   6.535
 3207SOL    HW110520   1.612   0.753   6.572
 3207SOL    HW210521   1.471   0.828   6.606
 3208SOL     OW10522   4.977   6.467   6.496
 3208SOL    HW110523   4.936   6.376   6.502
 3208SOL    HW210524   5.029   6.486   6.579
 3209SOL     OW10525   3.281   5.298   3.858
 3209SOL    HW110526   3.243   5.261   3.774
 3209SOL    HW210527   3.225   5.375   3.889
 3210SOL     OW10528   0.943   4.657   1.163
 3210SOL    HW110529   0.919   4.625   1.254
 3210SOL    HW210530   1.034   4.624   1.139
 3211SOL     OW10531   1.240   3.658   0.955
 3211SOL    HW110532   1.170   3.592   0.979
 3211SOL    HW210533   1.322   3.609   0.923
 3212SOL     OW10534   2.970   6.548   2.116
 3212SOL    HW110535   2.894   6.486   2.138
 3212SOL    HW210536   2.942   6.643   2.132
 3213SOL     OW10537   1.487   6.994   0.186
 3213SOL    HW110538   1.506   6.975   0.089
 3213SOL    HW210539   1.396   0.015   0.194
 3214SOL     OW10540   4.396   5.441   1.772
 3214SOL    HW110541   4.372   5.534   1.745
 3214SOL    HW210542   4.471   5.443   1.838
 3215SOL     OW10543   0.435   3.941   0.569
 3215SOL    HW110544   0.425   3.927   0.668
 3215SOL    HW210545   0.499   4.016   0.553
 3216SOL     OW10546   6.067   5.528   0.670
 3216SOL    HW110547   6.105   5.612   0.709
 3216SOL    HW210548   5.972   5.517   0.701
 3217SOL     OW10549   0.102   5.702   2.748
 3217SOL    HW110550   0.200   5.707   2.730
 3217SOL    HW210551   0.074   5.606   2.756
 3218SOL     OW10552   5.416   2.419   3.178
 3218SOL    HW110553   5.501   2.462   3.209
 3218SOL    HW210554   5.347   2.490   3.162
 3219SOL     OW10555   0.747   1.424   3.632
 3219SOL    HW110556   0.677   1.438   3.702
 3219SOL    HW210557   0.814   1.498   3.637
 3220SOL     OW10558   6.819   5.296   5.588
 3220SOL    HW110559   6.821   5.203   5.550
 3220SOL    HW210560   6.911   5.323   5.613
 3221SOL     OW10561   3.637   7.014   1.923
 3221SOL    HW110562   3.641   0.036   2.013
 3221SOL    HW210563   3.550   0.017   1.879
 3222SOL     OW10564   2.822   1.533   2.687
 3222SOL    HW110565   2.920   1.516   2.672
 3222SOL    HW210566   2.806   1.549   2.785
 3223SOL     OW10567   2.699   6.499   6.385
 3223SOL    HW110568   2.670   6.534   6.474
 3223SOL    HW210569   2.657   6.410   6.369
 3224SOL     OW10570   4.675   2.800   4.710
 3224SOL    HW110571   4.610   2.725   4.707
 3224SOL    HW210572   4.719   2.811   4.621
 3225SOL     OW10573   5.139   2.406   5.760
 3225SOL    HW110574   5.109   2.424   5.853
 3225SOL    HW210575   5.068   2.354   5.712
 3226SOL     OW10576   2.370   1.123   2.015
 3226SOL    HW110577   2.286   1.070   2.003
 3226SOL    HW210578   2.368   1.202   1.954
 3227SOL     OW10579   3.416   3.616   6.793
 3227SOL    HW110580   3.434   3.655   6.883
 3227SOL    HW210581   3.335   3.659   6.753
 3228SOL     OW10582   6.617   3.973   0.988
 3228SOL    HW110583   6.668   3.889   0.971
 3228SOL    HW210584   6.682   4.049   1.001
 3229SOL     OW10585   3.457   0.505   5.861
 3229SOL    HW110586   3.412   0.583   5.904
 3229SOL    HW210587   3.545   0.533   5.822
 3230SOL     OW10588   2.197   5.032   5.785
 3230SOL    HW110589   2.109   5.025   5.737
 3230SOL    HW210590   2.264   5.077   5.725
 3231SOL     OW10591   2.622   0.366   1.755
 3231SOL    HW110592   2.624   0.314   1.840
 3231SOL    HW210593   2.605   0.463   1.775
 3232SOL     OW10594   4.409   6.516   4.470
 3232SOL    HW110595   4.398   6.612   4.497
 3232SOL    HW210596   4.401   6.508   4.370
 3233SOL     OW10597   6.586   2.356   0.605
 3233SOL    HW110598   6.590   2.406   0.692
 3233SOL    HW210599   6.503   2.300   0.602
 3234SOL     OW10600   0.839   2.517   0.156
 3234SOL    HW110601   0.788   2.441   0.117
 3234SOL    HW210602   0.929   2.485   0.187
 3235SOL     OW10603   6.811   0.010   1.457
 3235SOL    HW110604   6.887   0.074   1.463
 3235SOL    HW210605   6.743   0.043   1.392
 3236SOL     OW10606   0.585   3.937   0.262
 3236SOL    HW110607   0.601   3.863   0.328
 3236SOL    HW210608   0.673   3.972   0.230
 3237SOL     OW10609   6.183   1.466   2.233
 3237SOL    HW110610   6.187   1.562   2.262
 3237SOL    HW210611   6.137   1.459   2.145
 3238SOL     OW10612   6.771   5.525   6.943
 3238SOL    HW110613   6.837   5.488   7.008
 3238SOL    HW210614   6.811   5.528   6.852
 3239SOL     OW10615   0.099   1.440   2.646
 3239SOL    HW110616   0.173   1.463   2.584
 3239SOL    HW210617   0.014   1.481   2.614
 3240SOL     OW10618   6.973   6.324   6.259
 3240SOL    HW110619   6.971   6.386   6.337
 3240SOL    HW210620   6.886   6.330   6.210
 3241SOL     OW10621   4.603   1.147   5.879
 3241SOL    HW110622   4.564   1.132   5.789
 3241SOL    HW210623   4.558   1.088   5.946
 3242SOL     OW10624   4.623   4.567   6.556
 3242SOL    HW110625   4.641   4.611   6.644
 3242SOL    HW210626   4.565   4.626   6.501
 3243SOL     OW10627   4.276   4.734   0.439
 3243SOL    HW110628   4.206   4.776   0.381
 3243SOL    HW210629   4.314   4.803   0.501
 3244SOL     OW10630   5.163   6.069   0.006
 3244SOL    HW110631   5.107   5.988   0.021
 3244SOL    HW210632   5.110   6.139   6.980
 3245SOL     OW10633   5.321   2.900   3.822
 3245SOL    HW110634   5.269   2.868   3.902
 3245SOL    HW210635   5.413   2.926   3.850
 3246SOL     OW10636   6.701   0.031   3.094
 3246SOL    HW110637   6.644   0.109   3.069
 3246SOL    HW210638   6.778   0.063   3.149
 3247SOL     OW10639   5.880   4.324   2.329
 3247SOL    HW110640   5.963   4.286   2.370
 3247SOL    HW210641   5.867   4.285   2.238
 3248SOL     OW10642   5.350   3.017   2.030
 3248SOL    HW110643   5.329   3.113   2.047
 3248SOL    HW210644   5.317   2.962   2.107
 3249SOL     OW10645   3.596   3.995   3.518
 3249SOL    HW110646   3.684   3.979   3.563
 3249SOL    HW210647   3.522   3.957   3.573
 3250SOL     OW10648   5.960   0.409   2.314
 3250SOL    HW110649   5.937   0.466   2.393
 3250SOL    HW210650   5.948   0.313   2.338
 3251SOL     OW10651   3.385   0.648   3.593
 3251SOL    HW110652   3.317   0.624   3.524
 3251SOL    HW210653   3.396   0.747   3.596
 3252SOL     OW10654   2.961   1.092   2.621
 3252SOL    HW110655   2.884   1.135   2.574
 3252SOL    HW210656   2.961   0.993   2.601
 3253SOL     OW10657   4.590   3.380   1.097
 3253SOL    HW110658   4.534   3.454   1.059
 3253SOL    HW210659   4.620   3.320   1.023
 3254SOL     OW10660   4.405   5.684   6.665
 3254SOL    HW110661   4.502   5.668   6.684
 3254SOL    HW210662   4.387   5.671   6.568
 3255SOL     OW10663   4.256   6.853   1.145
 3255SOL    HW110664   4.268   6.766   1.096
 3255SOL    HW210665   4.160   6.881   1.139
 3256SOL     OW10666   3.885   1.397   1.138
 3256SOL    HW110667   3.887   1.303   1.171
 3256SOL    HW210668   3.915   1.459   1.211
 3257SOL     OW10669   1.569   2.079   1.862
 3257SOL    HW110670   1.526   2.069   1.952
 3257SOL    HW210671   1.598   2.173   1.849
 3258SOL     OW10672   4.724   5.920   2.464
 3258SOL    HW110673   4.723   5.874   2.376
 3258SOL    HW210674   4.706   5.853   2.537
 3259SOL     OW10675   4.696   4.958   5.367
 3259SOL    HW110676   4.769   5.018   5.334
 3259SOL    HW210677   4.620   5.014   5.401
 3260SOL     OW10678   1.740   2.528   1.022
 3260SOL    HW110679   1.684   2.474   0.959
 3260SOL    HW210680   1.806   2.468   1.068
 3261SOL     OW10681   5.527   0.834   1.440
 3261SOL    HW110682   5.538   0.867   1.534
 3261SOL    HW210683   5.432   0.805   1.426
 3262SOL     OW10684   3.387   1.960   2.279
 3262SOL    HW110685   3.359   1.964   2.375
 3262SOL    HW210686   3.367   1.870   2.242
 3263SOL     OW10687   2.984   1.309   2.845
 3263SOL    HW110688   3.019   1.398   2.817
 3263SOL    HW210689   2.950   1.259   2.765
 3264SOL     OW10690   1.740   5.803   0.743
 3264SOL    HW110691   1.657   5.830   0.792
 3264SOL    HW210692   1.769   5.712   0.772
 3265SOL     OW10693   4.533   0.413   6.470
 3265SOL    HW110694   4.529   0.359   6.554
 3265SOL    HW210695   4.492   0.503   6.487
 3266SOL     OW10696   2.178   4.219   0.259
 3266SOL    HW110697   2.271   4.188   0.280
 3266SOL    HW210698   2.161   4.209   0.160
 3267SOL     OW10699   3.265   6.245   1.681
 3267SOL    HW110700   3.291   6.308   1.753
 3267SOL    HW210701   3.235   6.296   1.600
 3268SOL     OW10702   2.836   4.179   1.567
 3268SOL    HW110703   2.910   4.218   1.624
 3268SOL    HW210704   2.766   4.249   1.552
 3269SOL     OW10705   5.164   5.720   2.736
 3269SOL    HW110706   5.159   5.744   2.639
 3269SOL    HW210707   5.115   5.788   2.790
 3270SOL     OW10708   1.200   4.392   6.436
 3270SOL    HW110709   1.174   4.484   6.406
 3270SOL    HW210710   1.219   4.393   6.534
 3271SOL     OW10711   5.833   3.292   1.517
 3271SOL    HW110712   5.831   3.379   1.567
 3271SOL    HW210713   5.923   3.250   1.527
 3272SOL     OW10714   2.743   4.370   6.252
 3272SOL    HW110715   2.820   4.381   6.190
 3272SOL    HW210716   2.662   4.414   6.213
 3273SOL     OW10717   6.535   5.572   0.419
 3273SOL    HW110718   6.551   5.546   0.323
 3273SOL    HW210719   6.502   5.666   0.422
 3274SOL     OW10720   5.327   0.774   0.640
 3274SOL    HW110721   5.370   0.772   0.730
 3274SOL    HW210722   5.394   0.751   0.570
 3275SOL     OW10723   5.236   0.732   6.918
 3275SOL    HW110724   5.258   0.656   6.980
 3275SOL    HW210725   5.199   0.808   6.971
 3276SOL     OW10726   3.735   6.097   6.564
 3276SOL    HW110727   3.667   6.151   6.614
 3276SOL    HW210728   3.796   6.159   6.513
 3277SOL     OW10729   3.586   0.345   0.856
 3277SOL    HW110730   3.540   0.434   0.852
 3277SOL    HW210731   3.641   0.340   0.939
 3278SOL     OW10732   1.072   0.912   5.897
 3278SOL    HW110733   1.069   0.919   5.797
 3278SOL    HW210734   1.052   0.818   5.924
 3279SOL     OW10735   4.950   0.114   0.354
 3279SOL    HW110736   4.852   0.099   0.371
 3279SOL    HW210737   4.965   0.127   0.256
 3280SOL     OW10738   5.069   4.176   4.857
 3280SOL    HW110739   4.986   4.199   4.806
 3280SOL    HW210740   5.095   4.253   4.915
 3281SOL     OW10741   1.091   4.468   1.575
 3281SOL    HW110742   1.183   4.506   1.586
 3281SOL    HW210743   1.098   4.374   1.541
 3282SOL     OW10744   0.037   4.693   4.501
 3282SOL    HW110745   0.087   4.608   4.483
 3282SOL    HW210746   6.961   4.679   4.481
 3283SOL     OW10747   3.578   1.041   0.606
 3283SOL    HW110748   3.638   0.965   0.631
 3283SOL    HW210749   3.603   1.074   0.515
 3284SOL     OW10750   1.019   5.846   6.405
 3284SOL    HW110751   1.106   5.835   6.454
 3284SOL    HW210752   1.035   5.900   6.322
 3285SOL     OW10753   4.056   2.213   4.128
 3285SOL    HW110754   4.008   2.275   4.190
 3285SOL    HW210755   4.151   2.205   4.156
 3286SOL     OW10756   3.822   2.940   2.362
 3286SOL    HW110757   3.808   2.983   2.451
 3286SOL    HW210758   3.869   2.852   2.374
 3287SOL     OW10759   0.945   0.318   0.216
 3287SOL    HW110760   1.034   0.358   0.239
 3287SOL    HW210761   0.959   0.237   0.159
 3288SOL     OW10762   2.280   6.458   0.102
 3288SOL    HW110763   2.250   6.379   0.048
 3288SOL    HW210764   2.226   6.538   0.076
 3289SOL     OW10765   2.989   0.976   5.494
 3289SOL    HW110766   2.909   0.988   5.435
 3289SOL    HW210767   3.072   1.003   5.444
 3290SOL     OW10768   0.159   5.205   1.220
 3290SOL    HW110769   0.106   5.206   1.135
 3290SOL    HW210770   0.100   5.234   1.296
 3291SOL     OW10771   1.887   0.624   6.429
 3291SOL    HW110772   1.923   0.717   6.423
 3291SOL    HW210773   1.957   0.563   6.468
 3292SOL     OW10774   0.454   1.059   0.601
 3292SOL    HW110775   0.488   1.049   0.507
 3292SOL    HW210776   0.470   1.152   0.633
 3293SOL     OW10777   6.639   4.464   1.626
 3293SOL    HW110778   6.602   4.375   1.653
 3293SOL    HW210779   6.716   4.488   1.686
 3294SOL     OW10780   5.673   3.064   6.252
 3294SOL    HW110781   5.740   3.063   6.177
 3294SOL    HW210782   5.673   3.154   6.295
 3295SOL     OW10783   1.338   2.730   2.178
 3295SOL    HW110784   1.406   2.661   2.205
 3295SOL    HW210785   1.258   2.685   2.139
 3296SOL     OW10786   1.362   0.798   2.258
 3296SOL    HW110787   1.405   0.724   2.207
 3296SOL    HW210788   1.291   0.841   2.201
 3297SOL     OW10789   2.982   1.499   5.637
 3297SOL    HW110790   2.949   1.480   5.544
 3297SOL    HW210791   3.068   1.550   5.632
 3298SOL     OW10792   6.164   2.131   6.037
 3298SOL    HW110793   6.168   2.176   6.126
 3298SOL    HW210794   6.256   2.104   6.009
 3299SOL     OW10795   3.747   5.983   2.873
 3299SOL    HW110796   3.775   6.064   2.823
 3299SOL    HW210797   3.651   5.963   2.855
 3300SOL     OW10798   0.760   0.191   5.903
 3300SOL    HW110799   0.823   0.115   5.918
 3300SOL    HW210800   0.681   0.160   5.851
 3301SOL     OW10801   2.053   3.192   3.429
 3301SOL    HW110802   2.006   3.173   3.516
 3301SOL    HW210803   1.989   3.180   3.353
 3302SOL     OW10804   0.465   5.225   5.307
 3302SOL    HW110805   0.415   5.155   5.257
 3302SOL    HW210806   0.520   5.278   5.243
 3303SOL     OW10807   3.271   3.373   0.437
 3303SOL    HW110808   3.193   3.311   0.431
 3303SOL    HW210809   3.356   3.320   0.448
 3304SOL     OW10810   1.942   5.628   5.021
 3304SOL    HW110811   2.035   5.637   5.055
 3304SOL    HW210812   1.880   5.681   5.079
 3305SOL     OW10813   2.330   1.525   2.325
 3305SOL    HW110814   2.319   1.446   2.265
 3305SOL    HW210815   2.424   1.529   2.358
 3306SOL     OW10816   2.128   5.400   4.843
 3306SOL    HW110817   2.212   5.350   4.825
 3306SOL    HW210818   2.119   5.416   4.942
 3307SOL     OW10819   0.722   5.876   6.334
 3307SOL    HW110820   0.757   5.964   6.365
 3307SOL    HW210821   0.778   5.803   6.372
 3308SOL     OW10822   2.510   5.874   1.517
 3308SOL    HW110823   2.494   5.776   1.508
 3308SOL    HW210824   2.472   5.922   1.438
 3309SOL     OW10825   5.978   5.402   3.729
 3309SOL    HW110826   5.981   5.306   3.700
 3309SOL    HW210827   6.013   5.460   3.656
 3310SOL     OW10828   6.941   4.390   5.670
 3310SOL    HW110829   6.862   4.349   5.625
 3310SOL    HW210830   7.016   4.400   5.605
 3311SOL     OW10831   3.720   4.246   0.450
 3311SOL    HW110832   3.645   4.287   0.399
 3311SOL    HW210833   3.735   4.298   0.534
 3312SOL     OW10834   3.913   4.224   5.568
 3312SOL    HW110835   3.916   4.286   5.490
 3312SOL    HW210836   3.977   4.256   5.638
 3313SOL     OW10837   0.952   6.493   3.633
 3313SOL    HW110838   0.884   6.448   3.575
 3313SOL    HW210839   0.930   6.476   3.729
 3314SOL     OW10840   2.341   1.267   2.238
 3314SOL    HW110841   2.362   1.213   2.156
 3314SOL    HW210842   2.242   1.275   2.248
 3315SOL     OW10843   0.046   4.462   4.754
 3315SOL    HW110844   0.111   4.506   4.692
 3315SOL    HW210845   0.034   4.519   4.835
 3316SOL     OW10846   5.490   1.364   5.387
 3316SOL    HW110847   5.502   1.450   5.435
 3316SOL    HW210848   5.394   1.354   5.359
 3317SOL     OW10849   4.838   2.767   2.036
 3317SOL    HW110850   4.816   2.864   2.042
 3317SOL    HW210851   4.888   2.749   1.951
 3318SOL     OW10852   1.838   1.656   1.292
 3318SOL    HW110853   1.791   1.622   1.210
 3318SOL    HW210854   1.931   1.619   1.294
 3319SOL     OW10855   5.938   1.539   3.792
 3319SOL    HW110856   5.986   1.485   3.723
 3319SOL    HW210857   5.913   1.480   3.869
 3320SOL     OW10858   6.285   1.085   5.493
 3320SOL    HW110859   6.195   1.042   5.493
 3320SOL    HW210860   6.295   1.141   5.411
 3321SOL     OW10861   5.322   1.642   0.438
 3321SOL    HW110862   5.251   1.640   0.509
 3321SOL    HW210863   5.288   1.597   0.356
 3322SOL     OW10864   6.619   2.633   0.879
 3322SOL    HW110865   6.652   2.673   0.965
 3322SOL    HW210866   6.695   2.622   0.815
 3323SOL     OW10867   3.026   2.966   0.315
 3323SOL    HW110868   3.111   2.958   0.367
 3323SOL    HW210869   2.948   2.955   0.377
 3324SOL     OW10870   3.739   4.724   6.676
 3324SOL    HW110871   3.693   4.699   6.762
 3324SOL    HW210872   3.829   4.762   6.697
 3325SOL     OW10873   0.147   3.695   6.524
 3325SOL    HW110874   0.093   3.754   6.584
 3325SOL    HW210875   0.163   3.607   6.570
 3326SOL     OW10876   4.754   2.191   2.137
 3326SOL    HW110877   4.802   2.168   2.052
 3326SOL    HW210878   4.742   2.108   2.192
 3327SOL     OW10879   2.954   5.169   1.784
 3327SOL    HW110880   2.980   5.206   1.873
 3327SOL    HW210881   2.855   5.157   1.781
 3328SOL     OW10882   4.637   2.230   0.545
 3328SOL    HW110883   4.635   2.226   0.445
 3328SOL    HW210884   4.690   2.153   0.580
 3329SOL     OW10885   5.740   0.811   4.844
 3329SOL    HW110886   5.822   0.865   4.867
 3329SOL    HW210887   5.662   0.873   4.834
 3330SOL     OW10888   6.393   4.092   1.502
 3330SOL    HW110889   6.439   4.048   1.425
 3330SOL    HW210890   6.370   4.186   1.477
 3331SOL     OW10891   2.600   2.678   1.752
 3331SOL    HW110892   2.641   2.768   1.762
 3331SOL    HW210893   2.508   2.678   1.791
 3332SOL     OW10894   5.480   5.514   0.101
 3332SOL    HW110895   5.517   5.545   0.188
 3332SOL    HW210896   5.447   5.593   0.049
 3333SOL     OW10897   4.561   4.910   6.906
 3333SOL    HW110898   4.654   4.911   6.941
 3333SOL    HW210899   4.532   5.002   6.882
 3334SOL     OW10900   3.112   3.803   1.829
 3334SOL    HW110901   3.041   3.746   1.870
 3334SOL    HW210902   3.092   3.899   1.846
 3335SOL     OW10903   4.645   5.914   5.922
 3335SOL    HW110904   4.690   5.843   5.868
 3335SOL    HW210905   4.546   5.910   5.907
 3336SOL     OW10906   2.727   5.763   4.982
 3336SOL    HW110907   2.765   5.776   5.074
 3336SOL    HW210908   2.783   5.812   4.915
 3337SOL     OW10909   2.968   3.825   2.368
 3337SOL    HW110910   2.974   3.789   2.275
 3337SOL    HW210911   3.020   3.910   2.375
 3338SOL     OW10912   5.463   2.687   1.687
 3338SOL    HW110913   5.491   2.742   1.766
 3338SOL    HW210914   5.382   2.728   1.645
 3339SOL     OW10915   6.512   6.973   6.666
 3339SOL    HW110916   6.472   6.883   6.686
 3339SOL    HW210917   6.495   6.996   6.570
 3340SOL     OW10918   3.682   0.816   2.471
 3340SOL    HW110919   3.594   0.771   2.460
 3340SOL    HW210920   3.675   0.887   2.541
 3341SOL     OW10921   0.835   6.137   3.511
 3341SOL    HW110922   0.787   6.224   3.525
 3341SOL    HW210923   0.834   6.085   3.596
 3342SOL     OW10924   2.854   6.611   4.192
 3342SOL    HW110925   2.872   6.528   4.141
 3342SOL    HW210926   2.762   6.609   4.231
 3343SOL     OW10927   4.582   2.921   0.538
 3343SOL    HW110928   4.653   2.990   0.520
 3343SOL    HW210929   4.591   2.888   0.631
 3344SOL     OW10930   5.758   3.389   4.335
 3344SOL    HW110931   5.765   3.377   4.236
 3344SOL    HW210932   5.788   3.481   4.360
 3345SOL     OW10933   1.566   3.767   5.976
 3345SOL    HW110934   1.467   3.752   5.975
 3345SOL    HW210935   1.610   3.710   5.906
 3346SOL     OW10936   1.932   0.964   0.667
 3346SOL    HW110937   1.987   0.893   0.709
 3346SOL    HW210938   1.837   0.934   0.661
 3347SOL     OW10939   0.563   3.922   4.037
 3347SOL    HW110940   0.568   3.884   4.129
 3347SOL    HW210941   0.625   3.873   3.976
 3348SOL     OW10942   2.945   3.232   3.545
 3348SOL    HW110943   2.849   3.245   3.570
 3348SOL    HW210944   2.999   3.215   3.628
 3349SOL     OW10945   1.002   5.733   3.726
 3349SOL    HW110946   0.911   5.762   3.757
 3349SOL    HW210947   1.071   5.797   3.760
 3350SOL     OW10948   1.733   2.587   5.610
 3350SOL    HW110949   1.656   2.553   5.555
 3350SOL    HW210950   1.786   2.509   5.644
 3351SOL     OW10951   5.498   0.946   2.573
 3351SOL    HW110952   5.501   0.875   2.503
 3351SOL    HW210953   5.559   1.021   2.548
 3352SOL     OW10954   0.357   2.618   0.509
 3352SOL    HW110955   0.390   2.552   0.441
 3352SOL    HW210956   0.260   2.635   0.493
 3353SOL     OW10957   1.566   5.742   2.084
 3353SOL    HW110958   1.601   5.759   2.176
 3353SOL    HW210959   1.583   5.822   2.026
 3354SOL     OW10960   5.125   2.579   5.178
 3354SOL    HW110961   5.136   2.497   5.122
 3354SOL    HW210962   5.110   2.659   5.119
 3355SOL     OW10963   1.984   1.306   0.372
 3355SOL    HW110964   1.949   1.294   0.278
 3355SOL    HW210965   2.059   1.372   0.371
 3356SOL     OW10966   2.241   3.719   6.279
 3356SOL    HW110967   2.169   3.760   6.335
 3356SOL    HW210968   2.319   3.781   6.273
 3357SOL     OW10969   2.515   4.582   1.956
 3357SOL    HW110970   2.614   4.593   1.946
 3357SOL    HW210971   2.493   4.487   1.975
 3358SOL     OW10972   5.183   0.389   0.652
 3358SOL    HW110973   5.143   0.458   0.713
 3358SOL    HW210974   5.190   0.302   0.701
 3359SOL     OW10975   6.912   0.314   3.584
 3359SOL    HW110976   6.903   0.244   3.654
 3359SOL    HW210977   6.846   0.387   3.601
 3360SOL     OW10978   0.604   1.030   6.736
 3360SOL    HW110979   0.580   1.116   6.690
 3360SOL    HW210980   0.592   0.954   6.673
 3361SOL     OW10981   0.402   3.965   2.946
 3361SOL    HW110982   0.441   3.906   3.017
 3361SOL    HW210983   0.329   4.021   2.985
 3362SOL     OW10984   3.872   1.176   3.925
 3362SOL    HW110985   3.801   1.246   3.918
 3362SOL    HW210986   3.867   1.134   4.016
 3363SOL     OW10987   0.230   0.141   0.348
 3363SOL    HW110988   0.162   0.123   0.277
 3363SOL    HW210989   0.314   0.176   0.307
 3364SOL     OW10990   1.449   4.576   3.817
 3364SOL    HW110991   1.379   4.514   3.782
 3364SOL    HW210992   1.534   4.562   3.767
 3365SOL     OW10993   0.673   2.332   5.416
 3365SOL    HW110994   0.623   2.270   5.477
 3365SOL    HW210995   0.764   2.294   5.398
 3366SOL     OW10996   5.836   0.499   6.341
 3366SOL    HW110997   5.802   0.406   6.350
 3366SOL    HW210998   5.802   0.555   6.417
 3367SOL     OW10999   3.226   2.959   1.513
 3367SOL    HW111000   3.304   2.983   1.572
 3367SOL    HW211001   3.258   2.952   1.419
 3368SOL     OW11002   0.837   5.504   6.156
 3368SOL    HW111003   0.922   5.528   6.108
 3368SOL    HW211004   0.759   5.519   6.096
 3369SOL     OW11005   3.974   2.571   5.709
 3369SOL    HW111006   3.879   2.593   5.731
 3369SOL    HW211007   4.018   2.650   5.665
 3370SOL     OW11008   6.539   6.069   6.008
 3370SOL    HW111009   6.517   6.104   5.916
 3370SOL    HW211010   6.456   6.033   6.050
 3371SOL     OW11011   1.535   3.372   2.295
 3371SOL    HW111012   1.610   3.424   2.255
 3371SOL    HW211013   1.569   3.286   2.332
 3372SOL     OW11014   0.756   1.168   1.219
 3372SOL    HW111015   0.813   1.206   1.147
 3372SOL    HW211016   0.667   1.214   1.220
 3373SOL     OW11017   0.174   2.237   2.605
 3373SOL    HW111018   0.143   2.201   2.517
 3373SOL    HW211019   0.160   2.168   2.677
 3374SOL     OW11020   1.999   6.208   4.250
 3374SOL    HW111021   1.996   6.242   4.156
 3374SOL    HW211022   1.934   6.260   4.306
 3375SOL     OW11023   5.728   5.155   6.028
 3375SOL    HW111024   5.771   5.230   5.977
 3375SOL    HW211025   5.699   5.083   5.965
 3376SOL     OW11026   3.522   3.102   3.712
 3376SOL    HW111027   3.594   3.047   3.754
 3376SOL    HW211028   3.561   3.188   3.679
 3377SOL     OW11029   0.363   6.862   4.518
 3377SOL    HW111030   0.408   6.843   4.605
 3377SOL    HW211031   0.274   6.903   4.535
 3378SOL     OW11032   6.965   1.035   0.453
 3378SOL    HW111033   0.035   1.069   0.472
 3378SOL    HW211034   6.952   0.947   0.499
 3379SOL     OW11035   0.144   5.757   6.387
 3379SOL    HW111036   0.241   5.783   6.393
 3379SOL    HW211037   0.106   5.751   6.480
 3380SOL     OW11038   5.564   6.964   6.075
 3380SOL    HW111039   5.517   6.980   5.989
 3380SOL    HW211040   5.656   7.003   6.071
 3381SOL     OW11041   1.191   2.888   1.579
 3381SOL    HW111042   1.272   2.896   1.638
 3381SOL    HW211043   1.177   2.792   1.556
 3382SOL     OW11044   0.986   0.672   0.733
 3382SOL    HW111045   1.065   0.628   0.690
 3382SOL    HW211046   0.938   0.605   0.789
 3383SOL     OW11047   4.330   5.825   2.115
 3383SOL    HW111048   4.406   5.764   2.136
 3383SOL    HW211049   4.247   5.771   2.097
 3384SOL     OW11050   2.629   3.801   5.569
 3384SOL    HW111051   2.580   3.801   5.656
 3384SOL    HW211052   2.725   3.777   5.585
 3385SOL     OW11053   0.201   2.854   3.794
 3385SOL    HW111054   0.102   2.857   3.803
 3385SOL    HW211055   0.239   2.945   3.804
 3386SOL     OW11056   6.491   3.235   6.714
 3386SOL    HW111057   6.393   3.247   6.732
 3386SOL    HW211058   6.516   3.286   6.631
 3387SOL     OW11059   3.301   1.240   3.865
 3387SOL    HW111060   3.321   1.193   3.951
 3387SOL    HW211061   3.294   1.339   3.882
 3388SOL     OW11062   5.264   3.293   2.022
 3388SOL    HW111063   5.177   3.257   1.988
 3388SOL    HW211064   5.279   3.385   1.986
 3389SOL     OW11065   5.107   5.119   5.417
 3389SOL    HW111066   5.187   5.179   5.429
 3389SOL    HW211067   5.114   5.041   5.479
 3390SOL     OW11068   4.936   4.677   5.772
 3390SOL    HW111069   4.889   4.719   5.850
 3390SOL    HW211070   4.944   4.578   5.787
 3391SOL     OW11071   5.383   2.490   4.970
 3391SOL    HW111072   5.291   2.454   4.987
 3391SOL    HW211073   5.435   2.490   5.056
 3392SOL     OW11074   2.687   6.777   3.698
 3392SOL    HW111075   2.673   6.828   3.782
 3392SOL    HW211076   2.779   6.794   3.663
 3393SOL     OW11077   0.540   6.137   0.104
 3393SOL    HW111078   0.526   6.226   0.148
 3393SOL    HW211079   0.551   6.151   0.005
 3394SOL     OW11080   6.011   2.883   1.046
 3394SOL    HW111081   5.983   2.818   1.117
 3394SOL    HW211082   5.937   2.948   1.029
 3395SOL     OW11083   5.745   2.906   3.559
 3395SOL    HW111084   5.721   2.926   3.464
 3395SOL    HW211085   5.682   2.838   3.596
 3396SOL     OW11086   5.661   2.167   3.557
 3396SOL    HW111087   5.575   2.218   3.556
 3396SOL    HW211088   5.643   2.070   3.547
 3397SOL     OW11089   2.734   1.173   5.470
 3397SOL    HW111090   2.775   1.253   5.426
 3397SOL    HW211091   2.744   1.182   5.570
 3398SOL     OW11092   1.182   6.775   4.126
 3398SOL    HW111093   1.173   6.859   4.181
 3398SOL    HW211094   1.209   6.700   4.186
 3399SOL     OW11095   5.701   4.512   4.391
 3399SOL    HW111096   5.770   4.552   4.452
 3399SOL    HW211097   5.731   4.422   4.361
 3400SOL     OW11098   4.968   2.269   5.611
 3400SOL    HW111099   4.918   2.185   5.629
 3400SOL    HW211100   4.922   2.320   5.538
 3401SOL     OW11101   6.901   3.443   0.908
 3401SOL    HW111102   6.941   3.535   0.906
 3401SOL    HW211103   6.886   3.415   1.003
 3402SOL     OW11104   3.679   6.510   6.606
 3402SOL    HW111105   3.776   6.486   6.607
 3402SOL    HW211106   3.624   6.427   6.598
 3403SOL     OW11107   4.320   6.630   4.992
 3403SOL    HW111108   4.279   6.663   4.908
 3403SOL    HW211109   4.299   6.532   5.003
 3404SOL     OW11110   5.327   1.490   0.163
 3404SOL    HW111111   5.346   1.402   0.120
 3404SOL    HW211112   5.330   1.562   0.094
 3405SOL     OW11113   6.662   3.971   4.377
 3405SOL    HW111114   6.593   3.916   4.423
 3405SOL    HW211115   6.753   3.938   4.402
 3406SOL     OW11116   0.683   3.739   2.502
 3406SOL    HW111117   0.685   3.641   2.522
 3406SOL    HW211118   0.678   3.791   2.587
 3407SOL     OW11119   1.574   5.514   0.193
 3407SOL    HW111120   1.613   5.605   0.184
 3407SOL    HW211121   1.595   5.460   0.112
 3408SOL     OW11122   5.119   3.929   5.429
 3408SOL    HW111123   5.127   3.885   5.518
 3408SOL    HW211124   5.166   3.873   5.360
 3409SOL     OW11125   3.406   5.849   6.357
 3409SOL    HW111126   3.326   5.822   6.412
 3409SOL    HW211127   3.389   5.829   6.261
 3410SOL     OW11128   0.101   6.064   0.271
 3410SOL    HW111129   0.164   6.015   0.211
 3410SOL    HW211130   0.017   6.085   0.222
 3411SOL     OW11131   0.464   2.661   1.646
 3411SOL    HW111132   0.375   2.687   1.685
 3411SOL    HW211133   0.526   2.740   1.651
 3412SOL     OW11134   4.300   2.910   6.858
 3412SOL    HW111135   4.230   2.896   6.788
 3412SOL    HW211136   4.280   2.994   6.908
 3413SOL     OW11137   5.556   1.180   1.483
 3413SOL    HW111138   5.648   1.217   1.495
 3413SOL    HW211139   5.527   1.135   1.567
 3414SOL     OW11140   2.003   0.951   5.919
 3414SOL    HW111141   1.919   0.988   5.879
 3414SOL    HW211142   1.985   0.859   5.956
 3415SOL     OW11143   1.654   3.995   4.797
 3415SOL    HW111144   1.708   4.071   4.833
 3415SOL    HW211145   1.710   3.944   4.731
 3416SOL     OW11146   0.148   5.893   0.802
 3416SOL    HW111147   0.079   5.895   0.875
 3416SOL    HW211148   0.190   5.984   0.795
 3417SOL     OW11149   0.337   6.047   3.200
 3417SOL    HW111150   0.264   6.108   3.169
 3417SOL    HW211151   0.417   6.101   3.225
 3418SOL     OW11152   3.450   0.739   4.720
 3418SOL    HW111153   3.549   0.729   4.714
 3418SOL    HW211154   3.411   0.657   4.763
 3419SOL     OW11155   4.558   5.948   4.907
 3419SOL    HW111156   4.647   5.912   4.938
 3419SOL    HW211157   4.549   5.933   4.809
 3420SOL     OW11158   5.639   2.633   3.880
 3420SOL    HW111159   5.642   2.671   3.972
 3420SOL    HW211160   5.636   2.707   3.813
 3421SOL     OW11161   5.793   0.884   6.211
 3421SOL    HW111162   5.699   0.879   6.244
 3421SOL    HW211163   5.817   0.980   6.194
 3422SOL     OW11164   1.833   6.996   1.128
 3422SOL    HW111165   1.748   0.005   1.172
 3422SOL    HW211166   1.895   0.053   1.118
 3423SOL     OW11167   2.198   6.260   0.480
 3423SOL    HW111168   2.192   6.215   0.391
 3423SOL    HW211169   2.256   6.341   0.472
 3424SOL     OW11170   2.929   6.822   2.097
 3424SOL    HW111171   2.945   6.874   2.013
 3424SOL    HW211172   2.997   6.848   2.166
 3425SOL     OW11173   5.330   4.404   2.308
 3425SOL    HW111174   5.347   4.350   2.390
 3425SOL    HW211175   5.324   4.344   2.228
 3426SOL     OW11176   3.430   2.962   0.701
 3426SOL    HW111177   3.431   3.058   0.730
 3426SOL    HW211178   3.467   2.904   0.774
 3427SOL     OW11179   6.839   6.864   0.257
 3427SOL    HW111180   6.866   6.779   0.303
 3427SOL    HW211181   6.747   6.891   0.287
 3428SOL     OW11182   2.946   4.596   0.945
 3428SOL    HW111183   2.894   4.512   0.934
 3428SOL    HW211184   2.884   4.671   0.968
 3429SOL     OW11185   0.754   2.203   0.231
 3429SOL    HW111186   0.718   2.110   0.242
 3429SOL    HW211187   0.721   2.241   0.145
 3430SOL     OW11188   0.268   6.200   5.069
 3430SOL    HW111189   0.182   6.150   5.071
 3430SOL    HW211190   0.270   6.262   4.991
 3431SOL     OW11191   1.586   6.751   1.007
 3431SOL    HW111192   1.645   6.673   1.029
 3431SOL    HW211193   1.635   6.815   0.948
 3432SOL     OW11194   2.057   2.695   6.932
 3432SOL    HW111195   1.986   2.656   6.990
 3432SOL    HW211196   2.121   2.624   6.904
 3433SOL     OW11197   1.056   0.253   6.142
 3433SOL    HW111198   0.970   0.224   6.185
 3433SOL    HW211199   1.113   0.173   6.124
 3434SOL     OW11200   4.731   2.040   0.721
 3434SOL    HW111201   4.704   1.944   0.733
 3434SOL    HW211202   4.805   2.061   0.785
 3435SOL     OW11203   1.299   1.339   0.956
 3435SOL    HW111204   1.375   1.282   0.984
 3435SOL    HW211205   1.236   1.285   0.899
 3436SOL     OW11206   3.396   6.135   6.051
 3436SOL    HW111207   3.319   6.082   6.085
 3436SOL    HW211208   3.386   6.149   5.953
 3437SOL     OW11209   2.539   1.325   5.926
 3437SOL    HW111210   2.506   1.353   6.017
 3437SOL    HW211211   2.464   1.329   5.861
 3438SOL     OW11212   1.243   2.523   0.509
 3438SOL    HW111213   1.334   2.557   0.487
 3438SOL    HW211214   1.249   2.443   0.569
 3439SOL     OW11215   2.084   6.070   5.238
 3439SOL    HW111216   2.125   6.128   5.308
 3439SOL    HW211217   2.010   6.119   5.193
 3440SOL     OW11218   3.771   3.139   1.673
 3440SOL    HW111219   3.706   3.128   1.748
 3440SOL    HW211220   3.843   3.071   1.681
 3441SOL     OW11221   5.171   6.821   4.316
 3441SOL    HW111222   5.259   6.866   4.332
 3441SOL    HW211223   5.137   6.846   4.225
 3442SOL     OW11224   3.755   5.293   2.300
 3442SOL    HW111225   3.731   5.215   2.359
 3442SOL    HW211226   3.767   5.374   2.357
 3443SOL     OW11227   4.831   6.572   1.713
 3443SOL    HW111228   4.922   6.570   1.754
 3443SOL    HW211229   4.837   6.545   1.617
 3444SOL     OW11230   5.369   5.616   0.460
 3444SOL    HW111231   5.292   5.561   0.430
 3444SOL    HW211232   5.351   5.713   0.443
 3445SOL     OW11233   6.214   5.692   4.435
 3445SOL    HW111234   6.143   5.710   4.367
 3445SOL    HW211235   6.217   5.768   4.501
 3446SOL     OW11236   5.854   0.393   2.075
 3446SOL    HW111237   5.799   0.310   2.074
 3446SOL    HW211238   5.895   0.405   2.165
 3447SOL     OW11239   5.215   5.433   1.077
 3447SOL    HW111240   5.144   5.503   1.079
 3447SOL    HW211241   5.238   5.411   0.983
 3448SOL     OW11242   3.133   0.284   1.029
 3448SOL    HW111243   3.135   0.259   0.932
 3448SOL    HW211244   3.046   0.257   1.069
 3449SOL     OW11245   6.517   6.914   4.065
 3449SOL    HW111246   6.564   6.896   3.978
 3449SOL    HW211247   6.447   6.844   4.080
 3450SOL     OW11248   0.123   1.962   6.651
 3450SOL    HW111249   0.102   2.011   6.566
 3450SOL    HW211250   0.072   2.003   6.726
 3451SOL     OW11251   1.689   6.283   2.149
 3451SOL    HW111252   1.667   6.224   2.072
 3451SOL    HW211253   1.746   6.359   2.117
 3452SOL     OW11254   6.069   1.528   6.415
 3452SOL    HW111255   6.035   1.434   6.414
 3452SOL    HW211256   6.151   1.534   6.358
 3453SOL     OW11257   6.962   5.771   5.926
 3453SOL    HW111258   6.961   5.723   5.839
 3453SOL    HW211259   6.870   5.776   5.964
 3454SOL     OW11260   1.226   1.810   6.900
 3454SOL    HW111261   1.240   1.764   6.988
 3454SOL    HW211262   1.132   1.794   6.868
 3455SOL     OW11263   2.295   2.414   4.467
 3455SOL    HW111264   2.343   2.343   4.414
 3455SOL    HW211265   2.307   2.397   4.564
 3456SOL     OW11266   5.808   5.608   2.368
 3456SOL    HW111267   5.882   5.642   2.311
 3456SOL    HW211268   5.761   5.684   2.412
 3457SOL     OW11269   2.722   5.660   3.487
 3457SOL    HW111270   2.740   5.601   3.409
 3457SOL    HW211271   2.773   5.745   3.478
 3458SOL     OW11272   4.821   0.609   0.720
 3458SOL    HW111273   4.780   0.619   0.811
 3458SOL    HW211274   4.773   0.537   0.670
 3459SOL     OW11275   5.712   4.179   2.632
 3459SOL    HW111276   5.651   4.199   2.709
 3459SOL    HW211277   5.688   4.238   2.555
 3460SOL     OW11278   2.481   3.217   6.920
 3460SOL    HW111279   2.477   3.293   6.855
 3460SOL    HW211280   2.574   3.207   6.954
 3461SOL     OW11281   4.590   6.697   4.768
 3461SOL    HW111282   4.496   6.682   4.738
 3461SOL    HW211283   4.625   6.781   4.726
 3462SOL     OW11284   0.221   3.409   2.201
 3462SOL    HW111285   0.192   3.342   2.270
 3462SOL    HW211286   0.321   3.415   2.200
 3463SOL     OW11287   1.108   3.384   3.780
 3463SOL    HW111288   1.187   3.324   3.794
 3463SOL    HW211289   1.069   3.409   3.868
 3464SOL     OW11290   6.926   3.308   6.840
 3464SOL    HW111291   6.829   3.319   6.861
 3464SOL    HW211292   6.977   3.293   6.925
 3465SOL     OW11293   1.524   2.306   2.102
 3465SOL    HW111294   1.574   2.307   2.015
 3465SOL    HW211295   1.456   2.233   2.101
 3466SOL     OW11296   6.609   5.288   6.981
 3466SOL    HW111297   6.582   5.221   6.913
 3466SOL    HW211298   6.656   5.364   6.936
 3467SOL     OW11299   2.251   2.524   0.801
 3467SOL    HW111300   2.294   2.444   0.843
 3467SOL    HW211301   2.217   2.499   0.710
 3468SOL     OW11302   5.900   0.578   2.518
 3468SOL    HW111303   5.904   0.677   2.513
 3468SOL    HW211304   5.837   0.551   2.592
 3469SOL     OW11305   4.830   6.902   3.733
 3469SOL    HW111306   4.790   6.982   3.778
 3469SOL    HW211307   4.922   6.887   3.768
 3470SOL     OW11308   6.752   2.401   1.875
 3470SOL    HW111309   6.705   2.452   1.803
 3470SOL    HW211310   6.817   2.461   1.921
 3471SOL     OW11311   5.075   4.484   4.599
 3471SOL    HW111312   5.124   4.560   4.555
 3471SOL    HW211313   5.137   4.436   4.661
 3472SOL     OW11314   2.968   1.359   3.127
 3472SOL    HW111315   2.963   1.314   3.039
 3472SOL    HW211316   3.064   1.371   3.154
 3473SOL     OW11317   6.998   2.721   1.450
 3473SOL    HW111318   0.006   2.816   1.453
 3473SOL    HW211319   6.962   2.700   1.359
 3474SOL     OW11320   1.092   4.497   2.652
 3474SOL    HW111321   1.050   4.471   2.565
 3474SOL    HW211322   1.054   4.441   2.725
 3475SOL     OW11323   1.469   3.954   4.116
 3475SOL    HW111324   1.555   4.001   4.099
 3475SOL    HW211325   1.452   3.950   4.215
 3476SOL     OW11326   2.351   1.763   2.764
 3476SOL    HW111327   2.413   1.808   2.828
 3476SOL    HW211328   2.259   1.800   2.776
 3477SOL     OW11329   1.413   4.854   0.835
 3477SOL    HW111330   1.489   4.883   0.894
 3477SOL    HW211331   1.387   4.929   0.775
 3478SOL     OW11332   2.359   5.575   5.530
 3478SOL    HW111333   2.424   5.553   5.603
 3478SOL    HW211334   2.305   5.493   5.508
 3479SOL     OW11335   1.662   0.691   3.067
 3479SOL    HW111336   1.658   0.748   3.149
 3479SOL    HW211337   1.758   0.677   3.042
 3480SOL     OW11338   0.011   6.020   4.745
 3480SOL    HW111339   0.097   5.988   4.784
 3480SOL    HW211340   6.964   6.031   4.818
 3481SOL     OW11341   4.938   0.691   0.350
 3481SOL    HW111342   4.896   0.765   0.403
 3481SOL    HW211343   5.036   0.688   0.369
 3482SOL     OW11344   6.176   1.143   1.966
 3482SOL    HW111345   6.143   1.207   1.896
 3482SOL    HW211346   6.237   1.191   2.029
 3483SOL     OW11347   4.828   2.459   1.801
 3483SOL    HW111348   4.843   2.521   1.724
 3483SOL    HW211349   4.907   2.462   1.862
 3484SOL     OW11350   0.994   3.073   0.641
 3484SOL    HW111351   0.921   3.007   0.624
 3484SOL    HW211352   1.082   3.027   0.637
 3485SOL     OW11353   1.922   1.998   4.040
 3485SOL    HW111354   1.953   1.926   4.101
 3485SOL    HW211355   1.837   1.970   3.996
 3486SOL     OW11356   2.644   0.256   3.924
 3486SOL    HW111357   2.714   0.307   3.973
 3486SOL    HW211358   2.591   0.202   3.989
 3487SOL     OW11359   6.347   2.163   6.613
 3487SOL    HW111360   6.316   2.251   6.577
 3487SOL    HW211361   6.342   2.164   6.712
 3488SOL     OW11362   6.505   0.455   4.650
 3488SOL    HW111363   6.602   0.436   4.665
 3488SOL    HW211364   6.495   0.520   4.575
 3489SOL     OW11365   4.164   0.033   1.719
 3489SOL    HW111366   4.203   0.035   1.811
 3489SOL    HW211367   4.204   0.107   1.664
 3490SOL     OW11368   3.956   4.237   0.631
 3490SOL    HW111369   3.927   4.330   0.608
 3490SOL    HW211370   3.985   4.190   0.547
 3491SOL     OW11371   4.450   2.833   5.863
 3491SOL    HW111372   4.397   2.809   5.945
 3491SOL    HW211373   4.542   2.795   5.871
 3492SOL     OW11374   6.622   4.284   0.973
 3492SOL    HW111375   6.532   4.295   1.014
 3492SOL    HW211376   6.687   4.344   1.018
 3493SOL     OW11377   5.030   3.948   5.013
 3493SOL    HW111378   5.023   4.038   4.969
 3493SOL    HW211379   5.064   3.960   5.107
 3494SOL     OW11380   3.295   0.628   1.915
 3494SOL    HW111381   3.308   0.609   2.012
 3494SOL    HW211382   3.361   0.576   1.861
 3495SOL     OW11383   5.808   5.015   1.561
 3495SOL    HW111384   5.796   5.022   1.462
 3495SOL    HW211385   5.887   5.070   1.589
 3496SOL     OW11386   6.117   4.713   0.816
 3496SOL    HW111387   6.116   4.719   0.916
 3496SOL    HW211388   6.164   4.630   0.788
 3497SOL     OW11389   2.220   1.520   3.959
 3497SOL    HW111390   2.215   1.430   3.916
 3497SOL    HW211391   2.148   1.529   4.027
 3498SOL     OW11392   3.287   2.432   1.048
 3498SOL    HW111393   3.311   2.460   0.955
 3498SOL    HW211394   3.367   2.391   1.092
 3499SOL     OW11395   5.376   3.734   4.135
 3499SOL    HW111396   5.327   3.702   4.216
 3499SOL    HW211397   5.424   3.658   4.092
 3500SOL     OW11398   1.790   3.472   4.738
 3500SOL    HW111399   1.882   3.501   4.711
 3500SOL    HW211400   1.794   3.381   4.780
 3501SOL     OW11401   1.437   5.857   5.039
 3501SOL    HW111402   1.477   5.936   5.086
 3501SOL    HW211403   1.465   5.773   5.085
 3502SOL     OW11404   6.699   2.686   2.071
 3502SOL    HW111405   6.644   2.751   2.018
 3502SOL    HW211406   6.638   2.629   2.127
 3503SOL     OW11407   6.175   6.494   4.987
 3503SOL    HW111408   6.124   6.565   5.035
 3503SOL    HW211409   6.270   6.496   5.017
 3504SOL     OW11410   2.682   1.286   1.685
 3504SOL    HW111411   2.595   1.238   1.696
 3504SOL    HW211412   2.750   1.222   1.647
 3505SOL     OW11413   5.612   4.014   5.053
 3505SOL    HW111414   5.553   3.952   5.002
 3505SOL    HW211415   5.563   4.099   5.073
 3506SOL     OW11416   5.220   5.549   5.712
 3506SOL    HW111417   5.212   5.451   5.730
 3506SOL    HW211418   5.293   5.565   5.646
 3507SOL     OW11419   2.127   0.817   0.779
 3507SOL    HW111420   2.182   0.783   0.703
 3507SOL    HW211421   2.185   0.866   0.844
 3508SOL     OW11422   2.106   1.937   5.553
 3508SOL    HW111423   2.037   1.984   5.607
 3508SOL    HW211424   2.174   2.004   5.521
 3509SOL     OW11425   5.276   0.472   6.344
 3509SOL    HW111426   5.343   0.408   6.307
 3509SOL    HW211427   5.286   0.561   6.299
 3510SOL     OW11428   1.416   1.826   1.941
 3510SOL    HW111429   1.414   1.897   2.011
 3510SOL    HW211430   1.398   1.867   1.851
 3511SOL     OW11431   2.612   5.102   0.988
 3511SOL    HW111432   2.568   5.014   1.001
 3511SOL    HW211433   2.711   5.092   0.996
 3512SOL     OW11434   6.715   4.278   0.722
 3512SOL    HW111435   6.747   4.372   0.709
 3512SOL    HW211436   6.675   4.268   0.813
 3513SOL     OW11437   5.415   2.716   6.903
 3513SOL    HW111438   5.482   2.708   6.977
 3513SOL    HW211439   5.343   2.780   6.930
 3514SOL     OW11440   0.318   1.636   1.819
 3514SOL    HW111441   0.273   1.651   1.731
 3514SOL    HW211442   0.270   1.565   1.870
 3515SOL     OW11443   4.958   6.197   3.262
 3515SOL    HW111444   5.035   6.205   3.199
 3515SOL    HW211445   4.877   6.165   3.213
 3516SOL     OW11446   4.642   0.086   0.838
 3516SOL    HW111447   4.576   0.015   0.863
 3516SOL    HW211448   4.633   0.164   0.900
 3517SOL     OW11449   1.550   2.396   0.816
 3517SOL    HW111450   1.509   2.383   0.907
 3517SOL    HW211451   1.502   2.469   0.769
 3518SOL     OW11452   5.824   2.302   4.096
 3518SOL    HW111453   5.897   2.343   4.041
 3518SOL    HW211454   5.790   2.219   4.051
 3519SOL     OW11455   1.543   0.437   6.427
 3519SOL    HW111456   1.477   0.502   6.389
 3519SOL    HW211457   1.509   0.344   6.412
 3520SOL     OW11458   3.111   5.188   6.653
 3520SOL    HW111459   3.074   5.275   6.619
 3520SOL    HW211460   3.107   5.120   6.580
 3521SOL     OW11461   5.118   2.602   6.686
 3521SOL    HW111462   5.160   2.550   6.761
 3521SOL    HW211463   5.021   2.579   6.680
 3522SOL     OW11464   0.309   4.812   1.516
 3522SOL    HW111465   0.335   4.808   1.612
 3522SOL    HW211466   0.225   4.761   1.501
 3523SOL     OW11467   1.841   4.968   5.926
 3523SOL    HW111468   1.783   4.960   6.007
 3523SOL    HW211469   1.792   5.016   5.854
 3524SOL     OW11470   4.675   1.701   2.122
 3524SOL    HW111471   4.746   1.750   2.072
 3524SOL    HW211472   4.675   1.605   2.093
 3525SOL     OW11473   1.266   4.505   3.259
 3525SOL    HW111474   1.361   4.525   3.282
 3525SOL    HW211475   1.210   4.586   3.275
 3526SOL     OW11476   2.429   6.828   4.158
 3526SOL    HW111477   2.331   6.849   4.156
 3526SOL    HW211478   2.448   6.749   4.099
 3527SOL     OW11479   5.681   3.293   6.411
 3527SOL    HW111480   5.729   3.373   6.445
 3527SOL    HW211481   5.598   3.321   6.362
 3528SOL     OW11482   0.887   6.061   5.016
 3528SOL    HW111483   0.886   6.120   4.935
 3528SOL    HW211484   0.858   6.114   5.095
 3529SOL     OW11485   3.735   0.300   6.725
 3529SOL    HW111486   3.724   0.236   6.649
 3529SOL    HW211487   3.710   0.392   6.694
 3530SOL     OW11488   0.522   4.987   2.614
 3530SOL    HW111489   0.507   4.965   2.710
 3530SOL    HW211490   0.612   5.027   2.602
 3531SOL     OW11491   5.071   2.737   0.179
 3531SOL    HW111492   5.032   2.738   0.271
 3531SOL    HW211493   5.069   2.644   0.143
 3532SOL     OW11494   2.941   0.824   1.497
 3532SOL    HW111495   3.011   0.772   1.448
 3532SOL    HW211496   2.875   0.761   1.537
 3533SOL     OW11497   1.795   2.005   2.779
 3533SOL    HW111498   1.781   2.048   2.868
 3533SOL    HW211499   1.752   1.915   2.778
 3534SOL     OW11500   6.252   1.299   6.725
 3534SOL    HW111501   6.174   1.348   6.764
 3534SOL    HW211502   6.326   1.363   6.707
 3535SOL     OW11503   1.907   6.068   0.836
 3535SOL    HW111504   1.980   6.105   0.779
 3535SOL    HW211505   1.891   5.972   0.813
 3536SOL     OW11506   3.000   1.938   3.085
 3536SOL    HW111507   3.082   1.893   3.119
 3536SOL    HW211508   2.994   2.030   3.123
 3537SOL     OW11509   3.047   5.527   1.777
 3537SOL    HW111510   3.090   5.445   1.815
 3537SOL    HW211511   3.082   5.608   1.825
 3538SOL     OW11512   1.320   0.247   6.383
 3538SOL    HW111513   1.275   0.211   6.301
 3538SOL    HW211514   1.272   0.329   6.414
 3539SOL     OW11515   5.331   3.292   5.548
 3539SOL    HW111516   5.293   3.200   5.551
 3539SOL    HW211517   5.430   3.288   5.546
 3540SOL     OW11518   2.367   2.066   5.538
 3540SOL    HW111519   2.433   2.111   5.599
 3540SOL    HW211520   2.396   2.077   5.443
 3541SOL     OW11521   2.017   2.478   6.580
 3541SOL    HW111522   2.017   2.465   6.481
 3541SOL    HW211523   2.088   2.422   6.622
 3542SOL     OW11524   1.629   5.364   2.932
 3542SOL    HW111525   1.588   5.359   3.023
 3542SOL    HW211526   1.628   5.458   2.900
 3543SOL     OW11527   0.551   1.972   4.641
 3543SOL    HW111528   0.649   1.988   4.627
 3543SOL    HW211529   0.500   2.056   4.621
 3544SOL     OW11530   2.842   4.120   6.322
 3544SOL    HW111531   2.888   4.141   6.409
 3544SOL    HW211532   2.804   4.204   6.284
 3545SOL     OW11533   3.985   4.853   0.670
 3545SOL    HW111534   4.012   4.948   0.658
 3545SOL    HW211535   4.062   4.800   0.706
 3546SOL     OW11536   1.116   4.455   3.852
 3546SOL    HW111537   1.092   4.371   3.900
 3546SOL    HW211538   1.107   4.533   3.914
 3547SOL     OW11539   6.420   4.958   4.409
 3547SOL    HW111540   6.517   4.939   4.399
 3547SOL    HW211541   6.407   5.055   4.428
 3548SOL     OW11542   6.008   0.980   5.936
 3548SOL    HW111543   5.976   1.029   6.017
 3548SOL    HW211544   6.023   1.045   5.861
 3549SOL     OW11545   6.886   4.930   5.754
 3549SOL    HW111546   6.861   4.962   5.663
 3549SOL    HW211547   6.886   5.008   5.817
 3550SOL     OW11548   5.833   3.288   3.310
 3550SOL    HW111549   5.841   3.340   3.395
 3550SOL    HW211550   5.915   3.302   3.255
 3551SOL     OW11551   3.703   1.281   2.683
 3551SOL    HW111552   3.787   1.333   2.671
 3551SOL    HW211553   3.711   1.194   2.634
 3552SOL     OW11554   5.770   0.107   2.103
 3552SOL    HW111555   5.712   0.027   2.121
 3552SOL    HW211556   5.800   0.147   2.189
 3553SOL     OW11557   4.679   5.083   1.253
 3553SOL    HW111558   4.685   5.179   1.225
 3553SOL    HW211559   4.609   5.037   1.198
 3554SOL     OW11560   4.510   2.215   1.510
 3554SOL    HW111561   4.453   2.206   1.591
 3554SOL    HW211562   4.462   2.177   1.431
 3555SOL     OW11563   0.730   4.458   3.737
 3555SOL    HW111564   0.699   4.473   3.643
 3555SOL    HW211565   0.679   4.383   3.778
 3556SOL     OW11566   4.141   1.625   4.651
 3556SOL    HW111567   4.123   1.535   4.610
 3556SOL    HW211568   4.098   1.630   4.741
 3557SOL     OW11569   0.914   1.530   4.808
 3557SOL    HW111570   0.896   1.592   4.732
 3557SOL    HW211571   1.003   1.485   4.794
 3558SOL     OW11572   1.441   6.824   2.330
 3558SOL    HW111573   1.452   6.783   2.421
 3558SOL    HW211574   1.365   6.779   2.283
 3559SOL     OW11575   0.777   6.186   5.498
 3559SOL    HW111576   0.677   6.190   5.492
 3559SOL    HW211577   0.805   6.210   5.591
 3560SOL     OW11578   0.846   5.690   1.870
 3560SOL    HW111579   0.916   5.715   1.802
 3560SOL    HW211580   0.773   5.638   1.824
 3561SOL     OW11581   4.362   4.695   4.857
 3561SOL    HW111582   4.379   4.620   4.792
 3561SOL    HW211583   4.363   4.658   4.950
 3562SOL     OW11584   4.628   1.166   3.618
 3562SOL    HW111585   4.682   1.212   3.547
 3562SOL    HW211586   4.665   1.075   3.634
 3563SOL     OW11587   5.746   1.108   0.236
 3563SOL    HW111588   5.797   1.162   0.169
 3563SOL    HW211589   5.771   1.012   0.228
 3564SOL     OW11590   2.144   4.428   3.682
 3564SOL    HW111591   2.226   4.372   3.670
 3564SOL    HW211592   2.093   4.430   3.596
 3565SOL     OW11593   2.521   5.649   5.128
 3565SOL    HW111594   2.526   5.553   5.100
 3565SOL    HW211595   2.585   5.703   5.072
 3566SOL     OW11596   6.372   3.753   5.721
 3566SOL    HW111597   6.399   3.672   5.773
 3566SOL    HW211598   6.275   3.749   5.700
 3567SOL     OW11599   0.211   2.915   6.985
 3567SOL    HW111600   0.251   3.006   6.971
 3567SOL    HW211601   0.174   2.909   0.057
 3568SOL     OW11602   4.517   5.057   4.202
 3568SOL    HW111603   4.579   4.997   4.254
 3568SOL    HW211604   4.423   5.037   4.228
 3569SOL     OW11605   1.848   1.970   5.694
 3569SOL    HW111606   1.826   2.044   5.759
 3569SOL    HW211607   1.813   1.883   5.730
 3570SOL     OW11608   5.387   0.929   5.174
 3570SOL    HW111609   5.321   0.855   5.160
 3570SOL    HW211610   5.467   0.894   5.221
 3571SOL     OW11611   0.941   5.592   5.259
 3571SOL    HW111612   0.926   5.567   5.164
 3571SOL    HW211613   0.948   5.692   5.266
 3572SOL     OW11614   5.898   3.146   2.911
 3572SOL    HW111615   5.810   3.115   2.876
 3572SOL    HW211616   5.936   3.215   2.849
 3573SOL     OW11617   6.571   4.861   3.296
 3573SOL    HW111618   6.624   4.785   3.261
 3573SOL    HW211619   6.474   4.835   3.301
 3574SOL     OW11620   0.450   2.851   0.662
 3574SOL    HW111621   0.448   2.757   0.627
 3574SOL    HW211622   0.507   2.855   0.744
 3575SOL     OW11623   5.553   5.367   2.507
 3575SOL    HW111624   5.496   5.448   2.501
 3575SOL    HW211625   5.629   5.384   2.569
 3576SOL     OW11626   0.739   2.323   6.644
 3576SOL    HW111627   0.805   2.262   6.600
 3576SOL    HW211628   0.784   2.410   6.666
 3577SOL     OW11629   1.511   2.566   0.078
 3577SOL    HW111630   1.563   2.618   0.011
 3577SOL    HW211631   1.415   2.563   0.050
 3578SOL     OW11632   4.173   1.247   0.530
 3578SOL    HW111633   4.213   1.324   0.479
 3578SOL    HW211634   4.164   1.271   0.626
 3579SOL     OW11635   6.680   2.232   3.028
 3579SOL    HW111636   6.639   2.322   3.040
 3579SOL    HW211637   6.775   2.242   2.998
 3580SOL     OW11638   6.294   3.251   1.379
 3580SOL    HW111639   6.290   3.343   1.340
 3580SOL    HW211640   6.285   3.183   1.306
 3581SOL     OW11641   1.064   4.950   3.457
 3581SOL    HW111642   1.063   5.047   3.435
 3581SOL    HW211643   1.093   4.937   3.552
 3582SOL     OW11644   1.250   3.598   6.520
 3582SOL    HW111645   1.335   3.634   6.482
 3582SOL    HW211646   1.192   3.674   6.548
 3583SOL     OW11647   1.466   4.831   6.839
 3583SOL    HW111648   1.562   4.821   6.867
 3583SOL    HW211649   1.420   4.894   6.903
 3584SOL     OW11650   5.953   4.501   5.946
 3584SOL    HW111651   5.930   4.509   5.849
 3584SOL    HW211652   5.887   4.439   5.990
 3585SOL     OW11653   2.753   1.985   4.314
 3585SOL    HW111654   2.722   1.970   4.408
 3585SOL    HW211655   2.772   2.082   4.300
 3586SOL     OW11656   6.004   1.724   4.585
 3586SOL    HW111657   6.061   1.759   4.511
 3586SOL    HW211658   5.934   1.791   4.608
 3587SOL     OW11659   2.050   4.736   5.965
 3587SOL    HW111660   1.983   4.810   5.955
 3587SOL    HW211661   2.135   4.762   5.919
 3588SOL     OW11662   0.888   3.275   5.250
 3588SOL    HW111663   0.978   3.260   5.292
 3588SOL    HW211664   0.847   3.358   5.287
 3589SOL     OW11665   5.478   0.976   5.534
 3589SOL    HW111666   5.549   1.028   5.487
 3589SOL    HW211667   5.415   1.040   5.579
 3590SOL     OW11668   0.467   3.581   0.451
 3590SOL    HW111669   0.536   3.651   0.470
 3590SOL    HW211670   0.394   3.587   0.518
 3591SOL     OW11671   5.536   4.174   6.926
 3591SOL    HW111672   5.595   4.107   6.972
 3591SOL    HW211673   5.513   4.141   6.835
 3592SOL     OW11674   0.601   6.086   2.458
 3592SOL    HW111675   0.564   5.997   2.432
 3592SOL    HW211676   0.638   6.131   2.377
 3593SOL     OW11677   0.932   5.348   5.387
 3593SOL    HW111678   0.927   5.370   5.485
 3593SOL    HW211679   0.935   5.432   5.334
 3594SOL     OW11680   4.598   6.881   3.159
 3594SOL    HW111681   4.621   6.917   3.249
 3594SOL    HW211682   4.624   6.947   3.088
 3595SOL     OW11683   4.488   6.148   6.131
 3595SOL    HW111684   4.419   6.104   6.074
 3595SOL    HW211685   4.576   6.147   6.083
 3596SOL     OW11686   5.707   3.552   2.305
 3596SOL    HW111687   5.796   3.591   2.281
 3596SOL    HW211688   5.700   3.460   2.269
 3597SOL     OW11689   1.748   2.075   5.467
 3597SOL    HW111690   1.655   2.102   5.491
 3597SOL    HW211691   1.797   2.047   5.549
 3598SOL     OW11692   1.073   6.415   6.066
 3598SOL    HW111693   1.170   6.438   6.065
 3598SOL    HW211694   1.057   6.335   6.007
 3599SOL     OW11695   5.043   2.150   6.739
 3599SOL    HW111696   5.129   2.188   6.706
 3599SOL    HW211697   4.969   2.179   6.679
 3600SOL     OW11698   0.841   3.054   1.934
 3600SOL    HW111699   0.921   3.022   1.883
 3600SOL    HW211700   0.813   3.143   1.900
 3601SOL     OW11701   4.919   3.261   5.821
 3601SOL    HW111702   4.973   3.314   5.756
 3601SOL    HW211703   4.959   3.269   5.912
 3602SOL     OW11704   0.896   3.957   0.524
 3602SOL    HW111705   0.834   4.033   0.506
 3602SOL    HW211706   0.915   3.952   0.622
 3603SOL     OW11707   3.805   1.107   4.179
 3603SOL    HW111708   3.883   1.162   4.210
 3603SOL    HW211709   3.722   1.140   4.222
 3604SOL     OW11710   6.908   6.242   3.292
 3604SOL    HW111711   6.940   6.163   3.240
 3604SOL    HW211712   6.983   6.281   3.345
 3605SOL     OW11713   0.281   4.193   3.750
 3605SOL    HW111714   0.315   4.101   3.730
 3605SOL    HW211715   0.183   4.197   3.730
 3606SOL     OW11716   0.460   0.183   4.137
 3606SOL    HW111717   0.366   0.215   4.137
 3606SOL    HW211718   0.518   0.250   4.091
 3607SOL     OW11719   5.256   5.222   1.967
 3607SOL    HW111720   5.240   5.196   2.062
 3607SOL    HW211721   5.349   5.199   1.941
 3608SOL     OW11722   4.549   2.216   4.541
 3608SOL    HW111723   4.611   2.158   4.489
 3608SOL    HW211724   4.504   2.280   4.479
 3609SOL     OW11725   1.452   0.111   4.028
 3609SOL    HW111726   1.447   0.084   3.932
 3609SOL    HW211727   1.525   0.060   4.073
 3610SOL     OW11728   1.683   0.319   6.061
 3610SOL    HW111729   1.644   0.329   5.969
 3610SOL    HW211730   1.766   0.264   6.057
 3611SOL     OW11731   4.527   4.737   4.381
 3611SOL    HW111732   4.521   4.694   4.471
 3611SOL    HW211733   4.623   4.749   4.356
 3612SOL     OW11734   0.327   0.426   6.909
 3612SOL    HW111735   0.421   0.460   6.899
 3612SOL    HW211736   0.294   0.446   7.001
 3613SOL     OW11737   4.828   4.629   2.409
 3613SOL    HW111738   4.921   4.596   2.391
 3613SOL    HW211739   4.803   4.608   2.503
 3614SOL     OW11740   3.540   3.747   0.598
 3614SOL    HW111741   3.558   3.845   0.602
 3614SOL    HW211742   3.492   3.725   0.513
 3615SOL     OW11743   5.135   3.588   6.032
 3615SOL    HW111744   5.163   3.674   5.989
 3615SOL    HW211745   5.147   3.594   6.131
 3616SOL     OW11746   0.533   1.269   6.633
 3616SOL    HW111747   0.462   1.279   6.703
 3616SOL    HW211748   0.549   1.358   6.590
 3617SOL     OW11749   4.722   0.855   6.887
 3617SOL    HW111750   4.677   0.909   6.959
 3617SOL    HW211751   4.663   0.779   6.861
 3618SOL     OW11752   2.396   3.255   5.304
 3618SOL    HW111753   2.432   3.164   5.283
 3618SOL    HW211754   2.471   3.313   5.335
 3619SOL     OW11755   6.174   2.557   5.296
 3619SOL    HW111756   6.106   2.559   5.223
 3619SOL    HW211757   6.256   2.508   5.264
 3620SOL     OW11758   6.023   5.557   5.570
 3620SOL    HW111759   6.054   5.609   5.650
 3620SOL    HW211760   6.077   5.474   5.561
 3621SOL     OW11761   3.353   2.643   5.246
 3621SOL    HW111762   3.411   2.654   5.165
 3621SOL    HW211763   3.287   2.569   5.231
 3622SOL     OW11764   0.966   1.496   6.914
 3622SOL    HW111765   0.986   1.428   6.985
 3622SOL    HW211766   0.887   1.465   6.860
 3623SOL     OW11767   6.664   6.102   4.353
 3623SOL    HW111768   6.685   6.039   4.279
 3623SOL    HW211769   6.743   6.162   4.368
 3624SOL     OW11770   1.671   0.156   2.230
 3624SOL    HW111771   1.726   0.171   2.312
 3624SOL    HW211772   1.722   0.187   2.150
 3625SOL     OW11773   0.306   3.226   6.473
 3625SOL    HW111774   0.394   3.264   6.443
 3625SOL    HW211775   0.233   3.262   6.414
 3626SOL     OW11776   0.949   2.828   5.530
 3626SOL    HW111777   0.960   2.782   5.443
 3626SOL    HW211778   0.902   2.916   5.516
 3627SOL     OW11779   3.957   3.017   1.187
 3627SOL    HW111780   3.899   2.952   1.138
 3627SOL    HW211781   4.026   3.054   1.125
 3628SOL     OW11782   1.020   1.554   2.352
 3628SOL    HW111783   1.077   1.634   2.368
 3628SOL    HW211784   1.064   1.494   2.284
 3629SOL     OW11785   0.754   1.174   5.394
 3629SOL    HW111786   0.739   1.273   5.395
 3629SOL    HW211787   0.759   1.141   5.488
 3630SOL     OW11788   5.098   2.417   4.172
 3630SOL    HW111789   5.078   2.357   4.095
 3630SOL    HW211790   5.036   2.398   4.247
 3631SOL     OW11791   2.343   0.952   2.856
 3631SOL    HW111792   2.272   1.022   2.845
 3631SOL    HW211793   2.432   0.992   2.835
 3632SOL     OW11794   5.437   5.122   1.304
 3632SOL    HW111795   5.370   5.191   1.278
 3632SOL    HW211796   5.472   5.076   1.222
 3633SOL     OW11797   3.950   2.190   6.012
 3633SOL    HW111798   3.860   2.223   5.982
 3633SOL    HW211799   4.021   2.228   5.953
 3634SOL     OW11800   1.701   5.485   5.885
 3634SOL    HW111801   1.660   5.576   5.890
 3634SOL    HW211802   1.646   5.420   5.937
 3635SOL     OW11803   3.355   0.137   1.081
 3635SOL    HW111804   3.339   0.089   1.168
 3635SOL    HW211805   3.279   0.200   1.063
 3636SOL     OW11806   6.437   5.804   0.742
 3636SOL    HW111807   6.479   5.888   0.776
 3636SOL    HW211808   6.483   5.725   0.784
 3637SOL     OW11809   0.097   2.535   1.789
 3637SOL    HW111810   0.144   2.616   1.754
 3637SOL    HW211811   0.011   2.563   1.833
 3638SOL     OW11812   0.053   3.901   3.069
 3638SOL    HW111813   0.086   3.995   3.058
 3638SOL    HW211814   6.991   3.888   3.014
 3639SOL     OW11815   4.079   5.114   0.590
 3639SOL    HW111816   4.039   5.136   0.501
 3639SOL    HW211817   4.106   5.198   0.636
 3640SOL     OW11818   4.639   1.100   0.330
 3640SOL    HW111819   4.635   1.200   0.340
 3640SOL    HW211820   4.734   1.070   0.329
 3641SOL     OW11821   6.169   3.704   1.997
 3641SOL    HW111822   6.079   3.737   1.970
 3641SOL    HW211823   6.194   3.742   2.086
 3642SOL     OW11824   4.729   2.103   6.843
 3642SOL    HW111825   4.818   2.098   6.887
 3642SOL    HW211826   4.657   2.080   6.909
 3643SOL     OW11827   2.939   5.574   4.793
 3643SOL    HW111828   3.005   5.631   4.843
 3643SOL    HW211829   2.847   5.595   4.824
 3644SOL     OW11830   2.235   1.497   2.006
 3644SOL    HW111831   2.144   1.465   1.981
 3644SOL    HW211832   2.303   1.457   1.944
 3645SOL     OW11833   1.848   2.352   3.845
 3645SOL    HW111834   1.905   2.410   3.787
 3645SOL    HW211835   1.900   2.323   3.925
 3646SOL     OW11836   1.091   3.911   5.760
 3646SOL    HW111837   1.058   3.993   5.807
 3646SOL    HW211838   1.191   3.908   5.764
 3647SOL     OW11839   2.331   6.002   6.705
 3647SOL    HW111840   2.250   6.059   6.720
 3647SOL    HW211841   2.330   5.967   6.611
 3648SOL     OW11842   4.337   6.217   3.221
 3648SOL    HW111843   4.332   6.311   3.256
 3648SOL    HW211844   4.370   6.218   3.127
 3649SOL     OW11845   6.213   2.973   0.820
 3649SOL    HW111846   6.167   2.944   0.905
 3649SOL    HW211847   6.243   2.892   0.770
 3650SOL     OW11848   6.254   5.374   1.735
 3650SOL    HW111849   6.339   5.390   1.685
 3650SOL    HW211850   6.259   5.420   1.824
 3651SOL     OW11851   1.015   0.610   4.155
 3651SOL    HW111852   1.085   0.665   4.201
 3651SOL    HW211853   1.022   0.624   4.056
 3652SOL     OW11854   6.208   6.729   3.575
 3652SOL    HW111855   6.301   6.731   3.539
 3652SOL    HW211856   6.150   6.789   3.520
 3653SOL     OW11857   1.301   1.547   3.306
 3653SOL    HW111858   1.305   1.540   3.406
 3653SOL    HW211859   1.301   1.643   3.280
 3654SOL     OW11860   3.674   4.868   0.693
 3654SOL    HW111861   3.619   4.943   0.656
 3654SOL    HW211862   3.744   4.843   0.626
 3655SOL     OW11863   3.292   0.444   4.153
 3655SOL    HW111864   3.358   0.431   4.080
 3655SOL    HW211865   3.256   0.538   4.150
 3656SOL     OW11866   0.410   5.252   1.503
 3656SOL    HW111867   0.472   5.297   1.567
 3656SOL    HW211868   0.434   5.156   1.494
 3657SOL     OW11869   5.027   5.709   4.726
 3657SOL    HW111870   4.987   5.623   4.757
 3657SOL    HW211871   5.096   5.740   4.792
 3658SOL     OW11872   2.955   4.778   6.774
 3658SOL    HW111873   2.880   4.749   6.714
 3658SOL    HW211874   2.940   4.873   6.802
 3659SOL     OW11875   1.592   2.622   5.909
 3659SOL    HW111876   1.570   2.561   5.833
 3659SOL    HW211877   1.578   2.574   5.995
 3660SOL     OW11878   6.026   6.596   4.334
 3660SOL    HW111879   5.975   6.674   4.369
 3660SOL    HW211880   6.124   6.614   4.344
 3661SOL     OW11881   0.116   0.598   5.168
 3661SOL    HW111882   0.136   0.612   5.071
 3661SOL    HW211883   0.187   0.540   5.209
 3662SOL     OW11884   4.314   0.639   4.439
 3662SOL    HW111885   4.331   0.541   4.448
 3662SOL    HW211886   4.374   0.688   4.503
 3663SOL     OW11887   1.710   2.898   0.260
 3663SOL    HW111888   1.616   2.904   0.225
 3663SOL    HW211889   1.746   2.991   0.271
 3664SOL     OW11890   4.329   2.268   2.197
 3664SOL    HW111891   4.386   2.288   2.277
 3664SOL    HW211892   4.337   2.341   2.130
 3665SOL     OW11893   0.952   6.381   5.010
 3665SOL    HW111894   0.877   6.360   5.073
 3665SOL    HW211895   0.916   6.428   4.930
 3666SOL     OW11896   0.898   4.071   3.237
 3666SOL    HW111897   0.984   4.024   3.253
 3666SOL    HW211898   0.916   4.165   3.207
 3667SOL     OW11899   0.198   1.386   3.806
 3667SOL    HW111900   0.122   1.398   3.870
 3667SOL    HW211901   0.284   1.400   3.854
 3668SOL     OW11902   1.242   0.612   1.306
 3668SOL    HW111903   1.220   0.706   1.331
 3668SOL    HW211904   1.167   0.552   1.335
 3669SOL     OW11905   5.737   1.659   3.489
 3669SOL    HW111906   5.716   1.615   3.402
 3669SOL    HW211907   5.833   1.644   3.511
 3670SOL     OW11908   2.540   5.187   7.007
 3670SOL    HW111909   2.601   5.217   0.060
 3670SOL    HW211910   2.446   5.211   0.009
 3671SOL     OW11911   0.015   1.982   4.027
 3671SOL    HW111912   0.017   2.081   4.043
 3671SOL    HW211913   6.953   1.958   3.978
 3672SOL     OW11914   4.688   1.999   2.663
 3672SOL    HW111915   4.652   2.039   2.748
 3672SOL    HW211916   4.612   1.969   2.605
 3673SOL     OW11917   3.649   5.894   0.044
 3673SOL    HW111918   3.587   5.873   0.120
 3673SOL    HW211919   3.663   5.812   7.010
 3674SOL     OW11920   1.780   5.860   5.863
 3674SOL    HW111921   1.710   5.897   5.802
 3674SOL    HW211922   1.845   5.807   5.809
 3675SOL     OW11923   1.768   2.517   4.183
 3675SOL    HW111924   1.801   2.547   4.272
 3675SOL    HW211925   1.734   2.423   4.190
 3676SOL     OW11926   6.178   3.795   2.279
 3676SOL    HW111927   6.274   3.781   2.255
 3676SOL    HW211928   6.161   3.759   2.371
 3677SOL     OW11929   3.020   6.987   4.234
 3677SOL    HW111930   3.085   6.974   4.309
 3677SOL    HW211931   2.978   0.057   4.241
 3678SOL     OW11932   1.190   1.423   4.656
 3678SOL    HW111933   1.256   1.377   4.596
 3678SOL    HW211934   1.104   1.372   4.657
 3679SOL     OW11935   6.994   0.491   3.365
 3679SOL    HW111936   6.997   0.419   3.435
 3679SOL    HW211937   0.017   0.573   3.401
 3680SOL     OW11938   5.041   2.773   4.262
 3680SOL    HW111939   5.107   2.830   4.214
 3680SOL    HW211940   4.958   2.825   4.280
 3681SOL     OW11941   1.008   1.096   6.535
 3681SOL    HW111942   1.053   1.032   6.472
 3681SOL    HW211943   1.061   1.180   6.540
 3682SOL     OW11944   5.411   2.280   6.874
 3682SOL    HW111945   5.410   2.192   6.826
 3682SOL    HW211946   5.326   2.329   6.856
 3683SOL     OW11947   0.216   1.133   4.235
 3683SOL    HW111948   0.213   1.071   4.157
 3683SOL    HW211949   0.164   1.094   4.311
 3684SOL     OW11950   1.129   5.291   0.345
 3684SOL    HW111951   1.160   5.255   0.433
 3684SOL    HW211952   1.046   5.345   0.359
 3685SOL     OW11953   2.015   5.741   5.693
 3685SOL    HW111954   2.096   5.785   5.654
 3685SOL    HW211955   1.986   5.666   5.633
 3686SOL     OW11956   6.164   5.066   4.420
 3686SOL    HW111957   6.170   5.131   4.344
 3686SOL    HW211958   6.113   4.985   4.392
 3687SOL     OW11959   4.621   6.394   4.259
 3687SOL    HW111960   4.690   6.408   4.188
 3687SOL    HW211961   4.636   6.459   4.333
 3688SOL     OW11962   6.635   3.374   0.213
 3688SOL    HW111963   6.609   3.306   0.145
 3688SOL    HW211964   6.564   3.444   0.221
 3689SOL     OW11965   2.150   0.759   5.780
 3689SOL    HW111966   2.192   0.808   5.703
 3689SOL    HW211967   2.107   0.824   5.842
 3690SOL     OW11968   3.995   5.344   0.882
 3690SOL    HW111969   3.896   5.338   0.896
 3690SOL    HW211970   4.013   5.372   0.788
 3691SOL     OW11971   2.736   1.761   0.137
 3691SOL    HW111972   2.651   1.800   0.103
 3691SOL    HW211973   2.807   1.832   0.136
 3692SOL     OW11974   6.527   4.971   5.614
 3692SOL    HW111975   6.491   4.914   5.540
 3692SOL    HW211976   6.559   4.913   5.689
 3693SOL     OW11977   2.187   2.054   3.257
 3693SOL    HW111978   2.139   2.035   3.343
 3693SOL    HW211979   2.254   1.982   3.240
 3694SOL     OW11980   1.892   6.669   2.366
 3694SOL    HW111981   1.910   6.609   2.288
 3694SOL    HW211982   1.847   6.617   2.439
 3695SOL     OW11983   5.261   2.363   1.510
 3695SOL    HW111984   5.209   2.347   1.426
 3695SOL    HW211985   5.358   2.348   1.492
 3696SOL     OW11986   4.597   0.301   4.338
 3696SOL    HW111987   4.694   0.275   4.336
 3696SOL    HW211988   4.549   0.258   4.262
 3697SOL     OW11989   0.060   5.995   2.992
 3697SOL    HW111990   6.989   6.000   2.954
 3697SOL    HW211991   0.117   5.939   2.933
 3698SOL     OW11992   2.313   1.098   3.505
 3698SOL    HW111993   2.258   1.105   3.422
 3698SOL    HW211994   2.371   1.180   3.514
 3699SOL     OW11995   2.212   1.254   3.798
 3699SOL    HW111996   2.152   1.320   3.753
 3699SOL    HW211997   2.304   1.262   3.760
 3700SOL     OW11998   1.663   4.557   4.954
 3700SOL    HW111999   1.603   4.582   4.878
 3700SOL    HW212000   1.727   4.631   4.973
 3701SOL     OW12001   1.435   0.232   3.545
 3701SOL    HW112002   1.351   0.284   3.532
 3701SOL    HW212003   1.466   0.195   3.458
 3702SOL     OW12004   5.332   6.457   3.108
 3702SOL    HW112005   5.404   6.411   3.056
 3702SOL    HW212006   5.359   6.464   3.204
 3703SOL     OW12007   0.195   0.744   6.536
 3703SOL    HW112008   0.280   0.693   6.525
 3703SOL    HW212009   0.144   0.707   6.613
 3704SOL     OW12010   4.123   2.360   1.364
 3704SOL    HW112011   4.061   2.367   1.443
 3704SOL    HW212012   4.151   2.452   1.336
 3705SOL     OW12013   5.810   4.334   4.185
 3705SOL    HW112014   5.767   4.245   4.171
 3705SOL    HW212015   5.910   4.324   4.184
 3706SOL     OW12016   0.493   3.877   6.663
 3706SOL    HW112017   0.412   3.874   6.604
 3706SOL    HW212018   0.550   3.954   6.636
 3707SOL     OW12019   4.685   5.572   4.591
 3707SOL    HW112020   4.776   5.602   4.560
 3707SOL    HW212021   4.688   5.551   4.689
 3708SOL     OW12022   4.650   6.647   1.347
 3708SOL    HW112023   4.561   6.623   1.307
 3708SOL    HW212024   4.641   6.734   1.396
 3709SOL     OW12025   2.869   0.477   1.302
 3709SOL    HW112026   2.823   0.424   1.373
 3709SOL    HW212027   2.968   0.465   1.309
 3710SOL     OW12028   0.027   5.386   5.232
 3710SOL    HW112029   0.063   5.312   5.288
 3710SOL    HW212030   0.054   5.371   5.136
 3711SOL     OW12031   1.570   5.707   5.306
 3711SOL    HW112032   1.596   5.802   5.326
 3711SOL    HW212033   1.471   5.697   5.312
 3712SOL     OW12034   1.381   5.651   7.004
 3712SOL    HW112035   1.330   5.730   0.015
 3712SOL    HW212036   1.369   5.575   0.047
 3713SOL     OW12037   0.609   0.174   5.315
 3713SOL    HW112038   0.531   0.190   5.377
 3713SOL    HW212039   0.651   0.261   5.291
 3714SOL     OW12040   5.621   5.713   6.754
 3714SOL    HW112041   5.647   5.620   6.729
 3714SOL    HW212042   5.530   5.712   6.796
 3715SOL     OW12043   1.470   4.731   2.333
 3715SOL    HW112044   1.514   4.660   2.277
 3715SOL    HW212045   1.409   4.687   2.400
 3716SOL     OW12046   6.177   6.210   4.923
 3716SOL    HW112047   6.251   6.223   4.856
 3716SOL    HW212048   6.156   6.297   4.967
 3717SOL     OW12049   5.489   0.488   6.871
 3717SOL    HW112050   5.469   0.457   6.963
 3717SOL    HW212051   5.575   0.446   6.839
 3718SOL     OW12052   6.931   0.241   0.032
 3718SOL    HW112053   6.938   0.154   7.005
 3718SOL    HW212054   6.920   0.315   6.987
 3719SOL     OW12055   4.357   2.709   0.394
 3719SOL    HW112056   4.417   2.774   0.440
 3719SOL    HW212057   4.370   2.717   0.295
 3720SOL     OW12058   5.252   3.177   0.867
 3720SOL    HW112059   5.297   3.151   0.781
 3720SOL    HW212060   5.154   3.183   0.852
 3721SOL     OW12061   0.044   4.677   0.816
 3721SOL    HW112062   0.114   4.679   0.887
 3721SOL    HW212063   0.084   4.705   0.729
 3722SOL     OW12064   5.457   6.190   1.197
 3722SOL    HW112065   5.466   6.288   1.215
 3722SOL    HW212066   5.409   6.147   1.273
 3723SOL     OW12067   4.341   4.987   0.564
 3723SOL    HW112068   4.253   5.032   0.549
 3723SOL    HW212069   4.385   5.024   0.646
 3724SOL     OW12070   1.667   4.252   5.799
 3724SOL    HW112071   1.655   4.218   5.706
 3724SOL    HW212072   1.645   4.179   5.864
 3725SOL     OW12073   0.618   6.038   6.619
 3725SOL    HW112074   0.537   5.984   6.639
 3725SOL    HW212075   0.604   6.091   6.535
 3726SOL     OW12076   5.664   3.349   5.542
 3726SOL    HW112077   5.743   3.334   5.602
 3726SOL    HW212078   5.657   3.446   5.520
 3727SOL     OW12079   6.872   2.744   5.441
 3727SOL    HW112080   6.920   2.658   5.422
 3727SOL    HW212081   6.815   2.768   5.363
 3728SOL     OW12082   1.482   3.559   6.762
 3728SOL    HW112083   1.480   3.630   6.691
 3728SOL    HW212084   1.461   3.470   6.721
 3729SOL     OW12085   1.314   1.919   4.319
 3729SOL    HW112086   1.332   1.994   4.256
 3729SOL    HW212087   1.216   1.899   4.321
 3730SOL     OW12088   3.923   5.958   5.561
 3730SOL    HW112089   3.944   6.005   5.647
 3730SOL    HW212090   3.843   5.900   5.573
 3731SOL     OW12091   0.480   1.568   0.582
 3731SOL    HW112092   0.563   1.612   0.616
 3731SOL    HW212093   0.412   1.638   0.561
 3732SOL     OW12094   2.492   1.872   0.510
 3732SOL    HW112095   2.528   1.918   0.430
 3732SOL    HW212096   2.405   1.827   0.487
 3733SOL     OW12097   2.309   2.447   3.254
 3733SOL    HW112098   2.247   2.430   3.331
 3733SOL    HW212099   2.265   2.419   3.169
 3734SOL     OW12100   4.501   0.266   1.041
 3734SOL    HW112101   4.465   0.332   0.975
 3734SOL    HW212102   4.584   0.303   1.083
 3735SOL     OW12103   2.872   0.763   2.611
 3735SOL    HW112104   2.899   0.716   2.527
 3735SOL    HW212105   2.782   0.730   2.640
 3736SOL     OW12106   0.142   1.352   1.141
 3736SOL    HW112107   0.134   1.263   1.096
 3736SOL    HW212108   0.133   1.425   1.074
 3737SOL     OW12109   5.929   1.193   3.786
 3737SOL    HW112110   5.995   1.194   3.711
 3737SOL    HW212111   5.952   1.265   3.851
 3738SOL     OW12112   6.227   0.603   1.189
 3738SOL    HW112113   6.252   0.700   1.193
 3738SOL    HW212114   6.303   0.548   1.224
 3739SOL     OW12115   2.198   4.433   1.352
 3739SOL    HW112116   2.274   4.368   1.348
 3739SOL    HW212117   2.149   4.422   1.438
 3740SOL     OW12118   6.552   6.170   0.351
 3740SOL    HW112119   6.475   6.233   0.360
 3740SOL    HW212120   6.559   6.113   0.433
 3741SOL     OW12121   5.098   2.599   6.417
 3741SOL    HW112122   5.010   2.638   6.389
 3741SOL    HW212123   5.111   2.614   6.515
 3742SOL     OW12124   4.020   0.493   0.477
 3742SOL    HW112125   3.951   0.474   0.408
 3742SOL    HW212126   4.045   0.408   0.524
 3743SOL     OW12127   5.230   2.925   1.249
 3743SOL    HW112128   5.308   2.987   1.251
 3743SOL    HW212129   5.145   2.978   1.241
 3744SOL     OW12130   1.179   6.071   1.734
 3744SOL    HW112131   1.278   6.061   1.732
 3744SOL    HW212132   1.148   6.079   1.828
 3745SOL     OW12133   5.266   4.036   3.258
 3745SOL    HW112134   5.194   4.014   3.323
 3745SOL    HW212135   5.354   4.005   3.294
 3746SOL     OW12136   6.657   0.341   3.985
 3746SOL    HW112137   6.610   0.266   3.939
 3746SOL    HW212138   6.618   0.354   4.076
 3747SOL     OW12139   4.537   5.812   5.380
 3747SOL    HW112140   4.539   5.830   5.479
 3747SOL    HW212141   4.527   5.714   5.365
 3748SOL     OW12142   5.373   1.438   1.687
 3748SOL    HW112143   5.341   1.525   1.724
 3748SOL    HW212144   5.338   1.426   1.594
 3749SOL     OW12145   2.289   4.878   2.857
 3749SOL    HW112146   2.257   4.935   2.933
 3749SOL    HW212147   2.307   4.937   2.778
 3750SOL     OW12148   6.270   4.512   0.759
 3750SOL    HW112149   6.369   4.512   0.773
 3750SOL    HW212150   6.231   4.428   0.797
 3751SOL     OW12151   6.479   3.401   1.023
 3751SOL    HW112152   6.518   3.409   0.932
 3751SOL    HW212153   6.531   3.457   1.088
 3752SOL     OW12154   0.410   6.847   0.335
 3752SOL    HW112155   0.445   6.919   0.395
 3752SOL    HW212156   0.359   6.888   0.259
 3753SOL     OW12157   6.844   1.108   4.248
 3753SOL    HW112158   6.908   1.038   4.219
 3753SOL    HW212159   6.889   1.197   4.249
 3754SOL     OW12160   4.030   6.452   1.324
 3754SOL    HW112161   3.941   6.490   1.299
 3754SOL    HW212162   4.036   6.443   1.423
 3755SOL     OW12163   6.017   5.757   4.262
 3755SOL    HW112164   5.968   5.673   4.238
 3755SOL    HW212165   5.951   5.827   4.290
 3756SOL     OW12166   2.190   6.457   5.500
 3756SOL    HW112167   2.225   6.366   5.476
 3756SOL    HW212168   2.090   6.458   5.490
 3757SOL     OW12169   3.659   6.807   6.477
 3757SOL    HW112170   3.637   6.717   6.513
 3757SOL    HW212171   3.696   6.798   6.384
 3758SOL     OW12172   1.864   1.344   4.778
 3758SOL    HW112173   1.796   1.311   4.713
 3758SOL    HW212174   1.886   1.270   4.842
 3759SOL     OW12175   4.681   5.578   6.353
 3759SOL    HW112176   4.755   5.628   6.307
 3759SOL    HW212177   4.606   5.641   6.373
 3760SOL     OW12178   1.827   2.560   4.447
 3760SOL    HW112179   1.881   2.483   4.482
 3760SOL    HW212180   1.869   2.646   4.476
 3761SOL     OW12181   0.731   0.530   5.506
 3761SOL    HW112182   0.825   0.556   5.527
 3761SOL    HW212183   0.715   0.436   5.536
 3762SOL     OW12184   0.735   5.233   6.978
 3762SOL    HW112185   0.646   5.273   6.960
 3762SOL    HW212186   0.723   5.140   7.015
 3763SOL     OW12187   6.815   4.550   6.783
 3763SOL    HW112188   6.817   4.467   6.726
 3763SOL    HW212189   6.817   4.524   6.879
 3764SOL     OW12190   1.928   0.108   3.470
 3764SOL    HW112191   1.850   0.111   3.533
 3764SOL    HW212192   1.993   0.038   3.501
 3765SOL     OW12193   4.998   1.506   0.972
 3765SOL    HW112194   5.035   1.591   1.009
 3765SOL    HW212195   4.934   1.466   1.038
 3766SOL     OW12196   0.818   1.204   3.495
 3766SOL    HW112197   0.775   1.282   3.539
 3766SOL    HW212198   0.878   1.237   3.422
 3767SOL     OW12199   2.264   5.233   0.192
 3767SOL    HW112200   2.312   5.305   0.142
 3767SOL    HW212201   2.304   5.223   0.283
 3768SOL     OW12202   1.996   5.937   4.835
 3768SOL    HW112203   1.913   5.986   4.861
 3768SOL    HW212204   1.978   5.882   4.753
 3769SOL     OW12205   5.528   5.694   5.544
 3769SOL    HW112206   5.549   5.758   5.617
 3769SOL    HW212207   5.467   5.623   5.578
 3770SOL     OW12208   1.900   6.816   6.827
 3770SOL    HW112209   1.953   6.847   6.906
 3770SOL    HW212210   1.825   6.880   6.810
 3771SOL     OW12211   6.233   3.221   6.722
 3771SOL    HW112212   6.250   3.188   6.815
 3771SOL    HW212213   6.233   3.143   6.659
 3772SOL     OW12214   0.270   0.751   0.465
 3772SOL    HW112215   0.236   0.840   0.497
 3772SOL    HW212216   0.192   0.692   0.444
 3773SOL     OW12217   6.536   2.743   6.564
 3773SOL    HW112218   6.528   2.735   6.663
 3773SOL    HW212219   6.533   2.839   6.537
 3774SOL     OW12220   0.707   5.946   0.279
 3774SOL    HW112221   0.736   5.879   0.211
 3774SOL    HW212222   0.657   6.020   0.234
 3775SOL     OW12223   4.993   4.891   2.143
 3775SOL    HW112224   5.071   4.934   2.189
 3775SOL    HW212225   4.920   4.958   2.131
 3776SOL     OW12226   4.203   1.444   1.278
 3776SOL    HW112227   4.125   1.505   1.262
 3776SOL    HW212228   4.191   1.398   1.366
 3777SOL     OW12229   3.439   4.957   4.886
 3777SOL    HW112230   3.356   4.930   4.838
 3777SOL    HW212231   3.420   4.966   4.983
 3778SOL     OW12232   3.246   4.974   2.865
 3778SOL    HW112233   3.306   4.989   2.787
 3778SOL    HW212234   3.160   4.934   2.834
 3779SOL     OW12235   2.203   5.076   0.979
 3779SOL    HW112236   2.237   5.127   1.058
 3779SOL    HW212237   2.246   4.985   0.977
 3780SOL     OW12238   4.912   5.984   6.077
 3780SOL    HW112239   4.884   6.075   6.046
 3780SOL    HW212240   4.864   5.914   6.023
 3781SOL     OW12241   1.670   7.015   4.138
 3781SOL    HW112242   1.723   0.061   4.190
 3781SOL    HW212243   1.715   6.926   4.142
 3782SOL     OW12244   2.647   0.961   4.422
 3782SOL    HW112245   2.625   1.040   4.479
 3782SOL    HW212246   2.746   0.955   4.409
 3783SOL     OW12247   5.459   5.863   4.343
 3783SOL    HW112248   5.515   5.934   4.387
 3783SOL    HW212249   5.509   5.776   4.345
 3784SOL     OW12250   4.955   2.633   2.734
 3784SOL    HW112251   4.910   2.627   2.823
 3784SOL    HW212252   4.940   2.724   2.695
 3785SOL     OW12253   1.200   1.539   6.751
 3785SOL    HW112254   1.224   1.632   6.778
 3785SOL    HW212255   1.124   1.507   6.808
 3786SOL     OW12256   2.357   6.579   2.796
 3786SOL    HW112257   2.446   6.555   2.759
 3786SOL    HW212258   2.356   6.563   2.894
 3787SOL     OW12259   5.829   0.158   2.371
 3787SOL    HW112260   5.755   0.188   2.432
 3787SOL    HW212261   5.881   0.086   2.415
 3788SOL     OW12262   1.120   3.827   4.163
 3788SOL    HW112263   1.186   3.760   4.129
 3788SOL    HW212264   1.155   3.870   4.246
 3789SOL     OW12265   0.388   3.642   4.910
 3789SOL    HW112266   0.354   3.676   4.822
 3789SOL    HW212267   0.452   3.708   4.949
 3790SOL     OW12268   1.823   4.623   5.648
 3790SOL    HW112269   1.867   4.538   5.676
 3790SOL    HW212270   1.724   4.609   5.642
 3791SOL     OW12271   6.530   6.900   0.404
 3791SOL    HW112272   6.540   6.995   0.376
 3791SOL    HW212273   6.446   6.890   0.458
 3792SOL     OW12274   0.727   0.848   4.437
 3792SOL    HW112275   0.688   0.910   4.505
 3792SOL    HW212276   0.765   0.768   4.482
 3793SOL     OW12277   4.246   0.197   2.561
 3793SOL    HW112278   4.166   0.176   2.504
 3793SOL    HW212279   4.216   0.217   2.654
 3794SOL     OW12280   2.317   4.232   0.685
 3794SOL    HW112281   2.260   4.295   0.631
 3794SOL    HW212282   2.272   4.142   0.689
 3795SOL     OW12283   3.681   6.104   6.067
 3795SOL    HW112284   3.595   6.112   6.017
 3795SOL    HW212285   3.661   6.084   6.163
 3796SOL     OW12286   2.967   1.825   0.767
 3796SOL    HW112287   3.008   1.911   0.796
 3796SOL    HW212288   3.000   1.801   0.676
 3797SOL     OW12289   6.534   4.251   2.684
 3797SOL    HW112290   6.457   4.189   2.701
 3797SOL    HW212291   6.504   4.326   2.626
 3798SOL     OW12292   3.610   6.243   2.729
 3798SOL    HW112293   3.622   6.342   2.722
 3798SOL    HW212294   3.544   6.223   2.800
 3799SOL     OW12295   0.569   2.333   4.092
 3799SOL    HW112296   0.638   2.316   4.022
 3799SOL    HW212297   0.578   2.264   4.164
 3800SOL     OW12298   5.828   3.136   4.466
 3800SOL    HW112299   5.838   3.143   4.566
 3800SOL    HW212300   5.821   3.228   4.427
 3801SOL     OW12301   6.106   6.315   3.115
 3801SOL    HW112302   6.111   6.287   3.019
 3801SOL    HW212303   6.100   6.233   3.173
 3802SOL     OW12304   1.294   2.697   3.085
 3802SOL    HW112305   1.286   2.733   3.178
 3802SOL    HW212306   1.223   2.629   3.069
 3803SOL     OW12307   3.905   2.142   1.493
 3803SOL    HW112308   3.895   2.157   1.591
 3803SOL    HW212309   3.959   2.059   1.477
 3804SOL     OW12310   5.173   1.872   3.574
 3804SOL    HW112311   5.178   1.772   3.577
 3804SOL    HW212312   5.079   1.901   3.558
 3805SOL     OW12313   2.756   3.408   1.889
 3805SOL    HW112314   2.665   3.410   1.929
 3805SOL    HW212315   2.779   3.315   1.861
 3806SOL     OW12316   3.256   3.897   0.164
 3806SOL    HW112317   3.195   3.963   0.119
 3806SOL    HW212318   3.348   3.935   0.169
 3807SOL     OW12319   2.481   6.704   3.581
 3807SOL    HW112320   2.408   6.689   3.648
 3807SOL    HW212321   2.565   6.729   3.629
 3808SOL     OW12322   4.375   0.440   0.880
 3808SOL    HW112323   4.316   0.438   0.961
 3808SOL    HW212324   4.341   0.509   0.816
 3809SOL     OW12325   5.854   2.815   0.596
 3809SOL    HW112326   5.918   2.888   0.570
 3809SOL    HW212327   5.855   2.743   0.526
 3810SOL     OW12328   4.600   2.320   5.114
 3810SOL    HW112329   4.671   2.384   5.146
 3810SOL    HW212330   4.607   2.235   5.165
 3811SOL     OW12331   1.407   4.208   3.951
 3811SOL    HW112332   1.487   4.149   3.957
 3811SOL    HW212333   1.372   4.209   3.857
 3812SOL     OW12334   4.799   0.269   5.038
 3812SOL    HW112335   4.761   0.307   5.122
 3812SOL    HW212336   4.844   0.341   4.985
 3813SOL     OW12337   4.615   3.881   0.113
 3813SOL    HW112338   4.693   3.916   0.060
 3813SOL    HW212339   4.531   3.927   0.084
 3814SOL     OW12340   0.404   0.003   0.968
 3814SOL    HW112341   0.442   0.087   1.005
 3814SOL    HW212342   0.479   6.966   0.936
 3815SOL     OW12343   4.469   2.974   0.276
 3815SOL    HW112344   4.475   3.069   0.243
 3815SOL    HW212345   4.498   2.970   0.371
 3816SOL     OW12346   0.618   6.258   0.354
 3816SOL    HW112347   0.558   6.319   0.407
 3816SOL    HW212348   0.695   6.311   0.318
 3817SOL     OW12349   5.128   3.596   3.253
 3817SOL    HW112350   5.162   3.652   3.177
 3817SOL    HW212351   5.198   3.532   3.281
 3818SOL     OW12352   5.380   0.181   0.266
 3818SOL    HW112353   5.283   0.165   0.285
 3818SOL    HW212354   5.435   0.108   0.306
 3819SOL     OW12355   5.268   5.335   1.327
 3819SOL    HW112356   5.249   5.362   1.232
 3819SOL    HW212357   5.308   5.413   1.376
 3820SOL     OW12358   6.394   6.763   3.365
 3820SOL    HW112359   6.492   6.744   3.357
 3820SOL    HW212360   6.356   6.781   3.274
 3821SOL     OW12361   2.624   2.336   0.588
 3821SOL    HW112362   2.693   2.392   0.542
 3821SOL    HW212363   2.670   2.271   0.649
 3822SOL     OW12364   1.684   6.119   3.264
 3822SOL    HW112365   1.679   6.212   3.229
 3822SOL    HW212366   1.736   6.061   3.202
 3823SOL     OW12367   3.416   2.519   5.906
 3823SOL    HW112368   3.436   2.447   5.839
 3823SOL    HW212369   3.468   2.601   5.883
 3824SOL     OW12370   5.682   1.745   6.951
 3824SOL    HW112371   5.771   1.755   6.905
 3824SOL    HW212372   5.632   1.670   6.908
 3825SOL     OW12373   0.446   6.880   0.664
 3825SOL    HW112374   0.429   6.798   0.608
 3825SOL    HW212375   0.511   6.858   0.736
 3826SOL     OW12376   0.164   3.098   0.302
 3826SOL    HW112377   0.194   3.193   0.292
 3826SOL    HW212378   0.169   3.072   0.399
 3827SOL     OW12379   3.155   2.724   1.047
 3827SOL    HW112380   3.079   2.694   1.105
 3827SOL    HW212381   3.239   2.679   1.077
 3828SOL     OW12382   3.968   2.431   1.610
 3828SOL    HW112383   3.966   2.331   1.611
 3828SOL    HW212384   3.875   2.466   1.612
 3829SOL     OW12385   2.275   4.208   4.416
 3829SOL    HW112386   2.255   4.176   4.509
 3829SOL    HW212387   2.189   4.221   4.367
 3830SOL     OW12388   0.863   0.002   4.769
 3830SOL    HW112389   0.939   0.040   4.716
 3830SOL    HW212390   0.897   6.990   4.857
 3831SOL     OW12391   4.779   1.671   2.545
 3831SOL    HW112392   4.680   1.685   2.534
 3831SOL    HW212393   4.807   1.701   2.636
 3832SOL     OW12394   5.818   0.723   2.216
 3832SOL    HW112395   5.766   0.680   2.290
 3832SOL    HW212396   5.902   0.763   2.253
 3833SOL     OW12397   0.862   5.781   6.010
 3833SOL    HW112398   0.873   5.856   6.075
 3833SOL    HW212399   0.937   5.716   6.021
 3834SOL     OW12400   3.558   2.893   0.936
 3834SOL    HW112401   3.575   2.989   0.957
 3834SOL    HW212402   3.517   2.848   1.015
 3835SOL     OW12403   2.983   5.073   5.120
 3835SOL    HW112404   3.050   5.145   5.136
 3835SOL    HW212405   2.911   5.107   5.059
 3836SOL     OW12406   1.728   3.833   5.672
 3836SOL    HW112407   1.776   3.813   5.587
 3836SOL    HW212408   1.694   3.747   5.712
 3837SOL     OW12409   4.988   3.647   0.044
 3837SOL    HW112410   4.960   3.567   0.097
 3837SOL    HW212411   4.939   3.649   6.978
 3838SOL     OW12412   6.918   3.801   4.141
 3838SOL    HW112413   6.942   3.882   4.195
 3838SOL    HW212414   6.868   3.830   4.059
 3839SOL     OW12415   4.042   0.693   4.395
 3839SOL    HW112416   4.138   0.666   4.387
 3839SOL    HW212417   4.036   0.792   4.410
 3840SOL     OW12418   1.814   0.840   5.304
 3840SOL    HW112419   1.802   0.939   5.300
 3840SOL    HW212420   1.873   0.816   5.381
 3841SOL     OW12421   0.273   3.422   5.056
 3841SOL    HW112422   0.330   3.394   5.134
 3841SOL    HW212423   0.319   3.495   5.005
 3842SOL     OW12424   0.837   4.459   6.782
 3842SOL    HW112425   0.827   4.407   6.697
 3842SOL    HW212426   0.747   4.483   6.818
 3843SOL     OW12427   0.135   4.867   1.850
 3843SOL    HW112428   0.056   4.832   1.798
 3843SOL    HW212429   0.142   4.966   1.837
 3844SOL     OW12430   6.879   3.741   6.101
 3844SOL    HW112431   6.975   3.770   6.108
 3844SOL    HW212432   6.828   3.779   6.178
 3845SOL     OW12433   3.880   2.996   2.931
 3845SOL    HW112434   3.827   2.928   2.982
 3845SOL    HW212435   3.916   3.064   2.995
 3846SOL     OW12436   0.586   4.231   3.988
 3846SOL    HW112437   0.566   4.147   3.937
 3846SOL    HW212438   0.522   4.302   3.959
 3847SOL     OW12439   6.005   1.164   5.160
 3847SOL    HW112440   6.065   1.120   5.094
 3847SOL    HW212441   5.915   1.178   5.120
 3848SOL     OW12442   3.165   5.555   2.785
 3848SOL    HW112443   3.092   5.619   2.809
 3848SOL    HW212444   3.218   5.533   2.867
 3849SOL     OW12445   0.806   1.738   4.986
 3849SOL    HW112446   0.750   1.720   5.067
 3849SOL    HW212447   0.799   1.661   4.923
 3850SOL     OW12448   2.583   3.206   1.480
 3850SOL    HW112449   2.577   3.187   1.578
 3850SOL    HW212450   2.546   3.296   1.461
 3851SOL     OW12451   1.095   4.302   3.222
 3851SOL    HW112452   1.143   4.220   3.255
 3851SOL    HW212453   1.145   4.384   3.252
 3852SOL     OW12454   4.699   6.819   4.273
 3852SOL    HW112455   4.768   6.839   4.342
 3852SOL    HW212456   4.673   6.722   4.277
 3853SOL     OW12457   1.626   2.925   2.600
 3853SOL    HW112458   1.577   2.986   2.661
 3853SOL    HW212459   1.718   2.908   2.635
 3854SOL     OW12460   1.227   3.818   2.629
 3854SOL    HW112461   1.309   3.764   2.646
 3854SOL    HW212462   1.152   3.784   2.687
 3855SOL     OW12463   4.681   5.778   6.792
 3855SOL    HW112464   4.654   5.865   6.751
 3855SOL    HW212465   4.604   5.742   6.845
 3856SOL     OW12466   0.024   6.392   5.360
 3856SOL    HW112467   6.970   6.346   5.409
 3856SOL    HW212468   7.008   6.444   5.284
 3857SOL     OW12469   1.054   6.013   5.749
 3857SOL    HW112470   1.107   5.934   5.716
 3857SOL    HW212471   0.968   5.981   5.788
 3858SOL     OW12472   1.438   6.320   5.602
 3858SOL    HW112473   1.441   6.406   5.551
 3858SOL    HW212474   1.529   6.280   5.606
 3859SOL     OW12475   6.748   2.540   2.593
 3859SOL    HW112476   6.673   2.518   2.656
 3859SOL    HW212477   6.823   2.476   2.608
 3860SOL     OW12478   1.508   0.281   5.376
 3860SOL    HW112479   1.453   0.259   5.296
 3860SOL    HW212480   1.578   0.210   5.389
 3861SOL     OW12481   5.062   4.237   1.850
 3861SOL    HW112482   5.041   4.312   1.913
 3861SOL    HW212483   5.096   4.158   1.901
 3862SOL     OW12484   0.286   6.631   5.134
 3862SOL    HW112485   0.329   6.638   5.225
 3862SOL    HW212486   0.273   6.723   5.097
 3863SOL     OW12487   3.647   4.135   6.475
 3863SOL    HW112488   3.601   4.121   6.387
 3863SOL    HW212489   3.656   4.233   6.493
 3864SOL     OW12490   4.196   1.744   5.843
 3864SOL    HW112491   4.140   1.660   5.848
 3864SOL    HW212492   4.137   1.821   5.822
 3865SOL     OW12493   3.736   0.573   1.527
 3865SOL    HW112494   3.711   0.478   1.511
 3865SOL    HW212495   3.760   0.586   1.623
 3866SOL     OW12496   3.995   0.679   0.975
 3866SOL    HW112497   3.970   0.672   0.879
 3866SOL    HW212498   4.086   0.721   0.984
 3867SOL     OW12499   1.427   3.312   4.377
 3867SOL    HW112500   1.352   3.364   4.417
 3867SOL    HW212501   1.391   3.240   4.317
 3868SOL     OW12502   2.084   6.510   1.954
 3868SOL    HW112503   2.110   6.606   1.959
 3868SOL    HW212504   2.143   6.463   1.889
 3869SOL     OW12505   6.651   3.182   4.498
 3869SOL    HW112506   6.648   3.119   4.420
 3869SOL    HW212507   6.663   3.130   4.582
 3870SOL     OW12508   4.436   4.537   0.735
 3870SOL    HW112509   4.419   4.440   0.752
 3870SOL    HW212510   4.502   4.547   0.660
 3871SOL     OW12511   3.270   0.894   2.274
 3871SOL    HW112512   3.216   0.960   2.327
 3871SOL    HW212513   3.291   0.933   2.184
 3872SOL     OW12514   3.007   3.068   1.993
 3872SOL    HW112515   3.013   3.055   2.092
 3872SOL    HW212516   3.041   2.986   1.947
 3873SOL     OW12517   5.797   5.656   1.369
 3873SOL    HW112518   5.702   5.643   1.396
 3873SOL    HW212519   5.848   5.696   1.446
 3874SOL     OW12520   4.023   6.229   0.104
 3874SOL    HW112521   3.953   6.159   0.120
 3874SOL    HW212522   4.058   6.261   0.192
 3875SOL     OW12523   1.333   2.970   2.558
 3875SOL    HW112524   1.320   2.981   2.459
 3875SOL    HW212525   1.400   3.037   2.590
 3876SOL     OW12526   5.546   5.321   6.226
 3876SOL    HW112527   5.631   5.280   6.192
 3876SOL    HW212528   5.541   5.416   6.194
 3877SOL     OW12529   0.044   1.356   0.517
 3877SOL    HW112530   0.009   1.305   0.438
 3877SOL    HW212531   6.994   1.365   0.586
 3878SOL     OW12532   2.404   6.311   5.734
 3878SOL    HW112533   2.445   6.229   5.774
 3878SOL    HW212534   2.328   6.341   5.791
 3879SOL     OW12535   4.104   6.164   1.334
 3879SOL    HW112536   4.076   6.109   1.255
 3879SOL    HW212537   4.082   6.260   1.317
 3880SOL     OW12538   5.851   4.113   3.092
 3880SOL    HW112539   5.869   4.050   3.168
 3880SOL    HW212540   5.888   4.074   3.007
 3881SOL     OW12541   1.546   5.453   0.676
 3881SOL    HW112542   1.612   5.481   0.746
 3881SOL    HW212543   1.586   5.381   0.619
 3882SOL     OW12544   6.419   1.151   4.926
 3882SOL    HW112545   6.453   1.093   5.000
 3882SOL    HW212546   6.477   1.140   4.845
 3883SOL     OW12547   4.472   1.403   4.171
 3883SOL    HW112548   4.510   1.310   4.170
 3883SOL    HW212549   4.442   1.428   4.080
 3884SOL     OW12550   1.136   6.423   4.669
 3884SOL    HW112551   1.129   6.335   4.622
 3884SOL    HW212552   1.225   6.463   4.650
 3885SOL     OW12553   6.558   1.189   4.677
 3885SOL    HW112554   6.548   1.288   4.691
 3885SOL    HW212555   6.650   1.169   4.645
 3886SOL     OW12556   5.992   0.219   5.469
 3886SOL    HW112557   5.936   0.213   5.386
 3886SOL    HW212558   6.077   0.267   5.448
 3887SOL     OW12559   5.800   2.233   5.583
 3887SOL    HW112560   5.760   2.308   5.530
 3887SOL    HW212561   5.729   2.167   5.606
 3888SOL     OW12562   6.958   0.588   6.365
 3888SOL    HW112563   6.942   0.571   6.462
 3888SOL    HW212564   6.911   0.518   6.310
 3889SOL     OW12565   0.175   4.672   6.325
 3889SOL    HW112566   0.222   4.593   6.365
 3889SOL    HW212567   0.084   4.682   6.367
 3890SOL     OW12568   6.605   6.577   3.023
 3890SOL    HW112569   6.620   6.483   3.054
 3890SOL    HW212570   6.623   6.582   2.924
 3891SOL     OW12571   5.051   4.413   5.037
 3891SOL    HW112572   5.005   4.490   4.994
 3891SOL    HW212573   5.103   4.444   5.116
 3892SOL     OW12574   1.183   0.533   2.193
 3892SOL    HW112575   1.156   0.579   2.277
 3892SOL    HW212576   1.209   0.438   2.214
 3893SOL     OW12577   3.472   5.941   2.863
 3893SOL    HW112578   3.382   5.930   2.906
 3893SOL    HW212579   3.483   5.873   2.791
 3894SOL     OW12580   3.728   2.496   0.473
 3894SOL    HW112581   3.786   2.546   0.538
 3894SOL    HW212582   3.681   2.422   0.521
 3895SOL     OW12583   1.070   0.929   5.620
 3895SOL    HW112584   0.975   0.958   5.615
 3895SOL    HW212585   1.100   0.895   5.531
 3896SOL     OW12586   0.797   2.371   6.316
 3896SOL    HW112587   0.856   2.412   6.247
 3896SOL    HW212588   0.733   2.440   6.350
 3897SOL     OW12589   2.986   6.474   2.403
 3897SOL    HW112590   3.027   6.505   2.489
 3897SOL    HW212591   3.015   6.380   2.384
 3898SOL     OW12592   3.152   3.052   3.443
 3898SOL    HW112593   3.081   2.995   3.484
 3898SOL    HW212594   3.130   3.148   3.459
 3899SOL     OW12595   5.124   1.047   4.653
 3899SOL    HW112596   5.113   1.123   4.716
 3899SOL    HW212597   5.104   1.078   4.560
 3900SOL     OW12598   5.636   2.694   3.140
 3900SOL    HW112599   5.677   2.655   3.223
 3900SOL    HW212600   5.709   2.721   3.077
 3901SOL     OW12601   1.702   6.217   5.567
 3901SOL    HW112602   1.720   6.122   5.591
 3901SOL    HW212603   1.778   6.274   5.597
 3902SOL     OW12604   4.821   4.352   3.030
 3902SOL    HW112605   4.822   4.307   2.941
 3902SOL    HW212606   4.884   4.305   3.092
 3903SOL     OW12607   4.321   3.917   6.927
 3903SOL    HW112608   4.248   3.878   6.984
 3903SOL    HW212609   4.294   4.009   6.898
 3904SOL     OW12610   1.026   0.034   0.105
 3904SOL    HW112611   1.096   0.029   0.176
 3904SOL    HW212612   1.066   0.011   0.017
 3905SOL     OW12613   6.290   6.458   6.562
 3905SOL    HW112614   6.300   6.540   6.504
 3905SOL    HW212615   6.199   6.457   6.602
 3906SOL     OW12616   1.718   4.600   4.494
 3906SOL    HW112617   1.758   4.563   4.578
 3906SOL    HW212618   1.663   4.680   4.515
 3907SOL     OW12619   0.425   1.125   4.999
 3907SOL    HW112620   0.445   1.081   4.912
 3907SOL    HW212621   0.506   1.121   5.058
 3908SOL     OW12622   0.888   0.425   5.866
 3908SOL    HW112623   0.953   0.424   5.790
 3908SOL    HW212624   0.849   0.333   5.878
 3909SOL     OW12625   5.270   3.602   6.275
 3909SOL    HW112626   5.363   3.607   6.312
 3909SOL    HW212627   5.225   3.691   6.284
 3910SOL     OW12628   3.598   3.862   2.049
 3910SOL    HW112629   3.555   3.888   2.135
 3910SOL    HW212630   3.698   3.865   2.059
 3911SOL     OW12631   5.531   0.240   0.619
 3911SOL    HW112632   5.614   0.249   0.675
 3911SOL    HW212633   5.459   0.195   0.673
 3912SOL     OW12634   2.914   0.995   5.939
 3912SOL    HW112635   2.938   1.058   5.865
 3912SOL    HW212636   2.865   0.916   5.900
 3913SOL     OW12637   3.830   6.037   0.161
 3913SOL    HW112638   3.749   5.987   0.129
 3913SOL    HW212639   3.807   6.086   0.246
 3914SOL     OW12640   5.317   1.737   1.549
 3914SOL    HW112641   5.305   1.832   1.523
 3914SOL    HW212642   5.253   1.680   1.498
 3915SOL     OW12643   3.162   6.592   0.498
 3915SOL    HW112644   3.183   6.564   0.404
 3915SOL    HW212645   3.188   6.688   0.510
 3916SOL     OW12646   3.369   0.151   3.058
 3916SOL    HW112647   3.334   0.242   3.080
 3916SOL    HW212648   3.335   0.085   3.125
 3917SOL     OW12649   2.364   5.204   0.456
 3917SOL    HW112650   2.323   5.149   0.529
 3917SOL    HW212651   2.356   5.301   0.478
 3918SOL     OW12652   4.838   1.510   0.490
 3918SOL    HW112653   4.911   1.491   0.424
 3918SOL    HW212654   4.821   1.608   0.495
 3919SOL     OW12655   4.327   1.066   1.228
 3919SOL    HW112656   4.243   1.105   1.191
 3919SOL    HW212657   4.325   1.073   1.328
 3920SOL     OW12658   2.752   1.393   0.021
 3920SOL    HW112659   2.680   1.408   0.088
 3920SOL    HW212660   2.841   1.412   0.062
 3921SOL     OW12661   6.779   2.979   6.803
 3921SOL    HW112662   6.848   2.961   6.733
 3921SOL    HW212663   6.818   2.961   6.893
 3922SOL     OW12664   4.723   4.701   2.089
 3922SOL    HW112665   4.801   4.682   2.029
 3922SOL    HW212666   4.646   4.736   2.034
 3923SOL     OW12667   6.023   0.925   1.366
 3923SOL    HW112668   5.972   0.843   1.392
 3923SOL    HW212669   6.015   0.993   1.439
 3924SOL     OW12670   6.948   4.560   3.657
 3924SOL    HW112671   6.973   4.498   3.583
 3924SOL    HW212672   6.989   4.528   3.743
 3925SOL     OW12673   4.191   4.178   0.841
 3925SOL    HW112674   4.112   4.177   0.902
 3925SOL    HW212675   4.163   4.210   0.750
 3926SOL     OW12676   1.075   0.335   5.691
 3926SOL    HW112677   1.151   0.319   5.754
 3926SOL    HW212678   1.108   0.328   5.596
 3927SOL     OW12679   0.518   3.196   4.420
 3927SOL    HW112680   0.441   3.169   4.477
 3927SOL    HW212681   0.486   3.210   4.326
 3928SOL     OW12682   2.810   6.581   2.934
 3928SOL    HW112683   2.776   6.519   2.863
 3928SOL    HW212684   2.755   6.665   2.933
 3929SOL     OW12685   6.818   1.801   6.710
 3929SOL    HW112686   6.910   1.792   6.670
 3929SOL    HW212687   6.764   1.866   6.656
 3930SOL     OW12688   1.387   2.364   3.984
 3930SOL    HW112689   1.419   2.445   4.032
 3930SOL    HW212690   1.302   2.384   3.936
 3931SOL     OW12691   1.744   1.883   1.868
 3931SOL    HW112692   1.808   1.923   1.934
 3931SOL    HW212693   1.666   1.945   1.856
 3932SOL     OW12694   1.953   5.625   3.292
 3932SOL    HW112695   2.003   5.558   3.346
 3932SOL    HW212696   2.002   5.712   3.293
 3933SOL     OW12697   1.018   5.273   0.628
 3933SOL    HW112698   1.111   5.299   0.653
 3933SOL    HW212699   0.971   5.238   0.709
 3934SOL     OW12700   0.365   2.073   2.747
 3934SOL    HW112701   0.450   2.070   2.799
 3934SOL    HW212702   0.384   2.106   2.654
 3935SOL     OW12703   6.153   3.020   6.561
 3935SOL    HW112704   6.173   2.922   6.572
 3935SOL    HW212705   6.109   3.035   6.473
 3936SOL     OW12706   6.847   5.934   4.978
 3936SOL    HW112707   6.791   5.921   5.060
 3936SOL    HW212708   6.801   5.893   4.900
 3937SOL     OW12709   0.605   5.292   2.887
 3937SOL    HW112710   0.541   5.223   2.922
 3937SOL    HW212711   0.696   5.275   2.925
 3938SOL     OW12712   0.036   3.497   4.736
 3938SOL    HW112713   6.964   3.472   4.764
 3938SOL    HW212714   0.081   3.546   4.810
 3939SOL     OW12715   0.902   1.372   2.593
 3939SOL    HW112716   0.834   1.304   2.563
 3939SOL    HW212717   0.926   1.431   2.516
 3940SOL     OW12718   2.840   4.769   1.764
 3940SOL    HW112719   2.822   4.860   1.800
 3940SOL    HW212720   2.815   4.701   1.833
 3941SOL     OW12721   6.086   6.959   4.056
 3941SOL    HW112722   6.139   6.976   3.973
 3941SOL    HW212723   6.136   6.895   4.115
 3942SOL     OW12724   1.341   6.536   6.021
 3942SOL    HW112725   1.305   6.593   6.095
 3942SOL    HW212726   1.406   6.470   6.059
 3943SOL     OW12727   0.882   3.966   1.958
 3943SOL    HW112728   0.905   3.915   2.041
 3943SOL    HW212729   0.796   4.016   1.973
 3944SOL     OW12730   5.525   3.047   6.668
 3944SOL    HW112731   5.594   3.004   6.727
 3944SOL    HW212732   5.446   3.073   6.723
 3945SOL     OW12733   1.018   2.174   3.096
 3945SOL    HW112734   1.116   2.194   3.106
 3945SOL    HW212735   1.000   2.137   3.006
 3946SOL     OW12736   6.598   3.715   0.388
 3946SOL    HW112737   6.578   3.740   0.482
 3946SOL    HW212738   6.523   3.659   0.352
 3947SOL     OW12739   5.823   5.802   0.346
 3947SOL    HW112740   5.835   5.771   0.252
 3947SOL    HW212741   5.912   5.815   0.389
 3948SOL     OW12742   2.011   3.121   6.599
 3948SOL    HW112743   2.078   3.111   6.674
 3948SOL    HW212744   1.998   3.218   6.580
 3949SOL     OW12745   6.364   6.779   2.663
 3949SOL    HW112746   6.301   6.805   2.590
 3949SOL    HW212747   6.457   6.777   2.628
 3950SOL     OW12748   4.180   3.944   1.753
 3950SOL    HW112749   4.132   3.923   1.838
 3950SOL    HW212750   4.252   4.011   1.771
 3951SOL     OW12751   0.267   2.377   5.823
 3951SOL    HW112752   0.206   2.300   5.843
 3951SOL    HW212753   0.247   2.412   5.731
 3952SOL     OW12754   5.711   2.321   4.880
 3952SOL    HW112755   5.781   2.309   4.810
 3952SOL    HW212756   5.743   2.388   4.948
 3953SOL     OW12757   3.348   3.934   6.228
 3953SOL    HW112758   3.323   3.841   6.253
 3953SOL    HW212759   3.265   3.986   6.205
 3954SOL     OW12760   6.572   4.007   5.278
 3954SOL    HW112761   6.650   3.954   5.245
 3954SOL    HW212762   6.545   3.972   5.368
 3955SOL     OW12763   5.242   6.453   0.516
 3955SOL    HW112764   5.182   6.379   0.545
 3955SOL    HW212765   5.187   6.531   0.487
 3956SOL     OW12766   0.705   3.157   5.741
 3956SOL    HW112767   0.739   3.120   5.655
 3956SOL    HW212768   0.688   3.255   5.731
 3957SOL     OW12769   2.911   0.009   3.825
 3957SOL    HW112770   2.812   7.013   3.827
 3957SOL    HW212771   2.956   6.974   3.894
 3958SOL     OW12772   6.442   6.514   0.027
 3958SOL    HW112773   6.531   6.540   7.010
 3958SOL    HW212774   6.432   6.555   0.118
 3959SOL     OW12775   2.464   5.581   1.211
 3959SOL    HW112776   2.426   5.517   1.144
 3959SOL    HW212777   2.416   5.570   1.298
 3960SOL     OW12778   4.644   2.386   6.797
 3960SOL    HW112779   4.693   2.325   6.859
 3960SOL    HW212780   4.575   2.334   6.746
 3961SOL     OW12781   5.093   2.005   2.128
 3961SOL    HW112782   5.146   2.067   2.186
 3961SOL    HW212783   5.100   2.034   2.033
 3962SOL     OW12784   1.029   6.030   0.261
 3962SOL    HW112785   0.956   6.016   0.328
 3962SOL    HW212786   1.082   5.945   0.252
 3963SOL     OW12787   4.932   5.684   3.448
 3963SOL    HW112788   4.956   5.621   3.374
 3963SOL    HW212789   4.835   5.710   3.440
 3964SOL     OW12790   5.362   6.058   5.471
 3964SOL    HW112791   5.385   5.978   5.415
 3964SOL    HW212792   5.275   6.096   5.440
 3965SOL     OW12793   3.431   4.899   0.233
 3965SOL    HW112794   3.436   4.814   0.286
 3965SOL    HW212795   3.342   4.905   0.188
 3966SOL     OW12796   6.565   4.489   6.178
 3966SOL    HW112797   6.562   4.581   6.140
 3966SOL    HW212798   6.505   4.484   6.258
 3967SOL     OW12799   0.646   5.341   4.130
 3967SOL    HW112800   0.551   5.362   4.155
 3967SOL    HW212801   0.648   5.277   4.054
 3968SOL     OW12802   5.543   0.303   3.376
 3968SOL    HW112803   5.522   0.216   3.421
 3968SOL    HW212804   5.535   0.378   3.441
 3969SOL     OW12805   1.623   4.998   3.115
 3969SOL    HW112806   1.620   4.911   3.164
 3969SOL    HW212807   1.594   4.984   3.021
 3970SOL     OW12808   4.910   4.736   4.232
 3970SOL    HW112809   4.907   4.654   4.289
 3970SOL    HW212810   4.844   4.726   4.157
 3971SOL     OW12811   3.061   5.287   3.027
 3971SOL    HW112812   3.047   5.211   3.092
 3971SOL    HW212813   2.973   5.323   2.999
 3972SOL     OW12814   0.330   6.141   0.761
 3972SOL    HW112815   0.312   6.141   0.662
 3972SOL    HW212816   0.428   6.134   0.777
 3973SOL     OW12817   3.100   3.112   4.985
 3973SOL    HW112818   3.035   3.156   4.923
 3973SOL    HW212819   3.050   3.064   5.057
 3974SOL     OW12820   0.387   1.354   5.937
 3974SOL    HW112821   0.475   1.310   5.921
 3974SOL    HW212822   0.399   1.453   5.938
 3975SOL     OW12823   6.389   0.525   5.810
 3975SOL    HW112824   6.442   0.467   5.748
 3975SOL    HW212825   6.437   0.535   5.896
 3976SOL     OW12826   0.373   4.353   1.350
 3976SOL    HW112827   0.346   4.334   1.445
 3976SOL    HW212828   0.371   4.268   1.297
 3977SOL     OW12829   2.399   6.018   5.889
 3977SOL    HW112830   2.474   6.029   5.953
 3977SOL    HW212831   2.399   5.925   5.853
 3978SOL     OW12832   5.912   1.617   5.970
 3978SOL    HW112833   5.830   1.613   6.028
 3978SOL    HW212834   5.892   1.672   5.889
 3979SOL     OW12835   2.238   0.138   1.616
 3979SOL    HW112836   2.241   0.111   1.519
 3979SOL    HW212837   2.217   0.236   1.622
 3980SOL     OW12838   5.475   3.399   4.687
 3980SOL    HW112839   5.434   3.348   4.612
 3980SOL    HW212840   5.519   3.336   4.751
 3981SOL     OW12841   0.085   2.075   6.407
 3981SOL    HW112842   0.071   2.044   6.313
 3981SOL    HW212843   0.033   2.159   6.423
 3982SOL     OW12844   1.875   1.033   4.884
 3982SOL    HW112845   1.913   1.026   4.977
 3982SOL    HW212846   1.927   0.975   4.822
 3983SOL     OW12847   3.779   0.262   4.797
 3983SOL    HW112848   3.778   0.229   4.891
 3983SOL    HW212849   3.732   0.196   4.738
 3984SOL     OW12850   1.831   6.559   2.098
 3984SOL    HW112851   1.905   6.575   2.032
 3984SOL    HW212852   1.780   6.643   2.112
 3985SOL     OW12853   1.809   4.174   6.885
 3985SOL    HW112854   1.879   4.240   6.910
 3985SOL    HW212855   1.721   4.202   6.925
 3986SOL     OW12856   0.234   2.064   1.699
 3986SOL    HW112857   0.313   2.012   1.666
 3986SOL    HW212858   0.168   2.002   1.740
 3987SOL     OW12859   1.321   5.610   5.266
 3987SOL    HW112860   1.357   5.578   5.178
 3987SOL    HW212861   1.247   5.674   5.251
 3988SOL     OW12862   3.968   1.651   6.489
 3988SOL    HW112863   3.917   1.567   6.510
 3988SOL    HW212864   4.031   1.633   6.414
 3989SOL     OW12865   6.133   6.786   6.505
 3989SOL    HW112866   6.166   6.879   6.518
 3989SOL    HW212867   6.197   6.736   6.446
 3990SOL     OW12868   6.802   2.487   5.190
 3990SOL    HW112869   6.761   2.518   5.276
 3990SOL    HW212870   6.831   2.566   5.136
 3991SOL     OW12871   0.477   2.228   3.526
 3991SOL    HW112872   0.509   2.319   3.499
 3991SOL    HW212873   0.552   2.177   3.568
 3992SOL     OW12874   3.708   3.337   6.653
 3992SOL    HW112875   3.612   3.364   6.641
 3992SOL    HW212876   3.734   3.271   6.583
 3993SOL     OW12877   2.748   2.374   2.534
 3993SOL    HW112878   2.727   2.288   2.486
 3993SOL    HW212879   2.765   2.446   2.467
 3994SOL     OW12880   2.134   2.549   5.033
 3994SOL    HW112881   2.212   2.488   5.020
 3994SOL    HW212882   2.096   2.535   5.125
 3995SOL     OW12883   2.277   4.276   3.342
 3995SOL    HW112884   2.222   4.209   3.292
 3995SOL    HW212885   2.346   4.314   3.281
 3996SOL     OW12886   1.366   1.656   4.387
 3996SOL    HW112887   1.362   1.756   4.377
 3996SOL    HW212888   1.325   1.613   4.307
 3997SOL     OW12889   4.886   3.502   3.167
 3997SOL    HW112890   4.830   3.503   3.250
 3997SOL    HW212891   4.981   3.523   3.191
 3998SOL     OW12892   6.083   1.854   1.973
 3998SOL    HW112893   6.031   1.857   1.887
 3998SOL    HW212894   6.181   1.856   1.952
 3999SOL     OW12895   5.971   3.789   3.559
 3999SOL    HW112896   5.933   3.721   3.496
 3999SOL    HW212897   5.988   3.875   3.511
 4000SOL     OW12898   2.988   6.003   2.866
 4000SOL    HW112899   2.992   6.046   2.776
 4000SOL    HW212900   2.904   6.030   2.913
 4001SOL     OW12901   2.481   4.106   6.037
 4001SOL    HW112902   2.514   4.091   5.943
 4001SOL    HW212903   2.384   4.083   6.042
 4002SOL     OW12904   3.761   2.953   4.526
 4002SOL    HW112905   3.828   2.995   4.464
 4002SOL    HW212906   3.805   2.932   4.613
 4003SOL     OW12907   2.043   1.365   6.110
 4003SOL    HW112908   2.067   1.287   6.169
 4003SOL    HW212909   2.103   1.442   6.130
 4004SOL     OW12910   6.500   3.489   3.958
 4004SOL    HW112911   6.408   3.465   3.989
 4004SOL    HW212912   6.563   3.414   3.980
 4005SOL     OW12913   4.048   4.453   1.128
 4005SOL    HW112914   4.040   4.355   1.146
 4005SOL    HW212915   4.011   4.474   1.038
 4006SOL     OW12916   5.248   4.706   1.671
 4006SOL    HW112917   5.270   4.766   1.594
 4006SOL    HW212918   5.255   4.757   1.757
 4007SOL     OW12919   0.250   2.124   3.211
 4007SOL    HW112920   0.290   2.057   3.149
 4007SOL    HW212921   0.263   2.216   3.174
 4008SOL     OW12922   3.287   0.300   6.378
 4008SOL    HW112923   3.216   0.232   6.394
 4008SOL    HW212924   3.286   0.367   6.452
 4009SOL     OW12925   4.943   1.997   1.426
 4009SOL    HW112926   4.939   2.076   1.366
 4009SOL    HW212927   4.983   1.920   1.377
 4010SOL     OW12928   3.040   3.235   1.612
 4010SOL    HW112929   3.099   3.163   1.648
 4010SOL    HW212930   3.093   3.318   1.596
 4011SOL     OW12931   6.550   5.807   2.090
 4011SOL    HW112932   6.590   5.832   2.178
 4011SOL    HW212933   6.499   5.722   2.100
 4012SOL     OW12934   3.949   6.756   2.647
 4012SOL    HW112935   3.881   6.819   2.686
 4012SOL    HW212936   3.981   6.694   2.719
 4013SOL     OW12937   2.058   0.137   1.142
 4013SOL    HW112938   2.104   0.222   1.119
 4013SOL    HW212939   2.106   0.092   1.218
 4014SOL     OW12940   3.260   6.349   4.013
 4014SOL    HW112941   3.201   6.314   4.085
 4014SOL    HW212942   3.332   6.282   3.993
 4015SOL     OW12943   4.751   5.148   6.472
 4015SOL    HW112944   4.802   5.151   6.558
 4015SOL    HW212945   4.815   5.141   6.395
 4016SOL     OW12946   2.771   5.266   0.251
 4016SOL    HW112947   2.831   5.196   0.215
 4016SOL    HW212948   2.760   5.253   0.350
 4017SOL     OW12949   0.162   5.302   4.996
 4017SOL    HW112950   0.238   5.238   5.011
 4017SOL    HW212951   0.128   5.292   4.903
 4018SOL     OW12952   4.310   0.232   1.632
 4018SOL    HW112953   4.402   0.209   1.664
 4018SOL    HW212954   4.309   0.326   1.597
 4019SOL     OW12955   5.196   3.639   2.406
 4019SOL    HW112956   5.294   3.639   2.426
 4019SOL    HW212957   5.182   3.633   2.307
 4020SOL     OW12958   6.817   2.825   5.711
 4020SOL    HW112959   6.843   2.786   5.623
 4020SOL    HW212960   6.894   2.821   5.774
 4021SOL     OW12961   3.613   4.092   5.527
 4021SOL    HW112962   3.552   4.165   5.557
 4021SOL    HW212963   3.708   4.125   5.527
 4022SOL     OW12964   3.553   6.254   6.698
 4022SOL    HW112965   3.490   6.329   6.680
 4022SOL    HW212966   3.516   6.197   6.771
 4023SOL     OW12967   6.784   0.758   5.591
 4023SOL    HW112968   6.849   0.789   5.522
 4023SOL    HW212969   6.834   0.719   5.669
 4024SOL     OW12970   2.540   4.692   3.966
 4024SOL    HW112971   2.520   4.614   4.025
 4024SOL    HW212972   2.612   4.668   3.902
 4025SOL     OW12973   0.460   6.209   4.291
 4025SOL    HW112974   0.389   6.157   4.338
 4025SOL    HW212975   0.541   6.215   4.350
 4026SOL     OW12976   6.309   6.635   4.376
 4026SOL    HW112977   6.294   6.699   4.451
 4026SOL    HW212978   6.401   6.595   4.385
 4027SOL     OW12979   2.658   2.418   0.038
 4027SOL    HW112980   2.581   2.462   0.084
 4027SOL    HW212981   2.743   2.461   0.068
 4028SOL     OW12982   4.411   1.494   3.702
 4028SOL    HW112983   4.382   1.572   3.647
 4028SOL    HW212984   4.358   1.492   3.787
 4029SOL     OW12985   3.150   3.728   5.773
 4029SOL    HW112986   3.169   3.716   5.676
 4029SOL    HW212987   3.130   3.825   5.791
 4030SOL     OW12988   6.676   1.071   2.141
 4030SOL    HW112989   6.694   1.060   2.239
 4030SOL    HW212990   6.595   1.019   2.116
 4031SOL     OW12991   5.417   6.158   3.246
 4031SOL    HW112992   5.462   6.245   3.262
 4031SOL    HW212993   5.443   6.093   3.317
 4032SOL     OW12994   0.258   6.932   2.282
 4032SOL    HW112995   0.201   6.879   2.219
 4032SOL    HW212996   0.302   7.007   2.233
 4033SOL     OW12997   2.318   2.678   1.342
 4033SOL    HW112998   2.275   2.765   1.366
 4033SOL    HW212999   2.389   2.693   1.273
 4034SOL     OW13000   6.082   2.147   5.168
 4034SOL    HW113001   6.115   2.106   5.253
 4034SOL    HW213002   6.052   2.241   5.185
 4035SOL     OW13003   6.279   1.106   0.770
 4035SOL    HW113004   6.321   1.015   0.758
 4035SOL    HW213005   6.180   1.096   0.775
 4036SOL     OW13006   4.295   4.661   2.254
 4036SOL    HW113007   4.195   4.659   2.253
 4036SOL    HW213008   4.331   4.626   2.168
 4037SOL     OW13009   2.229   1.963   6.799
 4037SOL    HW113010   2.260   2.025   6.871
 4037SOL    HW213011   2.156   1.904   6.835
 4038SOL     OW13012   4.434   2.917   1.261
 4038SOL    HW113013   4.510   2.976   1.233
 4038SOL    HW213014   4.425   2.919   1.360
 4039SOL     OW13015   5.241   5.437   1.626
 4039SOL    HW113016   5.332   5.462   1.659
 4039SOL    HW213017   5.224   5.340   1.643
 4040SOL     OW13018   3.858   6.948   4.905
 4040SOL    HW113019   3.945   6.974   4.861
 4040SOL    HW213020   3.871   6.864   4.957
 4041SOL     OW13021   1.047   4.754   0.707
 4041SOL    HW113022   1.073   4.746   0.803
 4041SOL    HW213023   0.949   4.771   0.701
 4042SOL     OW13024   5.992   6.117   4.458
 4042SOL    HW113025   5.929   6.058   4.408
 4042SOL    HW213026   6.007   6.080   4.550
 4043SOL     OW13027   6.910   2.292   6.289
 4043SOL    HW113028   6.899   2.229   6.211
 4043SOL    HW213029   6.820   2.311   6.328
 4044SOL     OW13030   4.780   6.448   3.654
 4044SOL    HW113031   4.751   6.473   3.562
 4044SOL    HW213032   4.755   6.353   3.673
 4045SOL     OW13033   3.890   5.950   5.981
 4045SOL    HW113034   3.864   5.882   5.912
 4045SOL    HW213035   3.808   5.995   6.016
 4046SOL     OW13036   1.394   1.893   3.854
 4046SOL    HW113037   1.403   1.869   3.758
 4046SOL    HW213038   1.472   1.949   3.882
 4047SOL     OW13039   2.925   2.203   6.960
 4047SOL    HW113040   3.010   2.157   6.935
 4047SOL    HW213041   2.860   2.197   6.883
 4048SOL     OW13042   5.298   1.658   1.832
 4048SOL    HW113043   5.296   1.736   1.769
 4048SOL    HW213044   5.271   1.688   1.923
 4049SOL     OW13045   5.326   4.872   6.398
 4049SOL    HW113046   5.263   4.825   6.335
 4049SOL    HW213047   5.344   4.964   6.364
 4050SOL     OW13048   0.767   6.654   2.160
 4050SOL    HW113049   0.802   6.581   2.219
 4050SOL    HW213050   0.671   6.637   2.140
 4051SOL     OW13051   4.129   1.306   6.876
 4051SOL    HW113052   4.142   1.324   6.974
 4051SOL    HW213053   4.137   1.392   6.825
 4052SOL     OW13054   6.110   1.197   2.514
 4052SOL    HW113055   6.209   1.200   2.527
 4052SOL    HW213056   6.067   1.264   2.574
 4053SOL     OW13057   3.144   6.865   4.457
 4053SOL    HW113058   3.102   6.782   4.420
 4053SOL    HW213059   3.206   6.840   4.532
 4054SOL     OW13060   5.523   3.758   0.862
 4054SOL    HW113061   5.550   3.783   0.955
 4054SOL    HW213062   5.454   3.822   0.829
 4055SOL     OW13063   2.823   3.631   0.461
 4055SOL    HW113064   2.752   3.563   0.478
 4055SOL    HW213065   2.782   3.722   0.457
 4056SOL     OW13066   5.065   3.878   0.585
 4056SOL    HW113067   5.155   3.911   0.556
 4056SOL    HW213068   5.011   3.955   0.621
 4057SOL     OW13069   6.872   2.583   0.755
 4057SOL    HW113070   6.927   2.661   0.723
 4057SOL    HW213071   6.933   2.510   0.787
 4058SOL     OW13072   2.536   0.010   5.012
 4058SOL    HW113073   2.628   0.043   4.991
 4058SOL    HW213074   2.535   6.931   5.008
 4059SOL     OW13075   1.051   1.763   2.968
 4059SOL    HW113076   1.035   1.690   2.901
 4059SOL    HW213077   1.038   1.727   3.060
 4060SOL     OW13078   5.587   5.478   5.380
 4060SOL    HW113079   5.611   5.559   5.434
 4060SOL    HW213080   5.661   5.412   5.384
 4061SOL     OW13081   2.169   4.838   2.216
 4061SOL    HW113082   2.136   4.929   2.237
 4061SOL    HW213083   2.171   4.783   2.300
 4062SOL     OW13084   2.432   0.600   1.708
 4062SOL    HW113085   2.363   0.569   1.773
 4062SOL    HW213086   2.503   0.651   1.757
 4063SOL     OW13087   6.103   6.365   0.424
 4063SOL    HW113088   6.037   6.290   0.421
 4063SOL    HW213089   6.057   6.449   0.454
 4064SOL     OW13090   2.405   0.482   3.864
 4064SOL    HW113091   2.346   0.511   3.789
 4064SOL    HW213092   2.497   0.518   3.851
 4065SOL     OW13093   1.254   6.639   1.670
 4065SOL    HW113094   1.189   6.564   1.654
 4065SOL    HW213095   1.341   6.601   1.701
 4066SOL     OW13096   6.154   4.472   3.329
 4066SOL    HW113097   6.059   4.500   3.334
 4066SOL    HW213098   6.162   4.374   3.347
 4067SOL     OW13099   6.206   3.826   3.132
 4067SOL    HW113100   6.126   3.873   3.095
 4067SOL    HW213101   6.260   3.890   3.187
 4068SOL     OW13102   1.714   1.085   5.327
 4068SOL    HW113103   1.703   1.104   5.229
 4068SOL    HW213104   1.628   1.101   5.375
 4069SOL     OW13105   3.013   5.401   6.490
 4069SOL    HW113106   2.956   5.482   6.480
 4069SOL    HW213107   3.080   5.397   6.416
 4070SOL     OW13108   0.458   3.327   2.456
 4070SOL    HW113109   0.494   3.348   2.365
 4070SOL    HW213110   0.374   3.378   2.471
 4071SOL     OW13111   1.100   1.337   5.570
 4071SOL    HW113112   1.161   1.407   5.533
 4071SOL    HW213113   1.106   1.254   5.513
 4072SOL     OW13114   0.549   5.723   4.411
 4072SOL    HW113115   0.591   5.789   4.349
 4072SOL    HW213116   0.613   5.649   4.430
 4073SOL     OW13117   3.030   6.332   6.111
 4073SOL    HW113118   3.084   6.251   6.132
 4073SOL    HW213119   3.021   6.342   6.012
 4074SOL     OW13120   6.830   4.110   1.665
 4074SOL    HW113121   6.796   4.158   1.584
 4074SOL    HW213122   6.903   4.163   1.708
 4075SOL     OW13123   4.409   2.145   1.779
 4075SOL    HW113124   4.477   2.209   1.813
 4075SOL    HW213125   4.330   2.143   1.839
 4076SOL     OW13126   3.180   3.075   5.830
 4076SOL    HW113127   3.083   3.054   5.831
 4076SOL    HW213128   3.222   3.040   5.746
 4077SOL     OW13129   3.680   1.324   0.175
 4077SOL    HW113130   3.609   1.253   0.182
 4077SOL    HW213131   3.728   1.315   0.088
 4078SOL     OW13132   0.237   5.451   1.364
 4078SOL    HW113133   0.248   5.458   1.265
 4078SOL    HW213134   0.300   5.381   1.399
 4079SOL     OW13135   1.971   1.014   3.696
 4079SOL    HW113136   2.066   0.994   3.719
 4079SOL    HW213137   1.916   1.015   3.779
 4080SOL     OW13138   4.360   4.084   6.116
 4080SOL    HW113139   4.292   4.130   6.059
 4080SOL    HW213140   4.396   4.004   6.068
 4081SOL     OW13141   1.911   2.886   4.219
 4081SOL    HW113142   1.936   2.842   4.305
 4081SOL    HW213143   1.884   2.815   4.153
 4082SOL     OW13144   0.398   3.722   0.173
 4082SOL    HW113145   0.378   3.680   0.262
 4082SOL    HW213146   0.444   3.810   0.188
 4083SOL     OW13147   6.744   3.851   2.261
 4083SOL    HW113148   6.670   3.842   2.193
 4083SOL    HW213149   6.794   3.935   2.244
 4084SOL     OW13150   5.525   1.907   3.578
 4084SOL    HW113151   5.436   1.948   3.597
 4084SOL    HW213152   5.544   1.836   3.645
 4085SOL     OW13153   2.794   5.530   1.659
 4085SOL    HW113154   2.883   5.545   1.702
 4085SOL    HW213155   2.744   5.459   1.709
 4086SOL     OW13156   1.098   5.314   1.833
 4086SOL    HW113157   1.119   5.401   1.788
 4086SOL    HW213158   1.178   5.255   1.830
 4087SOL     OW13159   1.719   1.594   3.328
 4087SOL    HW113160   1.662   1.581   3.247
 4087SOL    HW213161   1.805   1.639   3.302
 4088SOL     OW13162   0.228   1.480   6.969
 4088SOL    HW113163   0.317   1.521   6.946
 4088SOL    HW213164   0.155   1.546   6.952
 4089SOL     OW13165   6.154   6.312   4.353
 4089SOL    HW113166   6.100   6.238   4.393
 4089SOL    HW213167   6.095   6.391   4.335
 4090SOL     OW13168   1.636   5.057   5.728
 4090SOL    HW113169   1.660   5.137   5.673
 4090SOL    HW213170   1.670   4.974   5.684
 4091SOL     OW13171   6.834   6.408   6.986
 4091SOL    HW113172   6.848   6.459   0.050
 4091SOL    HW213173   6.801   6.316   7.007
 4092SOL     OW13174   6.603   2.601   6.158
 4092SOL    HW113175   6.538   2.653   6.103
 4092SOL    HW213176   6.695   2.611   6.120
 4093SOL     OW13177   4.428   0.039   2.463
 4093SOL    HW113178   4.365   0.104   2.504
 4093SOL    HW213179   4.510   0.086   2.432
 4094SOL     OW13180   2.316   5.882   4.645
 4094SOL    HW113181   2.219   5.856   4.644
 4094SOL    HW213182   2.348   5.886   4.739
 4095SOL     OW13183   0.218   3.868   0.426
 4095SOL    HW113184   0.191   3.773   0.445
 4095SOL    HW213185   0.308   3.885   0.464
 4096SOL     OW13186   4.344   5.952   5.966
 4096SOL    HW113187   4.303   5.932   5.877
 4096SOL    HW213188   4.280   5.924   6.038
 4097SOL     OW13189   3.637   4.748   5.423
 4097SOL    HW113190   3.538   4.748   5.411
 4097SOL    HW213191   3.665   4.662   5.465
 4098SOL     OW13192   7.015   2.155   1.408
 4098SOL    HW113193   7.002   2.056   1.402
 4098SOL    HW213194   0.045   2.176   1.492
 4099SOL     OW13195   2.719   4.763   1.490
 4099SOL    HW113196   2.752   4.747   1.583
 4099SOL    HW213197   2.624   4.795   1.494
 4100SOL     OW13198   6.889   5.929   4.511
 4100SOL    HW113199   6.946   5.971   4.582
 4100SOL    HW213200   6.795   5.919   4.545
 4101SOL     OW13201   6.350   0.830   0.308
 4101SOL    HW113202   6.447   0.854   0.305
 4101SOL    HW213203   6.300   0.881   0.237
 4102SOL     OW13204   6.651   0.521   0.704
 4102SOL    HW113205   6.595   0.495   0.625
 4102SOL    HW213206   6.746   0.494   0.688
 4103SOL     OW13207   0.425   0.439   0.355
 4103SOL    HW113208   0.417   0.539   0.345
 4103SOL    HW213209   0.519   0.411   0.335
 4104SOL     OW13210   0.934   4.688   2.958
 4104SOL    HW113211   1.004   4.618   2.942
 4104SOL    HW213212   0.868   4.686   2.883
 4105SOL     OW13213   4.659   6.884   1.511
 4105SOL    HW113214   4.712   6.856   1.591
 4105SOL    HW213215   4.592   6.953   1.538
 4106SOL     OW13216   6.138   2.466   3.345
 4106SOL    HW113217   6.062   2.446   3.406
 4106SOL    HW213218   6.138   2.564   3.321
 4107SOL     OW13219   1.045   5.570   1.220
 4107SOL    HW113220   1.058   5.649   1.279
 4107SOL    HW213221   1.065   5.486   1.271
 4108SOL     OW13222   6.281   3.982   5.129
 4108SOL    HW113223   6.369   3.955   5.092
 4108SOL    HW213224   6.225   4.022   5.056
 4109SOL     OW13225   6.307   0.087   5.002
 4109SOL    HW113226   6.224   0.032   5.009
 4109SOL    HW213227   6.387   0.029   5.019
 4110SOL     OW13228   3.610   3.687   6.338
 4110SOL    HW113229   3.597   3.675   6.240
 4110SOL    HW213230   3.708   3.691   6.358
 4111SOL     OW13231   4.171   3.292   0.185
 4111SOL    HW113232   4.232   3.360   0.144
 4111SOL    HW213233   4.087   3.286   0.131
 4112SOL     OW13234   5.051   6.638   4.889
 4112SOL    HW113235   5.050   6.719   4.948
 4112SOL    HW213236   5.140   6.592   4.899
 4113SOL     OW13237   4.861   6.288   4.522
 4113SOL    HW113238   4.782   6.344   4.499
 4113SOL    HW213239   4.937   6.310   4.460
 4114SOL     OW13240   3.491   2.064   3.879
 4114SOL    HW113241   3.455   1.980   3.840
 4114SOL    HW213242   3.415   2.118   3.916
 4115SOL     OW13243   3.652   4.929   2.170
 4115SOL    HW113244   3.682   4.846   2.122
 4115SOL    HW213245   3.610   4.991   2.104
 4116SOL     OW13246   3.395   1.691   2.242
 4116SOL    HW113247   3.315   1.673   2.184
 4116SOL    HW213248   3.459   1.615   2.235
 4117SOL     OW13249   1.526   5.006   2.300
 4117SOL    HW113250   1.502   5.068   2.375
 4117SOL    HW213251   1.512   4.911   2.329
 4118SOL     OW13252   2.971   6.594   0.685
 4118SOL    HW113253   2.875   6.577   0.659
 4118SOL    HW213254   3.028   6.586   0.603
 4119SOL     OW13255   3.694   2.081   4.042
 4119SOL    HW113256   3.613   2.084   3.982
 4119SOL    HW213257   3.669   2.115   4.132
 4120SOL     OW13258   3.830   0.486   0.275
 4120SOL    HW113259   3.748   0.429   0.284
 4120SOL    HW213260   3.809   0.580   0.303
 4121SOL     OW13261   6.365   0.781   4.996
 4121SOL    HW113262   6.273   0.792   4.957
 4121SOL    HW213263   6.369   0.694   5.045
 4122SOL     OW13264   1.117   5.805   5.254
 4122SOL    HW113265   1.090   5.864   5.177
 4122SOL    HW213266   1.168   5.859   5.320
 4123SOL     OW13267   4.250   5.032   5.896
 4123SOL    HW113268   4.232   5.098   5.970
 4123SOL    HW213269   4.346   5.036   5.870
 4124SOL     OW13270   6.610   5.632   6.499
 4124SOL    HW113271   6.531   5.576   6.474
 4124SOL    HW213272   6.660   5.658   6.416
 4125SOL     OW13273   4.528   1.265   2.798
 4125SOL    HW113274   4.456   1.245   2.865
 4125SOL    HW213275   4.614   1.225   2.829
 4126SOL     OW13276   1.253   3.901   4.773
 4126SOL    HW113277   1.160   3.935   4.785
 4126SOL    HW213278   1.299   3.897   4.861
 4127SOL     OW13279   4.440   4.924   4.774
 4127SOL    HW113280   4.378   4.960   4.703
 4127SOL    HW213281   4.409   4.834   4.802
 4128SOL     OW13282   1.443   2.884   1.645
 4128SOL    HW113283   1.483   2.870   1.554
 4128SOL    HW213284   1.513   2.869   1.715
 4129SOL     OW13285   4.098   1.419   6.165
 4129SOL    HW113286   4.023   1.392   6.106
 4129SOL    HW213287   4.079   1.509   6.205
 4130SOL     OW13288   6.431   2.985   6.047
 4130SOL    HW113289   6.516   3.029   6.018
 4130SOL    HW213290   6.400   3.026   6.133
 4131SOL     OW13291   1.988   0.436   3.226
 4131SOL    HW113292   2.019   0.362   3.166
 4131SOL    HW213293   1.917   0.402   3.287
 4132SOL     OW13294   5.289   4.442   3.950
 4132SOL    HW113295   5.377   4.407   3.981
 4132SOL    HW213296   5.219   4.418   4.017
 4133SOL     OW13297   3.224   6.305   0.870
 4133SOL    HW113298   3.195   6.339   0.960
 4133SOL    HW213299   3.145   6.271   0.820
 4134SOL     OW13300   2.583   2.692   0.410
 4134SOL    HW113301   2.500   2.720   0.362
 4134SOL    HW213302   2.564   2.612   0.466
 4135SOL     OW13303   0.996   1.691   3.225
 4135SOL    HW113304   1.007   1.607   3.277
 4135SOL    HW213305   0.987   1.768   3.288
 4136SOL     OW13306   1.340   2.103   2.842
 4136SOL    HW113307   1.338   2.013   2.886
 4136SOL    HW213308   1.419   2.108   2.781
 4137SOL     OW13309   0.262   4.617   0.517
 4137SOL    HW113310   0.320   4.606   0.598
 4137SOL    HW213311   0.294   4.557   0.444
 4138SOL     OW13312   4.466   5.282   3.400
 4138SOL    HW113313   4.555   5.321   3.376
 4138SOL    HW213314   4.472   5.239   3.490
 4139SOL     OW13315   2.070   1.895   5.040
 4139SOL    HW113316   2.003   1.953   5.086
 4139SOL    HW213317   2.051   1.799   5.060
 4140SOL     OW13318   3.010   0.961   5.118
 4140SOL    HW113319   3.082   0.996   5.179
 4140SOL    HW213320   3.020   1.004   5.028
 4141SOL     OW13321   5.967   6.150   1.516
 4141SOL    HW113322   6.061   6.167   1.546
 4141SOL    HW213323   5.966   6.128   1.418
 4142SOL     OW13324   6.159   5.491   0.964
 4142SOL    HW113325   6.183   5.576   0.917
 4142SOL    HW213326   6.080   5.508   1.023
 4143SOL     OW13327   6.837   2.595   1.194
 4143SOL    HW113328   6.927   2.593   1.151
 4143SOL    HW213329   6.775   2.652   1.141
 4144SOL     OW13330   4.841   3.811   6.144
 4144SOL    HW113331   4.874   3.720   6.166
 4144SOL    HW213332   4.900   3.880   6.186
 4145SOL     OW13333   6.614   6.429   0.914
 4145SOL    HW113334   6.660   6.358   0.968
 4145SOL    HW213335   6.537   6.465   0.966
 4146SOL     OW13336   6.844   0.654   5.102
 4146SOL    HW113337   6.842   0.666   5.003
 4146SOL    HW213338   6.936   0.627   5.130
 4147SOL     OW13339   4.745   3.655   5.898
 4147SOL    HW113340   4.647   3.635   5.897
 4147SOL    HW213341   4.782   3.637   5.989
 4148SOL     OW13342   1.179   0.451   4.594
 4148SOL    HW113343   1.109   0.451   4.665
 4148SOL    HW213344   1.263   0.410   4.631
 4149SOL     OW13345   0.103   2.662   0.432
 4149SOL    HW113346   0.005   2.654   0.450
 4149SOL    HW213347   0.132   2.590   0.369
 4150SOL     OW13348   0.930   0.700   6.231
 4150SOL    HW113349   0.961   0.791   6.258
 4150SOL    HW213350   0.841   0.682   6.272
 4151SOL     OW13351   3.547   5.214   5.503
 4151SOL    HW113352   3.559   5.119   5.529
 4151SOL    HW213353   3.554   5.223   5.403
 4152SOL     OW13354   3.523   6.147   1.678
 4152SOL    HW113355   3.599   6.145   1.744
 4152SOL    HW213356   3.437   6.162   1.726
 4153SOL     OW13357   4.147   4.861   0.216
 4153SOL    HW113358   4.216   4.846   0.146
 4153SOL    HW213359   4.171   4.942   0.269
 4154SOL     OW13360   0.595   4.533   4.500
 4154SOL    HW113361   0.676   4.587   4.476
 4154SOL    HW213362   0.542   4.513   4.418
 4155SOL     OW13363   0.008   1.199   2.064
 4155SOL    HW113364   0.012   1.212   2.163
 4155SOL    HW213365   6.940   1.163   2.038
 4156SOL     OW13366   5.972   6.114   5.285
 4156SOL    HW113367   6.047   6.060   5.325
 4156SOL    HW213368   5.975   6.106   5.186
 4157SOL     OW13369   4.899   5.720   4.498
 4157SOL    HW113370   4.905   5.818   4.480
 4157SOL    HW213371   4.948   5.699   4.582
 4158SOL     OW13372   1.524   4.539   2.558
 4158SOL    HW113373   1.500   4.463   2.618
 4158SOL    HW213374   1.453   4.609   2.562
 4159SOL     OW13375   1.874   3.493   4.306
 4159SOL    HW113376   1.780   3.480   4.337
 4159SOL    HW213377   1.886   3.586   4.271
 4160SOL     OW13378   6.107   0.398   0.513
 4160SOL    HW113379   6.120   0.319   0.453
 4160SOL    HW213380   6.174   0.469   0.489
 4161SOL     OW13381   0.672   0.629   0.174
 4161SOL    HW113382   0.627   0.664   0.256
 4161SOL    HW213383   0.726   0.702   0.132
 4162SOL     OW13384   6.023   6.648   5.948
 4162SOL    HW113385   6.019   6.604   6.038
 4162SOL    HW213386   6.117   6.676   5.928
 4163SOL     OW13387   6.195   6.507   3.707
 4163SOL    HW113388   6.238   6.440   3.645
 4163SOL    HW213389   6.199   6.598   3.665
 4164SOL     OW13390   1.679   6.610   6.804
 4164SOL    HW113391   1.658   6.557   6.886
 4164SOL    HW213392   1.762   6.664   6.820
 4165SOL     OW13393   3.921   0.222   6.917
 4165SOL    HW113394   3.856   0.260   6.850
 4165SOL    HW213395   4.014   0.247   6.891
 4166SOL     OW13396   6.315   3.890   0.808
 4166SOL    HW113397   6.384   3.821   0.832
 4166SOL    HW213398   6.343   3.937   0.725
 4167SOL     OW13399   0.909   4.222   1.163
 4167SOL    HW113400   0.960   4.162   1.224
 4167SOL    HW213401   0.962   4.304   1.145
 4168SOL     OW13402   6.726   4.949   0.980
 4168SOL    HW113403   6.638   4.916   0.945
 4168SOL    HW213404   6.780   4.871   1.012
 4169SOL     OW13405   5.875   4.189   3.877
 4169SOL    HW113406   5.860   4.278   3.834
 4169SOL    HW213407   5.973   4.174   3.891
 4170SOL     OW13408   3.944   3.955   5.540
 4170SOL    HW113409   3.944   4.054   5.526
 4170SOL    HW213410   3.913   3.934   5.633
 4171SOL     OW13411   5.531   5.642   1.425
 4171SOL    HW113412   5.545   5.543   1.435
 4171SOL    HW213413   5.459   5.659   1.358
 4172SOL     OW13414   0.490   2.301   6.241
 4172SOL    HW113415   0.431   2.380   6.257
 4172SOL    HW213416   0.513   2.295   6.144
 4173SOL     OW13417   4.865   3.586   5.651
 4173SOL    HW113418   4.906   3.673   5.625
 4173SOL    HW213419   4.808   3.599   5.733
 4174SOL     OW13420   5.520   0.848   3.434
 4174SOL    HW113421   5.562   0.778   3.376
 4174SOL    HW213422   5.556   0.841   3.527
 4175SOL     OW13423   1.989   6.279   4.608
 4175SOL    HW113424   2.071   6.244   4.562
 4175SOL    HW213425   1.915   6.287   4.541
 4176SOL     OW13426   3.240   6.529   2.078
 4176SOL    HW113427   3.143   6.534   2.104
 4176SOL    HW213428   3.270   6.619   2.045
 4177SOL     OW13429   6.686   4.541   4.674
 4177SOL    HW113430   6.657   4.596   4.752
 4177SOL    HW213431   6.619   4.469   4.657
 4178SOL     OW13432   4.894   0.753   3.942
 4178SOL    HW113433   4.870   0.845   3.912
 4178SOL    HW213434   4.810   0.704   3.966
 4179SOL     OW13435   5.294   2.125   3.073
 4179SOL    HW113436   5.313   2.208   3.126
 4179SOL    HW213437   5.278   2.149   2.977
 4180SOL     OW13438   5.080   3.861   1.632
 4180SOL    HW113439   5.070   3.886   1.536
 4180SOL    HW213440   5.112   3.766   1.638
 4181SOL     OW13441   2.591   2.159   6.946
 4181SOL    HW113442   2.643   2.162   6.860
 4181SOL    HW213443   2.616   2.237   7.003
 4182SOL     OW13444   0.160   6.454   2.926
 4182SOL    HW113445   0.145   6.550   2.900
 4182SOL    HW213446   0.258   6.435   2.927
 4183SOL     OW13447   4.883   0.832   0.097
 4183SOL    HW113448   4.841   0.779   0.170
 4183SOL    HW213449   4.831   0.820   0.013
 4184SOL     OW13450   4.323   4.950   1.518
 4184SOL    HW113451   4.299   4.871   1.462
 4184SOL    HW213452   4.266   4.949   1.601
 4185SOL     OW13453   0.756   5.834   2.352
 4185SOL    HW113454   0.824   5.907   2.346
 4185SOL    HW213455   0.749   5.788   2.264
 4186SOL     OW13456   2.366   4.824   0.949
 4186SOL    HW113457   2.301   4.751   0.969
 4186SOL    HW213458   2.460   4.790   0.960
 4187SOL     OW13459   3.518   3.585   6.102
 4187SOL    HW113460   3.449   3.639   6.054
 4187SOL    HW213461   3.576   3.537   6.036
 4188SOL     OW13462   5.474   0.284   4.430
 4188SOL    HW113463   5.568   0.315   4.418
 4188SOL    HW213464   5.454   0.275   4.528
 4189SOL     OW13465   3.651   0.626   5.038
 4189SOL    HW113466   3.717   0.630   5.113
 4189SOL    HW213467   3.612   0.534   5.034
 4190SOL     OW13468   0.595   0.510   6.931
 4190SOL    HW113469   0.605   0.539   0.006
 4190SOL    HW213470   0.685   0.483   6.896
 4191SOL     OW13471   5.452   3.143   3.100
 4191SOL    HW113472   5.388   3.082   3.053
 4191SOL    HW213473   5.420   3.158   3.194
 4192SOL     OW13474   0.418   0.829   4.085
 4192SOL    HW113475   0.349   0.882   4.035
 4192SOL    HW213476   0.506   0.835   4.037
 4193SOL     OW13477   2.207   6.845   2.692
 4193SOL    HW113478   2.276   6.908   2.655
 4193SOL    HW213479   2.249   6.757   2.711
 4194SOL     OW13480   5.577   0.765   5.663
 4194SOL    HW113481   5.537   0.845   5.618
 4194SOL    HW213482   5.656   0.793   5.717
 4195SOL     OW13483   4.027   0.354   1.930
 4195SOL    HW113484   3.947   0.339   1.872
 4195SOL    HW213485   4.019   0.298   2.012
 4196SOL     OW13486   5.792   2.247   3.774
 4196SOL    HW113487   5.734   2.209   3.702
 4196SOL    HW213488   5.806   2.178   3.845
 4197SOL     OW13489   5.094   5.724   5.271
 4197SOL    HW113490   5.184   5.681   5.278
 4197SOL    HW213491   5.075   5.746   5.175
 4198SOL     OW13492   5.452   3.031   6.403
 4198SOL    HW113493   5.459   3.033   6.502
 4198SOL    HW213494   5.544   3.033   6.363
 4199SOL     OW13495   2.014   3.828   6.547
 4199SOL    HW113496   1.963   3.776   6.616
 4199SOL    HW213497   1.958   3.837   6.465
 4200SOL     OW13498   3.152   6.008   4.725
 4200SOL    HW113499   3.217   6.008   4.800
 4200SOL    HW213500   3.150   6.099   4.683
 4201SOL     OW13501   6.146   6.167   3.503
 4201SOL    HW113502   6.163   6.124   3.591
 4201SOL    HW213503   6.232   6.204   3.467
 4202SOL     OW13504   4.265   5.953   5.703
 4202SOL    HW113505   4.358   5.933   5.672
 4202SOL    HW213506   4.200   5.895   5.655
 4203SOL     OW13507   4.834   5.452   1.220
 4203SOL    HW113508   4.877   5.383   1.278
 4203SOL    HW213509   4.793   5.524   1.277
 4204SOL     OW13510   3.547   2.914   2.399
 4204SOL    HW113511   3.544   2.943   2.494
 4204SOL    HW213512   3.642   2.919   2.366
 4205SOL     OW13513   3.619   5.018   4.088
 4205SOL    HW113514   3.572   5.021   4.177
 4205SOL    HW213515   3.674   5.101   4.078
 4206SOL     OW13516   5.760   0.859   5.864
 4206SOL    HW113517   5.839   0.918   5.882
 4206SOL    HW213518   5.717   0.834   5.951
 4207SOL     OW13519   2.056   1.942   1.537
 4207SOL    HW113520   2.112   2.021   1.558
 4207SOL    HW213521   2.101   1.887   1.467
 4208SOL     OW13522   1.012   3.050   6.534
 4208SOL    HW113523   1.092   2.991   6.534
 4208SOL    HW213524   1.026   3.126   6.471
 4209SOL     OW13525   0.429   1.845   5.366
 4209SOL    HW113526   0.493   1.814   5.295
 4209SOL    HW213527   0.347   1.787   5.363
 4210SOL     OW13528   2.925   3.479   2.119
 4210SOL    HW113529   2.901   3.411   2.189
 4210SOL    HW213530   2.874   3.458   2.035
 4211SOL     OW13531   3.815   5.640   4.988
 4211SOL    HW113532   3.738   5.581   5.011
 4211SOL    HW213533   3.838   5.629   4.891
 4212SOL     OW13534   6.049   2.639   2.093
 4212SOL    HW113535   6.000   2.620   2.008
 4212SOL    HW213536   6.057   2.738   2.105
 4213SOL     OW13537   2.653   1.271   2.700
 4213SOL    HW113538   2.570   1.255   2.646
 4213SOL    HW213539   2.650   1.363   2.739
 4214SOL     OW13540   0.944   4.180   5.839
 4214SOL    HW113541   0.864   4.124   5.863
 4214SOL    HW213542   0.928   4.275   5.865
 4215SOL     OW13543   6.452   6.084   4.529
 4215SOL    HW113544   6.540   6.094   4.483
 4215SOL    HW213545   6.442   5.991   4.563
 4216SOL     OW13546   1.595   1.915   3.337
 4216SOL    HW113547   1.648   1.981   3.390
 4216SOL    HW213548   1.651   1.882   3.260
 4217SOL     OW13549   6.641   7.019   2.479
 4217SOL    HW113550   6.665   6.967   2.397
 4217SOL    HW213551   6.620   6.955   2.553
 4218SOL     OW13552   5.279   0.138   1.330
 4218SOL    HW113553   5.309   0.228   1.363
 4218SOL    HW213554   5.189   0.117   1.368
 4219SOL     OW13555   2.991   5.468   4.104
 4219SOL    HW113556   3.025   5.526   4.030
 4219SOL    HW213557   2.943   5.389   4.065
 4220SOL     OW13558   6.170   2.685   3.016
 4220SOL    HW113559   6.132   2.741   3.090
 4220SOL    HW213560   6.217   2.606   3.054
 4221SOL     OW13561   6.263   5.479   6.201
 4221SOL    HW113562   6.342   5.437   6.158
 4221SOL    HW213563   6.254   5.445   6.295
 4222SOL     OW13564   5.968   2.443   2.604
 4222SOL    HW113565   5.990   2.438   2.506
 4222SOL    HW213566   5.934   2.535   2.625
 4223SOL     OW13567   3.205   3.515   4.990
 4223SOL    HW113568   3.279   3.472   5.042
 4223SOL    HW213569   3.173   3.452   4.919
 4224SOL     OW13570   4.771   3.026   3.622
 4224SOL    HW113571   4.860   3.005   3.581
 4224SOL    HW213572   4.709   2.949   3.606
 4225SOL     OW13573   4.243   0.118   5.872
 4225SOL    HW113574   4.186   0.042   5.903
 4225SOL    HW213575   4.249   0.187   5.944
 4226SOL     OW13576   0.575   0.734   3.400
 4226SOL    HW113577   0.658   0.743   3.345
 4226SOL    HW213578   0.531   0.824   3.410
 4227SOL     OW13579   3.292   4.956   6.851
 4227SOL    HW113580   3.307   4.939   6.754
 4227SOL    HW213581   3.272   5.053   6.865
 4228SOL     OW13582   0.394   3.303   3.270
 4228SOL    HW113583   0.423   3.214   3.235
 4228SOL    HW213584   0.346   3.354   3.198
 4229SOL     OW13585   4.511   5.096   5.869
 4229SOL    HW113586   4.574   5.038   5.817
 4229SOL    HW213587   4.547   5.189   5.872
 4230SOL     OW13588   2.055   0.885   4.756
 4230SOL    HW113589   2.077   0.862   4.661
 4230SOL    HW213590   2.059   0.802   4.812
 4231SOL     OW13591   5.236   6.177   4.354
 4231SOL    HW113592   5.257   6.097   4.297
 4231SOL    HW213593   5.257   6.156   4.449
 4232SOL     OW13594   6.846   4.495   1.793
 4232SOL    HW113595   6.823   4.589   1.818
 4232SOL    HW213596   6.936   4.471   1.830
 4233SOL     OW13597   0.111   0.405   6.743
 4233SOL    HW113598   0.059   0.488   6.723
 4233SOL    HW213599   0.152   0.413   6.834
 4234SOL     OW13600   1.339   0.301   5.806
 4234SOL    HW113601   1.387   0.362   5.868
 4234SOL    HW213602   1.331   0.210   5.847
 4235SOL     OW13603   6.024   3.458   5.414
 4235SOL    HW113604   5.959   3.531   5.393
 4235SOL    HW213605   5.976   3.383   5.461
 4236SOL     OW13606   0.889   3.313   2.989
 4236SOL    HW113607   0.801   3.358   3.001
 4236SOL    HW213608   0.898   3.239   3.056
 4237SOL     OW13609   6.371   4.926   4.139
 4237SOL    HW113610   6.344   5.021   4.126
 4237SOL    HW213611   6.404   4.913   4.233
 4238SOL     OW13612   4.368   4.693   3.726
 4238SOL    HW113613   4.326   4.640   3.799
 4238SOL    HW213614   4.459   4.657   3.705
 4239SOL     OW13615   6.476   0.651   3.394
 4239SOL    HW113616   6.434   0.644   3.303
 4239SOL    HW213617   6.551   0.717   3.390
 4240SOL     OW13618   2.130   6.930   6.965
 4240SOL    HW113619   2.070   7.000   6.927
 4240SOL    HW213620   2.184   6.969   0.019
 4241SOL     OW13621   5.165   1.240   1.190
 4241SOL    HW113622   5.172   1.237   1.090
 4241SOL    HW213623   5.119   1.158   1.223
 4242SOL     OW13624   2.063   0.951   3.090
 4242SOL    HW113625   2.112   0.983   3.009
 4242SOL    HW213626   2.067   0.851   3.094
 4243SOL     OW13627   0.701   3.467   3.147
 4243SOL    HW113628   0.768   3.442   3.217
 4243SOL    HW213629   0.615   3.492   3.191
 4244SOL     OW13630   4.434   5.136   0.772
 4244SOL    HW113631   4.398   5.227   0.795
 4244SOL    HW213632   4.533   5.142   0.761
 4245SOL     OW13633   6.716   1.551   6.659
 4245SOL    HW113634   6.762   1.501   6.585
 4245SOL    HW213635   6.757   1.643   6.667
 4246SOL     OW13636   5.866   2.341   3.460
 4246SOL    HW113637   5.802   2.288   3.515
 4246SOL    HW213638   5.942   2.283   3.432
 4247SOL     OW13639   2.243   5.438   4.094
 4247SOL    HW113640   2.160   5.404   4.049
 4247SOL    HW213641   2.273   5.522   4.049
 4248SOL     OW13642   1.372   1.200   3.777
 4248SOL    HW113643   1.336   1.270   3.716
 4248SOL    HW213644   1.321   1.202   3.863
 4249SOL     OW13645   6.126   1.134   3.457
 4249SOL    HW113646   6.099   1.038   3.449
 4249SOL    HW213647   6.125   1.176   3.366
 4250SOL     OW13648   6.786   5.907   4.166
 4250SOL    HW113649   6.856   5.968   4.129
 4250SOL    HW213650   6.828   5.822   4.198
 4251SOL     OW13651   6.709   2.935   0.476
 4251SOL    HW113652   6.752   3.023   0.500
 4251SOL    HW213653   6.618   2.930   0.517
 4252SOL     OW13654   5.214   6.265   6.606
 4252SOL    HW113655   5.247   6.311   6.524
 4252SOL    HW213656   5.272   6.185   6.625
 4253SOL     OW13657   3.596   5.958   2.176
 4253SOL    HW113658   3.551   6.038   2.136
 4253SOL    HW213659   3.534   5.915   2.242
 4254SOL     OW13660   1.954   4.503   1.755
 4254SOL    HW113661   1.998   4.549   1.677
 4254SOL    HW213662   1.881   4.562   1.790
 4255SOL     OW13663   0.242   3.867   3.855
 4255SOL    HW113664   0.165   3.817   3.816
 4255SOL    HW213665   0.245   3.851   3.954
 4256SOL     OW13666   1.128   6.067   1.443
 4256SOL    HW113667   1.083   6.153   1.419
 4256SOL    HW213668   1.148   6.065   1.541
 4257SOL     OW13669   4.729   1.205   4.373
 4257SOL    HW113670   4.775   1.260   4.442
 4257SOL    HW213671   4.666   1.142   4.417
 4258SOL     OW13672   3.418   6.339   1.266
 4258SOL    HW113673   3.461   6.264   1.316
 4258SOL    HW213674   3.379   6.304   1.181
 4259SOL     OW13675   1.698   6.222   0.748
 4259SOL    HW113676   1.766   6.157   0.782
 4259SOL    HW213677   1.616   6.173   0.719
 4260SOL     OW13678   5.447   0.225   3.701
 4260SOL    HW113679   5.441   0.171   3.617
 4260SOL    HW213680   5.518   0.294   3.691
 4261SOL     OW13681   1.856   0.821   2.765
 4261SOL    HW113682   1.794   0.852   2.693
 4261SOL    HW213683   1.859   0.721   2.765
 4262SOL     OW13684   1.117   4.204   6.036
 4262SOL    HW113685   1.194   4.264   6.013
 4262SOL    HW213686   1.052   4.203   5.961
 4263SOL     OW13687   2.752   1.166   3.543
 4263SOL    HW113688   2.710   1.140   3.456
 4263SOL    HW213689   2.834   1.221   3.525
 4264SOL     OW13690   6.061   1.960   4.243
 4264SOL    HW113691   6.122   1.933   4.318
 4264SOL    HW213692   6.103   1.936   4.156
 4265SOL     OW13693   3.935   1.071   0.902
 4265SOL    HW113694   3.857   1.048   0.960
 4265SOL    HW213695   3.969   0.989   0.856
 4266SOL     OW13696   1.551   6.473   7.020
 4266SOL    HW113697   1.528   6.562   0.039
 4266SOL    HW213698   1.595   6.415   0.067
 4267SOL     OW13699   2.106   3.326   3.913
 4267SOL    HW113700   2.011   3.349   3.891
 4267SOL    HW213701   2.121   3.336   4.012
 4268SOL     OW13702   2.100   5.811   6.740
 4268SOL    HW113703   2.063   5.719   6.724
 4268SOL    HW213704   2.199   5.810   6.728
 4269SOL     OW13705   2.805   1.089   4.042
 4269SOL    HW113706   2.807   0.996   4.007
 4269SOL    HW213707   2.808   1.154   3.966
 4270SOL     OW13708   3.054   3.073   2.270
 4270SOL    HW113709   3.131   3.012   2.288
 4270SOL    HW213710   2.987   3.064   2.343
 4271SOL     OW13711   0.075   1.347   0.156
 4271SOL    HW113712   0.139   1.391   0.093
 4271SOL    HW213713   7.003   1.376   0.134
 4272SOL     OW13714   6.977   2.704   5.099
 4272SOL    HW113715   7.012   2.727   5.189
 4272SOL    HW213716   0.015   2.744   5.029
 4273SOL     OW13717   5.136   6.312   5.154
 4273SOL    HW113718   5.101   6.328   5.062
 4273SOL    HW213719   5.235   6.325   5.155
 4274SOL     OW13720   1.047   0.155   1.835
 4274SOL    HW113721   1.092   0.156   1.746
 4274SOL    HW213722   1.116   0.142   1.907
 4275SOL     OW13723   0.544   1.878   3.864
 4275SOL    HW113724   0.467   1.899   3.925
 4275SOL    HW213725   0.523   1.795   3.812
 4276SOL     OW13726   3.233   4.888   3.927
 4276SOL    HW113727   3.173   4.872   3.848
 4276SOL    HW213728   3.301   4.958   3.903
 4277SOL     OW13729   0.700   4.501   2.331
 4277SOL    HW113730   0.787   4.450   2.334
 4277SOL    HW213731   0.644   4.474   2.409
 4278SOL     OW13732   0.436   6.930   3.973
 4278SOL    HW113733   0.397   6.971   3.891
 4278SOL    HW213734   0.510   6.868   3.946
 4279SOL     OW13735   1.222   1.283   2.545
 4279SOL    HW113736   1.268   1.194   2.535
 4279SOL    HW213737   1.133   1.269   2.587
 4280SOL     OW13738   6.133   7.007   6.085
 4280SOL    HW113739   6.206   6.952   6.045
 4280SOL    HW213740   6.155   0.083   6.075
 4281SOL     OW13741   5.413   4.780   3.095
 4281SOL    HW113742   5.330   4.835   3.108
 4281SOL    HW213743   5.391   4.683   3.110
 4282SOL     OW13744   2.700   4.985   0.582
 4282SOL    HW113745   2.684   4.945   0.492
 4282SOL    HW213746   2.685   4.916   0.652
 4283SOL     OW13747   3.476   0.911   3.602
 4283SOL    HW113748   3.536   0.915   3.522
 4283SOL    HW213749   3.413   0.988   3.601
 4284SOL     OW13750   4.420   5.618   0.681
 4284SOL    HW113751   4.378   5.670   0.755
 4284SOL    HW213752   4.369   5.632   0.596
 4285SOL     OW13753   2.326   1.285   5.765
 4285SOL    HW113754   2.280   1.342   5.697
 4285SOL    HW213755   2.325   1.189   5.735
 4286SOL     OW13756   5.631   0.286   5.964
 4286SOL    HW113757   5.643   0.295   5.865
 4286SOL    HW213758   5.698   0.221   6.000
 4287SOL     OW13759   4.447   1.027   5.646
 4287SOL    HW113760   4.529   1.084   5.639
 4287SOL    HW213761   4.447   0.960   5.572
 4288SOL     OW13762   0.683   5.392   3.231
 4288SOL    HW113763   0.596   5.434   3.205
 4288SOL    HW213764   0.742   5.384   3.151
 4289SOL     OW13765   1.312   2.337   6.352
 4289SOL    HW113766   1.234   2.386   6.312
 4289SOL    HW213767   1.325   2.251   6.303
 4290SOL     OW13768   0.320   6.446   4.935
 4290SOL    HW113769   0.338   6.489   5.023
 4290SOL    HW213770   0.404   6.443   4.881
 4291SOL     OW13771   5.005   4.016   6.187
 4291SOL    HW113772   4.953   4.085   6.236
 4291SOL    HW213773   5.101   4.020   6.215
 4292SOL     OW13774   5.784   2.942   0.050
 4292SOL    HW113775   5.686   2.949   0.034
 4292SOL    HW213776   5.814   2.848   0.031
 4293SOL     OW13777   3.373   4.257   6.757
 4293SOL    HW113778   3.353   4.167   6.719
 4293SOL    HW213779   3.472   4.269   6.762
 4294SOL     OW13780   2.149   1.809   6.000
 4294SOL    HW113781   2.139   1.725   6.053
 4294SOL    HW213782   2.213   1.792   5.924
 4295SOL     OW13783   4.278   6.088   3.612
 4295SOL    HW113784   4.340   6.166   3.619
 4295SOL    HW213785   4.279   6.037   3.698
 4296SOL     OW13786   3.002   6.880   0.438
 4296SOL    HW113787   2.923   6.935   0.411
 4296SOL    HW213788   3.012   6.882   0.538
 4297SOL     OW13789   6.409   6.520   2.114
 4297SOL    HW113790   6.423   6.508   2.213
 4297SOL    HW213791   6.437   6.438   2.066
 4298SOL     OW13792   2.969   6.219   1.754
 4298SOL    HW113793   2.991   6.242   1.659
 4298SOL    HW213794   3.054   6.205   1.805
 4299SOL     OW13795   0.825   3.084   6.744
 4299SOL    HW113796   0.858   3.103   6.836
 4299SOL    HW213797   0.898   3.103   6.678
 4300SOL     OW13798   2.770   6.990   0.341
 4300SOL    HW113799   2.695   6.984   0.407
 4300SOL    HW213800   2.740   6.956   0.252
 4301SOL     OW13801   4.198   0.534   1.757
 4301SOL    HW113802   4.184   0.463   1.826
 4301SOL    HW213803   4.140   0.613   1.778
 4302SOL     OW13804   6.559   0.041   6.410
 4302SOL    HW113805   6.640   7.019   6.371
 4302SOL    HW213806   6.481   0.026   6.349
 4303SOL     OW13807   0.021   4.826   3.762
 4303SOL    HW113808   0.032   4.727   3.763
 4303SOL    HW213809   0.052   4.864   3.849
 4304SOL     OW13810   3.531   3.621   2.399
 4304SOL    HW113811   3.541   3.630   2.300
 4304SOL    HW213812   3.435   3.634   2.424
 4305SOL     OW13813   0.699   6.445   6.224
 4305SOL    HW113814   0.730   6.533   6.261
 4305SOL    HW213815   0.601   6.437   6.237
 4306SOL     OW13816   4.845   5.032   4.544
 4306SOL    HW113817   4.938   4.999   4.557
 4306SOL    HW213818   4.837   5.125   4.581
 4307SOL     OW13819   5.543   3.237   4.889
 4307SOL    HW113820   5.461   3.227   4.946
 4307SOL    HW213821   5.622   3.256   4.947
 4308SOL     OW13822   5.576   5.372   1.424
 4308SOL    HW113823   5.523   5.290   1.403
 4308SOL    HW213824   5.672   5.347   1.435
 4309SOL     OW13825   1.551   2.398   0.436
 4309SOL    HW113826   1.596   2.327   0.490
 4309SOL    HW213827   1.576   2.387   0.340
 4310SOL     OW13828   1.668   2.558   1.733
 4310SOL    HW113829   1.719   2.641   1.756
 4310SOL    HW213830   1.668   2.545   1.634
 4311SOL     OW13831   0.923   6.046   2.355
 4311SOL    HW113832   0.999   6.048   2.290
 4311SOL    HW213833   0.880   6.137   2.358
 4312SOL     OW13834   1.669   5.651   2.885
 4312SOL    HW113835   1.751   5.708   2.887
 4312SOL    HW213836   1.603   5.686   2.951
 4313SOL     OW13837   4.422   1.859   0.191
 4313SOL    HW113838   4.328   1.855   0.159
 4313SOL    HW213839   4.470   1.776   0.163
 4314SOL     OW13840   6.279   1.826   4.892
 4314SOL    HW113841   6.363   1.858   4.937
 4314SOL    HW213842   6.265   1.879   4.808
 4315SOL     OW13843   2.177   1.133   3.274
 4315SOL    HW113844   2.239   1.193   3.223
 4315SOL    HW213845   2.149   1.057   3.216
 4316SOL     OW13846   5.131   0.581   2.387
 4316SOL    HW113847   5.054   0.580   2.324
 4316SOL    HW213848   5.150   0.487   2.418
 4317SOL     OW13849   4.744   1.567   5.752
 4317SOL    HW113850   4.736   1.572   5.652
 4317SOL    HW213851   4.653   1.563   5.792
 4318SOL     OW13852   0.666   1.346   4.772
 4318SOL    HW113853   0.569   1.370   4.781
 4318SOL    HW213854   0.702   1.321   4.861
 4319SOL     OW13855   1.581   1.816   0.835
 4319SOL    HW113856   1.583   1.858   0.926
 4319SOL    HW213857   1.548   1.882   0.768
 4320SOL     OW13858   3.529   5.468   1.314
 4320SOL    HW113859   3.549   5.481   1.217
 4320SOL    HW213860   3.557   5.376   1.342
 4321SOL     OW13861   6.575   4.711   3.719
 4321SOL    HW113862   6.507   4.776   3.683
 4321SOL    HW213863   6.657   4.714   3.662
 4322SOL     OW13864   6.525   3.281   6.174
 4322SOL    HW113865   6.572   3.244   6.254
 4322SOL    HW213866   6.430   3.304   6.198
 4323SOL     OW13867   4.993   5.206   0.492
 4323SOL    HW113868   4.950   5.294   0.470
 4323SOL    HW213869   4.923   5.142   0.523
 4324SOL     OW13870   6.313   4.177   5.532
 4324SOL    HW113871   6.369   4.102   5.566
 4324SOL    HW213872   6.341   4.262   5.577
 4325SOL     OW13873   2.602   1.543   2.384
 4325SOL    HW113874   2.668   1.547   2.309
 4325SOL    HW213875   2.594   1.634   2.425
 4326SOL     OW13876   5.559   4.241   1.982
 4326SOL    HW113877   5.529   4.331   2.013
 4326SOL    HW213878   5.525   4.171   2.045
 4327SOL     OW13879   4.201   6.096   2.823
 4327SOL    HW113880   4.230   6.083   2.729
 4327SOL    HW213881   4.206   6.193   2.847
 4328SOL     OW13882   5.499   4.540   5.249
 4328SOL    HW113883   5.517   4.574   5.157
 4328SOL    HW213884   5.578   4.488   5.281
 4329SOL     OW13885   6.101   2.703   5.826
 4329SOL    HW113886   6.044   2.627   5.793
 4329SOL    HW213887   6.195   2.689   5.796
 4330SOL     OW13888   1.741   6.702   3.774
 4330SOL    HW113889   1.708   6.630   3.834
 4330SOL    HW213890   1.811   6.666   3.713
 4331SOL     OW13891   6.217   0.811   1.602
 4331SOL    HW113892   6.283   0.737   1.617
 4331SOL    HW213893   6.245   0.864   1.522
 4332SOL     OW13894   6.641   2.818   2.871
 4332SOL    HW113895   6.564   2.826   2.934
 4332SOL    HW213896   6.701   2.744   2.901
 4333SOL     OW13897   4.285   1.871   5.107
 4333SOL    HW113898   4.225   1.898   5.032
 4333SOL    HW213899   4.348   1.800   5.076
 4334SOL     OW13900   1.549   2.934   2.124
 4334SOL    HW113901   1.549   3.029   2.091
 4334SOL    HW213902   1.459   2.893   2.106
 4335SOL     OW13903   3.762   2.795   1.852
 4335SOL    HW113904   3.840   2.848   1.819
 4335SOL    HW213905   3.763   2.795   1.952
 4336SOL     OW13906   2.572   5.318   5.705
 4336SOL    HW113907   2.601   5.345   5.797
 4336SOL    HW213908   2.646   5.333   5.641
 4337SOL     OW13909   2.295   4.770   1.416
 4337SOL    HW113910   2.292   4.861   1.376
 4337SOL    HW213911   2.296   4.777   1.516
 4338SOL     OW13912   6.146   0.354   6.542
 4338SOL    HW113913   6.119   0.375   6.448
 4338SOL    HW213914   6.237   0.392   6.560
 4339SOL     OW13915   3.793   2.384   6.384
 4339SOL    HW113916   3.745   2.469   6.361
 4339SOL    HW213917   3.873   2.374   6.325
 4340SOL     OW13918   5.857   3.629   0.939
 4340SOL    HW113919   5.809   3.616   0.853
 4340SOL    HW213920   5.815   3.704   0.990
 4341SOL     OW13921   1.359   4.918   1.381
 4341SOL    HW113922   1.280   4.866   1.414
 4341SOL    HW213923   1.327   4.994   1.323
 4342SOL     OW13924   5.172   3.393   3.024
 4342SOL    HW113925   5.268   3.410   2.999
 4342SOL    HW213926   5.130   3.334   2.955
 4343SOL     OW13927   3.130   6.229   5.030
 4343SOL    HW113928   3.098   6.157   5.091
 4343SOL    HW213929   3.217   6.266   5.064
 4344SOL     OW13930   1.035   2.928   3.100
 4344SOL    HW113931   1.013   2.830   3.091
 4344SOL    HW213932   0.955   2.977   3.132
 4345SOL     OW13933   3.158   3.242   4.648
 4345SOL    HW113934   3.087   3.245   4.577
 4345SOL    HW213935   3.205   3.154   4.644
 4346SOL     OW13936   2.237   2.814   2.243
 4346SOL    HW113937   2.255   2.721   2.209
 4346SOL    HW213938   2.263   2.881   2.174
 4347SOL     OW13939   5.933   6.851   2.360
 4347SOL    HW113940   5.927   6.892   2.451
 4347SOL    HW213941   5.993   6.907   2.302
 4348SOL     OW13942   0.676   5.844   4.220
 4348SOL    HW113943   0.655   5.803   4.131
 4348SOL    HW213944   0.774   5.834   4.239
 4349SOL     OW13945   6.926   2.921   3.899
 4349SOL    HW113946   6.907   2.947   3.994
 4349SOL    HW213947   6.859   2.854   3.869
 4350SOL     OW13948   4.757   2.373   4.282
 4350SOL    HW113949   4.774   2.283   4.243
 4350SOL    HW213950   4.670   2.409   4.247
 4351SOL     OW13951   1.291   5.917   1.153
 4351SOL    HW113952   1.274   5.822   1.128
 4351SOL    HW213953   1.358   5.920   1.228
 4352SOL     OW13954   6.302   3.970   1.786
 4352SOL    HW113955   6.337   4.020   1.706
 4352SOL    HW213956   6.209   4.002   1.806
 4353SOL     OW13957   3.396   3.738   0.356
 4353SOL    HW113958   3.313   3.716   0.407
 4353SOL    HW213959   3.384   3.826   0.309
 4354SOL     OW13960   1.241   1.825   6.205
 4354SOL    HW113961   1.235   1.845   6.303
 4354SOL    HW213962   1.165   1.766   6.179
 4355SOL     OW13963   1.946   0.006   2.760
 4355SOL    HW113964   2.042   7.002   2.766
 4355SOL    HW213965   1.912   0.028   2.852
 4356SOL     OW13966   4.572   3.631   5.415
 4356SOL    HW113967   4.605   3.577   5.492
 4356SOL    HW213968   4.630   3.614   5.335
 4357SOL     OW13969   6.893   1.613   1.154
 4357SOL    HW113970   6.915   1.606   1.251
 4357SOL    HW213971   6.978   1.615   1.101
 4358SOL     OW13972   0.002   0.047   0.210
 4358SOL    HW113973   6.973   0.121   0.166
 4358SOL    HW213974   6.961   6.993   0.232
 4359SOL     OW13975   1.488   1.361   6.756
 4359SOL    HW113976   1.474   1.263   6.769
 4359SOL    HW213977   1.416   1.411   6.803
 4360SOL     OW13978   0.686   2.610   4.591
 4360SOL    HW113979   0.600   2.621   4.640
 4360SOL    HW213980   0.724   2.520   4.609
 4361SOL     OW13981   2.061   3.745   1.331
 4361SOL    HW113982   2.096   3.658   1.297
 4361SOL    HW213983   2.138   3.805   1.353
 4362SOL     OW13984   0.144   5.732   3.790
 4362SOL    HW113985   0.060   5.681   3.805
 4362SOL    HW213986   0.210   5.675   3.740
 4363SOL     OW13987   4.598   1.432   2.279
 4363SOL    HW113988   4.559   1.340   2.275
 4363SOL    HW213989   4.608   1.467   2.186
 4364SOL     OW13990   3.093   3.979   3.202
 4364SOL    HW113991   3.012   3.995   3.145
 4364SOL    HW213992   3.176   3.986   3.147
 4365SOL     OW13993   2.995   0.499   2.045
 4365SOL    HW113994   2.975   0.429   2.114
 4365SOL    HW213995   3.068   0.558   2.078
 4366SOL     OW13996   5.886   6.141   6.567
 4366SOL    HW113997   5.915   6.121   6.660
 4366SOL    HW213998   5.956   6.109   6.502
 4367SOL     OW13999   3.054   4.965   3.569
 4367SOL    HW114000   2.995   4.920   3.635
 4367SOL    HW214001   3.046   4.919   3.480
 4368SOL     OW14002   3.984   5.343   2.128
 4368SOL    HW114003   3.984   5.427   2.073
 4368SOL    HW214004   3.893   5.328   2.166
 4369SOL     OW14005   4.912   5.184   3.274
 4369SOL    HW114006   4.928   5.137   3.187
 4369SOL    HW214007   4.985   5.251   3.290
 4370SOL     OW14008   3.524   4.039   1.609
 4370SOL    HW114009   3.563   3.987   1.685
 4370SOL    HW214010   3.434   4.001   1.586
 4371SOL     OW14011   2.108   1.503   3.229
 4371SOL    HW114012   2.136   1.562   3.153
 4371SOL    HW214013   2.182   1.498   3.296
 4372SOL     OW14014   2.219   3.063   3.844
 4372SOL    HW114015   2.187   3.157   3.837
 4372SOL    HW214016   2.208   3.030   3.938
 4373SOL     OW14017   4.549   0.755   6.475
 4373SOL    HW114018   4.551   0.845   6.431
 4373SOL    HW214019   4.643   0.728   6.498
 4374SOL     OW14020   2.158   1.833   1.302
 4374SOL    HW114021   2.239   1.797   1.348
 4374SOL    HW214022   2.095   1.758   1.282
 4375SOL     OW14023   4.209   6.390   2.883
 4375SOL    HW114024   4.277   6.463   2.875
 4375SOL    HW214025   4.153   6.387   2.801
 4376SOL     OW14026   6.401   0.618   1.652
 4376SOL    HW114027   6.495   0.654   1.657
 4376SOL    HW214028   6.382   0.564   1.733
 4377SOL     OW14029   6.182   5.749   0.814
 4377SOL    HW114030   6.149   5.822   0.874
 4377SOL    HW214031   6.274   5.771   0.782
 4378SOL     OW14032   1.390   4.378   2.748
 4378SOL    HW114033   1.320   4.444   2.719
 4378SOL    HW214034   1.352   4.319   2.819
 4379SOL     OW14035   2.374   1.125   1.583
 4379SOL    HW114036   2.292   1.079   1.549
 4379SOL    HW214037   2.449   1.058   1.589
 4380SOL     OW14038   1.773   6.320   4.394
 4380SOL    HW114039   1.745   6.374   4.473
 4380SOL    HW214040   1.728   6.356   4.312
 4381SOL     OW14041   2.237   4.184   4.847
 4381SOL    HW114042   2.203   4.127   4.773
 4381SOL    HW214043   2.268   4.125   4.922
 4382SOL     OW14044   5.803   3.915   6.300
 4382SOL    HW114045   5.803   3.930   6.201
 4382SOL    HW214046   5.829   4.000   6.346
 4383SOL     OW14047   0.304   2.699   5.525
 4383SOL    HW114048   0.270   2.606   5.535
 4383SOL    HW214049   0.402   2.701   5.542
 4384SOL     OW14050   5.343   0.923   6.769
 4384SOL    HW114051   5.327   1.020   6.789
 4384SOL    HW214052   5.273   0.868   6.815
 4385SOL     OW14053   0.120   2.930   4.503
 4385SOL    HW114054   0.137   2.979   4.588
 4385SOL    HW214055   0.025   2.946   4.474
 4386SOL     OW14056   0.897   3.346   6.861
 4386SOL    HW114057   0.908   3.344   6.762
 4386SOL    HW214058   0.840   3.423   6.887
 4387SOL     OW14059   0.923   2.169   1.725
 4387SOL    HW114060   0.892   2.264   1.726
 4387SOL    HW214061   0.843   2.108   1.723
 4388SOL     OW14062   5.102   0.978   6.554
 4388SOL    HW114063   5.060   0.936   6.635
 4388SOL    HW214064   5.065   1.069   6.541
 4389SOL     OW14065   5.558   1.627   0.564
 4389SOL    HW114066   5.480   1.623   0.502
 4389SOL    HW214067   5.627   1.689   0.526
 4390SOL     OW14068   3.632   2.082   2.263
 4390SOL    HW114069   3.555   2.017   2.260
 4390SOL    HW214070   3.632   2.137   2.179
 4391SOL     OW14071   1.548   5.362   6.490
 4391SOL    HW114072   1.642   5.377   6.459
 4391SOL    HW214073   1.550   5.316   6.579
 4392SOL     OW14074   6.082   3.473   5.030
 4392SOL    HW114075   6.013   3.535   4.992
 4392SOL    HW214076   6.170   3.520   5.034
 4393SOL     OW14077   5.258   6.622   2.883
 4393SOL    HW114078   5.159   6.634   2.875
 4393SOL    HW214079   5.277   6.560   2.960
 4394SOL     OW14080   6.372   5.347   2.825
 4394SOL    HW114081   6.447   5.302   2.777
 4394SOL    HW214082   6.390   5.445   2.830
 4395SOL     OW14083   4.135   1.732   2.054
 4395SOL    HW114084   4.185   1.648   2.032
 4395SOL    HW214085   4.054   1.709   2.108
 4396SOL     OW14086   2.633   2.045   3.879
 4396SOL    HW114087   2.672   1.994   3.956
 4396SOL    HW214088   2.660   2.141   3.886
 4397SOL     OW14089   0.346   1.400   4.734
 4397SOL    HW114090   0.379   1.418   4.642
 4397SOL    HW214091   0.321   1.486   4.778
 4398SOL     OW14092   1.127   4.462   5.064
 4398SOL    HW114093   1.184   4.385   5.035
 4398SOL    HW214094   1.124   4.530   4.991
 4399SOL     OW14095   2.269   0.327   2.113
 4399SOL    HW114096   2.229   0.238   2.089
 4399SOL    HW214097   2.242   0.352   2.206
 4400SOL     OW14098   2.063   6.553   4.715
 4400SOL    HW114099   2.013   6.599   4.641
 4400SOL    HW214100   2.057   6.454   4.703
 4401SOL     OW14101   5.670   6.124   6.399
 4401SOL    HW114102   5.677   6.216   6.360
 4401SOL    HW214103   5.738   6.112   6.471
 4402SOL     OW14104   1.848   5.820   2.633
 4402SOL    HW114105   1.760   5.780   2.609
 4402SOL    HW214106   1.835   5.914   2.665
 4403SOL     OW14107   0.049   6.839   3.865
 4403SOL    HW114108   0.112   6.883   3.929
 4403SOL    HW214109   0.035   6.744   3.892
 4404SOL     OW14110   0.816   4.226   5.525
 4404SOL    HW114111   0.895   4.195   5.578
 4404SOL    HW214112   0.773   4.304   5.571
 4405SOL     OW14113   3.017   3.925   0.454
 4405SOL    HW114114   3.048   4.011   0.414
 4405SOL    HW214115   3.001   3.858   0.382
 4406SOL     OW14116   5.785   4.493   1.601
 4406SOL    HW114117   5.707   4.480   1.662
 4406SOL    HW214118   5.818   4.587   1.608
 4407SOL     OW14119   0.059   4.752   0.412
 4407SOL    HW114120   0.069   4.841   0.457
 4407SOL    HW214121   0.133   4.692   0.441
 4408SOL     OW14122   4.980   0.878   0.868
 4408SOL    HW114123   5.042   0.846   0.940
 4408SOL    HW214124   4.886   0.858   0.895
 4409SOL     OW14125   3.934   0.865   2.296
 4409SOL    HW114126   4.012   0.813   2.333
 4409SOL    HW214127   3.850   0.812   2.308
 4410SOL     OW14128   1.769   4.847   0.352
 4410SOL    HW114129   1.813   4.815   0.268
 4410SOL    HW214130   1.768   4.773   0.420
 4411SOL     OW14131   3.970   3.315   3.622
 4411SOL    HW114132   4.006   3.278   3.708
 4411SOL    HW214133   4.042   3.369   3.577
 4412SOL     OW14134   3.608   1.475   4.519
 4412SOL    HW114135   3.679   1.536   4.485
 4412SOL    HW214136   3.543   1.455   4.445
 4413SOL     OW14137   4.837   5.909   4.840
 4413SOL    HW114138   4.866   5.996   4.802
 4413SOL    HW214139   4.910   5.841   4.828
 4414SOL     OW14140   4.148   4.769   1.860
 4414SOL    HW114141   4.071   4.748   1.800
 4414SOL    HW214142   4.229   4.721   1.828
 4415SOL     OW14143   4.045   3.951   6.264
 4415SOL    HW114144   4.084   4.041   6.278
 4415SOL    HW214145   3.955   3.947   6.306
 4416SOL     OW14146   3.212   0.384   4.702
 4416SOL    HW114147   3.252   0.293   4.707
 4416SOL    HW214148   3.193   0.407   4.607
 4417SOL     OW14149   6.902   4.372   2.865
 4417SOL    HW114150   6.840   4.295   2.883
 4417SOL    HW214151   6.851   4.458   2.871
 4418SOL     OW14152   5.353   0.754   4.216
 4418SOL    HW114153   5.423   0.731   4.148
 4418SOL    HW214154   5.263   0.740   4.176
 4419SOL     OW14155   5.886   6.186   0.331
 4419SOL    HW114156   5.812   6.251   0.314
 4419SOL    HW214157   5.847   6.097   0.358
 4420SOL     OW14158   5.110   1.746   1.087
 4420SOL    HW114159   5.167   1.800   1.025
 4420SOL    HW214160   5.017   1.782   1.088
 4421SOL     OW14161   1.981   1.203   3.453
 4421SOL    HW114162   1.980   1.122   3.511
 4421SOL    HW214163   2.048   1.191   3.380
 4422SOL     OW14164   2.246   3.586   5.844
 4422SOL    HW114165   2.317   3.627   5.786
 4422SOL    HW214166   2.158   3.631   5.826
 4423SOL     OW14167   1.405   2.986   6.063
 4423SOL    HW114168   1.445   3.065   6.108
 4423SOL    HW214169   1.411   2.906   6.123
 4424SOL     OW14170   5.560   6.563   3.976
 4424SOL    HW114171   5.466   6.595   3.988
 4424SOL    HW214172   5.618   6.602   4.048
 4425SOL     OW14173   3.502   5.535   5.739
 4425SOL    HW114174   3.517   5.534   5.640
 4425SOL    HW214175   3.451   5.617   5.764
 4426SOL     OW14176   0.063   1.890   4.732
 4426SOL    HW114177   0.129   1.815   4.735
 4426SOL    HW214178   0.092   1.957   4.665
 4427SOL     OW14179   6.818   6.757   2.865
 4427SOL    HW114180   6.898   6.808   2.896
 4427SOL    HW214181   6.756   6.743   2.941
 4428SOL     OW14182   3.036   5.101   2.518
 4428SOL    HW114183   3.109   5.162   2.487
 4428SOL    HW214184   3.074   5.010   2.533
 4429SOL     OW14185   3.082   0.655   4.356
 4429SOL    HW114186   3.163   0.620   4.404
 4429SOL    HW214187   3.001   0.605   4.386
 4430SOL     OW14188   5.604   2.983   3.878
 4430SOL    HW114189   5.684   3.013   3.827
 4430SOL    HW214190   5.633   2.931   3.958
 4431SOL     OW14191   1.516   1.198   2.128
 4431SOL    HW114192   1.472   1.278   2.088
 4431SOL    HW214193   1.551   1.139   2.055
 4432SOL     OW14194   3.130   3.956   3.712
 4432SOL    HW114195   3.089   3.932   3.624
 4432SOL    HW214196   3.212   4.010   3.697
 4433SOL     OW14197   6.148   0.615   4.623
 4433SOL    HW114198   6.157   0.662   4.711
 4433SOL    HW214199   6.190   0.524   4.630
 4434SOL     OW14200   4.047   2.221   3.334
 4434SOL    HW114201   4.087   2.131   3.353
 4434SOL    HW214202   4.082   2.255   3.246
 4435SOL     OW14203   4.429   3.865   0.810
 4435SOL    HW114204   4.342   3.901   0.844
 4435SOL    HW214205   4.489   3.846   0.888
 4436SOL     OW14206   3.380   2.452   0.775
 4436SOL    HW114207   3.471   2.473   0.739
 4436SOL    HW214208   3.342   2.374   0.726
 4437SOL     OW14209   5.446   1.180   3.803
 4437SOL    HW114210   5.440   1.100   3.863
 4437SOL    HW214211   5.522   1.167   3.739
 4438SOL     OW14212   4.228   1.043   6.796
 4438SOL    HW114213   4.245   1.069   6.700
 4438SOL    HW214214   4.174   1.114   6.841
 4439SOL     OW14215   0.414   6.102   1.128
 4439SOL    HW114216   0.331   6.110   1.182
 4439SOL    HW214217   0.494   6.108   1.187
 4440SOL     OW14218   1.615   4.446   0.296
 4440SOL    HW114219   1.678   4.368   0.305
 4440SOL    HW214220   1.641   4.517   0.361
 4441SOL     OW14221   6.686   1.877   2.921
 4441SOL    HW114222   6.760   1.924   2.873
 4441SOL    HW214223   6.674   1.785   2.884
 4442SOL     OW14224   3.074   6.164   4.181
 4442SOL    HW114225   3.028   6.080   4.210
 4442SOL    HW214226   3.150   6.184   4.244
 4443SOL     OW14227   0.177   2.899   0.569
 4443SOL    HW114228   0.262   2.872   0.616
 4443SOL    HW214229   0.153   2.830   0.501
 4444SOL     OW14230   3.683   5.678   6.069
 4444SOL    HW114231   3.751   5.710   6.134
 4444SOL    HW214232   3.728   5.639   5.989
 4445SOL     OW14233   0.151   0.521   0.851
 4445SOL    HW114234   0.209   0.569   0.916
 4445SOL    HW214235   0.198   0.440   0.817
 4446SOL     OW14236   5.819   1.577   1.898
 4446SOL    HW114237   5.738   1.552   1.952
 4446SOL    HW214238   5.899   1.580   1.957
 4447SOL     OW14239   6.021   3.756   6.000
 4447SOL    HW114240   5.981   3.848   6.004
 4447SOL    HW214241   6.082   3.743   6.078
 4448SOL     OW14242   3.458   4.119   1.096
 4448SOL    HW114243   3.433   4.023   1.100
 4448SOL    HW214244   3.557   4.128   1.087
 4449SOL     OW14245   4.094   0.554   6.035
 4449SOL    HW114246   4.115   0.551   5.937
 4449SOL    HW214247   4.176   0.581   6.086
 4450SOL     OW14248   4.138   3.480   4.440
 4450SOL    HW114249   4.230   3.483   4.481
 4450SOL    HW214250   4.090   3.565   4.460
 4451SOL     OW14251   5.547   3.900   2.887
 4451SOL    HW114252   5.561   3.973   2.955
 4451SOL    HW214253   5.450   3.890   2.868
 4452SOL     OW14254   5.597   6.688   5.352
 4452SOL    HW114255   5.643   6.740   5.279
 4452SOL    HW214256   5.630   6.594   5.351
 4453SOL     OW14257   6.360   2.449   1.003
 4453SOL    HW114258   6.420   2.503   0.943
 4453SOL    HW214259   6.319   2.508   1.072
 4454SOL     OW14260   4.943   2.114   6.985
 4454SOL    HW114261   5.001   2.126   6.904
 4454SOL    HW214262   4.983   2.044   0.024
 4455SOL     OW14263   3.693   0.362   6.206
 4455SOL    HW114264   3.620   0.415   6.250
 4455SOL    HW214265   3.768   0.424   6.181
 4456SOL     OW14266   2.773   5.030   2.521
 4456SOL    HW114267   2.869   5.053   2.506
 4456SOL    HW214268   2.766   4.939   2.562
 4457SOL     OW14269   4.372   2.172   0.246
 4457SOL    HW114270   4.277   2.181   0.219
 4457SOL    HW214271   4.379   2.114   0.327
 4458SOL     OW14272   1.128   3.776   6.888
 4458SOL    HW114273   1.116   3.725   6.973
 4458SOL    HW214274   1.214   3.828   6.893
 4459SOL     OW14275   5.091   0.727   3.303
 4459SOL    HW114276   4.994   0.721   3.282
 4459SOL    HW214277   5.112   0.818   3.338
 4460SOL     OW14278   2.756   3.141   5.522
 4460SOL    HW114279   2.823   3.197   5.570
 4460SOL    HW214280   2.691   3.102   5.587
 4461SOL     OW14281   0.743   0.878   2.555
 4461SOL    HW114282   0.814   0.941   2.522
 4461SOL    HW214283   0.757   0.861   2.652
 4462SOL     OW14284   0.021   3.598   1.810
 4462SOL    HW114285   0.119   3.589   1.790
 4462SOL    HW214286   7.006   3.678   1.762
 4463SOL     OW14287   2.683   2.951   6.829
 4463SOL    HW114288   2.668   3.049   6.819
 4463SOL    HW214289   2.742   2.934   6.908
 4464SOL     OW14290   6.040   4.762   6.655
 4464SOL    HW114291   6.042   4.862   6.645
 4464SOL    HW214292   6.040   4.739   6.752
 4465SOL     OW14293   2.184   5.607   3.488
 4465SOL    HW114294   2.153   5.602   3.583
 4465SOL    HW214295   2.209   5.701   3.466
 4466SOL     OW14296   1.410   0.634   1.851
 4466SOL    HW114297   1.393   0.732   1.852
 4466SOL    HW214298   1.433   0.604   1.944
 4467SOL     OW14299   1.233   6.470   3.557
 4467SOL    HW114300   1.143   6.498   3.592
 4467SOL    HW214301   1.299   6.543   3.572
 4468SOL     OW14302   1.452   2.624   0.691
 4468SOL    HW114303   1.545   2.655   0.707
 4468SOL    HW214304   1.407   2.684   0.625
 4469SOL     OW14305   3.582   0.345   1.542
 4469SOL    HW114306   3.661   0.311   1.492
 4469SOL    HW214307   3.519   0.270   1.560
 4470SOL     OW14308   6.446   3.758   1.874
 4470SOL    HW114309   6.410   3.682   1.928
 4470SOL    HW214310   6.370   3.818   1.847
 4471SOL     OW14311   0.040   1.651   0.458
 4471SOL    HW114312   0.001   1.678   0.370
 4471SOL    HW214313   0.045   1.552   0.464
 4472SOL     OW14314   1.708   2.884   3.492
 4472SOL    HW114315   1.725   2.889   3.394
 4472SOL    HW214316   1.762   2.954   3.539
 4473SOL     OW14317   6.465   1.865   3.210
 4473SOL    HW114318   6.539   1.915   3.165
 4473SOL    HW214319   6.391   1.927   3.232
 4474SOL     OW14320   3.288   0.920   1.786
 4474SOL    HW114321   3.208   0.875   1.825
 4474SOL    HW214322   3.354   0.851   1.755
 4475SOL     OW14323   1.679   3.829   2.713
 4475SOL    HW114324   1.634   3.823   2.624
 4475SOL    HW214325   1.750   3.760   2.719
 4476SOL     OW14326   5.102   6.514   3.715
 4476SOL    HW114327   5.151   6.461   3.784
 4476SOL    HW214328   5.008   6.481   3.709
 4477SOL     OW14329   1.784   0.143   5.430
 4477SOL    HW114330   1.834   0.119   5.347
 4477SOL    HW214331   1.844   0.193   5.492
 4478SOL     OW14332   3.120   5.917   2.229
 4478SOL    HW114333   3.036   5.954   2.190
 4478SOL    HW214334   3.104   5.891   2.325
 4479SOL     OW14335   0.860   0.133   1.141
 4479SOL    HW114336   0.774   0.141   1.191
 4479SOL    HW214337   0.859   0.196   1.063
 4480SOL     OW14338   1.709   3.708   5.422
 4480SOL    HW114339   1.797   3.754   5.431
 4480SOL    HW214340   1.697   3.678   5.327
 4481SOL     OW14341   2.926   0.045   5.153
 4481SOL    HW114342   3.001   0.105   5.126
 4481SOL    HW214343   2.875   0.017   5.072
 4482SOL     OW14344   0.334   4.078   4.097
 4482SOL    HW114345   0.413   4.102   4.041
 4482SOL    HW214346   0.250   4.108   4.051
 4483SOL     OW14347   5.568   3.220   1.443
 4483SOL    HW114348   5.665   3.222   1.469
 4483SOL    HW214349   5.513   3.261   1.515
 4484SOL     OW14350   3.015   2.466   5.350
 4484SOL    HW114351   3.002   2.428   5.442
 4484SOL    HW214352   3.102   2.435   5.313
 4485SOL     OW14353   5.395   2.302   6.081
 4485SOL    HW114354   5.381   2.401   6.092
 4485SOL    HW214355   5.486   2.286   6.043
 4486SOL     OW14356   5.475   3.657   4.640
 4486SOL    HW114357   5.494   3.559   4.643
 4486SOL    HW214358   5.512   3.701   4.722
 4487SOL     OW14359   2.704   3.156   6.580
 4487SOL    HW114360   2.717   3.064   6.616
 4487SOL    HW214361   2.728   3.223   6.650
 4488SOL     OW14362   5.863   3.150   5.280
 4488SOL    HW114363   5.777   3.156   5.330
 4488SOL    HW214364   5.938   3.137   5.345
 4489SOL     OW14365   5.285   5.947   4.733
 4489SOL    HW114366   5.384   5.965   4.739
 4489SOL    HW214367   5.270   5.858   4.691
 4490SOL     OW14368   6.044   2.488   2.310
 4490SOL    HW114369   6.124   2.499   2.369
 4490SOL    HW214370   6.056   2.542   2.227
 4491SOL     OW14371   0.317   3.102   3.688
 4491SOL    HW114372   0.285   3.173   3.624
 4491SOL    HW214373   0.402   3.132   3.731
 4492SOL     OW14374   4.965   3.188   0.781
 4492SOL    HW114375   4.873   3.193   0.819
 4492SOL    HW214376   4.975   3.256   0.708
 4493SOL     OW14377   4.715   6.161   5.939
 4493SOL    HW114378   4.700   6.064   5.920
 4493SOL    HW214379   4.782   6.198   5.874
 4494SOL     OW14380   6.634   1.676   5.623
 4494SOL    HW114381   6.633   1.576   5.633
 4494SOL    HW214382   6.611   1.718   5.711
 4495SOL     OW14383   4.583   6.174   3.991
 4495SOL    HW114384   4.618   6.095   4.041
 4495SOL    HW214385   4.598   6.257   4.044
 4496SOL     OW14386   4.328   5.876   1.007
 4496SOL    HW114387   4.410   5.931   1.025
 4496SOL    HW214388   4.257   5.899   1.074
 4497SOL     OW14389   4.794   0.430   0.062
 4497SOL    HW114390   4.797   0.342   0.013
 4497SOL    HW214391   4.879   0.442   0.113
 4498SOL     OW14392   0.510   3.007   6.271
 4498SOL    HW114393   0.422   2.973   6.304
 4498SOL    HW214394   0.495   3.072   6.196
 4499SOL     OW14395   0.271   3.497   3.887
 4499SOL    HW114396   0.297   3.505   3.983
 4499SOL    HW214397   0.353   3.480   3.832
 4500SOL     OW14398   3.115   3.474   4.274
 4500SOL    HW114399   3.048   3.548   4.271
 4500SOL    HW214400   3.200   3.503   4.230
 4501SOL     OW14401   0.320   3.281   5.912
 4501SOL    HW114402   0.393   3.213   5.921
 4501SOL    HW214403   0.353   3.370   5.945
 4502SOL     OW14404   2.006   2.107   6.561
 4502SOL    HW114405   1.985   2.076   6.468
 4502SOL    HW214406   1.981   2.036   6.626
 4503SOL     OW14407   3.465   0.094   2.613
 4503SOL    HW114408   3.430   0.057   2.699
 4503SOL    HW214409   3.411   0.058   2.537
 4504SOL     OW14410   6.622   1.491   4.716
 4504SOL    HW114411   6.528   1.524   4.718
 4504SOL    HW214412   6.682   1.560   4.758
 4505SOL     OW14413   6.508   5.763   3.287
 4505SOL    HW114414   6.557   5.801   3.208
 4505SOL    HW214415   6.499   5.833   3.358
 4506SOL     OW14416   4.516   2.457   4.140
 4506SOL    HW114417   4.421   2.429   4.154
 4506SOL    HW214418   4.554   2.412   4.060
 4507SOL     OW14419   5.507   4.503   2.109
 4507SOL    HW114420   5.501   4.488   2.207
 4507SOL    HW214421   5.427   4.556   2.079
 4508SOL     OW14422   0.611   5.265   5.841
 4508SOL    HW114423   0.543   5.326   5.799
 4508SOL    HW214424   0.693   5.316   5.863
 4509SOL     OW14425   5.422   2.536   3.748
 4509SOL    HW114426   5.344   2.549   3.810
 4509SOL    HW214427   5.507   2.542   3.800
 4510SOL     OW14428   4.835   0.418   5.565
 4510SOL    HW114429   4.911   0.454   5.512
 4510SOL    HW214430   4.864   0.337   5.615
 4511SOL     OW14431   6.619   3.754   6.614
 4511SOL    HW114432   6.695   3.702   6.576
 4511SOL    HW214433   6.644   3.789   6.704
 4512SOL     OW14434   2.341   6.690   5.498
 4512SOL    HW114435   2.291   6.608   5.525
 4512SOL    HW214436   2.277   6.765   5.480
 4513SOL     OW14437   4.989   6.599   0.471
 4513SOL    HW114438   4.917   6.535   0.444
 4513SOL    HW214439   4.951   6.669   0.531
 4514SOL     OW14440   5.028   1.049   5.564
 4514SOL    HW114441   5.040   1.063   5.465
 4514SOL    HW214442   5.040   1.136   5.611
 4515SOL     OW14443   6.766   3.837   5.581
 4515SOL    HW114444   6.834   3.806   5.647
 4515SOL    HW214445   6.813   3.881   5.504
 4516SOL     OW14446   1.686   0.979   6.122
 4516SOL    HW114447   1.629   1.049   6.165
 4516SOL    HW214448   1.779   0.986   6.158
 4517SOL     OW14449   1.967   0.367   6.918
 4517SOL    HW114450   1.890   0.381   6.856
 4517SOL    HW214451   1.996   0.455   6.956
 4518SOL     OW14452   6.617   1.520   3.552
 4518SOL    HW114453   6.576   1.441   3.597
 4518SOL    HW214454   6.544   1.576   3.511
 4519SOL     OW14455   5.257   6.973   1.718
 4519SOL    HW114456   5.349   6.939   1.697
 4519SOL    HW214457   5.247   6.986   1.816
 4520SOL     OW14458   5.425   5.649   3.697
 4520SOL    HW114459   5.522   5.625   3.690
 4520SOL    HW214460   5.370   5.570   3.669
 4521SOL     OW14461   5.211   1.905   4.345
 4521SOL    HW114462   5.250   1.995   4.365
 4521SOL    HW214463   5.171   1.906   4.254
 4522SOL     OW14464   5.826   6.912   4.022
 4522SOL    HW114465   5.925   6.924   4.032
 4522SOL    HW214466   5.805   6.881   3.929
 4523SOL     OW14467   1.100   4.350   0.011
 4523SOL    HW114468   1.041   4.365   6.952
 4523SOL    HW214469   1.051   4.376   0.094
 4524SOL     OW14470   5.075   2.141   4.838
 4524SOL    HW114471   5.142   2.130   4.764
 4524SOL    HW214472   4.984   2.152   4.798
 4525SOL     OW14473   6.143   1.285   3.232
 4525SOL    HW114474   6.100   1.212   3.179
 4525SOL    HW214475   6.201   1.340   3.171
 4526SOL     OW14476   5.073   0.588   0.794
 4526SOL    HW114477   4.978   0.606   0.768
 4526SOL    HW214478   5.131   0.662   0.762
 4527SOL     OW14479   4.210   0.849   4.091
 4527SOL    HW114480   4.113   0.848   4.113
 4527SOL    HW214481   4.249   0.938   4.112
 4528SOL     OW14482   4.426   6.706   0.221
 4528SOL    HW114483   4.346   6.710   0.163
 4528SOL    HW214484   4.464   6.613   0.220
 4529SOL     OW14485   3.246   1.642   4.662
 4529SOL    HW114486   3.268   1.606   4.571
 4529SOL    HW214487   3.204   1.732   4.652
 4530SOL     OW14488   7.013   3.360   5.705
 4530SOL    HW114489   7.000   3.445   5.653
 4530SOL    HW214490   0.032   3.290   5.646
 4531SOL     OW14491   0.748   3.090   3.420
 4531SOL    HW114492   0.710   3.182   3.427
 4531SOL    HW214493   0.829   3.083   3.478
 4532SOL     OW14494   6.744   1.162   2.472
 4532SOL    HW114495   6.775   1.086   2.528
 4532SOL    HW214496   6.692   1.226   2.528
 4533SOL     OW14497   1.066   0.508   2.490
 4533SOL    HW114498   0.994   0.490   2.557
 4533SOL    HW214499   1.155   0.498   2.534
 4534SOL     OW14500   6.012   4.009   4.445
 4534SOL    HW114501   6.009   4.102   4.483
 4534SOL    HW214502   5.960   4.006   4.360
 4535SOL     OW14503   4.935   2.042   2.526
 4535SOL    HW114504   4.981   2.102   2.591
 4535SOL    HW214505   4.839   2.030   2.553
 4536SOL     OW14506   4.757   2.436   3.976
 4536SOL    HW114507   4.813   2.514   4.005
 4536SOL    HW214508   4.813   2.370   3.926
 4537SOL     OW14509   4.146   3.192   5.717
 4537SOL    HW114510   4.193   3.160   5.799
 4537SOL    HW214511   4.138   3.292   5.720
 4538SOL     OW14512   2.539   0.778   4.577
 4538SOL    HW114513   2.603   0.831   4.521
 4538SOL    HW214514   2.591   0.722   4.642
 4539SOL     OW14515   2.076   0.564   4.278
 4539SOL    HW114516   2.075   0.471   4.316
 4539SOL    HW214517   2.145   0.569   4.205
 4540SOL     OW14518   3.288   2.982   4.551
 4540SOL    HW114519   3.294   2.955   4.647
 4540SOL    HW214520   3.375   2.961   4.505
 4541SOL     OW14521   5.539   1.093   0.440
 4541SOL    HW114522   5.538   1.187   0.476
 4541SOL    HW214523   5.610   1.085   0.370
 4542SOL     OW14524   6.202   6.674   2.042
 4542SOL    HW114525   6.276   6.608   2.043
 4542SOL    HW214526   6.190   6.710   1.950
 4543SOL     OW14527   5.354   2.299   0.577
 4543SOL    HW114528   5.403   2.219   0.610
 4543SOL    HW214529   5.307   2.343   0.655
 4544SOL     OW14530   3.025   6.577   5.402
 4544SOL    HW114531   3.005   6.522   5.321
 4544SOL    HW214532   3.031   6.673   5.376
 4545SOL     OW14533   5.875   2.562   4.663
 4545SOL    HW114534   5.950   2.502   4.689
 4545SOL    HW214535   5.867   2.637   4.728
 4546SOL     OW14536   1.495   1.626   6.323
 4546SOL    HW114537   1.436   1.571   6.382
 4546SOL    HW214538   1.541   1.566   6.258
 4547SOL     OW14539   6.542   2.477   3.042
 4547SOL    HW114540   6.455   2.450   3.083
 4547SOL    HW214541   6.577   2.559   3.086
 4548SOL     OW14542   1.553   4.289   4.985
 4548SOL    HW114543   1.630   4.351   4.969
 4548SOL    HW214544   1.557   4.256   5.079
 4549SOL     OW14545   6.109   4.057   2.213
 4549SOL    HW114546   6.159   4.112   2.280
 4549SOL    HW214547   6.133   3.961   2.224
 4550SOL     OW14548   0.775   5.851   2.638
 4550SOL    HW114549   0.750   5.861   2.541
 4550SOL    HW214550   0.771   5.940   2.683
 4551SOL     OW14551   6.518   1.816   5.832
 4551SOL    HW114552   6.456   1.739   5.846
 4551SOL    HW214553   6.474   1.900   5.864
 4552SOL     OW14554   6.600   2.864   0.195
 4552SOL    HW114555   6.634   2.844   0.287
 4552SOL    HW214556   6.673   2.905   0.141
 4553SOL     OW14557   3.845   4.268   0.129
 4553SOL    HW114558   3.889   4.201   0.069
 4553SOL    HW214559   3.902   4.286   0.208
 4554SOL     OW14560   4.331   0.893   1.788
 4554SOL    HW114561   4.391   0.939   1.855
 4554SOL    HW214562   4.260   0.843   1.837
 4555SOL     OW14563   3.422   1.804   5.615
 4555SOL    HW114564   3.439   1.880   5.552
 4555SOL    HW214565   3.334   1.816   5.660
 4556SOL     OW14566   4.711   2.270   3.501
 4556SOL    HW114567   4.661   2.355   3.492
 4556SOL    HW214568   4.803   2.280   3.462
 4557SOL     OW14569   5.401   0.133   5.458
 4557SOL    HW114570   5.346   0.213   5.431
 4557SOL    HW214571   5.491   0.163   5.488
 4558SOL     OW14572   6.678   3.580   5.649
 4558SOL    HW114573   6.680   3.592   5.748
 4558SOL    HW214574   6.694   3.668   5.604
 4559SOL     OW14575   0.487   4.578   1.269
 4559SOL    HW114576   0.565   4.550   1.213
 4559SOL    HW214577   0.444   4.498   1.310
 4560SOL     OW14578   4.738   4.708   4.018
 4560SOL    HW114579   4.729   4.661   3.930
 4560SOL    HW214580   4.695   4.798   4.012
 4561SOL     OW14581   2.815   0.678   1.142
 4561SOL    HW114582   2.894   0.740   1.136
 4561SOL    HW214583   2.830   0.614   1.217
 4562SOL     OW14584   3.110   6.042   5.216
 4562SOL    HW114585   3.165   6.086   5.287
 4562SOL    HW214586   3.013   6.065   5.230
 4563SOL     OW14587   0.104   4.030   0.197
 4563SOL    HW114588   0.037   4.094   0.235
 4563SOL    HW214589   0.125   3.960   0.265
 4564SOL     OW14590   0.441   6.666   0.974
 4564SOL    HW114591   0.509   6.732   0.942
 4564SOL    HW214592   0.387   6.634   0.897
 4565SOL     OW14593   0.293   1.475   5.531
 4565SOL    HW114594   0.259   1.420   5.607
 4565SOL    HW214595   0.262   1.435   5.445
 4566SOL     OW14596   6.924   1.140   0.931
 4566SOL    HW114597   7.020   1.142   0.960
 4566SOL    HW214598   6.866   1.142   1.012
 4567SOL     OW14599   0.319   0.923   0.202
 4567SOL    HW114600   0.329   0.853   0.130
 4567SOL    HW214601   0.225   0.956   0.203
 4568SOL     OW14602   0.978   5.049   5.018
 4568SOL    HW114603   0.942   4.955   5.019
 4568SOL    HW214604   1.012   5.073   5.109
 4569SOL     OW14605   2.080   1.488   2.846
 4569SOL    HW114606   2.018   1.564   2.867
 4569SOL    HW214607   2.114   1.498   2.752
 4570SOL     OW14608   0.514   5.044   3.209
 4570SOL    HW114609   0.465   4.982   3.271
 4570SOL    HW214610   0.452   5.117   3.180
 4571SOL     OW14611   3.465   3.761   5.879
 4571SOL    HW114612   3.454   3.859   5.895
 4571SOL    HW214613   3.379   3.723   5.843
 4572SOL     OW14614   1.091   6.996   6.650
 4572SOL    HW114615   1.173   6.958   6.606
 4572SOL    HW214616   1.013   6.987   6.588
 4573SOL     OW14617   6.229   6.042   0.622
 4573SOL    HW114618   6.275   5.988   0.692
 4573SOL    HW214619   6.227   6.138   0.650
 4574SOL     OW14620   6.532   3.987   1.260
 4574SOL    HW114621   6.543   3.897   1.303
 4574SOL    HW214622   6.527   3.976   1.161
 4575SOL     OW14623   6.685   2.063   6.728
 4575SOL    HW114624   6.645   2.142   6.774
 4575SOL    HW214625   6.692   2.081   6.630
 4576SOL     OW14626   1.889   6.583   6.540
 4576SOL    HW114627   1.956   6.656   6.549
 4576SOL    HW214628   1.877   6.537   6.629
 4577SOL     OW14629   0.777   2.299   3.865
 4577SOL    HW114630   0.699   2.349   3.828
 4577SOL    HW214631   0.862   2.330   3.821
 4578SOL     OW14632   0.727   2.870   4.267
 4578SOL    HW114633   0.769   2.945   4.319
 4578SOL    HW214634   0.670   2.908   4.195
 4579SOL     OW14635   5.381   1.998   2.708
 4579SOL    HW114636   5.458   1.984   2.771
 4579SOL    HW214637   5.339   1.910   2.686
 4580SOL     OW14638   5.164   5.499   0.059
 4580SOL    HW114639   5.148   5.403   0.083
 4580SOL    HW214640   5.104   5.524   7.004
 4581SOL     OW14641   3.264   5.470   3.012
 4581SOL    HW114642   3.199   5.395   3.025
 4581SOL    HW214643   3.296   5.502   3.102
 4582SOL     OW14644   5.402   6.329   4.646
 4582SOL    HW114645   5.452   6.264   4.703
 4582SOL    HW214646   5.318   6.286   4.613
 4583SOL     OW14647   2.648   0.959   4.942
 4583SOL    HW114648   2.731   0.919   4.904
 4583SOL    HW214649   2.657   0.966   5.042
 4584SOL     OW14650   0.113   4.997   5.383
 4584SOL    HW114651   0.133   4.963   5.474
 4584SOL    HW214652   0.141   4.930   5.315
 4585SOL     OW14653   3.167   6.275   2.713
 4585SOL    HW114654   3.217   6.361   2.704
 4585SOL    HW214655   3.144   6.260   2.810
 4586SOL     OW14656   3.780   5.265   0.454
 4586SOL    HW114657   3.713   5.191   0.460
 4586SOL    HW214658   3.862   5.232   0.407
 4587SOL     OW14659   4.011   3.287   1.923
 4587SOL    HW114660   4.056   3.362   1.971
 4587SOL    HW214661   4.077   3.239   1.866
 4588SOL     OW14662   3.862   3.858   5.784
 4588SOL    HW114663   3.806   3.775   5.776
 4588SOL    HW214664   3.808   3.931   5.824
 4589SOL     OW14665   5.723   1.124   1.747
 4589SOL    HW114666   5.750   1.186   1.821
 4589SOL    HW214667   5.794   1.124   1.676
 4590SOL     OW14668   4.557   5.970   2.065
 4590SOL    HW114669   4.470   5.931   2.095
 4590SOL    HW214670   4.541   6.058   2.020
 4591SOL     OW14671   0.487   6.046   5.099
 4591SOL    HW114672   0.560   6.073   5.037
 4591SOL    HW214673   0.411   6.110   5.092
 4592SOL     OW14674   3.941   2.175   2.367
 4592SOL    HW114675   3.956   2.076   2.367
 4592SOL    HW214676   4.013   2.219   2.421
 4593SOL     OW14677   3.710   5.653   4.294
 4593SOL    HW114678   3.754   5.564   4.286
 4593SOL    HW214679   3.726   5.706   4.210
 4594SOL     OW14680   3.176   1.866   1.617
 4594SOL    HW114681   3.080   1.841   1.633
 4594SOL    HW214682   3.204   1.837   1.526
 4595SOL     OW14683   3.674   2.854   5.754
 4595SOL    HW114684   3.737   2.912   5.806
 4595SOL    HW214685   3.598   2.827   5.812
 4596SOL     OW14686   5.935   6.556   2.481
 4596SOL    HW114687   5.859   6.512   2.432
 4596SOL    HW214688   5.947   6.649   2.447
 4597SOL     OW14689   5.277   4.625   0.048
 4597SOL    HW114690   5.325   4.587   6.990
 4597SOL    HW214691   5.291   4.565   0.127
 4598SOL     OW14692   1.991   5.556   6.734
 4598SOL    HW114693   1.969   5.482   6.799
 4598SOL    HW214694   1.998   5.518   6.642
 4599SOL     OW14695   1.511   4.457   0.597
 4599SOL    HW114696   1.426   4.500   0.565
 4599SOL    HW214697   1.537   4.497   0.685
 4600SOL     OW14698   1.352   4.967   5.798
 4600SOL    HW114699   1.288   5.041   5.819
 4600SOL    HW214700   1.436   5.006   5.761
 4601SOL     OW14701   1.658   6.964   5.058
 4601SOL    HW114702   1.669   0.042   5.048
 4601SOL    HW214703   1.734   6.917   5.012
 4602SOL     OW14704   1.013   5.991   1.075
 4602SOL    HW114705   1.057   5.978   0.986
 4602SOL    HW214706   1.083   5.994   1.146
 4603SOL     OW14707   3.484   6.121   1.405
 4603SOL    HW114708   3.476   6.136   1.503
 4603SOL    HW214709   3.411   6.059   1.375
 4604SOL     OW14710   4.555   0.719   2.062
 4604SOL    HW114711   4.479   0.661   2.093
 4604SOL    HW214712   4.604   0.755   2.141
 4605SOL     OW14713   4.510   1.381   3.296
 4605SOL    HW114714   4.590   1.321   3.290
 4605SOL    HW214715   4.528   1.455   3.361
 4606SOL     OW14716   1.040   6.779   1.537
 4606SOL    HW114717   1.135   6.749   1.546
 4606SOL    HW214718   0.998   6.734   1.458
 4607SOL     OW14719   2.590   2.397   0.888
 4607SOL    HW114720   2.590   2.336   0.809
 4607SOL    HW214721   2.532   2.359   0.960
 4608SOL     OW14722   0.703   5.562   3.507
 4608SOL    HW114723   0.754   5.539   3.590
 4608SOL    HW214724   0.702   5.483   3.445
 4609SOL     OW14725   3.922   5.542   5.995
 4609SOL    HW114726   4.003   5.490   5.968
 4609SOL    HW214727   3.933   5.574   6.089
 4610SOL     OW14728   5.408   2.292   0.303
 4610SOL    HW114729   5.381   2.379   0.262
 4610SOL    HW214730   5.390   2.295   0.402
 4611SOL     OW14731   6.383   5.708   6.072
 4611SOL    HW114732   6.329   5.641   6.123
 4611SOL    HW214733   6.425   5.663   5.993
 4612SOL     OW14734   1.149   6.298   0.267
 4612SOL    HW114735   1.136   6.365   0.340
 4612SOL    HW214736   1.093   6.217   0.285
 4613SOL     OW14737   2.970   5.751   2.538
 4613SOL    HW114738   3.024   5.689   2.481
 4613SOL    HW214739   2.977   5.722   2.634
 4614SOL     OW14740   0.662   4.328   5.064
 4614SOL    HW114741   0.682   4.411   5.011
 4614SOL    HW214742   0.748   4.289   5.097
 4615SOL     OW14743   1.841   0.807   0.338
 4615SOL    HW114744   1.809   0.835   0.428
 4615SOL    HW214745   1.904   0.876   0.302
 4616SOL     OW14746   5.672   0.295   5.679
 4616SOL    HW114747   5.682   0.248   5.591
 4616SOL    HW214748   5.710   0.387   5.672
 4617SOL     OW14749   1.206   2.270   2.226
 4617SOL    HW114750   1.223   2.268   2.127
 4617SOL    HW214751   1.109   2.256   2.244
 4618SOL     OW14752   2.175   2.274   5.322
 4618SOL    HW114753   2.085   2.242   5.292
 4618SOL    HW214754   2.172   2.294   5.420
 4619SOL     OW14755   3.939   6.270   3.242
 4619SOL    HW114756   3.990   6.344   3.198
 4619SOL    HW214757   3.971   6.182   3.206
 4620SOL     OW14758   3.144   4.147   0.346
 4620SOL    HW114759   3.101   4.235   0.362
 4620SOL    HW214760   3.151   4.131   0.248
 4621SOL     OW14761   5.192   1.630   3.066
 4621SOL    HW114762   5.245   1.714   3.074
 4621SOL    HW214763   5.198   1.596   2.972
 4622SOL     OW14764   1.496   3.440   0.274
 4622SOL    HW114765   1.482   3.488   0.360
 4622SOL    HW214766   1.408   3.414   0.235
 4623SOL     OW14767   0.048   6.610   0.817
 4623SOL    HW114768   0.048   6.510   0.825
 4623SOL    HW214769   6.980   6.646   0.845
 4624SOL     OW14770   5.609   6.978   3.097
 4624SOL    HW114771   5.560   6.946   3.177
 4624SOL    HW214772   5.550   6.970   3.016
 4625SOL     OW14773   1.599   4.645   0.043
 4625SOL    HW114774   1.619   4.597   0.129
 4625SOL    HW214775   1.678   4.703   0.019
 4626SOL     OW14776   5.448   5.804   2.399
 4626SOL    HW114777   5.536   5.848   2.413
 4626SOL    HW214778   5.440   5.724   2.457
 4627SOL     OW14779   3.352   5.644   3.772
 4627SOL    HW114780   3.438   5.632   3.821
 4627SOL    HW214781   3.277   5.653   3.837
 4628SOL     OW14782   5.919   3.638   3.811
 4628SOL    HW114783   5.955   3.685   3.730
 4628SOL    HW214784   5.827   3.604   3.792
 4629SOL     OW14785   2.406   4.873   4.862
 4629SOL    HW114786   2.347   4.937   4.812
 4629SOL    HW214787   2.398   4.782   4.821
 4630SOL     OW14788   3.894   5.724   2.845
 4630SOL    HW114789   3.849   5.813   2.846
 4630SOL    HW214790   3.899   5.690   2.751
 4631SOL     OW14791   2.357   6.234   3.679
 4631SOL    HW114792   2.344   6.216   3.776
 4631SOL    HW214793   2.449   6.271   3.663
 4632SOL     OW14794   4.333   5.167   3.162
 4632SOL    HW114795   4.340   5.229   3.239
 4632SOL    HW214796   4.240   5.169   3.126
 4633SOL     OW14797   6.234   1.848   3.512
 4633SOL    HW114798   6.260   1.923   3.451
 4633SOL    HW214799   6.208   1.884   3.601
 4634SOL     OW14800   1.982   4.399   6.821
 4634SOL    HW114801   1.940   4.485   6.790
 4634SOL    HW214802   2.003   4.406   6.918
 4635SOL     OW14803   5.617   3.643   1.711
 4635SOL    HW114804   5.608   3.742   1.702
 4635SOL    HW214805   5.692   3.622   1.773
 4636SOL     OW14806   1.892   5.380   6.934
 4636SOL    HW114807   1.798   5.346   6.928
 4636SOL    HW214808   1.924   5.374   0.007
 4637SOL     OW14809   1.327   0.513   6.952
 4637SOL    HW114810   1.342   0.482   6.858
 4637SOL    HW214811   1.383   0.594   6.970
 4638SOL     OW14812   4.126   2.711   6.985
 4638SOL    HW114813   4.070   2.778   0.010
 4638SOL    HW214814   4.209   2.755   6.950
 4639SOL     OW14815   2.076   4.426   5.206
 4639SOL    HW114816   2.023   4.509   5.220
 4639SOL    HW214817   2.104   4.389   5.295
 4640SOL     OW14818   4.962   5.050   3.750
 4640SOL    HW114819   4.880   5.069   3.696
 4640SOL    HW214820   4.951   5.088   3.842
 4641SOL     OW14821   3.059   6.619   4.371
 4641SOL    HW114822   2.971   6.617   4.323
 4641SOL    HW214823   3.071   6.533   4.421
 4642SOL     OW14824   0.624   6.502   5.180
 4642SOL    HW114825   0.710   6.506   5.231
 4642SOL    HW214826   0.550   6.536   5.238
 4643SOL     OW14827   5.410   2.444   1.202
 4643SOL    HW114828   5.361   2.519   1.246
 4643SOL    HW214829   5.486   2.414   1.260
 4644SOL     OW14830   1.303   4.896   4.897
 4644SOL    HW114831   1.401   4.912   4.883
 4644SOL    HW214832   1.251   4.969   4.852
 4645SOL     OW14833   1.157   0.515   3.748
 4645SOL    HW114834   1.077   0.515   3.689
 4645SOL    HW214835   1.229   0.461   3.705
 4646SOL     OW14836   2.745   6.402   3.329
 4646SOL    HW114837   2.697   6.314   3.328
 4646SOL    HW214838   2.688   6.472   3.286
 4647SOL     OW14839   1.600   6.935   3.339
 4647SOL    HW114840   1.607   6.907   3.435
 4647SOL    HW214841   1.552   0.002   3.334
 4648SOL     OW14842   3.930   0.774   1.486
 4648SOL    HW114843   3.867   0.701   1.513
 4648SOL    HW214844   3.901   0.860   1.528
 4649SOL     OW14845   4.928   6.875   6.065
 4649SOL    HW114846   5.021   6.912   6.050
 4649SOL    HW214847   4.879   6.873   5.978
 4650SOL     OW14848   4.354   6.001   3.885
 4650SOL    HW114849   4.421   6.074   3.880
 4650SOL    HW214850   4.380   5.937   3.957
 4651SOL     OW14851   0.268   1.550   0.776
 4651SOL    HW114852   0.329   1.524   0.850
 4651SOL    HW214853   0.309   1.625   0.723
 4652SOL     OW14854   0.717   0.216   4.425
 4652SOL    HW114855   0.659   0.277   4.479
 4652SOL    HW214856   0.668   0.131   4.408
 4653SOL     OW14857   6.297   5.572   6.838
 4653SOL    HW114858   6.324   5.512   6.913
 4653SOL    HW214859   6.213   5.536   6.796
 4654SOL     OW14860   0.465   6.560   0.327
 4654SOL    HW114861   0.499   6.533   0.417
 4654SOL    HW214862   0.468   6.659   0.318
 4655SOL     OW14863   6.549   5.572   1.870
 4655SOL    HW114864   6.621   5.504   1.853
 4655SOL    HW214865   6.477   5.531   1.926
 4656SOL     OW14866   1.019   0.514   3.175
 4656SOL    HW114867   1.062   0.587   3.228
 4656SOL    HW214868   1.062   0.427   3.196
 4657SOL     OW14869   4.589   6.251   1.568
 4657SOL    HW114870   4.568   6.190   1.491
 4657SOL    HW214871   4.520   6.324   1.572
 4658SOL     OW14872   3.941   1.429   2.225
 4658SOL    HW114873   4.025   1.413   2.276
 4658SOL    HW214874   3.921   1.527   2.221
 4659SOL     OW14875   2.789   4.202   5.617
 4659SOL    HW114876   2.812   4.294   5.648
 4659SOL    HW214877   2.769   4.204   5.519
 4660SOL     OW14878   1.244   3.086   5.564
 4660SOL    HW114879   1.215   2.999   5.525
 4660SOL    HW214880   1.321   3.071   5.626
 4661SOL     OW14881   3.533   3.820   5.596
 4661SOL    HW114882   3.528   3.813   5.696
 4661SOL    HW214883   3.542   3.917   5.571
 4662SOL     OW14884   4.440   0.459   4.961
 4662SOL    HW114885   4.457   0.486   5.056
 4662SOL    HW214886   4.482   0.370   4.944
 4663SOL     OW14887   0.917   1.952   2.365
 4663SOL    HW114888   0.886   1.893   2.290
 4663SOL    HW214889   0.993   1.908   2.412
 4664SOL     OW14890   2.237   1.733   0.410
 4664SOL    HW114891   2.199   1.642   0.398
 4664SOL    HW214892   2.227   1.785   0.326
 4665SOL     OW14893   4.098   0.250   0.605
 4665SOL    HW114894   4.164   0.230   0.678
 4665SOL    HW214895   4.036   0.173   0.595
 4666SOL     OW14896   1.488   1.903   0.503
 4666SOL    HW114897   1.498   1.874   0.408
 4666SOL    HW214898   1.416   1.848   0.546
 4667SOL     OW14899   6.421   4.343   1.409
 4667SOL    HW114900   6.367   4.343   1.325
 4667SOL    HW214901   6.512   4.380   1.389
 4668SOL     OW14902   5.841   2.742   2.970
 4668SOL    HW114903   5.818   2.790   2.885
 4668SOL    HW214904   5.918   2.788   3.014
 4669SOL     OW14905   3.271   6.849   0.380
 4669SOL    HW114906   3.277   6.811   0.288
 4669SOL    HW214907   3.175   6.870   0.402
 4670SOL     OW14908   3.045   1.886   4.821
 4670SOL    HW114909   3.083   1.838   4.900
 4670SOL    HW214910   3.090   1.975   4.813
 4671SOL     OW14911   6.720   2.944   2.213
 4671SOL    HW114912   6.791   2.900   2.159
 4671SOL    HW214913   6.651   2.877   2.238
 4672SOL     OW14914   2.724   4.738   6.278
 4672SOL    HW114915   2.781   4.713   6.356
 4672SOL    HW214916   2.649   4.673   6.269
 4673SOL     OW14917   4.729   6.377   1.048
 4673SOL    HW114918   4.771   6.424   1.125
 4673SOL    HW214919   4.794   6.374   0.972
 4674SOL     OW14920   4.999   0.103   0.088
 4674SOL    HW114921   5.071   0.034   0.074
 4674SOL    HW214922   5.026   0.188   0.044
 4675SOL     OW14923   0.553   3.005   6.787
 4675SOL    HW114924   0.647   3.039   6.783
 4675SOL    HW214925   0.554   2.908   6.812
 4676SOL     OW14926   6.703   5.566   3.734
 4676SOL    HW114927   6.721   5.468   3.729
 4676SOL    HW214928   6.629   5.589   3.671
 4677SOL     OW14929   3.133   2.079   0.821
 4677SOL    HW114930   3.208   2.020   0.850
 4677SOL    HW214931   3.160   2.131   0.740
 4678SOL     OW14932   1.923   4.387   3.164
 4678SOL    HW114933   1.892   4.447   3.091
 4678SOL    HW214934   1.989   4.435   3.221
 4679SOL     OW14935   4.104   6.869   1.539
 4679SOL    HW114936   4.200   6.857   1.512
 4679SOL    HW214937   4.100   6.927   1.620
 4680SOL     OW14938   3.896   1.137   6.329
 4680SOL    HW114939   3.988   1.104   6.348
 4680SOL    HW214940   3.873   1.119   6.233
 4681SOL     OW14941   5.398   4.869   0.072
 4681SOL    HW114942   5.349   4.786   0.045
 4681SOL    HW214943   5.345   4.950   0.044
 4682SOL     OW14944   4.542   4.722   5.918
 4682SOL    HW114945   4.485   4.728   5.836
 4682SOL    HW214946   4.505   4.783   5.989
 4683SOL     OW14947   5.421   5.634   2.827
 4683SOL    HW114948   5.484   5.708   2.802
 4683SOL    HW214949   5.328   5.671   2.834
 4684SOL     OW14950   4.712   0.175   5.774
 4684SOL    HW114951   4.747   0.157   5.682
 4684SOL    HW214952   4.790   0.187   5.837
 4685SOL     OW14953   1.849   4.665   6.723
 4685SOL    HW114954   1.844   4.740   6.788
 4685SOL    HW214955   1.911   4.690   6.648
 4686SOL     OW14956   3.928   6.049   6.758
 4686SOL    HW114957   3.999   6.106   6.719
 4686SOL    HW214958   3.846   6.052   6.700
 4687SOL     OW14959   4.868   3.185   3.814
 4687SOL    HW114960   4.830   3.138   3.735
 4687SOL    HW214961   4.804   3.178   3.891
 4688SOL     OW14962   5.704   2.781   5.185
 4688SOL    HW114963   5.652   2.784   5.270
 4688SOL    HW214964   5.773   2.854   5.185
 4689SOL     OW14965   5.194   0.614   0.453
 4689SOL    HW114966   5.181   0.521   0.489
 4689SOL    HW214967   5.242   0.669   0.522
 4690SOL     OW14968   1.761   0.534   0.724
 4690SOL    HW114969   1.706   0.601   0.775
 4690SOL    HW214970   1.789   0.573   0.637
 4691SOL     OW14971   2.885   3.243   0.966
 4691SOL    HW114972   2.863   3.225   1.062
 4691SOL    HW214973   2.803   3.227   0.910
 4692SOL     OW14974   5.710   5.548   3.131
 4692SOL    HW114975   5.795   5.506   3.101
 4692SOL    HW214976   5.632   5.497   3.094
 4693SOL     OW14977   1.426   0.796   3.356
 4693SOL    HW114978   1.460   0.759   3.442
 4693SOL    HW214979   1.489   0.866   3.322
 4694SOL     OW14980   2.581   1.545   0.180
 4694SOL    HW114981   2.541   1.560   0.271
 4694SOL    HW214982   2.657   1.608   0.166
 4695SOL     OW14983   1.203   4.996   1.021
 4695SOL    HW114984   1.233   4.909   1.060
 4695SOL    HW214985   1.224   4.998   0.923
 4696SOL     OW14986   0.377   5.243   6.691
 4696SOL    HW114987   0.408   5.240   6.786
 4696SOL    HW214988   0.456   5.231   6.630
 4697SOL     OW14989   1.093   3.791   1.530
 4697SOL    HW114990   1.165   3.855   1.557
 4697SOL    HW214991   1.049   3.754   1.611
 4698SOL     OW14992   4.081   6.042   3.204
 4698SOL    HW114993   4.153   6.111   3.204
 4698SOL    HW214994   4.085   5.989   3.119
 4699SOL     OW14995   0.640   6.324   2.588
 4699SOL    HW114996   0.626   6.226   2.571
 4699SOL    HW214997   0.716   6.357   2.533
 4700SOL     OW14998   6.539   2.032   2.620
 4700SOL    HW114999   6.536   2.132   2.624
 4700SOL    HW215000   6.451   1.995   2.652
 4701SOL     OW15001   3.527   2.432   7.005
 4701SOL    HW115002   3.485   2.523   6.995
 4701SOL    HW215003   3.524   2.384   6.917
 4702SOL     OW15004   4.835   4.990   0.584
 4702SOL    HW115005   4.832   4.955   0.678
 4702SOL    HW215006   4.743   5.010   0.552
 4703SOL     OW15007   0.864   0.426   2.668
 4703SOL    HW115008   0.828   0.420   2.762
 4703SOL    HW215009   0.806   0.371   2.608
 4704SOL     OW15010   6.349   6.069   6.412
 4704SOL    HW115011   6.439   6.070   6.455
 4704SOL    HW215012   6.358   6.088   6.315
 4705SOL     OW15013   4.287   2.402   1.101
 4705SOL    HW115014   4.198   2.364   1.127
 4705SOL    HW215015   4.348   2.401   1.179
 4706SOL     OW15016   2.291   0.638   0.282
 4706SOL    HW115017   2.357   0.618   0.210
 4706SOL    HW215018   2.229   0.710   0.252
 4707SOL     OW15019   0.887   6.729   0.994
 4707SOL    HW115020   0.827   6.650   0.988
 4707SOL    HW215021   0.843   6.801   1.048
 4708SOL     OW15022   1.109   1.998   5.843
 4708SOL    HW115023   1.157   1.914   5.818
 4708SOL    HW215024   1.167   2.051   5.906
 4709SOL     OW15025   4.654   5.518   5.545
 4709SOL    HW115026   4.678   5.607   5.583
 4709SOL    HW215027   4.584   5.529   5.474
 4710SOL     OW15028   5.366   0.327   5.936
 4710SOL    HW115029   5.339   0.274   6.016
 4710SOL    HW215030   5.466   0.331   5.931
 4711SOL     OW15031   6.172   1.504   1.538
 4711SOL    HW115032   6.164   1.481   1.441
 4711SOL    HW215033   6.121   1.588   1.557
 4712SOL     OW15034   3.324   4.933   6.582
 4712SOL    HW115035   3.263   4.975   6.514
 4712SOL    HW215036   3.405   4.896   6.536
 4713SOL     OW15037   3.516   4.676   0.845
 4713SOL    HW115038   3.431   4.727   0.830
 4713SOL    HW215039   3.594   4.737   0.829
 4714SOL     OW15040   0.921   1.359   6.281
 4714SOL    HW115041   0.977   1.283   6.316
 4714SOL    HW215042   0.939   1.372   6.184
 4715SOL     OW15043   6.011   3.613   1.362
 4715SOL    HW115044   6.000   3.544   1.290
 4715SOL    HW215045   5.946   3.594   1.435
 4716SOL     OW15046   4.071   6.423   5.513
 4716SOL    HW115047   4.115   6.431   5.603
 4716SOL    HW215048   4.000   6.493   5.504
 4717SOL     OW15049   0.951   6.111   4.329
 4717SOL    HW115050   0.976   6.193   4.277
 4717SOL    HW215051   0.990   6.030   4.284
 4718SOL     OW15052   5.857   1.757   1.234
 4718SOL    HW115053   5.928   1.792   1.172
 4718SOL    HW215054   5.821   1.672   1.198
 4719SOL     OW15055   4.953   3.175   2.064
 4719SOL    HW115056   4.877   3.110   2.061
 4719SOL    HW215057   4.929   3.257   2.012
 4720SOL     OW15058   2.202   5.333   5.468
 4720SOL    HW115059   2.254   5.347   5.385
 4720SOL    HW215060   2.104   5.328   5.446
 4721SOL     OW15061   6.923   1.759   1.975
 4721SOL    HW115062   6.870   1.841   1.953
 4721SOL    HW215063   6.867   1.678   1.958
 4722SOL     OW15064   1.284   5.874   0.061
 4722SOL    HW115065   1.202   5.909   0.015
 4722SOL    HW215066   1.270   5.876   0.160
 4723SOL     OW15067   2.515   3.501   5.349
 4723SOL    HW115068   2.611   3.481   5.329
 4723SOL    HW215069   2.497   3.599   5.338
 4724SOL     OW15070   6.792   0.179   4.760
 4724SOL    HW115071   6.770   0.214   4.851
 4724SOL    HW215072   6.775   0.081   4.757
 4725SOL     OW15073   6.321   5.397   0.554
 4725SOL    HW115074   6.386   5.465   0.521
 4725SOL    HW215075   6.230   5.436   0.557
 4726SOL     OW15076   1.492   3.358   6.552
 4726SOL    HW115077   1.574   3.373   6.497
 4726SOL    HW215078   1.413   3.348   6.493
 4727SOL     OW15079   0.534   6.298   0.977
 4727SOL    HW115080   0.578   6.229   0.919
 4727SOL    HW215081   0.443   6.266   1.004
 4728SOL     OW15082   5.442   1.518   2.478
 4728SOL    HW115083   5.437   1.524   2.378
 4728SOL    HW215084   5.491   1.598   2.513
 4729SOL     OW15085   4.787   1.257   0.605
 4729SOL    HW115086   4.802   1.342   0.554
 4729SOL    HW215087   4.873   1.206   0.612
 4730SOL     OW15088   3.194   5.695   4.912
 4730SOL    HW115089   3.181   5.630   4.987
 4730SOL    HW215090   3.211   5.786   4.949
 4731SOL     OW15091   3.151   0.932   0.182
 4731SOL    HW115092   3.106   0.909   0.268
 4731SOL    HW215093   3.246   0.957   0.200
 4732SOL     OW15094   0.700   3.590   5.144
 4732SOL    HW115095   0.697   3.572   5.243
 4732SOL    HW215096   0.719   3.686   5.129
 4733SOL     OW15097   1.631   3.771   3.868
 4733SOL    HW115098   1.646   3.798   3.773
 4733SOL    HW215099   1.705   3.712   3.898
 4734SOL     OW15100   4.193   3.080   0.625
 4734SOL    HW115101   4.206   2.981   0.620
 4734SOL    HW215102   4.233   3.123   0.544
 4735SOL     OW15103   6.884   5.535   3.952
 4735SOL    HW115104   6.972   5.492   3.932
 4735SOL    HW215105   6.841   5.563   3.866
 4736SOL     OW15106   6.045   1.353   5.969
 4736SOL    HW115107   6.063   1.335   6.066
 4736SOL    HW215108   6.017   1.448   5.957
 4737SOL     OW15109   2.987   4.324   1.210
 4737SOL    HW115110   3.015   4.235   1.248
 4737SOL    HW215111   2.989   4.393   1.283
 4738SOL     OW15112   2.499   6.801   2.952
 4738SOL    HW115113   2.562   6.879   2.951
 4738SOL    HW215114   2.475   6.777   2.858
 4739SOL     OW15115   5.181   1.513   2.820
 4739SOL    HW115116   5.122   1.435   2.842
 4739SOL    HW215117   5.275   1.481   2.807
 4740SOL     OW15118   0.562   1.580   0.925
 4740SOL    HW115119   0.500   1.654   0.896
 4740SOL    HW215120   0.508   1.501   0.952
 4741SOL     OW15121   4.770   3.484   1.266
 4741SOL    HW115122   4.691   3.445   1.218
 4741SOL    HW215123   4.845   3.498   1.201
 4742SOL     OW15124   2.734   6.877   0.636
 4742SOL    HW115125   2.666   6.887   0.563
 4742SOL    HW215126   2.715   6.792   0.687
 4743SOL     OW15127   1.688   3.144   5.230
 4743SOL    HW115128   1.694   3.242   5.212
 4743SOL    HW215129   1.728   3.093   5.153
 4744SOL     OW15130   2.923   3.859   6.101
 4744SOL    HW115131   2.948   3.789   6.168
 4744SOL    HW215132   2.844   3.911   6.134
 4745SOL     OW15133   2.879   5.452   5.234
 4745SOL    HW115134   2.867   5.549   5.257
 4745SOL    HW215135   2.815   5.427   5.161
 4746SOL     OW15136   5.645   6.889   2.314
 4746SOL    HW115137   5.745   6.891   2.324
 4746SOL    HW215138   5.615   6.794   2.305
 4747SOL     OW15139   1.584   4.244   7.003
 4747SOL    HW115140   1.521   4.193   0.040
 4747SOL    HW215141   1.533   4.308   6.946
 4748SOL     OW15142   0.844   5.168   0.868
 4748SOL    HW115143   0.885   5.205   0.951
 4748SOL    HW215144   0.823   5.071   0.881
 4749SOL     OW15145   2.972   6.420   5.181
 4749SOL    HW115146   2.916   6.442   5.101
 4749SOL    HW215147   3.036   6.348   5.158
 4750SOL     OW15148   0.122   3.282   3.873
 4750SOL    HW115149   0.174   3.241   3.948
 4750SOL    HW215150   0.163   3.369   3.847
 4751SOL     OW15151   2.866   2.483   0.947
 4751SOL    HW115152   2.780   2.441   0.916
 4751SOL    HW215153   2.898   2.435   1.028
 4752SOL     OW15154   2.685   0.171   7.006
 4752SOL    HW115155   2.675   0.208   0.078
 4752SOL    HW215156   2.726   0.241   6.947
 4753SOL     OW15157   5.580   0.532   4.684
 4753SOL    HW115158   5.651   0.591   4.723
 4753SOL    HW215159   5.527   0.490   4.757
 4754SOL     OW15160   6.120   0.738   4.882
 4754SOL    HW115161   6.071   0.692   4.957
 4754SOL    HW215162   6.059   0.804   4.838
 4755SOL     OW15163   2.600   0.740   0.997
 4755SOL    HW115164   2.680   0.697   1.039
 4755SOL    HW215165   2.608   0.839   1.005
 4756SOL     OW15166   5.529   3.031   1.236
 4756SOL    HW115167   5.504   2.946   1.282
 4756SOL    HW215168   5.529   3.106   1.303
 4757SOL     OW15169   1.688   2.568   1.460
 4757SOL    HW115170   1.751   2.644   1.441
 4757SOL    HW215171   1.601   2.585   1.413
 4758SOL     OW15172   2.269   6.301   4.235
 4758SOL    HW115173   2.233   6.224   4.286
 4758SOL    HW215174   2.293   6.272   4.143
 4759SOL     OW15175   5.153   5.404   4.484
 4759SOL    HW115176   5.079   5.380   4.547
 4759SOL    HW215177   5.114   5.440   4.399
 4760SOL     OW15178   3.759   1.998   0.560
 4760SOL    HW115179   3.821   2.061   0.513
 4760SOL    HW215180   3.813   1.925   0.603
 4761SOL     OW15181   1.007   6.448   6.718
 4761SOL    HW115182   0.926   6.438   6.659
 4761SOL    HW215183   1.021   6.363   6.768
 4762SOL     OW15184   2.120   5.428   3.009
 4762SOL    HW115185   2.197   5.491   3.017
 4762SOL    HW215186   2.113   5.374   3.093
 4763SOL     OW15187   5.983   6.414   3.846
 4763SOL    HW115188   5.926   6.495   3.840
 4763SOL    HW215189   6.064   6.425   3.788
 4764SOL     OW15190   5.252   4.244   5.269
 4764SOL    HW115191   5.242   4.343   5.261
 4764SOL    HW215192   5.163   4.201   5.256
 4765SOL     OW15193   5.638   0.969   4.348
 4765SOL    HW115194   5.718   0.936   4.297
 4765SOL    HW215195   5.667   1.040   4.412
 4766SOL     OW15196   4.434   6.701   3.773
 4766SOL    HW115197   4.439   6.790   3.727
 4766SOL    HW215198   4.518   6.684   3.824
 4767SOL     OW15199   3.695   4.969   6.001
 4767SOL    HW115200   3.680   4.890   5.942
 4767SOL    HW215201   3.693   5.052   5.945
 4768SOL     OW15202   4.587   2.085   5.277
 4768SOL    HW115203   4.572   2.000   5.227
 4768SOL    HW215204   4.525   2.089   5.356
 4769SOL     OW15205   4.917   4.889   0.322
 4769SOL    HW115206   4.882   4.908   0.413
 4769SOL    HW215207   4.904   4.970   0.264
 4770SOL     OW15208   1.138   0.689   4.453
 4770SOL    HW115209   1.201   0.747   4.505
 4770SOL    HW215210   1.135   0.598   4.495
 4771SOL     OW15211   2.928   5.623   5.845
 4771SOL    HW115212   2.967   5.570   5.769
 4771SOL    HW215213   2.845   5.670   5.813
 4772SOL     OW15214   3.016   4.772   1.386
 4772SOL    HW115215   2.919   4.795   1.377
 4772SOL    HW215216   3.053   4.749   1.296
 4773SOL     OW15217   6.679   5.856   4.717
 4773SOL    HW115218   6.631   5.905   4.790
 4773SOL    HW215219   6.632   5.769   4.698
 4774SOL     OW15220   1.217   2.600   1.691
 4774SOL    HW115221   1.314   2.589   1.713
 4774SOL    HW215222   1.196   2.552   1.606
 4775SOL     OW15223   4.967   6.852   2.163
 4775SOL    HW115224   5.020   6.771   2.189
 4775SOL    HW215225   4.928   6.894   2.245
 4776SOL     OW15226   1.137   6.238   5.155
 4776SOL    HW115227   1.094   6.207   5.240
 4776SOL    HW215228   1.070   6.287   5.100
 4777SOL     OW15229   2.952   4.460   1.437
 4777SOL    HW115230   2.872   4.473   1.496
 4777SOL    HW215231   2.986   4.550   1.407
 4778SOL     OW15232   6.624   2.791   2.547
 4778SOL    HW115233   6.693   2.857   2.519
 4778SOL    HW215234   6.666   2.720   2.603
 4779SOL     OW15235   6.143   6.376   2.475
 4779SOL    HW115236   6.063   6.433   2.488
 4779SOL    HW215237   6.142   6.301   2.542
 4780SOL     OW15238   6.690   0.977   0.356
 4780SOL    HW115239   6.701   0.881   0.382
 4780SOL    HW215240   6.759   1.033   0.403
 4781SOL     OW15241   2.886   5.999   2.140
 4781SOL    HW115242   2.865   6.004   2.043
 4781SOL    HW215243   2.800   5.993   2.192
 4782SOL     OW15244   4.159   6.181   6.854
 4782SOL    HW115245   4.242   6.129   6.872
 4782SOL    HW215246   4.088   6.154   6.919
 4783SOL     OW15247   4.661   4.663   6.794
 4783SOL    HW115248   4.709   4.597   6.851
 4783SOL    HW215249   4.609   4.726   6.851
 4784SOL     OW15250   5.807   4.133   6.443
 4784SOL    HW115251   5.800   4.221   6.396
 4784SOL    HW215252   5.785   4.145   6.540
 4785SOL     OW15253   5.820   5.677   2.068
 4785SOL    HW115254   5.799   5.582   2.091
 4785SOL    HW215255   5.776   5.701   1.982
 4786SOL     OW15256   2.724   1.885   1.001
 4786SOL    HW115257   2.793   1.957   0.987
 4786SOL    HW215258   2.753   1.802   0.954
 4787SOL     OW15259   3.677   1.843   3.245
 4787SOL    HW115260   3.709   1.937   3.252
 4787SOL    HW215261   3.689   1.810   3.152
 4788SOL     OW15262   1.267   4.878   5.533
 4788SOL    HW115263   1.300   4.797   5.484
 4788SOL    HW215264   1.312   4.884   5.622
 4789SOL     OW15265   5.005   1.087   0.616
 4789SOL    HW115266   5.088   1.093   0.561
 4789SOL    HW215267   5.029   1.065   0.711
 4790SOL     OW15268   0.205   3.119   5.707
 4790SOL    HW115269   0.221   3.021   5.720
 4790SOL    HW215270   0.188   3.162   5.796
 4791SOL     OW15271   6.071   1.836   1.102
 4791SOL    HW115272   6.029   1.831   1.011
 4791SOL    HW215273   6.169   1.851   1.092
 4792SOL     OW15274   2.138   3.281   2.820
 4792SOL    HW115275   2.116   3.214   2.890
 4792SOL    HW215276   2.158   3.235   2.734
 4793SOL     OW15277   2.039   2.936   6.023
 4793SOL    HW115278   2.096   2.999   6.076
 4793SOL    HW215279   2.053   2.952   5.925
 4794SOL     OW15280   4.707   0.458   3.065
 4794SOL    HW115281   4.696   0.477   3.162
 4794SOL    HW215282   4.771   0.382   3.053
 4795SOL     OW15283   6.787   1.967   3.929
 4795SOL    HW115284   6.775   1.932   3.836
 4795SOL    HW215285   6.820   2.061   3.925
 4796SOL     OW15286   5.023   1.714   6.007
 4796SOL    HW115287   5.064   1.668   5.928
 4796SOL    HW215288   4.954   1.655   6.048
 4797SOL     OW15289   1.962   6.188   5.649
 4797SOL    HW115290   1.957   6.284   5.674
 4797SOL    HW215291   2.058   6.157   5.653
 4798SOL     OW15292   6.958   3.074   4.848
 4798SOL    HW115293   6.879   3.059   4.790
 4798SOL    HW215294   6.928   3.095   4.941
 4799SOL     OW15295   4.817   2.571   6.685
 4799SOL    HW115296   4.749   2.529   6.745
 4799SOL    HW215297   4.815   2.527   6.595
 4800SOL     OW15298   3.228   3.681   6.048
 4800SOL    HW115299   3.210   3.649   5.955
 4800SOL    HW215300   3.142   3.688   6.098
 4801SOL     OW15301   3.100   1.959   1.192
 4801SOL    HW115302   3.125   2.039   1.137
 4801SOL    HW215303   3.020   1.980   1.248
 4802SOL     OW15304   0.704   6.244   2.279
 4802SOL    HW115305   0.730   6.238   2.183
 4802SOL    HW215306   0.755   6.318   2.323
 4803SOL     OW15307   1.413   5.623   1.123
 4803SOL    HW115308   1.379   5.631   1.029
 4803SOL    HW215309   1.488   5.688   1.136
 4804SOL     OW15310   4.853   5.778   6.576
 4804SOL    HW115311   4.787   5.781   6.651
 4804SOL    HW215312   4.812   5.818   6.494
 4805SOL     OW15313   5.875   0.029   1.471
 4805SOL    HW115314   5.836   0.066   1.555
 4805SOL    HW215315   5.833   0.074   1.392
 4806SOL     OW15316   0.884   4.814   3.211
 4806SOL    HW115317   0.922   4.783   3.123
 4806SOL    HW215318   0.936   4.773   3.286
 4807SOL     OW15319   0.898   4.888   0.193
 4807SOL    HW115320   0.910   4.953   0.268
 4807SOL    HW215321   0.801   4.886   0.167
 4808SOL     OW15322   6.205   3.485   6.355
 4808SOL    HW115323   6.192   3.420   6.280
 4808SOL    HW215324   6.154   3.454   6.435
 4809SOL     OW15325   3.362   4.305   0.014
 4809SOL    HW115326   3.368   4.312   6.936
 4809SOL    HW215327   3.396   4.390   0.055
 4810SOL     OW15328   0.950   5.226   2.528
 4810SOL    HW115329   1.046   5.201   2.513
 4810SOL    HW215330   0.895   5.142   2.531
 4811SOL     OW15331   1.984   4.527   2.183
 4811SOL    HW115332   2.060   4.486   2.132
 4811SOL    HW215333   1.929   4.455   2.224
 4812SOL     OW15334   6.712   4.916   4.634
 4812SOL    HW115335   6.652   4.993   4.653
 4812SOL    HW215336   6.727   4.864   4.718
 4813SOL     OW15337   5.395   1.898   0.849
 4813SOL    HW115338   5.355   1.825   0.793
 4813SOL    HW215339   5.474   1.862   0.899
 4814SOL     OW15340   5.808   4.243   0.234
 4814SOL    HW115341   5.774   4.330   0.270
 4814SOL    HW215342   5.906   4.250   0.216
 4815SOL     OW15343   5.856   4.384   3.119
 4815SOL    HW115344   5.836   4.286   3.130
 4815SOL    HW215345   5.856   4.428   3.208
 4816SOL     OW15346   0.822   5.105   1.610
 4816SOL    HW115347   0.840   5.145   1.520
 4816SOL    HW215348   0.823   5.177   1.680
 4817SOL     OW15349   0.547   2.243   6.804
 4817SOL    HW115350   0.457   2.239   6.762
 4817SOL    HW215351   0.612   2.286   6.741
 4818SOL     OW15352   1.234   0.603   5.114
 4818SOL    HW115353   1.144   0.561   5.104
 4818SOL    HW215354   1.305   0.535   5.095
 4819SOL     OW15355   1.045   2.170   0.189
 4819SOL    HW115356   0.948   2.188   0.204
 4819SOL    HW215357   1.067   2.181   0.092
 4820SOL     OW15358   6.272   2.630   1.183
 4820SOL    HW115359   6.292   2.721   1.146
 4820SOL    HW215360   6.177   2.628   1.215
 4821SOL     OW15361   1.041   5.802   2.602
 4821SOL    HW115362   0.945   5.829   2.601
 4821SOL    HW215363   1.077   5.808   2.695
 4822SOL     OW15364   2.308   2.750   4.605
 4822SOL    HW115365   2.312   2.766   4.704
 4822SOL    HW215366   2.291   2.653   4.588
 4823SOL     OW15367   1.948   1.096   4.376
 4823SOL    HW115368   1.947   1.064   4.281
 4823SOL    HW215369   2.040   1.086   4.414
 4824SOL     OW15370   4.843   3.081   5.079
 4824SOL    HW115371   4.889   3.035   5.155
 4824SOL    HW215372   4.776   3.020   5.038
 4825SOL     OW15373   1.670   2.885   4.443
 4825SOL    HW115374   1.616   2.968   4.458
 4825SOL    HW215375   1.646   2.846   4.354
 4826SOL     OW15376   5.814   0.843   6.957
 4826SOL    HW115377   5.771   0.847   0.026
 4826SOL    HW215378   5.756   0.789   6.895
 4827SOL     OW15379   6.265   1.372   0.883
 4827SOL    HW115380   6.322   1.415   0.953
 4827SOL    HW215381   6.300   1.281   0.864
 4828SOL     OW15382   5.234   1.698   0.730
 4828SOL    HW115383   5.153   1.720   0.677
 4828SOL    HW215384   5.228   1.603   0.762
 4829SOL     OW15385   3.818   0.351   5.349
 4829SOL    HW115386   3.844   0.257   5.326
 4829SOL    HW215387   3.827   0.364   5.448
 4830SOL     OW15388   3.991   5.735   4.412
 4830SOL    HW115389   4.069   5.741   4.475
 4830SOL    HW215390   4.022   5.709   4.321
 4831SOL     OW15391   0.856   4.490   5.682
 4831SOL    HW115392   0.931   4.514   5.621
 4831SOL    HW215393   0.891   4.478   5.775
 4832SOL     OW15394   3.331   4.139   3.690
 4832SOL    HW115395   3.295   4.146   3.597
 4832SOL    HW215396   3.397   4.212   3.706
 4833SOL     OW15397   6.490   1.134   3.115
 4833SOL    HW115398   6.582   1.145   3.078
 4833SOL    HW215399   6.444   1.058   3.069
 4834SOL     OW15400   2.666   5.749   1.815
 4834SOL    HW115401   2.726   5.718   1.888
 4834SOL    HW215402   2.693   5.706   1.728
 4835SOL     OW15403   5.576   2.354   5.767
 4835SOL    HW115404   5.522   2.296   5.706
 4835SOL    HW215405   5.584   2.445   5.727
 4836SOL     OW15406   5.262   1.876   4.703
 4836SOL    HW115407   5.249   1.938   4.625
 4836SOL    HW215408   5.325   1.917   4.768
 4837SOL     OW15409   6.875   3.272   3.003
 4837SOL    HW115410   6.837   3.213   2.932
 4837SOL    HW215411   6.951   3.224   3.048
 4838SOL     OW15412   2.374   5.944   0.155
 4838SOL    HW115413   2.432   5.891   0.217
 4838SOL    HW215414   2.278   5.918   0.168
 4839SOL     OW15415   1.059   3.933   0.316
 4839SOL    HW115416   0.995   3.962   0.386
 4839SOL    HW215417   1.121   3.864   0.353
 4840SOL     OW15418   6.908   4.589   6.367
 4840SOL    HW115419   6.935   4.512   6.308
 4840SOL    HW215420   6.878   4.666   6.310
 4841SOL     OW15421   2.514   5.081   2.980
 4841SOL    HW115422   2.425   5.069   3.023
 4841SOL    HW215423   2.511   5.159   2.917
 4842SOL     OW15424   2.664   4.901   3.204
 4842SOL    HW115425   2.688   4.953   3.122
 4842SOL    HW215426   2.643   4.965   3.278
 4843SOL     OW15427   6.008   2.713   1.261
 4843SOL    HW115428   5.926   2.677   1.306
 4843SOL    HW215429   6.055   2.776   1.323
 4844SOL     OW15430   0.177   3.744   6.070
 4844SOL    HW115431   0.171   3.684   5.990
 4844SOL    HW215432   0.181   3.689   6.153
 4845SOL     OW15433   4.773   4.833   6.350
 4845SOL    HW115434   4.687   4.831   6.299
 4845SOL    HW215435   4.754   4.842   6.448
 4846SOL     OW15436   0.494   2.503   3.537
 4846SOL    HW115437   0.518   2.554   3.454
 4846SOL    HW215438   0.395   2.486   3.537
 4847SOL     OW15439   2.337   1.038   6.258
 4847SOL    HW115440   2.315   1.073   6.167
 4847SOL    HW215441   2.262   1.059   6.321
 4848SOL     OW15442   2.204   1.079   4.858
 4848SOL    HW115443   2.134   1.034   4.803
 4848SOL    HW215444   2.293   1.041   4.836
 4849SOL     OW15445   1.386   5.636   0.546
 4849SOL    HW115446   1.458   5.578   0.583
 4849SOL    HW215447   1.424   5.696   0.476
 4850SOL     OW15448   4.592   1.173   1.428
 4850SOL    HW115449   4.504   1.132   1.408
 4850SOL    HW215450   4.665   1.117   1.390
 4851SOL     OW15451   3.360   5.795   5.827
 4851SOL    HW115452   3.421   5.868   5.798
 4851SOL    HW215453   3.266   5.816   5.799
 4852SOL     OW15454   2.005   5.825   4.576
 4852SOL    HW115455   1.940   5.875   4.519
 4852SOL    HW215456   2.005   5.728   4.550
 4853SOL     OW15457   4.254   0.963   3.587
 4853SOL    HW115458   4.189   0.951   3.663
 4853SOL    HW215459   4.316   1.038   3.609
 4854SOL     OW15460   4.681   6.874   2.170
 4854SOL    HW115461   4.699   6.886   2.268
 4854SOL    HW215462   4.763   6.841   2.124
 4855SOL     OW15463   6.226   2.777   5.456
 4855SOL    HW115464   6.138   2.802   5.495
 4855SOL    HW215465   6.219   2.688   5.412
 4856SOL     OW15466   1.884   3.150   2.714
 4856SOL    HW115467   1.958   3.119   2.655
 4856SOL    HW215468   1.868   3.248   2.699
 4857SOL     OW15469   3.008   2.161   3.239
 4857SOL    HW115470   3.087   2.170   3.300
 4857SOL    HW215471   2.924   2.164   3.294
 4858SOL     OW15472   6.922   6.253   4.977
 4858SOL    HW115473   6.969   6.341   4.977
 4858SOL    HW215474   6.964   6.192   5.044
 4859SOL     OW15475   0.364   4.818   2.476
 4859SOL    HW115476   0.416   4.889   2.524
 4859SOL    HW215477   0.274   4.809   2.519
 4860SOL     OW15478   4.529   4.248   6.939
 4860SOL    HW115479   4.540   4.171   6.876
 4860SOL    HW215480   4.501   4.213   0.008
 4861SOL     OW15481   5.893   5.520   6.518
 4861SOL    HW115482   5.937   5.606   6.493
 4861SOL    HW215483   5.893   5.510   6.618
 4862SOL     OW15484   2.105   4.731   5.022
 4862SOL    HW115485   2.093   4.660   4.953
 4862SOL    HW215486   2.201   4.733   5.050
 4863SOL     OW15487   5.260   3.084   2.348
 4863SOL    HW115488   5.249   2.989   2.319
 4863SOL    HW215489   5.173   3.132   2.340
 4864SOL     OW15490   3.032   0.947   1.939
 4864SOL    HW115491   3.088   1.028   1.920
 4864SOL    HW215492   2.936   0.975   1.949
 4865SOL     OW15493   1.896   5.887   4.245
 4865SOL    HW115494   1.832   5.914   4.318
 4865SOL    HW215495   1.903   5.962   4.179
 4866SOL     OW15496   5.991   4.781   1.293
 4866SOL    HW115497   5.892   4.792   1.294
 4866SOL    HW215498   6.034   4.869   1.315
 4867SOL     OW15499   5.039   5.839   3.156
 4867SOL    HW115500   5.121   5.872   3.110
 4867SOL    HW215501   5.042   5.740   3.164
 4868SOL     OW15502   7.020   5.414   1.733
 4868SOL    HW115503   0.026   5.325   1.771
 4868SOL    HW215504   0.059   5.485   1.768
 4869SOL     OW15505   6.829   2.319   1.246
 4869SOL    HW115506   6.882   2.282   1.322
 4869SOL    HW215507   6.838   2.419   1.244
 4870SOL     OW15508   5.486   5.537   1.779
 4870SOL    HW115509   5.530   5.627   1.775
 4870SOL    HW215510   5.528   5.483   1.853
 4871SOL     OW15511   0.186   1.141   4.616
 4871SOL    HW115512   0.245   1.062   4.601
 4871SOL    HW215513   0.237   1.212   4.665
 4872SOL     OW15514   0.390   5.934   4.132
 4872SOL    HW115515   0.486   5.946   4.159
 4872SOL    HW215516   0.332   5.981   4.198
 4873SOL     OW15517   6.522   4.733   3.994
 4873SOL    HW115518   6.547   4.764   3.902
 4873SOL    HW215519   6.482   4.810   4.044
 4874SOL     OW15520   5.991   4.200   2.737
 4874SOL    HW115521   6.059   4.271   2.718
 4874SOL    HW215522   5.901   4.232   2.710
 4875SOL     OW15523   5.033   2.535   0.976
 4875SOL    HW115524   4.979   2.561   0.896
 4875SOL    HW215525   5.008   2.442   1.003
 4876SOL     OW15526   6.172   1.038   5.019
 4876SOL    HW115527   6.187   0.993   5.107
 4876SOL    HW215528   6.258   1.075   4.985
 4877SOL     OW15529   6.678   1.545   0.743
 4877SOL    HW115530   6.730   1.598   0.810
 4877SOL    HW215531   6.724   1.457   0.728
 4878SOL     OW15532   6.427   1.692   2.195
 4878SOL    HW115533   6.505   1.755   2.194
 4878SOL    HW215534   6.351   1.734   2.243
 4879SOL     OW15535   4.182   5.317   3.447
 4879SOL    HW115536   4.175   5.416   3.441
 4879SOL    HW215537   4.278   5.290   3.438
 4880SOL     OW15538   6.001   3.086   6.357
 4880SOL    HW115539   5.977   3.052   6.266
 4880SOL    HW215540   5.923   3.133   6.396
 4881SOL     OW15541   2.187   6.252   6.738
 4881SOL    HW115542   2.156   6.240   6.832
 4881SOL    HW215543   2.280   6.286   6.737
 4882SOL     OW15544   5.590   1.429   4.399
 4882SOL    HW115545   5.495   1.400   4.411
 4882SOL    HW215546   5.597   1.527   4.418
 4883SOL     OW15547   5.315   4.781   2.600
 4883SOL    HW115548   5.250   4.708   2.621
 4883SOL    HW215549   5.375   4.752   2.525
 4884SOL     OW15550   4.252   0.198   0.812
 4884SOL    HW115551   4.307   0.125   0.855
 4884SOL    HW215552   4.296   0.286   0.828
 4885SOL     OW15553   2.624   6.502   2.278
 4885SOL    HW115554   2.566   6.516   2.198
 4885SOL    HW215555   2.687   6.427   2.261
 4886SOL     OW15556   7.009   5.626   5.675
 4886SOL    HW115557   0.069   5.669   5.636
 4886SOL    HW215558   0.005   5.528   5.686
 4887SOL     OW15559   0.343   1.522   2.798
 4887SOL    HW115560   0.386   1.432   2.793
 4887SOL    HW215561   0.258   1.522   2.745
 4888SOL     OW15562   2.083   6.574   4.016
 4888SOL    HW115563   2.173   6.530   4.021
 4888SOL    HW215564   2.083   6.640   3.941
 4889SOL     OW15565   0.001   1.689   6.528
 4889SOL    HW115566   0.085   1.738   6.503
 4889SOL    HW215567   0.013   1.591   6.510
 4890SOL     OW15568   0.336   2.384   5.291
 4890SOL    HW115569   0.429   2.370   5.325
 4890SOL    HW215570   0.296   2.297   5.265
 4891SOL     OW15571   1.239   5.943   0.560
 4891SOL    HW115572   1.173   5.918   0.490
 4891SOL    HW215573   1.330   5.952   0.518
 4892SOL     OW15574   2.652   5.997   2.261
 4892SOL    HW115575   2.557   6.019   2.241
 4892SOL    HW215576   2.658   5.947   2.347
 4893SOL     OW15577   6.295   4.696   0.021
 4893SOL    HW115578   6.353   4.772   0.050
 4893SOL    HW215579   6.330   4.658   6.957
 4894SOL     OW15580   2.594   0.951   1.543
 4894SOL    HW115581   2.653   0.961   1.624
 4894SOL    HW215582   2.594   0.856   1.513
 4895SOL     OW15583   0.166   5.081   1.591
 4895SOL    HW115584   0.195   4.991   1.558
 4895SOL    HW215585   0.232   5.150   1.561
 4896SOL     OW15586   2.405   5.254   2.524
 4896SOL    HW115587   2.337   5.296   2.464
 4896SOL    HW215588   2.458   5.187   2.472
 4897SOL     OW15589   2.396   5.641   6.381
 4897SOL    HW115590   2.400   5.609   6.286
 4897SOL    HW215591   2.451   5.581   6.439
 4898SOL     OW15592   5.985   1.671   5.224
 4898SOL    HW115593   5.989   1.627   5.134
 4898SOL    HW215594   5.926   1.618   5.285
 4899SOL     OW15595   6.330   4.557   3.006
 4899SOL    HW115596   6.252   4.505   3.041
 4899SOL    HW215597   6.410   4.498   3.003
 4900SOL     OW15598   1.816   5.968   5.564
 4900SOL    HW115599   1.864   6.052   5.589
 4900SOL    HW215600   1.883   5.893   5.556
 4901SOL     OW15601   3.013   6.784   5.231
 4901SOL    HW115602   2.967   6.871   5.214
 4901SOL    HW215603   2.981   6.716   5.164
 4902SOL     OW15604   2.312   2.158   4.688
 4902SOL    HW115605   2.409   2.169   4.706
 4902SOL    HW215606   2.264   2.243   4.708
 4903SOL     OW15607   3.093   6.731   6.894
 4903SOL    HW115608   3.117   6.766   6.804
 4903SOL    HW215609   3.115   6.634   6.899
 4904SOL     OW15610   1.330   0.016   3.768
 4904SOL    HW115611   1.348   6.941   3.789
 4904SOL    HW215612   1.388   0.046   3.693
 4905SOL     OW15613   4.490   2.011   2.470
 4905SOL    HW115614   4.544   2.005   2.386
 4905SOL    HW215615   4.447   2.102   2.475
 4906SOL     OW15616   3.340   1.087   6.462
 4906SOL    HW115617   3.254   1.098   6.511
 4906SOL    HW215618   3.390   1.173   6.461
 4907SOL     OW15619   4.518   6.305   2.208
 4907SOL    HW115620   4.525   6.303   2.108
 4907SOL    HW215621   4.550   6.394   2.242
 4908SOL     OW15622   4.347   4.829   0.046
 4908SOL    HW115623   4.413   4.858   6.997
 4908SOL    HW215624   4.393   4.774   0.115
 4909SOL     OW15625   6.235   0.230   6.058
 4909SOL    HW115626   6.252   0.295   6.132
 4909SOL    HW215627   6.322   0.196   6.023
 4910SOL     OW15628   5.709   6.813   4.773
 4910SOL    HW115629   5.647   6.878   4.728
 4910SOL    HW215630   5.656   6.743   4.820
 4911SOL     OW15631   6.890   2.639   6.082
 4911SOL    HW115632   6.951   2.707   6.042
 4911SOL    HW215633   6.934   2.597   6.161
 4912SOL     OW15634   5.445   2.007   1.302
 4912SOL    HW115635   5.532   1.970   1.335
 4912SOL    HW215636   5.383   2.020   1.379
 4913SOL     OW15637   3.686   3.278   3.604
 4913SOL    HW115638   3.770   3.324   3.634
 4913SOL    HW215639   3.630   3.342   3.552
 4914SOL     OW15640   3.684   0.540   4.709
 4914SOL    HW115641   3.705   0.445   4.734
 4914SOL    HW215642   3.760   0.599   4.734
 4915SOL     OW15643   4.944   0.423   4.831
 4915SOL    HW115644   4.873   0.378   4.777
 4915SOL    HW215645   5.031   0.419   4.783
 4916SOL     OW15646   2.094   1.456   3.609
 4916SOL    HW115647   2.069   1.400   3.530
 4916SOL    HW215648   2.140   1.539   3.578
 4917SOL     OW15649   1.610   4.210   0.589
 4917SOL    HW115650   1.568   4.301   0.591
 4917SOL    HW215651   1.610   4.172   0.681
 4918SOL     OW15652   3.082   6.914   2.297
 4918SOL    HW115653   3.048   6.983   2.361
 4918SOL    HW215654   3.151   6.858   2.342
 4919SOL     OW15655   2.389   1.740   1.395
 4919SOL    HW115656   2.459   1.767   1.329
 4919SOL    HW215657   2.406   1.646   1.425
 4920SOL     OW15658   4.330   0.632   6.540
 4920SOL    HW115659   4.407   0.692   6.518
 4920SOL    HW215660   4.261   0.683   6.591
 4921SOL     OW15661   1.908   3.970   1.098
 4921SOL    HW115662   1.981   4.021   1.145
 4921SOL    HW215663   1.881   3.893   1.155
 4922SOL     OW15664   1.156   3.343   5.077
 4922SOL    HW115665   1.071   3.370   5.122
 4922SOL    HW215666   1.229   3.404   5.106
 4923SOL     OW15667   4.317   1.098   1.503
 4923SOL    HW115668   4.270   1.011   1.514
 4923SOL    HW215669   4.284   1.163   1.571
 4924SOL     OW15670   2.321   2.788   6.042
 4924SOL    HW115671   2.413   2.749   6.047
 4924SOL    HW215672   2.320   2.877   6.087
 4925SOL     OW15673   6.304   6.408   0.858
 4925SOL    HW115674   6.337   6.451   0.943
 4925SOL    HW215675   6.364   6.435   0.782
 4926SOL     OW15676   4.942   2.897   1.383
 4926SOL    HW115677   4.911   2.886   1.477
 4926SOL    HW215678   4.959   2.807   1.342
 4927SOL     OW15679   4.065   3.357   4.199
 4927SOL    HW115680   4.024   3.440   4.162
 4927SOL    HW215681   4.099   3.375   4.292
 4928SOL     OW15682   0.254   6.994   6.781
 4928SOL    HW115683   0.227   6.904   6.749
 4928SOL    HW215684   0.343   6.989   6.826
 4929SOL     OW15685   1.286   4.156   5.290
 4929SOL    HW115686   1.281   4.073   5.235
 4929SOL    HW215687   1.213   4.155   5.358
 4930SOL     OW15688   6.411   0.500   1.365
 4930SOL    HW115689   6.510   0.502   1.373
 4930SOL    HW215690   6.370   0.540   1.447
 4931SOL     OW15691   0.308   6.601   0.736
 4931SOL    HW115692   0.217   6.590   0.777
 4931SOL    HW215693   0.319   6.534   0.663
 4932SOL     OW15694   2.239   3.223   1.750
 4932SOL    HW115695   2.237   3.259   1.844
 4932SOL    HW215696   2.261   3.297   1.687
 4933SOL     OW15697   2.853   6.956   4.492
 4933SOL    HW115698   2.809   6.973   4.580
 4933SOL    HW215699   2.951   6.945   4.506
 4934SOL     OW15700   1.368   5.040   3.429
 4934SOL    HW115701   1.338   5.075   3.518
 4934SOL    HW215702   1.432   5.104   3.387
 4935SOL     OW15703   1.001   1.291   0.094
 4935SOL    HW115704   1.058   1.209   0.087
 4935SOL    HW215705   0.909   1.266   0.122
 4936SOL     OW15706   1.849   4.917   2.162
 4936SOL    HW115707   1.912   4.856   2.114
 4936SOL    HW215708   1.759   4.912   2.119
 4937SOL     OW15709   0.482   3.919   5.997
 4937SOL    HW115710   0.414   3.891   6.065
 4937SOL    HW215711   0.435   3.963   5.920
 4938SOL     OW15712   3.022   5.105   1.480
 4938SOL    HW115713   2.984   5.113   1.572
 4938SOL    HW215714   2.988   5.022   1.436
 4939SOL     OW15715   1.126   2.070   3.528
 4939SOL    HW115716   1.079   2.110   3.449
 4939SOL    HW215717   1.061   2.061   3.604
 4940SOL     OW15718   0.453   1.939   5.620
 4940SOL    HW115719   0.464   1.928   5.521
 4940SOL    HW215720   0.371   1.891   5.650
 4941SOL     OW15721   4.255   2.699   5.344
 4941SOL    HW115722   4.175   2.743   5.386
 4941SOL    HW215723   4.224   2.636   5.273
 4942SOL     OW15724   5.286   3.215   4.464
 4942SOL    HW115725   5.260   3.131   4.511
 4942SOL    HW215726   5.241   3.293   4.507
 4943SOL     OW15727   5.138   4.083   5.816
 4943SOL    HW115728   5.150   4.137   5.733
 4943SOL    HW215729   5.051   4.108   5.860
 4944SOL     OW15730   2.219   4.366   1.694
 4944SOL    HW115731   2.184   4.286   1.647
 4944SOL    HW215732   2.176   4.374   1.784
 4945SOL     OW15733   1.205   0.046   5.070
 4945SOL    HW115734   1.254   6.983   5.095
 4945SOL    HW215735   1.271   0.115   5.041
 4946SOL     OW15736   1.060   5.574   0.113
 4946SOL    HW115737   1.120   5.495   0.127
 4946SOL    HW215738   1.057   5.596   0.015
 4947SOL     OW15739   2.326   0.998   0.899
 4947SOL    HW115740   2.420   1.013   0.928
 4947SOL    HW215741   2.271   1.079   0.920
 4948SOL     OW15742   2.405   2.624   2.768
 4948SOL    HW115743   2.393   2.696   2.837
 4948SOL    HW215744   2.422   2.666   2.679
 4949SOL     OW15745   0.155   3.859   5.008
 4949SOL    HW115746   0.254   3.859   5.002
 4949SOL    HW215747   0.116   3.893   4.923
 4950SOL     OW15748   2.197   3.997   5.605
 4950SOL    HW115749   2.219   4.028   5.512
 4950SOL    HW215750   2.147   3.910   5.599
 4951SOL     OW15751   6.272   0.112   4.725
 4951SOL    HW115752   6.332   0.045   4.680
 4951SOL    HW215753   6.296   0.118   4.822
 4952SOL     OW15754   0.447   6.702   6.125
 4952SOL    HW115755   0.456   6.757   6.042
 4952SOL    HW215756   0.387   6.625   6.107
 4953SOL     OW15757   1.340   6.595   3.039
 4953SOL    HW115758   1.297   6.587   2.949
 4953SOL    HW215759   1.401   6.674   3.039
 4954SOL     OW15760   3.295   3.440   0.022
 4954SOL    HW115761   3.379   3.403   0.062
 4954SOL    HW215762   3.313   3.531   7.005
 4955SOL     OW15763   2.914   6.448   6.830
 4955SOL    HW115764   2.968   6.368   6.854
 4955SOL    HW215765   2.975   6.526   6.815
 4956SOL     OW15766   3.051   0.278   4.924
 4956SOL    HW115767   3.118   0.258   4.995
 4956SOL    HW215768   3.090   0.341   4.857
 4957SOL     OW15769   5.434   2.824   0.879
 4957SOL    HW115770   5.494   2.761   0.829
 4957SOL    HW215771   5.364   2.773   0.928
 4958SOL     OW15772   1.417   5.617   5.740
 4958SOL    HW115773   1.364   5.693   5.704
 4958SOL    HW215774   1.459   5.643   5.827
 4959SOL     OW15775   6.217   1.127   1.102
 4959SOL    HW115776   6.130   1.101   1.059
 4959SOL    HW215777   6.293   1.082   1.055
 4960SOL     OW15778   4.304   4.780   4.245
 4960SOL    HW115779   4.386   4.778   4.302
 4960SOL    HW215780   4.224   4.756   4.301
 4961SOL     OW15781   2.978   7.015   6.313
 4961SOL    HW115782   2.908   6.945   6.326
 4961SOL    HW215783   3.017   0.019   6.402
 4962SOL     OW15784   5.846   2.613   0.409
 4962SOL    HW115785   5.829   2.571   0.320
 4962SOL    HW215786   5.861   2.541   0.477
 4963SOL     OW15787   0.894   5.558   0.834
 4963SOL    HW115788   0.862   5.496   0.762
 4963SOL    HW215789   0.980   5.523   0.872
 4964SOL     OW15790   2.129   0.013   4.528
 4964SOL    HW115791   2.204   0.048   4.472
 4964SOL    HW215792   2.127   0.060   4.616
 4965SOL     OW15793   0.865   6.418   2.390
 4965SOL    HW115794   0.876   6.512   2.421
 4965SOL    HW215795   0.951   6.385   2.351
 4966SOL     OW15796   3.342   6.776   4.985
 4966SOL    HW115797   3.365   6.765   5.081
 4966SOL    HW215798   3.243   6.764   4.972
 4967SOL     OW15799   3.053   5.258   5.863
 4967SOL    HW115800   2.991   5.318   5.913
 4967SOL    HW215801   3.105   5.311   5.797
 4968SOL     OW15802   0.395   1.330   3.296
 4968SOL    HW115803   0.321   1.307   3.232
 4968SOL    HW215804   0.364   1.403   3.356
 4969SOL     OW15805   1.800   6.082   2.733
 4969SOL    HW115806   1.777   6.177   2.710
 4969SOL    HW215807   1.788   6.068   2.831
 4970SOL     OW15808   2.601   1.450   1.197
 4970SOL    HW115809   2.545   1.457   1.115
 4970SOL    HW215810   2.541   1.437   1.277
 4971SOL     OW15811   6.251   5.717   3.008
 4971SOL    HW115812   6.197   5.801   3.010
 4971SOL    HW215813   6.229   5.662   3.088
 4972SOL     OW15814   0.656   3.980   1.006
 4972SOL    HW115815   0.686   3.999   1.100
 4972SOL    HW215816   0.716   4.027   0.942
 4973SOL     OW15817   0.834   6.824   1.698
 4973SOL    HW115818   0.829   6.922   1.718
 4973SOL    HW215819   0.919   6.804   1.649
 4974SOL     OW15820   6.318   5.028   0.826
 4974SOL    HW115821   6.230   4.994   0.794
 4974SOL    HW215822   6.323   5.127   0.812
 4975SOL     OW15823   5.558   3.956   6.441
 4975SOL    HW115824   5.643   3.923   6.400
 4975SOL    HW215825   5.573   3.978   6.537
 4976SOL     OW15826   1.799   1.733   4.614
 4976SOL    HW115827   1.727   1.769   4.555
 4976SOL    HW215828   1.887   1.741   4.568
 4977SOL     OW15829   4.651   5.238   0.297
 4977SOL    HW115830   4.633   5.161   0.358
 4977SOL    HW215831   4.590   5.234   0.218
 4978SOL     OW15832   5.843   4.745   4.829
 4978SOL    HW115833   5.807   4.659   4.867
 4978SOL    HW215834   5.836   4.817   4.897
 4979SOL     OW15835   6.771   6.654   6.027
 4979SOL    HW115836   6.840   6.717   5.991
 4979SOL    HW215837   6.783   6.645   6.126
 4980SOL     OW15838   5.088   5.463   3.778
 4980SOL    HW115839   4.999   5.428   3.747
 4980SOL    HW215840   5.121   5.408   3.854
 4981SOL     OW15841   3.849   5.154   1.492
 4981SOL    HW115842   3.824   5.063   1.524
 4981SOL    HW215843   3.946   5.171   1.511
 4982SOL     OW15844   3.312   2.125   5.801
 4982SOL    HW115845   3.310   2.207   5.744
 4982SOL    HW215846   3.404   2.111   5.837
 4983SOL     OW15847   5.302   3.772   5.288
 4983SOL    HW115848   5.229   3.742   5.226
 4983SOL    HW215849   5.309   3.707   5.365
 4984SOL     OW15850   4.969   3.716   2.964
 4984SOL    HW115851   4.924   3.628   2.982
 4984SOL    HW215852   5.065   3.700   2.940
 4985SOL     OW15853   6.082   0.004   3.153
 4985SOL    HW115854   6.042   6.940   3.120
 4985SOL    HW215855   6.161   0.027   3.096
 4986SOL     OW15856   6.697   5.183   0.662
 4986SOL    HW115857   6.696   5.277   0.628
 4986SOL    HW215858   6.647   5.124   0.598
 4987SOL     OW15859   0.876   6.665   2.453
 4987SOL    HW115860   0.810   6.711   2.512
 4987SOL    HW215861   0.878   6.710   2.364
 4988SOL     OW15862   5.197   1.008   2.395
 4988SOL    HW115863   5.191   1.057   2.482
 4988SOL    HW215864   5.252   0.926   2.407
 4989SOL     OW15865   5.136   6.477   1.167
 4989SOL    HW115866   5.071   6.552   1.157
 4989SOL    HW215867   5.141   6.450   1.263
 4990SOL     OW15868   2.926   2.071   5.944
 4990SOL    HW115869   2.915   2.160   5.988
 4990SOL    HW215870   2.902   1.999   6.008
 4991SOL     OW15871   6.215   5.546   4.111
 4991SOL    HW115872   6.166   5.611   4.170
 4991SOL    HW215873   6.149   5.488   4.064
 4992SOL     OW15874   4.726   0.332   2.162
 4992SOL    HW115875   4.703   0.416   2.212
 4992SOL    HW215876   4.793   0.354   2.092
 4993SOL     OW15877   3.792   6.163   5.300
 4993SOL    HW115878   3.756   6.188   5.210
 4993SOL    HW215879   3.879   6.210   5.314
 4994SOL     OW15880   1.983   6.749   4.535
 4994SOL    HW115881   2.018   6.725   4.444
 4994SOL    HW215882   2.004   6.845   4.554
 4995SOL     OW15883   1.112   2.440   5.149
 4995SOL    HW115884   1.129   2.469   5.243
 4995SOL    HW215885   1.090   2.520   5.092
 4996SOL     OW15886   0.105   1.035   3.739
 4996SOL    HW115887   0.056   1.085   3.668
 4996SOL    HW215888   0.040   1.005   3.809
 4997SOL     OW15889   4.527   2.307   2.414
 4997SOL    HW115890   4.600   2.356   2.368
 4997SOL    HW215891   4.478   2.369   2.475
 4998SOL     OW15892   2.129   3.506   4.474
 4998SOL    HW115893   2.132   3.463   4.564
 4998SOL    HW215894   2.045   3.480   4.426
 4999SOL     OW15895   6.840   3.402   4.866
 4999SOL    HW115896   6.892   3.412   4.951
 4999SOL    HW215897   6.854   3.310   4.829
 5000SOL     OW15898   3.226   0.351   3.440
 5000SOL    HW115899   3.304   0.375   3.383
 5000SOL    HW215900   3.145   0.399   3.407
 5001SOL     OW15901   1.149   4.933   1.839
 5001SOL    HW115902   1.147   4.897   1.746
 5001SOL    HW215903   1.055   4.940   1.874
 5002SOL     OW15904   0.921   3.861   2.210
 5002SOL    HW115905   0.972   3.942   2.238
 5002SOL    HW215906   0.974   3.779   2.233
 5003SOL     OW15907   3.570   5.651   3.260
 5003SOL    HW115908   3.489   5.606   3.296
 5003SOL    HW215909   3.640   5.656   3.332
 5004SOL     OW15910   2.364   4.760   5.136
 5004SOL    HW115911   2.385   4.847   5.093
 5004SOL    HW215912   2.416   4.687   5.092
 5005SOL     OW15913   3.571   2.942   0.162
 5005SOL    HW115914   3.662   2.948   0.203
 5005SOL    HW215915   3.504   2.922   0.233
 5006SOL     OW15916   5.220   0.933   1.926
 5006SOL    HW115917   5.134   0.972   1.893
 5006SOL    HW215918   5.272   1.003   1.976
 5007SOL     OW15919   0.058   6.687   1.406
 5007SOL    HW115920   0.104   6.775   1.392
 5007SOL    HW215921   0.121   6.613   1.381
 5008SOL     OW15922   5.228   6.252   2.096
 5008SOL    HW115923   5.180   6.208   2.019
 5008SOL    HW215924   5.311   6.200   2.117
 5009SOL     OW15925   6.931   2.045   0.460
 5009SOL    HW115926   6.911   1.987   0.381
 5009SOL    HW215927   6.846   2.068   0.508
 5010SOL     OW15928   3.916   2.889   1.457
 5010SOL    HW115929   3.934   2.966   1.395
 5010SOL    HW215930   3.965   2.808   1.425
 5011SOL     OW15931   1.593   4.886   2.045
 5011SOL    HW115932   1.551   4.930   2.124
 5011SOL    HW215933   1.527   4.826   2.000
 5012SOL     OW15934   5.271   3.101   5.028
 5012SOL    HW115935   5.322   3.017   5.045
 5012SOL    HW215936   5.281   3.163   5.106
 5013SOL     OW15937   5.068   1.308   6.551
 5013SOL    HW115938   5.001   1.352   6.491
 5013SOL    HW215939   5.037   1.316   6.646
 5014SOL     OW15940   5.644   4.527   1.329
 5014SOL    HW115941   5.668   4.468   1.253
 5014SOL    HW215942   5.689   4.494   1.412
 5015SOL     OW15943   5.152   1.538   4.968
 5015SOL    HW115944   5.226   1.598   4.998
 5015SOL    HW215945   5.065   1.587   4.969
 5016SOL     OW15946   1.926   2.949   5.475
 5016SOL    HW115947   1.856   3.020   5.465
 5016SOL    HW215948   1.914   2.904   5.563
 5017SOL     OW15949   2.599   2.087   1.173
 5017SOL    HW115950   2.628   1.999   1.135
 5017SOL    HW215951   2.670   2.155   1.158
 5018SOL     OW15952   1.076   4.771   2.659
 5018SOL    HW115953   0.981   4.799   2.677
 5018SOL    HW215954   1.080   4.671   2.649
 5019SOL     OW15955   1.149   5.144   5.854
 5019SOL    HW115956   1.055   5.124   5.828
 5019SOL    HW215957   1.151   5.177   5.948
 5020SOL     OW15958   5.414   0.008   6.309
 5020SOL    HW115959   5.421   6.940   6.356
 5020SOL    HW215960   5.424   7.015   6.211
 5021SOL     OW15961   0.741   1.182   0.153
 5021SOL    HW115962   0.694   1.256   0.106
 5021SOL    HW215963   0.707   1.094   0.118
 5022SOL     OW15964   2.475   1.524   0.971
 5022SOL    HW115965   2.402   1.593   0.968
 5022SOL    HW215966   2.555   1.558   0.922
 5023SOL     OW15967   0.222   3.237   1.671
 5023SOL    HW115968   0.198   3.259   1.766
 5023SOL    HW215969   0.155   3.278   1.609
 5024SOL     OW15970   5.959   5.419   1.761
 5024SOL    HW115971   6.049   5.404   1.720
 5024SOL    HW215972   5.937   5.343   1.821
 5025SOL     OW15973   4.340   1.907   3.764
 5025SOL    HW115974   4.260   1.847   3.752
 5025SOL    HW215975   4.423   1.855   3.745
 5026SOL     OW15976   6.385   6.177   5.340
 5026SOL    HW115977   6.406   6.106   5.273
 5026SOL    HW215978   6.413   6.147   5.431
 5027SOL     OW15979   6.435   6.307   1.943
 5027SOL    HW115980   6.399   6.324   1.852
 5027SOL    HW215981   6.481   6.219   1.945
 5028SOL     OW15982   0.253   2.184   2.121
 5028SOL    HW115983   0.279   2.269   2.168
 5028SOL    HW215984   0.294   2.183   2.030
 5029SOL     OW15985   6.309   2.253   2.474
 5029SOL    HW115986   6.359   2.227   2.557
 5029SOL    HW215987   6.253   2.176   2.444
 5030SOL     OW15988   0.304   6.132   6.558
 5030SOL    HW115989   0.221   6.138   6.502
 5030SOL    HW215990   0.379   6.179   6.511
 5031SOL     OW15991   6.435   0.937   6.420
 5031SOL    HW115992   6.370   0.897   6.484
 5031SOL    HW215993   6.509   0.981   6.471
 5032SOL     OW15994   2.288   2.602   6.278
 5032SOL    HW115995   2.314   2.533   6.210
 5032SOL    HW215996   2.371   2.641   6.319
 5033SOL     OW15997   1.999   6.940   5.615
 5033SOL    HW115998   1.910   6.947   5.570
 5033SOL    HW215999   1.988   6.893   5.702
 5034SOL     OW16000   5.818   6.878   3.730
 5034SOL    HW116001   5.829   6.836   3.640
 5034SOL    HW216002   5.873   6.962   3.734
 5035SOL     OW16003   0.309   4.078   5.866
 5035SOL    HW116004   0.265   4.019   5.798
 5035SOL    HW216005   0.241   4.108   5.933
 5036SOL     OW16006   0.549   4.934   6.816
 5036SOL    HW116007   0.460   4.940   6.861
 5036SOL    HW216008   0.548   4.859   6.750
 5037SOL     OW16009   5.427   3.982   1.589
 5037SOL    HW116010   5.427   4.082   1.582
 5037SOL    HW216011   5.520   3.950   1.608
 5038SOL     OW16012   3.704   3.624   5.800
 5038SOL    HW116013   3.728   3.535   5.839
 5038SOL    HW216014   3.627   3.663   5.851
 5039SOL     OW16015   2.441   4.602   5.894
 5039SOL    HW116016   2.385   4.569   5.818
 5039SOL    HW216017   2.413   4.694   5.919
 5040SOL     OW16018   1.516   6.634   5.839
 5040SOL    HW116019   1.468   6.687   5.769
 5040SOL    HW216020   1.450   6.581   5.892
 5041SOL     OW16021   1.604   1.765   2.702
 5041SOL    HW116022   1.530   1.702   2.727
 5041SOL    HW216023   1.598   1.786   2.604
 5042SOL     OW16024   6.279   3.152   6.975
 5042SOL    HW116025   6.309   3.066   7.016
 5042SOL    HW216026   6.215   3.197   0.016
 5043SOL     OW16027   3.422   6.886   6.086
 5043SOL    HW116028   3.501   6.944   6.105
 5043SOL    HW216029   3.340   6.928   6.125
 5044SOL     OW16030   0.813   6.410   0.026
 5044SOL    HW116031   0.910   6.437   0.026
 5044SOL    HW216032   0.788   6.377   6.956
 5045SOL     OW16033   5.804   0.112   6.068
 5045SOL    HW116034   5.865   0.172   6.016
 5045SOL    HW216035   5.856   0.031   6.098
 5046SOL     OW16036   3.376   4.098   2.661
 5046SOL    HW116037   3.383   4.145   2.749
 5046SOL    HW216038   3.304   4.029   2.664
 5047SOL     OW16039   0.831   3.997   2.852
 5047SOL    HW116040   0.917   3.951   2.873
 5047SOL    HW216041   0.803   4.055   2.928
 5048SOL     OW16042   1.101   1.251   3.023
 5048SOL    HW116043   1.154   1.245   3.108
 5048SOL    HW216044   1.006   1.273   3.044
 5049SOL     OW16045   5.167   1.935   6.429
 5049SOL    HW116046   5.108   1.989   6.370
 5049SOL    HW216047   5.232   1.883   6.373
 5050SOL     OW16048   2.189   0.715   1.386
 5050SOL    HW116049   2.223   0.623   1.402
 5050SOL    HW216050   2.121   0.714   1.313
 5051SOL     OW16051   3.856   4.482   0.919
 5051SOL    HW116052   3.852   4.525   0.829
 5051SOL    HW216053   3.806   4.538   0.985
 5052SOL     OW16054   2.574   0.952   6.089
 5052SOL    HW116055   2.567   0.956   6.189
 5052SOL    HW216056   2.499   1.003   6.048
 5053SOL     OW16057   1.923   3.788   4.209
 5053SOL    HW116058   2.014   3.826   4.223
 5053SOL    HW216059   1.891   3.809   4.117
 5054SOL     OW16060   3.401   5.064   4.562
 5054SOL    HW116061   3.408   5.161   4.583
 5054SOL    HW216062   3.457   5.012   4.627
 5055SOL     OW16063   1.763   2.364   5.394
 5055SOL    HW116064   1.754   2.266   5.414
 5055SOL    HW216065   1.672   2.404   5.385
 5056SOL     OW16066   5.470   4.307   6.662
 5056SOL    HW116067   5.404   4.316   6.588
 5056SOL    HW216068   5.516   4.218   6.655
 5057SOL     OW16069   6.680   6.260   3.716
 5057SOL    HW116070   6.725   6.221   3.797
 5057SOL    HW216071   6.581   6.262   3.730
 5058SOL     OW16072   3.216   3.979   5.389
 5058SOL    HW116073   3.256   4.051   5.333
 5058SOL    HW216074   3.117   3.975   5.373
 5059SOL     OW16075   6.799   1.117   3.334
 5059SOL    HW116076   6.700   1.117   3.344
 5059SOL    HW216077   6.825   1.065   3.252
 5060SOL     OW16078   0.735   2.265   5.767
 5060SOL    HW116079   0.670   2.225   5.703
 5060SOL    HW216080   0.828   2.255   5.731
 5061SOL     OW16081   4.360   2.968   1.531
 5061SOL    HW116082   4.417   2.947   1.611
 5061SOL    HW216083   4.272   2.922   1.541
 5062SOL     OW16084   6.091   0.575   3.331
 5062SOL    HW116085   6.159   0.506   3.305
 5062SOL    HW216086   6.007   0.561   3.279
 5063SOL     OW16087   0.881   0.043   2.353
 5063SOL    HW116088   0.942   0.119   2.376
 5063SOL    HW216089   0.854   7.018   2.438
 5064SOL     OW16090   5.153   3.598   1.641
 5064SOL    HW116091   5.160   3.509   1.686
 5064SOL    HW216092   5.113   3.587   1.551
 5065SOL     OW16093   2.232   0.951   3.731
 5065SOL    HW116094   2.261   1.036   3.686
 5065SOL    HW216095   2.306   0.918   3.789
 5066SOL     OW16096   4.899   4.990   2.404
 5066SOL    HW116097   4.971   4.967   2.469
 5066SOL    HW216098   4.927   5.069   2.349
 5067SOL     OW16099   4.548   0.982   1.965
 5067SOL    HW116100   4.578   1.050   2.031
 5067SOL    HW216101   4.584   0.892   1.991
 5068SOL     OW16102   3.295   4.290   1.299
 5068SOL    HW116103   3.323   4.265   1.206
 5068SOL    HW216104   3.226   4.225   1.331
 5069SOL     OW16105   1.996   3.641   6.104
 5069SOL    HW116106   2.009   3.692   6.019
 5069SOL    HW216107   2.085   3.621   6.146
 5070SOL     OW16108   5.226   4.065   4.467
 5070SOL    HW116109   5.172   3.986   4.436
 5070SOL    HW216110   5.304   4.033   4.520
 5071SOL     OW16111   4.340   2.364   3.802
 5071SOL    HW116112   4.366   2.458   3.780
 5071SOL    HW216113   4.417   2.319   3.849
 5072SOL     OW16114   1.143   0.126   1.147
 5072SOL    HW116115   1.206   0.196   1.115
 5072SOL    HW216116   1.049   0.158   1.136
 5073SOL     OW16117   0.089   5.810   2.231
 5073SOL    HW116118   0.087   5.804   2.131
 5073SOL    HW216119   0.122   5.900   2.258
 5074SOL     OW16120   3.145   3.192   1.009
 5074SOL    HW116121   3.047   3.211   1.014
 5074SOL    HW216122   3.168   3.122   1.077
 5075SOL     OW16123   1.320   2.345   6.646
 5075SOL    HW116124   1.332   2.327   6.548
 5075SOL    HW216125   1.233   2.307   6.676
 5076SOL     OW16126   3.975   1.325   0.769
 5076SOL    HW116127   3.959   1.242   0.822
 5076SOL    HW216128   4.043   1.382   0.815
 5077SOL     OW16129   0.933   4.323   5.163
 5077SOL    HW116130   0.941   4.225   5.149
 5077SOL    HW216131   1.022   4.366   5.147
 5078SOL     OW16132   2.221   1.808   3.940
 5078SOL    HW116133   2.132   1.846   3.918
 5078SOL    HW216134   2.218   1.708   3.931
 5079SOL     OW16135   2.491   3.787   5.833
 5079SOL    HW116136   2.588   3.771   5.852
 5079SOL    HW216137   2.438   3.770   5.916
 5080SOL     OW16138   6.212   6.377   6.008
 5080SOL    HW116139   6.146   6.441   6.048
 5080SOL    HW216140   6.246   6.413   5.922
 5081SOL     OW16141   3.519   2.865   4.446
 5081SOL    HW116142   3.570   2.781   4.464
 5081SOL    HW216143   3.581   2.943   4.450
 5082SOL     OW16144   5.119   5.857   6.700
 5082SOL    HW116145   5.140   5.773   6.749
 5082SOL    HW216146   5.031   5.849   6.654
 5083SOL     OW16147   2.632   0.270   2.972
 5083SOL    HW116148   2.688   0.352   2.978
 5083SOL    HW216149   2.657   0.219   2.889
 5084SOL     OW16150   0.453   4.570   4.266
 5084SOL    HW116151   0.360   4.559   4.230
 5084SOL    HW216152   0.517   4.579   4.189
 5085SOL     OW16153   4.673   3.637   6.410
 5085SOL    HW116154   4.633   3.579   6.481
 5085SOL    HW216155   4.609   3.712   6.389
 5086SOL     OW16156   0.255   5.169   3.431
 5086SOL    HW116157   0.313   5.250   3.417
 5086SOL    HW216158   0.204   5.178   3.516
 5087SOL     OW16159   0.461   4.965   2.885
 5087SOL    HW116160   0.545   4.958   2.939
 5087SOL    HW216161   0.383   4.979   2.946
 5088SOL     OW16162   6.278   1.582   4.997
 5088SOL    HW116163   6.272   1.681   4.996
 5088SOL    HW216164   6.361   1.554   5.046
 5089SOL     OW16165   5.293   3.115   3.622
 5089SOL    HW116166   5.303   3.063   3.707
 5089SOL    HW216167   5.197   3.138   3.608
 5090SOL     OW16168   1.661   4.023   2.924
 5090SOL    HW116169   1.689   3.964   2.849
 5090SOL    HW216170   1.564   4.007   2.944
 5091SOL     OW16171   1.089   0.238   2.414
 5091SOL    HW116172   1.064   0.333   2.431
 5091SOL    HW216173   1.188   0.229   2.413
 5092SOL     OW16174   3.546   3.013   1.484
 5092SOL    HW116175   3.581   2.920   1.498
 5092SOL    HW216176   3.614   3.068   1.435
 5093SOL     OW16177   2.773   1.366   0.990
 5093SOL    HW116178   2.848   1.318   1.034
 5093SOL    HW216179   2.695   1.370   1.053
 5094SOL     OW16180   1.607   5.984   5.373
 5094SOL    HW116181   1.665   5.959   5.451
 5094SOL    HW216182   1.644   6.066   5.329
 5095SOL     OW16183   0.102   2.695   4.672
 5095SOL    HW116184   0.085   2.750   4.754
 5095SOL    HW216185   0.101   2.754   4.591
 5096SOL     OW16186   4.182   3.887   0.984
 5096SOL    HW116187   4.238   3.942   1.046
 5096SOL    HW216188   4.094   3.867   1.027
 5097SOL     OW16189   1.067   0.582   6.966
 5097SOL    HW116190   1.163   0.555   6.964
 5097SOL    HW216191   1.044   0.627   6.880
 5098SOL     OW16192   1.506   1.000   1.514
 5098SOL    HW116193   1.536   1.070   1.579
 5098SOL    HW216194   1.486   1.043   1.426
 5099SOL     OW16195   0.714   6.324   6.810
 5099SOL    HW116196   0.769   6.310   6.728
 5099SOL    HW216197   0.656   6.244   6.826
 5100SOL     OW16198   4.128   5.976   5.333
 5100SOL    HW116199   4.110   5.895   5.277
 5100SOL    HW216200   4.050   5.992   5.393
 5101SOL     OW16201   4.274   6.757   0.493
 5101SOL    HW116202   4.243   6.844   0.454
 5101SOL    HW216203   4.195   6.700   0.514
 5102SOL     OW16204   6.415   0.945   4.715
 5102SOL    HW116205   6.451   1.037   4.705
 5102SOL    HW216206   6.433   0.911   4.807
 5103SOL     OW16207   0.425   0.827   4.364
 5103SOL    HW116208   0.398   0.823   4.267
 5103SOL    HW216209   0.524   0.839   4.369
 5104SOL     OW16210   1.986   6.670   2.666
 5104SOL    HW116211   1.970   6.684   2.568
 5104SOL    HW216212   2.053   6.736   2.699
 5105SOL     OW16213   3.392   2.776   0.048
 5105SOL    HW116214   3.335   2.820   7.000
 5105SOL    HW216215   3.457   2.843   0.084
 5106SOL     OW16216   3.317   0.950   0.757
 5106SOL    HW116217   3.397   0.980   0.704
 5106SOL    HW216218   3.248   1.022   0.757
 5107SOL     OW16219   4.261   0.777   0.960
 5107SOL    HW116220   4.284   0.778   0.862
 5107SOL    HW216221   4.278   0.868   0.998
 5108SOL     OW16222   2.912   3.696   4.298
 5108SOL    HW116223   2.933   3.793   4.311
 5108SOL    HW216224   2.928   3.647   4.384
 5109SOL     OW16225   1.377   0.784   1.006
 5109SOL    HW116226   1.336   0.735   1.083
 5109SOL    HW216227   1.307   0.839   0.960
 5110SOL     OW16228   0.490   0.605   6.528
 5110SOL    HW116229   0.489   0.594   6.429
 5110SOL    HW216230   0.493   0.515   6.572
 5111SOL     OW16231   2.247   0.838   5.528
 5111SOL    HW116232   2.216   0.932   5.516
 5111SOL    HW216233   2.304   0.811   5.450
 5112SOL     OW16234   0.791   0.007   2.648
 5112SOL    HW116235   0.738   6.945   2.639
 5112SOL    HW216236   0.739   0.074   2.702
 5113SOL     OW16237   2.580   0.145   1.955
 5113SOL    HW116238   2.518   0.081   1.909
 5113SOL    HW216239   2.591   0.118   2.050
 5114SOL     OW16240   3.493   2.379   0.268
 5114SOL    HW116241   3.442   2.447   0.321
 5114SOL    HW216242   3.507   2.413   0.175
 5115SOL     OW16243   2.179   5.066   4.946
 5115SOL    HW116244   2.171   5.056   4.847
 5115SOL    HW216245   2.114   5.005   4.991
 5116SOL     OW16246   5.861   6.428   6.530
 5116SOL    HW116247   5.901   6.337   6.540
 5116SOL    HW216248   5.783   6.437   6.593
 5117SOL     OW16249   1.971   4.579   4.768
 5117SOL    HW116250   1.955   4.548   4.674
 5117SOL    HW216251   1.988   4.499   4.826
 5118SOL     OW16252   4.698   0.430   0.525
 5118SOL    HW116253   4.695   0.418   0.426
 5118SOL    HW216254   4.607   0.453   0.558
 5119SOL     OW16255   5.378   1.135   1.696
 5119SOL    HW116256   5.389   1.234   1.705
 5119SOL    HW216257   5.326   1.100   1.774
 5120SOL     OW16258   4.252   1.170   3.866
 5120SOL    HW116259   4.313   1.189   3.789
 5120SOL    HW216260   4.183   1.242   3.872
 5121SOL     OW16261   2.202   2.489   0.104
 5121SOL    HW116262   2.224   2.505   0.008
 5121SOL    HW216263   2.193   2.390   0.120
 5122SOL     OW16264   3.037   0.328   4.093
 5122SOL    HW116265   3.126   0.357   4.127
 5122SOL    HW216266   3.039   0.323   3.993
 5123SOL     OW16267   5.962   2.397   5.120
 5123SOL    HW116268   5.982   2.494   5.115
 5123SOL    HW216269   5.994   2.351   5.037
 5124SOL     OW16270   2.818   5.328   4.697
 5124SOL    HW116271   2.917   5.330   4.711
 5124SOL    HW216272   2.777   5.256   4.754
 5125SOL     OW16273   6.212   2.778   4.049
 5125SOL    HW116274   6.202   2.875   4.028
 5125SOL    HW216275   6.148   2.725   3.994
 5126SOL     OW16276   6.118   5.114   6.087
 5126SOL    HW116277   6.139   5.199   6.040
 5126SOL    HW216278   6.098   5.043   6.020
 5127SOL     OW16279   6.560   4.139   0.295
 5127SOL    HW116280   6.620   4.120   0.372
 5127SOL    HW216281   6.535   4.235   0.295
 5128SOL     OW16282   0.201   6.677   6.709
 5128SOL    HW116283   0.300   6.676   6.699
 5128SOL    HW216284   0.177   6.653   6.804
 5129SOL     OW16285   4.196   0.330   2.803
 5129SOL    HW116286   4.147   0.401   2.853
 5129SOL    HW216287   4.294   0.339   2.819
 5130SOL     OW16288   1.482   6.202   4.368
 5130SOL    HW116289   1.419   6.246   4.304
 5130SOL    HW216290   1.433   6.131   4.419
 5131SOL     OW16291   2.914   4.842   3.792
 5131SOL    HW116292   2.866   4.904   3.853
 5131SOL    HW216293   2.886   4.748   3.810
 5132SOL     OW16294   3.439   1.162   6.194
 5132SOL    HW116295   3.517   1.190   6.249
 5132SOL    HW216296   3.354   1.184   6.242
 5133SOL     OW16297   2.553   5.459   6.539
 5133SOL    HW116298   2.622   5.486   6.605
 5133SOL    HW216299   2.530   5.362   6.551
 5134SOL     OW16300   6.632   0.191   2.271
 5134SOL    HW116301   6.559   0.140   2.225
 5134SOL    HW216302   6.660   0.142   2.353
 5135SOL     OW16303   5.368   3.386   3.916
 5135SOL    HW116304   5.274   3.413   3.895
 5135SOL    HW216305   5.371   3.287   3.932
 5136SOL     OW16306   5.453   0.695   5.905
 5136SOL    HW116307   5.495   0.723   5.819
 5136SOL    HW216308   5.523   0.687   5.976
 5137SOL     OW16309   5.271   3.526   4.853
 5137SOL    HW116310   5.235   3.461   4.786
 5137SOL    HW216311   5.197   3.556   4.913
 5138SOL     OW16312   3.565   4.106   4.608
 5138SOL    HW116313   3.565   4.180   4.542
 5138SOL    HW216314   3.472   4.095   4.644
 5139SOL     OW16315   0.964   0.143   4.396
 5139SOL    HW116316   1.023   0.209   4.349
 5139SOL    HW216317   0.873   0.182   4.408
 5140SOL     OW16318   4.096   2.319   5.802
 5140SOL    HW116319   4.058   2.384   5.736
 5140SOL    HW216320   4.189   2.345   5.826
 5141SOL     OW16321   6.781   3.736   1.065
 5141SOL    HW116322   6.849   3.752   0.993
 5141SOL    HW216323   6.805   3.790   1.146
 5142SOL     OW16324   5.468   6.952   4.946
 5142SOL    HW116325   5.488   6.887   5.020
 5142SOL    HW216326   5.547   7.010   4.930
 5143SOL     OW16327   0.566   4.215   4.806
 5143SOL    HW116328   0.552   4.240   4.902
 5143SOL    HW216329   0.642   4.267   4.769
 5144SOL     OW16330   2.079   4.455   5.937
 5144SOL    HW116331   2.044   4.540   5.975
 5144SOL    HW216332   2.081   4.460   5.837
 5145SOL     OW16333   4.121   5.929   6.153
 5145SOL    HW116334   4.045   5.927   6.087
 5145SOL    HW216335   4.094   5.981   6.234
 5146SOL     OW16336   3.717   4.285   5.273
 5146SOL    HW116337   3.686   4.193   5.247
 5146SOL    HW216338   3.815   4.283   5.291
 5147SOL     OW16339   5.965   4.957   3.476
 5147SOL    HW116340   5.978   5.002   3.564
 5147SOL    HW216341   6.050   4.912   3.448
 5148SOL     OW16342   0.280   1.257   2.079
 5148SOL    HW116343   0.304   1.322   2.151
 5148SOL    HW216344   0.181   1.247   2.074
 5149SOL     OW16345   5.998   5.655   4.762
 5149SOL    HW116346   5.971   5.626   4.670
 5149SOL    HW216347   6.040   5.577   4.810
 5150SOL     OW16348   1.875   4.406   4.075
 5150SOL    HW116349   1.950   4.473   4.071
 5150SOL    HW216350   1.789   4.452   4.051
 5151SOL     OW16351   6.804   4.362   2.056
 5151SOL    HW116352   6.782   4.454   2.022
 5151SOL    HW216353   6.736   4.297   2.022
 5152SOL     OW16354   2.426   5.563   6.884
 5152SOL    HW116355   2.451   5.659   6.896
 5152SOL    HW216356   2.479   5.523   6.809
 5153SOL     OW16357   0.541   2.115   0.776
 5153SOL    HW116358   0.450   2.116   0.819
 5153SOL    HW216359   0.554   2.200   0.725
 5154SOL     OW16360   1.241   2.834   5.891
 5154SOL    HW116361   1.298   2.888   5.953
 5154SOL    HW216362   1.159   2.886   5.868
 5155SOL     OW16363   3.795   0.637   1.779
 5155SOL    HW116364   3.703   0.672   1.763
 5155SOL    HW216365   3.804   0.607   1.874
 5156SOL     OW16366   5.814   4.761   5.258
 5156SOL    HW116367   5.867   4.679   5.237
 5156SOL    HW216368   5.842   4.835   5.196
 5157SOL     OW16369   3.208   2.145   2.324
 5157SOL    HW116370   3.250   2.081   2.261
 5157SOL    HW216371   3.124   2.182   2.284
 5158SOL     OW16372   4.375   2.545   0.672
 5158SOL    HW116373   4.350   2.504   0.760
 5158SOL    HW216374   4.399   2.473   0.607
 5159SOL     OW16375   5.659   3.479   5.995
 5159SOL    HW116376   5.607   3.408   5.946
 5159SOL    HW216377   5.735   3.436   6.044
 5160SOL     OW16378   0.145   5.159   3.192
 5160SOL    HW116379   0.110   5.252   3.179
 5160SOL    HW216380   0.168   5.146   3.289
 5161SOL     OW16381   1.141   3.717   0.454
 5161SOL    HW116382   1.192   3.630   0.457
 5161SOL    HW216383   1.063   3.712   0.516
 5162SOL     OW16384   0.987   5.416   2.794
 5162SOL    HW116385   0.980   5.367   2.707
 5162SOL    HW216386   1.077   5.457   2.802
 5163SOL     OW16387   3.654   6.205   0.376
 5163SOL    HW116388   3.683   6.298   0.399
 5163SOL    HW216389   3.575   6.209   0.315
 5164SOL     OW16390   3.403   3.116   6.724
 5164SOL    HW116391   3.376   3.206   6.690
 5164SOL    HW216392   3.473   3.078   6.664
 5165SOL     OW16393   0.506   4.280   5.810
 5165SOL    HW116394   0.481   4.359   5.867
 5165SOL    HW216395   0.441   4.207   5.825
 5166SOL     OW16396   2.192   5.029   2.620
 5166SOL    HW116397   2.140   5.111   2.597
 5166SOL    HW216398   2.134   4.948   2.610
 5167SOL     OW16399   6.333   4.097   4.827
 5167SOL    HW116400   6.234   4.083   4.828
 5167SOL    HW216401   6.379   4.016   4.862
 5168SOL     OW16402   5.209   3.008   3.009
 5168SOL    HW116403   5.117   3.043   2.988
 5168SOL    HW216404   5.237   2.943   2.939
 5169SOL     OW16405   4.347   2.116   3.589
 5169SOL    HW116406   4.325   2.199   3.639
 5169SOL    HW216407   4.337   2.037   3.650
 5170SOL     OW16408   1.392   3.484   5.145
 5170SOL    HW116409   1.404   3.442   5.235
 5170SOL    HW216410   1.482   3.505   5.106
 5171SOL     OW16411   6.712   4.608   5.962
 5171SOL    HW116412   6.691   4.511   5.957
 5171SOL    HW216413   6.803   4.625   5.924
 5172SOL     OW16414   1.317   4.260   2.988
 5172SOL    HW116415   1.299   4.163   2.976
 5172SOL    HW216416   1.372   4.274   3.070
 5173SOL     OW16417   4.494   5.239   5.190
 5173SOL    HW116418   4.420   5.284   5.141
 5173SOL    HW216419   4.534   5.167   5.134
 5174SOL     OW16420   2.237   5.070   3.934
 5174SOL    HW116421   2.259   5.164   3.960
 5174SOL    HW216422   2.289   5.045   3.853
 5175SOL     OW16423   2.281   3.693   6.805
 5175SOL    HW116424   2.303   3.730   6.714
 5175SOL    HW216425   2.277   3.768   6.871
 5176SOL     OW16426   4.664   4.501   6.239
 5176SOL    HW116427   4.729   4.469   6.308
 5176SOL    HW216428   4.618   4.583   6.272
 5177SOL     OW16429   4.628   6.735   0.762
 5177SOL    HW116430   4.596   6.772   0.675
 5177SOL    HW216431   4.657   6.811   0.821
 5178SOL     OW16432   1.388   4.509   1.928
 5178SOL    HW116433   1.467   4.501   1.987
 5178SOL    HW216434   1.360   4.605   1.921
 5179SOL     OW16435   5.130   4.413   4.220
 5179SOL    HW116436   5.035   4.396   4.245
 5179SOL    HW216437   5.157   4.504   4.251
 5180SOL     OW16438   3.568   1.163   1.400
 5180SOL    HW116439   3.601   1.241   1.348
 5180SOL    HW216440   3.499   1.193   1.466
 5181SOL     OW16441   6.335   0.461   1.962
 5181SOL    HW116442   6.322   0.547   2.010
 5181SOL    HW216443   6.421   0.418   1.991
 5182SOL     OW16444   4.614   4.443   2.192
 5182SOL    HW116445   4.674   4.520   2.168
 5182SOL    HW216446   4.549   4.427   2.118
 5183SOL     OW16447   3.672   1.827   2.792
 5183SOL    HW116448   3.724   1.796   2.712
 5183SOL    HW216449   3.632   1.917   2.774
 5184SOL     OW16450   2.056   1.909   3.460
 5184SOL    HW116451   1.998   1.953   3.529
 5184SOL    HW216452   2.137   1.871   3.505
 5185SOL     OW16453   5.256   0.778   2.895
 5185SOL    HW116454   5.288   0.696   2.848
 5185SOL    HW216455   5.250   0.761   2.993
 5186SOL     OW16456   5.950   2.542   6.735
 5186SOL    HW116457   6.022   2.611   6.739
 5186SOL    HW216458   5.900   2.550   6.649
 5187SOL     OW16459   1.073   5.618   5.499
 5187SOL    HW116460   1.125   5.546   5.453
 5187SOL    HW216461   0.994   5.643   5.443
 5188SOL     OW16462   6.109   6.329   1.853
 5188SOL    HW116463   6.010   6.342   1.858
 5188SOL    HW216464   6.147   6.328   1.945
 5189SOL     OW16465   4.705   6.164   0.302
 5189SOL    HW116466   4.715   6.160   0.401
 5189SOL    HW216467   4.681   6.074   0.267
 5190SOL     OW16468   0.692   3.607   3.720
 5190SOL    HW116469   0.670   3.682   3.656
 5190SOL    HW216470   0.726   3.646   3.806
 5191SOL     OW16471   3.310   6.116   2.205
 5191SOL    HW116472   3.265   6.028   2.222
 5191SOL    HW216473   3.305   6.173   2.287
 5192SOL     OW16474   1.705   6.026   1.174
 5192SOL    HW116475   1.676   5.931   1.167
 5192SOL    HW216476   1.705   6.053   1.270
 5193SOL     OW16477   5.093   5.967   5.699
 5193SOL    HW116478   5.062   5.951   5.605
 5193SOL    HW216479   5.018   6.005   5.752
 5194SOL     OW16480   3.757   2.503   6.782
 5194SOL    HW116481   3.855   2.512   6.767
 5194SOL    HW216482   3.728   2.566   6.854
 5195SOL     OW16483   0.627   0.449   4.539
 5195SOL    HW116484   0.710   0.504   4.535
 5195SOL    HW216485   0.555   0.495   4.487
 5196SOL     OW16486   4.830   6.925   2.428
 5196SOL    HW116487   4.757   6.902   2.492
 5196SOL    HW216488   4.858   7.020   2.441
 5197SOL     OW16489   2.209   4.013   6.544
 5197SOL    HW116490   2.294   3.966   6.569
 5197SOL    HW216491   2.133   3.948   6.550
 5198SOL     OW16492   4.627   5.850   3.240
 5198SOL    HW116493   4.544   5.886   3.283
 5198SOL    HW216494   4.655   5.766   3.287
 5199SOL     OW16495   1.123   5.906   0.817
 5199SOL    HW116496   1.070   5.821   0.821
 5199SOL    HW216497   1.156   5.920   0.723
 5200SOL     OW16498   7.007   3.676   4.975
 5200SOL    HW116499   6.942   3.732   4.922
 5200SOL    HW216500   0.058   3.734   5.011
 5201SOL     OW16501   0.794   6.676   2.799
 5201SOL    HW116502   0.839   6.750   2.849
 5201SOL    HW216503   0.745   6.713   2.721
 5202SOL     OW16504   4.900   2.843   6.337
 5202SOL    HW116505   4.907   2.883   6.246
 5202SOL    HW216506   4.929   2.910   6.405
 5203SOL     OW16507   2.321   2.072   6.062
 5203SOL    HW116508   2.241   2.130   6.050
 5203SOL    HW216509   2.315   1.994   6.001
 5204SOL     OW16510   3.607   5.066   0.401
 5204SOL    HW116511   3.548   5.019   0.336
 5204SOL    HW216512   3.568   5.060   0.493
 5205SOL     OW16513   1.485   6.471   0.703
 5205SOL    HW116514   1.551   6.537   0.740
 5205SOL    HW216515   1.431   6.516   0.632
 5206SOL     OW16516   0.322   4.599   4.919
 5206SOL    HW116517   0.357   4.544   4.843
 5206SOL    HW216518   0.376   4.580   5.001
 5207SOL     OW16519   0.981   6.191   3.890
 5207SOL    HW116520   0.939   6.273   3.929
 5207SOL    HW216521   0.923   6.111   3.909
 5208SOL     OW16522   3.642   2.023   6.755
 5208SOL    HW116523   3.626   2.121   6.744
 5208SOL    HW216524   3.741   2.006   6.762
 5209SOL     OW16525   5.275   5.876   3.596
 5209SOL    HW116526   5.338   5.798   3.602
 5209SOL    HW216527   5.188   5.852   3.639
 5210SOL     OW16528   5.685   2.589   5.657
 5210SOL    HW116529   5.774   2.561   5.693
 5210SOL    HW216530   5.694   2.612   5.560
 5211SOL     OW16531   3.491   3.037   5.148
 5211SOL    HW116532   3.534   2.975   5.213
 5211SOL    HW216533   3.557   3.105   5.117
 5212SOL     OW16534   6.281   1.452   0.619
 5212SOL    HW116535   6.239   1.434   0.708
 5212SOL    HW216536   6.282   1.368   0.565
 5213SOL     OW16537   5.067   3.952   6.856
 5213SOL    HW116538   5.045   4.016   6.782
 5213SOL    HW216539   5.113   3.872   6.817
 5214SOL     OW16540   4.889   1.502   6.114
 5214SOL    HW116541   4.830   1.495   6.034
 5214SOL    HW216542   4.894   1.414   6.160
 5215SOL     OW16543   5.728   4.827   3.510
 5215SOL    HW116544   5.823   4.855   3.498
 5215SOL    HW216545   5.667   4.901   3.483
 5216SOL     OW16546   4.184   5.019   1.766
 5216SOL    HW116547   4.142   5.086   1.827
 5216SOL    HW216548   4.175   4.928   1.805
 5217SOL     OW16549   3.478   5.387   4.030
 5217SOL    HW116550   3.426   5.417   4.110
 5217SOL    HW216551   3.417   5.382   3.951
 5218SOL     OW16552   1.182   0.757   3.235
 5218SOL    HW116553   1.190   0.802   3.146
 5218SOL    HW216554   1.268   0.766   3.285
 5219SOL     OW16555   4.053   0.707   5.507
 5219SOL    HW116556   4.020   0.613   5.510
 5219SOL    HW216557   4.116   0.718   5.429
 5220SOL     OW16558   1.351   5.983   2.702
 5220SOL    HW116559   1.433   5.927   2.702
 5220SOL    HW216560   1.309   5.981   2.611
 5221SOL     OW16561   5.482   1.984   3.986
 5221SOL    HW116562   5.466   1.919   4.060
 5221SOL    HW216563   5.425   1.961   3.908
 5222SOL     OW16564   2.626   6.822   3.268
 5222SOL    HW116565   2.550   6.758   3.262
 5222SOL    HW216566   2.651   6.853   3.176
 5223SOL     OW16567   5.384   0.922   0.900
 5223SOL    HW116568   5.459   0.861   0.927
 5223SOL    HW216569   5.415   1.017   0.906
 5224SOL     OW16570   0.034   2.371   3.920
 5224SOL    HW116571   0.009   2.360   4.017
 5224SOL    HW216572   0.101   2.445   3.911
 5225SOL     OW16573   6.687   0.124   3.418
 5225SOL    HW116574   6.757   0.158   3.356
 5225SOL    HW216575   6.678   0.186   3.496
 5226SOL     OW16576   0.490   5.789   4.963
 5226SOL    HW116577   0.585   5.769   4.987
 5226SOL    HW216578   0.465   5.880   4.995
 5227SOL     OW16579   1.801   4.741   3.921
 5227SOL    HW116580   1.812   4.727   3.823
 5227SOL    HW216581   1.741   4.671   3.958
 5228SOL     OW16582   6.331   2.217   1.170
 5228SOL    HW116583   6.397   2.217   1.245
 5228SOL    HW216584   6.351   2.293   1.108
 5229SOL     OW16585   1.713   4.041   0.167
 5229SOL    HW116586   1.753   3.973   0.105
 5229SOL    HW216587   1.674   4.116   0.114
 5230SOL     OW16588   0.453   6.486   1.206
 5230SOL    HW116589   0.479   6.403   1.157
 5230SOL    HW216590   0.455   6.563   1.142
 5231SOL     OW16591   4.007   3.556   4.955
 5231SOL    HW116592   3.959   3.517   4.876
 5231SOL    HW216593   3.981   3.652   4.965
 5232SOL     OW16594   3.226   1.856   5.779
 5232SOL    HW116595   3.152   1.816   5.833
 5232SOL    HW216596   3.246   1.948   5.813
 5233SOL     OW16597   5.419   0.378   1.404
 5233SOL    HW116598   5.506   0.391   1.452
 5233SOL    HW216599   5.410   0.446   1.331
 5234SOL     OW16600   2.224   0.327   6.893
 5234SOL    HW116601   2.128   0.330   6.866
 5234SOL    HW216602   2.260   0.420   6.897
 5235SOL     OW16603   2.152   3.017   1.304
 5235SOL    HW116604   2.090   3.030   1.382
 5235SOL    HW216605   2.246   3.029   1.335
 5236SOL     OW16606   5.944   3.648   2.243
 5236SOL    HW116607   6.019   3.697   2.287
 5236SOL    HW216608   5.889   3.712   2.190
 5237SOL     OW16609   2.424   1.048   5.634
 5237SOL    HW116610   2.506   1.045   5.692
 5237SOL    HW216611   2.408   0.958   5.595
 5238SOL     OW16612   1.252   4.555   0.549
 5238SOL    HW116613   1.290   4.578   0.638
 5238SOL    HW216614   1.198   4.633   0.515
 5239SOL     OW16615   4.043   3.785   4.516
 5239SOL    HW116616   4.024   3.859   4.451
 5239SOL    HW216617   4.075   3.824   4.602
 5240SOL     OW16618   2.779   1.777   6.434
 5240SOL    HW116619   2.701   1.793   6.374
 5240SOL    HW216620   2.780   1.847   6.506
 5241SOL     OW16621   1.340   5.193   6.370
 5241SOL    HW116622   1.250   5.224   6.399
 5241SOL    HW216623   1.409   5.258   6.402
 5242SOL     OW16624   0.328   6.864   5.535
 5242SOL    HW116625   0.285   6.774   5.525
 5242SOL    HW216626   0.259   6.930   5.566
 5243SOL     OW16627   1.170   5.573   1.740
 5243SOL    HW116628   1.158   5.654   1.683
 5243SOL    HW216629   1.252   5.585   1.797
 5244SOL     OW16630   3.407   4.028   5.900
 5244SOL    HW116631   3.310   4.044   5.917
 5244SOL    HW216632   3.462   4.081   5.966
 5245SOL     OW16633   4.630   4.375   0.327
 5245SOL    HW116634   4.675   4.460   0.301
 5245SOL    HW216635   4.532   4.389   0.334
 5246SOL     OW16636   5.835   4.701   2.695
 5246SOL    HW116637   5.856   4.797   2.716
 5246SOL    HW216638   5.909   4.662   2.641
 5247SOL     OW16639   1.389   6.163   0.782
 5247SOL    HW116640   1.322   6.107   0.733
 5247SOL    HW216641   1.393   6.254   0.740
 5248SOL     OW16642   5.937   0.137   4.764
 5248SOL    HW116643   6.031   0.109   4.750
 5248SOL    HW216644   5.877   0.087   4.702
 5249SOL     OW16645   0.461   4.956   4.924
 5249SOL    HW116646   0.479   4.984   4.829
 5249SOL    HW216647   0.541   4.908   4.960
 5250SOL     OW16648   0.699   0.967   5.623
 5250SOL    HW116649   0.642   0.891   5.592
 5250SOL    HW216650   0.651   1.018   5.694
 5251SOL     OW16651   0.510   3.431   1.027
 5251SOL    HW116652   0.573   3.453   1.102
 5251SOL    HW216653   0.539   3.346   0.983
 5252SOL     OW16654   1.935   5.751   1.000
 5252SOL    HW116655   1.993   5.676   0.969
 5252SOL    HW216656   1.977   5.838   0.975
 5253SOL     OW16657   6.073   4.074   4.862
 5253SOL    HW116658   6.000   4.059   4.928
 5253SOL    HW216659   6.035   4.112   4.777
 5254SOL     OW16660   5.423   0.662   3.758
 5254SOL    HW116661   5.350   0.593   3.756
 5254SOL    HW216662   5.385   0.751   3.736
 5255SOL     OW16663   4.324   0.285   6.119
 5255SOL    HW116664   4.406   0.251   6.073
 5255SOL    HW216665   4.289   0.213   6.180
 5256SOL     OW16666   4.634   0.578   3.368
 5256SOL    HW116667   4.676   0.668   3.357
 5256SOL    HW216668   4.632   0.554   3.465
 5257SOL     OW16669   4.649   0.149   2.389
 5257SOL    HW116670   4.653   0.209   2.309
 5257SOL    HW216671   4.670   0.202   2.471
 5258SOL     OW16672   5.001   3.447   1.102
 5258SOL    HW116673   4.967   3.362   1.142
 5258SOL    HW216674   5.101   3.449   1.107
 5259SOL     OW16675   4.411   5.658   1.350
 5259SOL    HW116676   4.413   5.559   1.344
 5259SOL    HW216677   4.343   5.695   1.287
 5260SOL     OW16678   5.651   3.669   1.344
 5260SOL    HW116679   5.632   3.574   1.320
 5260SOL    HW216680   5.568   3.711   1.382
 5261SOL     OW16681   1.617   3.178   6.120
 5261SOL    HW116682   1.673   3.250   6.078
 5261SOL    HW216683   1.666   3.091   6.115
 5262SOL     OW16684   2.981   0.057   2.574
 5262SOL    HW116685   2.940   0.147   2.593
 5262SOL    HW216686   3.026   0.024   2.657
 5263SOL     OW16687   1.099   1.138   5.391
 5263SOL    HW116688   1.118   1.050   5.434
 5263SOL    HW216689   1.020   1.129   5.330
 5264SOL     OW16690   6.419   0.595   2.663
 5264SOL    HW116691   6.430   0.640   2.574
 5264SOL    HW216692   6.504   0.602   2.715
 5265SOL     OW16693   5.040   4.702   2.992
 5265SOL    HW116694   5.090   4.636   2.935
 5265SOL    HW216695   5.014   4.658   3.078
 5266SOL     OW16696   2.598   0.464   2.283
 5266SOL    HW116697   2.581   0.432   2.190
 5266SOL    HW216698   2.521   0.521   2.312
 5267SOL     OW16699   4.651   4.473   5.963
 5267SOL    HW116700   4.660   4.482   6.062
 5267SOL    HW216701   4.594   4.548   5.928
 5268SOL     OW16702   5.871   6.474   5.808
 5268SOL    HW116703   5.932   6.415   5.756
 5268SOL    HW216704   5.920   6.557   5.836
 5269SOL     OW16705   2.160   6.921   4.201
 5269SOL    HW116706   2.126   6.834   4.238
 5269SOL    HW216707   2.090   6.964   4.145
 5270SOL     OW16708   4.975   1.587   2.240
 5270SOL    HW116709   4.983   1.680   2.275
 5270SOL    HW216710   4.939   1.527   2.312
 5271SOL     OW16711   4.873   5.008   4.868
 5271SOL    HW116712   4.895   4.958   4.951
 5271SOL    HW216713   4.897   4.953   4.788
 5272SOL     OW16714   1.870   5.834   3.000
 5272SOL    HW116715   1.870   5.934   2.997
 5272SOL    HW216716   1.861   5.803   3.094
 5273SOL     OW16717   0.074   3.178   3.239
 5273SOL    HW116718   0.039   3.193   3.331
 5273SOL    HW216719   0.104   3.083   3.229
 5274SOL     OW16720   6.167   5.774   2.532
 5274SOL    HW116721   6.076   5.804   2.560
 5274SOL    HW216722   6.229   5.853   2.530
 5275SOL     OW16723   3.706   1.477   6.274
 5275SOL    HW116724   3.701   1.393   6.330
 5275SOL    HW216725   3.616   1.521   6.273
 5276SOL     OW16726   1.580   0.045   1.447
 5276SOL    HW116727   1.538   7.001   1.509
 5276SOL    HW216728   1.565   0.016   1.353
 5277SOL     OW16729   2.043   2.829   2.886
 5277SOL    HW116730   2.015   2.801   2.978
 5277SOL    HW216731   2.133   2.791   2.866
 5278SOL     OW16732   5.132   0.086   4.260
 5278SOL    HW116733   5.095   0.156   4.199
 5278SOL    HW216734   5.166   0.128   4.344
 5279SOL     OW16735   1.809   5.406   6.454
 5279SOL    HW116736   1.815   5.410   6.354
 5279SOL    HW216737   1.843   5.317   6.485
 5280SOL     OW16738   2.669   6.147   5.583
 5280SOL    HW116739   2.654   6.244   5.561
 5280SOL    HW216740   2.688   6.137   5.680
 5281SOL     OW16741   0.868   1.884   3.449
 5281SOL    HW116742   0.849   1.947   3.375
 5281SOL    HW216743   0.905   1.934   3.527
 5282SOL     OW16744   1.881   1.151   2.679
 5282SOL    HW116745   1.951   1.142   2.608
 5282SOL    HW216746   1.892   1.239   2.726
 5283SOL     OW16747   2.941   0.163   2.030
 5283SOL    HW116748   2.947   0.110   1.946
 5283SOL    HW216749   2.861   0.133   2.083
 5284SOL     OW16750   4.979   3.087   2.603
 5284SOL    HW116751   4.993   3.159   2.535
 5284SOL    HW216752   4.937   3.007   2.560
 5285SOL     OW16753   1.377   4.275   4.391
 5285SOL    HW116754   1.312   4.252   4.319
 5285SOL    HW216755   1.388   4.197   4.452
 5286SOL     OW16756   0.012   4.052   1.300
 5286SOL    HW116757   0.089   4.083   1.245
 5286SOL    HW216758   0.027   4.077   1.395
 5287SOL     OW16759   1.431   5.989   1.773
 5287SOL    HW116760   1.452   5.900   1.733
 5287SOL    HW216761   1.493   6.006   1.849
 5288SOL     OW16762   3.877   1.124   2.468
 5288SOL    HW116763   3.961   1.139   2.519
 5288SOL    HW216764   3.876   1.032   2.430
 5289SOL     OW16765   2.035   4.937   6.285
 5289SOL    HW116766   2.079   4.848   6.290
 5289SOL    HW216767   2.083   4.995   6.218
 5290SOL     OW16768   1.558   4.045   5.958
 5290SOL    HW116769   1.511   4.085   6.037
 5290SOL    HW216770   1.569   3.946   5.973
 5291SOL     OW16771   2.879   4.802   6.034
 5291SOL    HW116772   2.828   4.751   6.103
 5291SOL    HW216773   2.976   4.801   6.055
 5292SOL     OW16774   6.234   4.943   6.419
 5292SOL    HW116775   6.318   4.977   6.378
 5292SOL    HW216776   6.171   5.018   6.435
 5293SOL     OW16777   1.380   0.363   4.234
 5293SOL    HW116778   1.470   0.348   4.277
 5293SOL    HW216779   1.392   0.381   4.137
 5294SOL     OW16780   5.823   2.770   4.839
 5294SOL    HW116781   5.862   2.862   4.848
 5294SOL    HW216782   5.726   2.772   4.864
 5295SOL     OW16783   3.976   1.028   2.833
 5295SOL    HW116784   3.952   1.102   2.896
 5295SOL    HW216785   3.999   1.066   2.744
 5296SOL     OW16786   3.072   5.456   6.846
 5296SOL    HW116787   3.005   5.531   6.839
 5296SOL    HW216788   3.074   5.422   6.940
 5297SOL     OW16789   2.432   2.530   0.586
 5297SOL    HW116790   2.341   2.503   0.553
 5297SOL    HW216791   2.489   2.449   0.597
 5298SOL     OW16792   1.109   5.782   0.278
 5298SOL    HW116793   1.073   5.714   0.214
 5298SOL    HW216794   1.105   5.746   0.371
 5299SOL     OW16795   2.098   2.933   0.582
 5299SOL    HW116796   2.167   2.865   0.606
 5299SOL    HW216797   2.110   2.962   0.487
 5300SOL     OW16798   1.052   6.296   1.299
 5300SOL    HW116799   1.029   6.238   1.221
 5300SOL    HW216800   1.146   6.328   1.290
 5301SOL     OW16801   3.393   2.409   6.631
 5301SOL    HW116802   3.338   2.349   6.690
 5301SOL    HW216803   3.378   2.385   6.535
 5302SOL     OW16804   5.863   5.554   4.192
 5302SOL    HW116805   5.814   5.493   4.254
 5302SOL    HW216806   5.901   5.501   4.116
 5303SOL     OW16807   6.708   5.573   3.257
 5303SOL    HW116808   6.651   5.650   3.285
 5303SOL    HW216809   6.750   5.592   3.169
 5304SOL     OW16810   5.275   1.188   6.855
 5304SOL    HW116811   5.182   1.212   6.826
 5304SOL    HW216812   5.287   1.212   6.951
 5305SOL     OW16813   0.874   5.353   3.023
 5305SOL    HW116814   0.950   5.343   3.087
 5305SOL    HW216815   0.909   5.387   2.936
 5306SOL     OW16816   0.873   4.154   4.593
 5306SOL    HW116817   0.825   4.235   4.627
 5306SOL    HW216818   0.962   4.180   4.557
 5307SOL     OW16819   4.682   1.829   0.013
 5307SOL    HW116820   4.760   1.804   6.977
 5307SOL    HW216821   4.712   1.890   0.087
 5308SOL     OW16822   0.795   5.955   3.695
 5308SOL    HW116823   0.823   5.968   3.790
 5308SOL    HW216824   0.714   5.896   3.692
 5309SOL     OW16825   4.306   4.348   1.448
 5309SOL    HW116826   4.275   4.427   1.396
 5309SOL    HW216827   4.405   4.352   1.460
 5310SOL     OW16828   6.427   3.727   2.236
 5310SOL    HW116829   6.488   3.674   2.177
 5310SOL    HW216830   6.424   3.684   2.326
 5311SOL     OW16831   6.350   5.745   0.092
 5311SOL    HW116832   6.310   5.710   0.007
 5311SOL    HW216833   6.433   5.693   0.113
 5312SOL     OW16834   6.935   5.248   2.091
 5312SOL    HW116835   6.960   5.155   2.117
 5312SOL    HW216836   6.943   5.260   1.992
 5313SOL     OW16837   1.658   3.777   6.775
 5313SOL    HW116838   1.752   3.777   6.741
 5313SOL    HW216839   1.642   3.696   6.830
 5314SOL     OW16840   3.377   6.234   0.542
 5314SOL    HW116841   3.431   6.204   0.620
 5314SOL    HW216842   3.283   6.253   0.571
 5315SOL     OW16843   4.858   3.467   1.546
 5315SOL    HW116844   4.790   3.508   1.608
 5315SOL    HW216845   4.819   3.459   1.454
 5316SOL     OW16846   0.993   4.052   5.026
 5316SOL    HW116847   1.079   4.011   5.055
 5316SOL    HW216848   0.973   4.027   4.932
 5317SOL     OW16849   6.697   6.955   4.772
 5317SOL    HW116850   6.696   6.883   4.841
 5317SOL    HW216851   6.609   6.958   4.725
 5318SOL     OW16852   0.040   2.688   6.466
 5318SOL    HW116853   6.971   2.729   6.451
 5318SOL    HW216854   0.080   2.726   6.549
 5319SOL     OW16855   3.751   6.746   0.078
 5319SOL    HW116856   3.742   6.843   0.056
 5319SOL    HW216857   3.661   6.703   0.083
 5320SOL     OW16858   5.947   5.038   6.960
 5320SOL    HW116859   5.977   5.026   6.865
 5320SOL    HW216860   6.027   5.053   7.018
 5321SOL     OW16861   1.331   4.871   3.911
 5321SOL    HW116862   1.356   4.891   4.005
 5321SOL    HW216863   1.312   4.773   3.901
 5322SOL     OW16864   4.857   6.221   6.453
 5322SOL    HW116865   4.877   6.139   6.398
 5322SOL    HW216866   4.829   6.193   6.545
 5323SOL     OW16867   3.907   1.841   6.973
 5323SOL    HW116868   3.935   1.901   6.898
 5323SOL    HW216869   3.896   1.748   6.939
 5324SOL     OW16870   4.196   2.248   0.625
 5324SOL    HW116871   4.120   2.282   0.570
 5324SOL    HW216872   4.236   2.167   0.581
 5325SOL     OW16873   4.843   0.705   4.550
 5325SOL    HW116874   4.908   0.714   4.626
 5325SOL    HW216875   4.776   0.779   4.555
 5326SOL     OW16876   0.495   4.844   3.410
 5326SOL    HW116877   0.593   4.866   3.416
 5326SOL    HW216878   0.451   4.863   3.498
 5327SOL     OW16879   5.749   2.925   5.566
 5327SOL    HW116880   5.697   2.998   5.522
 5327SOL    HW216881   5.704   2.837   5.551
 5328SOL     OW16882   4.660   2.885   5.040
 5328SOL    HW116883   4.603   2.908   4.962
 5328SOL    HW216884   4.617   2.917   5.124
 5329SOL     OW16885   0.115   4.863   6.704
 5329SOL    HW116886   0.158   4.932   6.645
 5329SOL    HW216887   0.019   4.853   6.677
 5330SOL     OW16888   3.229   4.114   5.646
 5330SOL    HW116889   3.261   4.029   5.687
 5330SOL    HW216890   3.194   4.096   5.554
 5331SOL     OW16891   5.170   1.374   0.528
 5331SOL    HW116892   5.261   1.333   0.527
 5331SOL    HW216893   5.138   1.381   0.623
 5332SOL     OW16894   0.721   3.686   1.735
 5332SOL    HW116895   0.635   3.733   1.753
 5332SOL    HW216896   0.705   3.588   1.724
 5333SOL     OW16897   1.143   0.708   3.926
 5333SOL    HW116898   1.236   0.737   3.950
 5333SOL    HW216899   1.147   0.644   3.849
 5334SOL     OW16900   4.260   0.270   4.011
 5334SOL    HW116901   4.203   0.285   4.092
 5334SOL    HW216902   4.202   0.241   3.935
 5335SOL     OW16903   5.708   5.872   2.463
 5335SOL    HW116904   5.723   5.939   2.536
 5335SOL    HW216905   5.713   5.918   2.375
 5336SOL     OW16906   2.760   1.789   3.222
 5336SOL    HW116907   2.771   1.875   3.173
 5336SOL    HW216908   2.844   1.769   3.272
 5337SOL     OW16909   5.325   3.775   1.750
 5337SOL    HW116910   5.354   3.852   1.694
 5337SOL    HW216911   5.285   3.704   1.691
 5338SOL     OW16912   5.632   1.354   5.901
 5338SOL    HW116913   5.682   1.291   5.842
 5338SOL    HW216914   5.638   1.323   5.995
 5339SOL     OW16915   6.828   2.230   3.868
 5339SOL    HW116916   6.812   2.223   3.769
 5339SOL    HW216917   6.914   2.278   3.885
 5340SOL     OW16918   5.568   2.605   0.759
 5340SOL    HW116919   5.504   2.551   0.813
 5340SOL    HW216920   5.591   2.556   0.675
 5341SOL     OW16921   3.116   4.379   6.684
 5341SOL    HW116922   3.206   4.338   6.700
 5341SOL    HW216923   3.111   4.412   6.590
 5342SOL     OW16924   3.682   0.107   3.610
 5342SOL    HW116925   3.632   0.085   3.526
 5342SOL    HW216926   3.735   0.027   3.638
 5343SOL     OW16927   3.824   3.575   4.502
 5343SOL    HW116928   3.742   3.566   4.446
 5343SOL    HW216929   3.861   3.668   4.493
 5344SOL     OW16930   2.251   2.001   2.130
 5344SOL    HW116931   2.252   2.059   2.049
 5344SOL    HW216932   2.287   1.911   2.107
 5345SOL     OW16933   3.892   6.531   0.956
 5345SOL    HW116934   3.887   6.629   0.976
 5345SOL    HW216935   3.850   6.480   1.031
 5346SOL     OW16936   3.447   5.754   4.257
 5346SOL    HW116937   3.545   5.744   4.242
 5346SOL    HW216938   3.430   5.825   4.325
 5347SOL     OW16939   6.840   2.637   1.655
 5347SOL    HW116940   6.752   2.630   1.607
 5347SOL    HW216941   6.912   2.656   1.589
 5348SOL     OW16942   6.590   2.010   1.033
 5348SOL    HW116943   6.612   2.092   0.981
 5348SOL    HW216944   6.610   1.929   0.977
 5349SOL     OW16945   2.120   2.608   0.342
 5349SOL    HW116946   2.034   2.659   0.337
 5349SOL    HW216947   2.132   2.557   0.257
 5350SOL     OW16948   1.920   6.659   5.224
 5350SOL    HW116949   1.929   6.563   5.200
 5350SOL    HW216950   1.868   6.668   5.309
 5351SOL     OW16951   6.823   5.132   2.366
 5351SOL    HW116952   6.773   5.123   2.280
 5351SOL    HW216953   6.883   5.212   2.362
 5352SOL     OW16954   2.386   5.128   3.384
 5352SOL    HW116955   2.311   5.063   3.398
 5352SOL    HW216956   2.353   5.221   3.396
 5353SOL     OW16957   3.922   5.110   4.200
 5353SOL    HW116958   3.843   5.123   4.260
 5353SOL    HW216959   3.921   5.017   4.164
 5354SOL     OW16960   2.465   5.270   2.086
 5354SOL    HW116961   2.501   5.179   2.068
 5354SOL    HW216962   2.537   5.328   2.124
 5355SOL     OW16963   6.916   4.101   4.183
 5355SOL    HW116964   6.818   4.110   4.165
 5355SOL    HW216965   6.939   4.153   4.265
 5356SOL     OW16966   5.974   4.602   2.273
 5356SOL    HW116967   5.904   4.562   2.214
 5356SOL    HW216968   6.016   4.530   2.329
 5357SOL     OW16969   3.078   5.997   0.675
 5357SOL    HW116970   3.161   5.947   0.648
 5357SOL    HW216971   3.080   6.012   0.774
 5358SOL     OW16972   4.742   1.245   6.941
 5358SOL    HW116973   4.716   1.302   7.020
 5358SOL    HW216974   4.695   1.157   6.946
 5359SOL     OW16975   1.255   1.476   5.416
 5359SOL    HW116976   1.329   1.469   5.348
 5359SOL    HW216977   1.183   1.535   5.381
 5360SOL     OW16978   3.813   6.627   4.579
 5360SOL    HW116979   3.908   6.628   4.551
 5360SOL    HW216980   3.779   6.533   4.581
 5361SOL     OW16981   2.462   1.236   5.421
 5361SOL    HW116982   2.413   1.199   5.500
 5361SOL    HW216983   2.552   1.195   5.416
 5362SOL     OW16984   6.925   5.907   3.212
 5362SOL    HW116985   6.972   5.840   3.269
 5362SOL    HW216986   6.983   5.929   3.132
 5363SOL     OW16987   0.372   0.295   6.046
 5363SOL    HW116988   0.430   0.372   6.021
 5363SOL    HW216989   0.359   0.293   6.145
 5364SOL     OW16990   6.618   6.446   2.498
 5364SOL    HW116991   6.631   6.376   2.569
 5364SOL    HW216992   6.694   6.442   2.433
 5365SOL     OW16993   3.933   2.881   0.102
 5365SOL    HW116994   3.949   2.933   0.018
 5365SOL    HW216995   3.899   2.942   0.174
 5366SOL     OW16996   5.225   5.744   1.690
 5366SOL    HW116997   5.185   5.797   1.765
 5366SOL    HW216998   5.324   5.743   1.700
 5367SOL     OW16999   0.708   6.519   0.910
 5367SOL    HW117000   0.750   6.484   0.826
 5367SOL    HW217001   0.622   6.471   0.927
 5368SOL     OW17002   5.678   0.490   2.731
 5368SOL    HW117003   5.585   0.462   2.758
 5368SOL    HW217004   5.727   0.523   2.811
 5369SOL     OW17005   2.892   6.740   1.732
 5369SOL    HW117006   2.932   6.659   1.774
 5369SOL    HW217007   2.945   6.765   1.650
 5370SOL     OW17008   4.609   2.703   1.521
 5370SOL    HW117009   4.529   2.644   1.509
 5370SOL    HW217010   4.603   2.751   1.609
 5371SOL     OW17011   0.697   3.880   5.125
 5371SOL    HW117012   0.767   3.907   5.060
 5371SOL    HW217013   0.702   3.939   5.206
 5372SOL     OW17014   1.678   6.180   3.650
 5372SOL    HW117015   1.594   6.195   3.597
 5372SOL    HW217016   1.678   6.086   3.686
 5373SOL     OW17017   3.647   6.620   4.165
 5373SOL    HW117018   3.733   6.671   4.165
 5373SOL    HW217019   3.651   6.548   4.234
 5374SOL     OW17020   1.829   4.271   0.369
 5374SOL    HW117021   1.847   4.173   0.376
 5374SOL    HW217022   1.862   4.318   0.451
 5375SOL     OW17023   0.801   5.703   4.608
 5375SOL    HW117024   0.708   5.708   4.646
 5375SOL    HW217025   0.829   5.607   4.603
 5376SOL     OW17026   1.728   2.686   0.729
 5376SOL    HW117027   1.779   2.706   0.812
 5376SOL    HW217028   1.785   2.632   0.667
 5377SOL     OW17029   6.647   6.765   2.627
 5377SOL    HW117030   6.688   6.733   2.712
 5377SOL    HW217031   6.716   6.762   2.554
 5378SOL     OW17032   6.747   0.752   2.539
 5378SOL    HW117033   6.793   0.810   2.471
 5378SOL    HW217034   6.803   0.672   2.558
 5379SOL     OW17035   1.189   4.646   4.869
 5379SOL    HW117036   1.273   4.599   4.842
 5379SOL    HW217037   1.209   4.740   4.895
 5380SOL     OW17038   2.793   1.541   2.946
 5380SOL    HW117039   2.717   1.550   3.011
 5380SOL    HW217040   2.876   1.515   2.996
 5381SOL     OW17041   6.730   4.739   1.897
 5381SOL    HW117042   6.750   4.735   1.995
 5381SOL    HW217043   6.631   4.739   1.883
 5382SOL     OW17044   2.782   0.997   1.726
 5382SOL    HW117045   2.869   0.966   1.687
 5382SOL    HW217046   2.786   0.989   1.825
 5383SOL     OW17047   2.451   2.255   5.279
 5383SOL    HW117048   2.351   2.253   5.271
 5383SOL    HW217049   2.479   2.344   5.316
 5384SOL     OW17050   6.268   6.689   5.590
 5384SOL    HW117051   6.311   6.639   5.515
 5384SOL    HW217052   6.253   6.784   5.564
 5385SOL     OW17053   3.448   3.251   4.245
 5385SOL    HW117054   3.395   3.317   4.192
 5385SOL    HW217055   3.415   3.159   4.226
 5386SOL     OW17056   5.041   1.684   4.405
 5386SOL    HW117057   5.081   1.604   4.360
 5386SOL    HW217058   5.104   1.761   4.399
 5387SOL     OW17059   2.238   0.577   3.680
 5387SOL    HW117060   2.166   0.578   3.749
 5387SOL    HW217061   2.199   0.597   3.591
 5388SOL     OW17062   0.058   1.698   3.927
 5388SOL    HW117063   0.063   1.790   3.967
 5388SOL    HW217064   0.103   1.699   3.838
 5389SOL     OW17065   4.359   1.239   3.609
 5389SOL    HW117066   4.374   1.337   3.625
 5389SOL    HW217067   4.445   1.190   3.619
 5390SOL     OW17068   5.235   3.757   3.535
 5390SOL    HW117069   5.210   3.758   3.632
 5390SOL    HW217070   5.189   3.680   3.490
 5391SOL     OW17071   2.087   1.713   0.706
 5391SOL    HW117072   2.128   1.780   0.768
 5391SOL    HW217073   2.159   1.663   0.658
 5392SOL     OW17074   5.323   3.516   1.377
 5392SOL    HW117075   5.342   3.460   1.457
 5392SOL    HW217076   5.343   3.612   1.396
 5393SOL     OW17077   4.465   6.578   5.686
 5393SOL    HW117078   4.506   6.525   5.761
 5393SOL    HW217079   4.536   6.630   5.640
 5394SOL     OW17080   0.246   5.141   0.415
 5394SOL    HW117081   0.218   5.082   0.491
 5394SOL    HW217082   0.177   5.213   0.402
 5395SOL     OW17083   4.545   0.918   1.191
 5395SOL    HW117084   4.459   0.963   1.217
 5395SOL    HW217085   4.531   0.819   1.189
 5396SOL     OW17086   5.098   4.281   1.580
 5396SOL    HW117087   5.008   4.312   1.549
 5396SOL    HW217088   5.091   4.249   1.675
 5397SOL     OW17089   0.265   2.907   1.288
 5397SOL    HW117090   0.166   2.900   1.273
 5397SOL    HW217091   0.283   2.977   1.357
 5398SOL     OW17092   3.495   1.639   3.404
 5398SOL    HW117093   3.415   1.699   3.410
 5398SOL    HW217094   3.569   1.687   3.356
 5399SOL     OW17095   2.841   5.920   1.054
 5399SOL    HW117096   2.854   6.001   1.111
 5399SOL    HW217097   2.801   5.846   1.109
 5400SOL     OW17098   3.104   3.705   0.014
 5400SOL    HW117099   3.155   3.762   0.079
 5400SOL    HW217100   3.078   3.760   6.956
 5401SOL     OW17101   5.975   4.189   1.311
 5401SOL    HW117102   5.878   4.203   1.289
 5401SOL    HW217103   6.002   4.251   1.385
 5402SOL     OW17104   2.658   5.390   1.855
 5402SOL    HW117105   2.666   5.292   1.874
 5402SOL    HW217106   2.713   5.441   1.921
 5403SOL     OW17107   5.682   2.606   6.153
 5403SOL    HW117108   5.590   2.623   6.119
 5403SOL    HW217109   5.716   2.688   6.200
 5404SOL     OW17110   1.041   0.776   2.338
 5404SOL    HW117111   1.022   0.680   2.356
 5404SOL    HW217112   1.047   0.791   2.239
 5405SOL     OW17113   6.105   6.190   0.180
 5405SOL    HW117114   6.163   6.111   0.201
 5405SOL    HW217115   6.023   6.188   0.238
 5406SOL     OW17116   2.232   0.241   6.246
 5406SOL    HW117117   2.258   0.338   6.250
 5406SOL    HW217118   2.220   0.214   6.150
 5407SOL     OW17119   4.075   1.939   1.565
 5407SOL    HW117120   4.143   1.912   1.497
 5407SOL    HW217121   4.114   1.929   1.657
 5408SOL     OW17122   3.356   1.010   5.547
 5408SOL    HW117123   3.309   1.092   5.578
 5408SOL    HW217124   3.303   0.929   5.572
 5409SOL     OW17125   6.579   1.873   3.635
 5409SOL    HW117126   6.537   1.949   3.586
 5409SOL    HW217127   6.679   1.883   3.631
 5410SOL     OW17128   0.844   2.802   6.915
 5410SOL    HW117129   0.824   2.846   6.827
 5410SOL    HW217130   0.764   2.810   6.975
 5411SOL     OW17131   5.861   4.950   5.014
 5411SOL    HW117132   5.789   5.011   5.047
 5411SOL    HW217133   5.944   4.965   5.067
 5412SOL     OW17134   4.053   0.597   0.122
 5412SOL    HW117135   3.961   0.570   0.150
 5412SOL    HW217136   4.083   0.676   0.176
 5413SOL     OW17137   0.848   0.146   1.488
 5413SOL    HW117138   0.945   0.138   1.466
 5413SOL    HW217139   0.832   0.114   1.581
 5414SOL     OW17140   0.037   3.254   5.291
 5414SOL    HW117141   0.045   3.249   5.191
 5414SOL    HW217142   7.011   3.172   5.324
 5415SOL     OW17143   1.076   6.298   1.957
 5415SOL    HW117144   1.160   6.270   2.004
 5415SOL    HW217145   1.098   6.335   1.867
 5416SOL     OW17146   3.566   4.802   6.461
 5416SOL    HW117147   3.622   4.766   6.536
 5416SOL    HW217148   3.619   4.802   6.377
 5417SOL     OW17149   4.479   0.011   4.406
 5417SOL    HW117150   4.406   0.079   4.397
 5417SOL    HW217151   4.506   7.001   4.314
 5418SOL     OW17152   5.342   0.851   4.464
 5418SOL    HW117153   5.427   0.902   4.478
 5418SOL    HW217154   5.339   0.816   4.370
 5419SOL     OW17155   2.987   5.576   0.681
 5419SOL    HW117156   3.076   5.562   0.639
 5419SOL    HW217157   2.985   5.532   0.771
 5420SOL     OW17158   1.927   2.666   1.767
 5420SOL    HW117159   1.972   2.607   1.834
 5420SOL    HW217160   1.989   2.683   1.690
 5421SOL     OW17161   2.433   4.395   3.153
 5421SOL    HW117162   2.495   4.473   3.165
 5421SOL    HW217163   2.426   4.374   3.055
 5422SOL     OW17164   0.929   5.899   5.512
 5422SOL    HW117165   0.856   5.898   5.580
 5422SOL    HW217166   0.994   5.971   5.533
 5423SOL     OW17167   5.545   3.357   6.858
 5423SOL    HW117168   5.503   3.437   6.814
 5423SOL    HW217169   5.526   3.359   6.956
 5424SOL     OW17170   6.260   3.418   4.445
 5424SOL    HW117171   6.247   3.513   4.473
 5424SOL    HW217172   6.270   3.414   4.346
 5425SOL     OW17173   5.232   1.385   3.950
 5425SOL    HW117174   5.261   1.480   3.957
 5425SOL    HW217175   5.268   1.345   3.866
 5426SOL     OW17176   6.839   5.043   3.705
 5426SOL    HW117177   6.895   4.968   3.738
 5426SOL    HW217178   6.753   5.007   3.667
 5427SOL     OW17179   5.361   5.085   0.748
 5427SOL    HW117180   5.429   5.051   0.683
 5427SOL    HW217181   5.361   5.027   0.829
 5428SOL     OW17182   6.873   0.063   2.109
 5428SOL    HW117183   6.950   0.106   2.062
 5428SOL    HW217184   6.807   0.132   2.138
 5429SOL     OW17185   1.441   0.878   5.152
 5429SOL    HW117186   1.399   0.962   5.186
 5429SOL    HW217187   1.391   0.799   5.188
 5430SOL     OW17188   2.205   2.583   5.489
 5430SOL    HW117189   2.197   2.682   5.499
 5430SOL    HW217190   2.137   2.550   5.424
 5431SOL     OW17191   3.574   4.974   6.990
 5431SOL    HW117192   3.501   4.958   0.035
 5431SOL    HW217193   3.595   4.889   6.942
 5432SOL     OW17194   3.956   6.127   5.784
 5432SOL    HW117195   3.950   6.055   5.854
 5432SOL    HW217196   4.040   6.179   5.797
 5433SOL     OW17197   7.000   1.910   3.073
 5433SOL    HW117198   0.068   1.867   3.060
 5433SOL    HW217199   6.932   1.839   3.092
 5434SOL     OW17200   4.385   1.392   5.122
 5434SOL    HW117201   4.314   1.434   5.064
 5434SOL    HW217202   4.391   1.442   5.208
 5435SOL     OW17203   5.943   2.082   1.123
 5435SOL    HW117204   5.934   2.128   1.035
 5435SOL    HW217205   5.990   1.994   1.110
 5436SOL     OW17206   5.720   4.252   4.641
 5436SOL    HW117207   5.715   4.152   4.647
 5436SOL    HW217208   5.632   4.287   4.608
 5437SOL     OW17209   2.713   5.069   5.550
 5437SOL    HW117210   2.746   4.992   5.606
 5437SOL    HW217211   2.647   5.122   5.603
 5438SOL     OW17212   5.501   3.960   2.408
 5438SOL    HW117213   5.494   3.873   2.359
 5438SOL    HW217214   5.597   3.983   2.423
 5439SOL     OW17215   7.006   2.342   0.317
 5439SOL    HW117216   6.963   2.369   0.402
 5439SOL    HW217217   6.950   2.272   0.272
 5440SOL     OW17218   0.042   0.140   2.369
 5440SOL    HW117219   6.977   0.100   2.399
 5440SOL    HW217220   0.104   0.067   2.339
 5441SOL     OW17221   4.707   2.752   3.573
 5441SOL    HW117222   4.657   2.679   3.527
 5441SOL    HW217223   4.786   2.714   3.621
 5442SOL     OW17224   2.877   6.834   3.443
 5442SOL    HW117225   2.799   6.822   3.382
 5442SOL    HW217226   2.880   6.928   3.477
 5443SOL     OW17227   2.853   6.049   3.837
 5443SOL    HW117228   2.934   5.991   3.846
 5443SOL    HW217229   2.873   6.124   3.774
 5444SOL     OW17230   0.390   0.916   3.145
 5444SOL    HW117231   0.378   0.822   3.113
 5444SOL    HW217232   0.329   0.977   3.094
 5445SOL     OW17233   6.769   4.200   3.702
 5445SOL    HW117234   6.694   4.135   3.719
 5445SOL    HW217235   6.851   4.168   3.750
 5446SOL     OW17236   5.534   5.166   4.725
 5446SOL    HW117237   5.462   5.143   4.660
 5446SOL    HW217238   5.520   5.113   4.809
 5447SOL     OW17239   1.218   2.149   0.894
 5447SOL    HW117240   1.291   2.195   0.943
 5447SOL    HW217241   1.251   2.062   0.858
 5448SOL     OW17242   6.159   4.388   4.478
 5448SOL    HW117243   6.214   4.466   4.507
 5448SOL    HW217244   6.162   4.381   4.378
 5449SOL     OW17245   1.673   1.746   0.115
 5449SOL    HW117246   1.772   1.734   0.125
 5449SOL    HW217247   1.627   1.658   0.125
 5450SOL     OW17248   2.896   0.165   1.383
 5450SOL    HW117249   2.817   0.210   1.425
 5450SOL    HW217250   2.886   0.167   1.284
 5451SOL     OW17251   1.764   5.830   3.281
 5451SOL    HW117252   1.702   5.850   3.357
 5451SOL    HW217253   1.810   5.743   3.298
 5452SOL     OW17254   2.321   3.767   0.698
 5452SOL    HW117255   2.285   3.783   0.606
 5452SOL    HW217256   2.283   3.682   0.735
 5453SOL     OW17257   5.461   4.212   1.159
 5453SOL    HW117258   5.427   4.228   1.067
 5453SOL    HW217259   5.417   4.275   1.223
 5454SOL     OW17260   5.971   5.054   5.488
 5454SOL    HW117261   5.880   5.019   5.512
 5454SOL    HW217262   6.035   4.978   5.482
 5455SOL     OW17263   6.500   2.546   2.236
 5455SOL    HW117264   6.455   2.626   2.276
 5455SOL    HW217265   6.458   2.463   2.274
 5456SOL     OW17266   2.732   0.448   0.304
 5456SOL    HW117267   2.813   0.390   0.295
 5456SOL    HW217268   2.650   0.391   0.300
 5457SOL     OW17269   0.226   2.307   1.293
 5457SOL    HW117270   0.143   2.287   1.345
 5457SOL    HW217271   0.291   2.356   1.351
 5458SOL     OW17272   0.473   4.845   0.603
 5458SOL    HW117273   0.457   4.769   0.666
 5458SOL    HW217274   0.388   4.897   0.592
 5459SOL     OW17275   2.746   3.519   6.651
 5459SOL    HW117276   2.818   3.473   6.598
 5459SOL    HW217277   2.774   3.525   6.746
 5460SOL     OW17278   3.627   7.016   3.162
 5460SOL    HW117279   3.589   0.066   3.221
 5460SOL    HW217280   3.627   0.027   3.067
 5461SOL     OW17281   0.601   0.068   6.177
 5461SOL    HW117282   0.603   6.989   6.178
 5461SOL    HW217283   0.604   0.101   6.083
 5462SOL     OW17284   6.200   6.718   1.165
 5462SOL    HW117285   6.123   6.742   1.223
 5462SOL    HW217286   6.204   6.779   1.087
 5463SOL     OW17287   0.499   1.485   0.139
 5463SOL    HW117288   0.501   1.428   0.220
 5463SOL    HW217289   0.466   1.577   0.162
 5464SOL     OW17290   6.259   0.379   4.654
 5464SOL    HW117291   6.239   0.288   4.693
 5464SOL    HW217292   6.357   0.398   4.661
 5465SOL     OW17293   4.736   1.035   4.698
 5465SOL    HW117294   4.802   1.003   4.765
 5465SOL    HW217295   4.682   1.110   4.736
 5466SOL     OW17296   5.547   2.761   4.871
 5466SOL    HW117297   5.520   2.664   4.874
 5466SOL    HW217298   5.482   2.815   4.923
 5467SOL     OW17299   4.809   4.126   3.547
 5467SOL    HW117300   4.793   4.044   3.492
 5467SOL    HW217301   4.781   4.109   3.642
 5468SOL     OW17302   0.003   2.557   3.643
 5468SOL    HW117303   0.005   2.457   3.631
 5468SOL    HW217304   7.001   2.601   3.557
 5469SOL     OW17305   2.657   5.881   5.567
 5469SOL    HW117306   2.656   5.981   5.562
 5469SOL    HW217307   2.600   5.844   5.495
 5470SOL     OW17308   3.687   5.210   3.301
 5470SOL    HW117309   3.751   5.240   3.371
 5470SOL    HW217310   3.690   5.111   3.292
 5471SOL     OW17311   5.815   6.858   3.214
 5471SOL    HW117312   5.739   6.920   3.196
 5471SOL    HW217313   5.867   6.843   3.130
 5472SOL     OW17314   2.654   4.270   6.952
 5472SOL    HW117315   2.698   4.275   0.020
 5472SOL    HW217316   2.588   4.345   6.942
 5473SOL     OW17317   0.726   3.502   2.244
 5473SOL    HW117318   0.725   3.584   2.300
 5473SOL    HW217319   0.773   3.429   2.293
 5474SOL     OW17320   1.090   4.560   3.598
 5474SOL    HW117321   1.177   4.518   3.570
 5474SOL    HW217322   1.066   4.528   3.689
 5475SOL     OW17323   2.271   2.829   1.027
 5475SOL    HW117324   2.185   2.784   1.004
 5475SOL    HW217325   2.348   2.771   1.002
 5476SOL     OW17326   2.538   4.491   5.528
 5476SOL    HW117327   2.481   4.448   5.598
 5476SOL    HW217328   2.481   4.550   5.470
 5477SOL     OW17329   2.071   4.409   2.573
 5477SOL    HW117330   2.148   4.421   2.510
 5477SOL    HW217331   2.094   4.337   2.639
 5478SOL     OW17332   2.705   5.895   4.230
 5478SOL    HW117333   2.661   5.947   4.303
 5478SOL    HW217334   2.647   5.819   4.202
 5479SOL     OW17335   5.401   1.039   6.474
 5479SOL    HW117336   5.309   1.070   6.451
 5479SOL    HW217337   5.396   0.952   6.523
 5480SOL     OW17338   5.538   5.282   4.332
 5480SOL    HW117339   5.487   5.265   4.416
 5480SOL    HW217340   5.477   5.270   4.253
 5481SOL     OW17341   4.401   1.573   4.760
 5481SOL    HW117342   4.310   1.592   4.724
 5481SOL    HW217343   4.414   1.474   4.768
 5482SOL     OW17344   3.783   4.265   1.734
 5482SOL    HW117345   3.826   4.338   1.680
 5482SOL    HW217346   3.685   4.262   1.714
 5483SOL     OW17347   0.239   2.139   5.265
 5483SOL    HW117348   0.140   2.152   5.259
 5483SOL    HW217349   0.259   2.051   5.307
 5484SOL     OW17350   4.041   0.992   4.454
 5484SOL    HW117351   3.945   0.969   4.470
 5484SOL    HW217352   4.086   1.009   4.542
 5485SOL     OW17353   4.004   0.641   4.695
 5485SOL    HW117354   4.003   0.648   4.596
 5485SOL    HW217355   3.929   0.696   4.733
 5486SOL     OW17356   2.491   6.031   5.352
 5486SOL    HW117357   2.540   6.058   5.434
 5486SOL    HW217358   2.507   5.934   5.333
 5487SOL     OW17359   5.583   2.639   6.693
 5487SOL    HW117360   5.515   2.653   6.764
 5487SOL    HW217361   5.645   2.717   6.689
 5488SOL     OW17362   6.095   0.416   0.818
 5488SOL    HW117363   6.055   0.450   0.733
 5488SOL    HW217364   6.175   0.471   0.841
 5489SOL     OW17365   0.007   4.189   1.826
 5489SOL    HW117366   7.018   4.287   1.837
 5489SOL    HW217367   0.022   4.146   1.915
 5490SOL     OW17368   2.998   0.409   1.780
 5490SOL    HW117369   3.004   0.439   1.875
 5490SOL    HW217370   2.950   0.321   1.777
 5491SOL     OW17371   0.777   3.659   0.152
 5491SOL    HW117372   0.747   3.572   0.191
 5491SOL    HW217373   0.764   3.732   0.218
 5492SOL     OW17374   0.666   3.570   6.091
 5492SOL    HW117375   0.671   3.640   6.020
 5492SOL    HW217376   0.688   3.612   6.180
 5493SOL     OW17377   3.003   3.962   4.334
 5493SOL    HW117378   3.041   3.963   4.427
 5493SOL    HW217379   2.913   4.005   4.335
 5494SOL     OW17380   0.408   3.505   6.063
 5494SOL    HW117381   0.508   3.510   6.064
 5494SOL    HW217382   0.372   3.548   6.146
 5495SOL     OW17383   4.839   1.424   1.185
 5495SOL    HW117384   4.759   1.476   1.214
 5495SOL    HW217385   4.822   1.326   1.196
 5496SOL     OW17386   4.055   0.912   3.332
 5496SOL    HW117387   4.070   0.955   3.421
 5496SOL    HW217388   3.999   0.830   3.344
 5497SOL     OW17389   6.961   1.187   5.008
 5497SOL    HW117390   6.902   1.106   5.019
 5497SOL    HW217391   6.965   1.211   4.911
 5498SOL     OW17392   6.650   6.185   1.551
 5498SOL    HW117393   6.673   6.166   1.647
 5498SOL    HW217394   6.718   6.248   1.513
 5499SOL     OW17395   0.350   0.612   4.717
 5499SOL    HW117396   0.317   0.621   4.623
 5499SOL    HW217397   0.363   0.515   4.739
 5500SOL     OW17398   1.148   0.596   0.362
 5500SOL    HW117399   1.201   0.518   0.328
 5500SOL    HW217400   1.051   0.581   0.343
 5501SOL     OW17401   3.425   1.990   0.024
 5501SOL    HW117402   3.462   1.903   7.011
 5501SOL    HW217403   3.501   2.052   0.045
 5502SOL     OW17404   4.866   3.511   0.495
 5502SOL    HW117405   4.941   3.475   0.551
 5502SOL    HW217406   4.821   3.586   0.543
 5503SOL     OW17407   6.822   4.300   1.448
 5503SOL    HW117408   6.766   4.382   1.441
 5503SOL    HW217409   6.915   4.325   1.477
 5504SOL     OW17410   4.718   1.585   5.493
 5504SOL    HW117411   4.672   1.670   5.467
 5504SOL    HW217412   4.734   1.530   5.412
 5505SOL     OW17413   2.281   5.199   4.331
 5505SOL    HW117414   2.181   5.198   4.327
 5505SOL    HW217415   2.319   5.151   4.252
 5506SOL     OW17416   0.274   3.626   0.628
 5506SOL    HW117417   0.180   3.607   0.598
 5506SOL    HW217418   0.291   3.579   0.715
 5507SOL     OW17419   4.358   1.303   4.793
 5507SOL    HW117420   4.374   1.285   4.696
 5507SOL    HW217421   4.268   1.267   4.819
 5508SOL     OW17422   1.439   1.106   6.801
 5508SOL    HW117423   1.474   1.038   6.865
 5508SOL    HW217424   1.346   1.082   6.775
 5509SOL     OW17425   0.794   6.354   6.549
 5509SOL    HW117426   0.702   6.393   6.541
 5509SOL    HW217427   0.797   6.266   6.502
 5510SOL     OW17428   4.396   5.442   0.198
 5510SOL    HW117429   4.442   5.504   0.262
 5510SOL    HW217430   4.449   5.358   0.189
 5511SOL     OW17431   1.431   0.667   3.804
 5511SOL    HW117432   1.460   0.751   3.851
 5511SOL    HW217433   1.389   0.605   3.871
 5512SOL     OW17434   5.230   2.268   0.850
 5512SOL    HW117435   5.146   2.260   0.904
 5512SOL    HW217436   5.287   2.188   0.866
 5513SOL     OW17437   3.674   4.786   6.203
 5513SOL    HW117438   3.698   4.862   6.142
 5513SOL    HW217439   3.717   4.702   6.170
 5514SOL     OW17440   4.067   0.286   4.244
 5514SOL    HW117441   4.087   0.277   4.341
 5514SOL    HW217442   3.991   0.226   4.220
 5515SOL     OW17443   0.687   5.685   2.095
 5515SOL    HW117444   0.726   5.724   2.012
 5515SOL    HW217445   0.587   5.691   2.091
 5516SOL     OW17446   1.741   3.601   6.200
 5516SOL    HW117447   1.837   3.613   6.175
 5516SOL    HW217448   1.684   3.659   6.142
 5517SOL     OW17449   2.101   3.217   2.040
 5517SOL    HW117450   2.006   3.196   2.016
 5517SOL    HW217451   2.134   3.291   1.982
 5518SOL     OW17452   5.839   5.871   6.902
 5518SOL    HW117453   5.783   5.841   6.825
 5518SOL    HW217454   5.920   5.918   6.868
 5519SOL     OW17455   5.426   3.525   3.020
 5519SOL    HW117456   5.460   3.498   3.110
 5519SOL    HW217457   5.411   3.624   3.018
 5520SOL     OW17458   6.245   6.923   2.496
 5520SOL    HW117459   6.243   6.971   2.584
 5520SOL    HW217460   6.227   6.988   2.422
 5521SOL     OW17461   4.794   6.495   2.149
 5521SOL    HW117462   4.861   6.554   2.104
 5521SOL    HW217463   4.756   6.543   2.229
 5522SOL     OW17464   6.075   4.937   0.665
 5522SOL    HW117465   6.097   4.847   0.703
 5522SOL    HW217466   5.977   4.955   0.675
 5523SOL     OW17467   3.684   1.396   1.827
 5523SOL    HW117468   3.599   1.383   1.879
 5523SOL    HW217469   3.682   1.486   1.783
 5524SOL     OW17470   4.681   0.645   4.097
 5524SOL    HW117471   4.587   0.678   4.089
 5524SOL    HW217472   4.698   0.614   4.190
 5525SOL     OW17473   0.568   1.977   6.802
 5525SOL    HW117474   0.587   2.067   6.764
 5525SOL    HW217475   0.548   1.985   6.900
 5526SOL     OW17476   4.490   5.320   3.014
 5526SOL    HW117477   4.437   5.404   2.995
 5526SOL    HW217478   4.429   5.251   3.053
 5527SOL     OW17479   4.883   3.547   3.900
 5527SOL    HW117480   4.801   3.511   3.857
 5527SOL    HW217481   4.881   3.647   3.897
 5528SOL     OW17482   1.489   0.688   0.145
 5528SOL    HW117483   1.462   0.672   0.240
 5528SOL    HW217484   1.588   0.699   0.139
 5529SOL     OW17485   3.820   6.881   4.401
 5529SOL    HW117486   3.742   6.829   4.436
 5529SOL    HW217487   3.840   6.852   4.307
 5530SOL     OW17488   5.654   2.166   0.973
 5530SOL    HW117489   5.645   2.171   1.073
 5530SOL    HW217490   5.604   2.086   0.940
 5531SOL     OW17491   3.698   3.353   1.939
 5531SOL    HW117492   3.787   3.389   1.909
 5531SOL    HW217493   3.699   3.253   1.935
 5532SOL     OW17494   1.075   2.988   1.091
 5532SOL    HW117495   1.162   3.020   1.053
 5532SOL    HW217496   1.018   2.950   1.018
 5533SOL     OW17497   3.916   2.081   3.015
 5533SOL    HW117498   3.971   2.013   3.063
 5533SOL    HW217499   3.848   2.120   3.078
 5534SOL     OW17500   0.923   1.754   6.908
 5534SOL    HW117501   0.954   1.666   6.945
 5534SOL    HW217502   0.823   1.756   6.906
 5535SOL     OW17503   0.621   2.015   3.647
 5535SOL    HW117504   0.565   1.948   3.696
 5535SOL    HW217505   0.639   1.983   3.554
 5536SOL     OW17506   3.678   1.406   3.912
 5536SOL    HW117507   3.617   1.485   3.907
 5536SOL    HW217508   3.631   1.326   3.875
 5537SOL     OW17509   2.754   0.996   2.020
 5537SOL    HW117510   2.737   0.926   2.090
 5537SOL    HW217511   2.703   1.079   2.043
 5538SOL     OW17512   2.833   5.665   5.525
 5538SOL    HW117513   2.919   5.709   5.498
 5538SOL    HW217514   2.770   5.733   5.560
 5539SOL     OW17515   0.985   3.684   1.775
 5539SOL    HW117516   1.003   3.600   1.826
 5539SOL    HW217517   0.887   3.695   1.762
 5540SOL     OW17518   4.742   4.261   4.168
 5540SOL    HW117519   4.647   4.247   4.140
 5540SOL    HW217520   4.744   4.314   4.252
 5541SOL     OW17521   5.345   6.980   6.630
 5541SOL    HW117522   5.411   0.029   6.602
 5541SOL    HW217523   5.259   6.993   6.580
 5542SOL     OW17524   5.000   3.341   6.065
 5542SOL    HW117525   5.069   3.407   6.037
 5542SOL    HW217526   4.915   3.388   6.089
 5543SOL     OW17527   3.815   3.946   6.406
 5543SOL    HW117528   3.755   3.868   6.389
 5543SOL    HW217529   3.762   4.024   6.439
 5544SOL     OW17530   4.981   5.339   6.844
 5544SOL    HW117531   4.905   5.389   6.804
 5544SOL    HW217532   5.061   5.346   6.784
 5545SOL     OW17533   4.525   1.151   2.344
 5545SOL    HW117534   4.505   1.054   2.333
 5545SOL    HW217535   4.624   1.165   2.349
 5546SOL     OW17536   0.448   4.460   4.729
 5546SOL    HW117537   0.516   4.477   4.658
 5546SOL    HW217538   0.467   4.372   4.772
 5547SOL     OW17539   3.271   6.740   5.243
 5547SOL    HW117540   3.176   6.752   5.270
 5547SOL    HW217541   3.322   6.698   5.319
 5548SOL     OW17542   6.290   2.411   5.603
 5548SOL    HW117543   6.236   2.332   5.633
 5548SOL    HW217544   6.344   2.386   5.522
 5549SOL     OW17545   4.760   4.845   6.624
 5549SOL    HW117546   4.825   4.897   6.680
 5549SOL    HW217547   4.721   4.771   6.680
 5550SOL     OW17548   3.015   5.317   2.702
 5550SOL    HW117549   3.074   5.343   2.778
 5550SOL    HW217550   3.045   5.230   2.664
 5551SOL     OW17551   2.567   0.988   2.713
 5551SOL    HW117552   2.592   0.910   2.771
 5551SOL    HW217553   2.648   1.017   2.662
 5552SOL     OW17554   6.964   0.925   6.887
 5552SOL    HW117555   0.042   0.913   6.893
 5552SOL    HW217556   6.919   0.879   6.964
 5553SOL     OW17557   3.736   6.490   0.356
 5553SOL    HW117558   3.803   6.527   0.293
 5553SOL    HW217559   3.704   6.562   0.418
 5554SOL     OW17560   3.160   1.615   5.189
 5554SOL    HW117561   3.182   1.522   5.156
 5554SOL    HW217562   3.211   1.682   5.134
 5555SOL     OW17563   0.421   4.407   3.858
 5555SOL    HW117564   0.403   4.488   3.802
 5555SOL    HW217565   0.383   4.326   3.814
 5556SOL     OW17566   0.195   2.547   4.306
 5556SOL    HW117567   0.139   2.466   4.323
 5556SOL    HW217568   0.259   2.527   4.232
 5557SOL     OW17569   3.553   4.916   2.965
 5557SOL    HW117570   3.492   4.839   2.946
 5557SOL    HW217571   3.637   4.882   3.008
 5558SOL     OW17572   5.278   3.416   5.843
 5558SOL    HW117573   5.235   3.491   5.893
 5558SOL    HW217574   5.235   3.406   5.754
 5559SOL     OW17575   2.641   6.757   2.059
 5559SOL    HW117576   2.615   6.694   1.986
 5559SOL    HW217577   2.738   6.777   2.052
 5560SOL     OW17578   0.570   6.753   3.355
 5560SOL    HW117579   0.542   6.821   3.422
 5560SOL    HW217580   0.518   6.766   3.270
 5561SOL     OW17581   2.080   1.837   4.179
 5561SOL    HW117582   2.058   1.804   4.271
 5561SOL    HW217583   2.161   1.895   4.183
 5562SOL     OW17584   2.537   2.472   6.806
 5562SOL    HW117585   2.573   2.466   6.899
 5562SOL    HW217586   2.563   2.560   6.766
 5563SOL     OW17587   4.556   6.356   2.626
 5563SOL    HW117588   4.552   6.292   2.549
 5563SOL    HW217589   4.503   6.438   2.604
 5564SOL     OW17590   5.031   2.159   1.627
 5564SOL    HW117591   5.006   2.245   1.583
 5564SOL    HW217592   4.974   2.085   1.591
 5565SOL     OW17593   4.498   1.515   6.105
 5565SOL    HW117594   4.492   1.609   6.139
 5565SOL    HW217595   4.509   1.516   6.006
 5566SOL     OW17596   1.707   5.318   1.259
 5566SOL    HW117597   1.664   5.317   1.349
 5566SOL    HW217598   1.638   5.302   1.189
 5567SOL     OW17599   0.633   4.853   1.245
 5567SOL    HW117600   0.620   4.760   1.278
 5567SOL    HW217601   0.612   4.857   1.147
 5568SOL     OW17602   5.210   2.340   2.167
 5568SOL    HW117603   5.288   2.401   2.153
 5568SOL    HW217604   5.241   2.258   2.215
 5569SOL     OW17605   3.842   1.860   1.743
 5569SOL    HW117606   3.787   1.931   1.786
 5569SOL    HW217607   3.875   1.893   1.654
 5570SOL     OW17608   6.126   4.787   4.772
 5570SOL    HW117609   6.145   4.796   4.869
 5570SOL    HW217610   6.028   4.773   4.758
 5571SOL     OW17611   0.373   6.433   0.103
 5571SOL    HW117612   0.279   6.401   0.116
 5571SOL    HW217613   0.405   6.476   0.187
 5572SOL     OW17614   2.514   2.742   6.330
 5572SOL    HW117615   2.597   2.794   6.349
 5572SOL    HW217616   2.439   2.805   6.308
 5573SOL     OW17617   0.875   2.778   0.288
 5573SOL    HW117618   0.844   2.695   0.240
 5573SOL    HW217619   0.927   2.835   0.225
 5574SOL     OW17620   6.965   1.351   4.273
 5574SOL    HW117621   0.041   1.355   4.297
 5574SOL    HW217622   6.918   1.429   4.315
 5575SOL     OW17623   1.353   0.907   1.870
 5575SOL    HW117624   1.319   0.919   1.777
 5575SOL    HW217625   1.440   0.956   1.881
 5576SOL     OW17626   6.299   5.521   1.963
 5576SOL    HW117627   6.215   5.575   1.955
 5576SOL    HW217628   6.289   5.455   2.038
 5577SOL     OW17629   2.640   2.991   5.742
 5577SOL    HW117630   2.562   2.987   5.803
 5577SOL    HW217631   2.624   2.932   5.663
 5578SOL     OW17632   3.862   2.805   1.033
 5578SOL    HW117633   3.957   2.776   1.045
 5578SOL    HW217634   3.804   2.758   1.100
 5579SOL     OW17635   6.198   3.705   6.194
 5579SOL    HW117636   6.289   3.745   6.192
 5579SOL    HW217637   6.195   3.632   6.263
 5580SOL     OW17638   5.019   1.910   0.105
 5580SOL    HW117639   5.000   1.828   0.050
 5580SOL    HW217640   4.935   1.938   0.153
 5581SOL     OW17641   2.897   7.005   1.070
 5581SOL    HW117642   2.804   6.980   1.097
 5581SOL    HW217643   2.900   0.082   1.049
 5582SOL     OW17644   3.273   3.358   3.738
 5582SOL    HW117645   3.206   3.290   3.767
 5582SOL    HW217646   3.273   3.435   3.802
 5583SOL     OW17647   4.059   0.085   2.398
 5583SOL    HW117648   4.106   0.003   2.367
 5583SOL    HW217649   3.995   0.061   2.471
 5584SOL     OW17650   5.508   4.130   3.788
 5584SOL    HW117651   5.573   4.079   3.844
 5584SOL    HW217652   5.418   4.085   3.792
 5585SOL     OW17653   5.572   0.434   4.165
 5585SOL    HW117654   5.539   0.343   4.143
 5585SOL    HW217655   5.606   0.436   4.258
 5586SOL     OW17656   1.293   2.639   6.670
 5586SOL    HW117657   1.218   2.626   6.605
 5586SOL    HW217658   1.329   2.550   6.698
 5587SOL     OW17659   3.996   6.654   2.376
 5587SOL    HW117660   4.053   6.726   2.336
 5587SOL    HW217661   3.983   6.672   2.473
 5588SOL     OW17662   1.586   6.653   4.143
 5588SOL    HW117663   1.532   6.682   4.223
 5588SOL    HW217664   1.678   6.690   4.151
 5589SOL     OW17665   4.722   3.115   5.940
 5589SOL    HW117666   4.679   3.047   5.881
 5589SOL    HW217667   4.794   3.161   5.890
 5590SOL     OW17668   6.633   5.323   3.074
 5590SOL    HW117669   6.637   5.343   2.976
 5590SOL    HW217670   6.574   5.390   3.119
 5591SOL     OW17671   5.732   0.384   6.757
 5591SOL    HW117672   5.694   0.303   6.802
 5591SOL    HW217673   5.831   0.385   6.768
 5592SOL     OW17674   2.076   3.839   3.154
 5592SOL    HW117675   2.091   3.763   3.090
 5592SOL    HW217676   1.979   3.858   3.161
 5593SOL     OW17677   0.010   2.843   5.901
 5593SOL    HW117678   0.016   2.888   5.990
 5593SOL    HW217679   0.102   2.839   5.860
 5594SOL     OW17680   2.368   1.551   6.617
 5594SOL    HW117681   2.275   1.520   6.638
 5594SOL    HW217682   2.430   1.520   6.690
 5595SOL     OW17683   6.609   0.432   5.166
 5595SOL    HW117684   6.692   0.486   5.181
 5595SOL    HW217685   6.530   0.492   5.161
 5596SOL     OW17686   5.703   0.197   2.986
 5596SOL    HW117687   5.674   0.118   3.041
 5596SOL    HW217688   5.783   0.172   2.932
 5597SOL     OW17689   4.934   2.961   5.295
 5597SOL    HW117690   4.951   3.009   5.381
 5597SOL    HW217691   4.938   2.862   5.312
 5598SOL     OW17692   5.284   2.207   3.744
 5598SOL    HW117693   5.309   2.117   3.779
 5598SOL    HW217694   5.215   2.248   3.803
 5599SOL     OW17695   5.649   4.199   1.718
 5599SOL    HW117696   5.571   4.232   1.665
 5599SOL    HW217697   5.626   4.200   1.815
 5600SOL     OW17698   2.534   0.223   2.698
 5600SOL    HW117699   2.458   0.276   2.737
 5600SOL    HW217700   2.497   0.147   2.644
 5601SOL     OW17701   4.757   2.759   5.555
 5601SOL    HW117702   4.837   2.749   5.496
 5601SOL    HW217703   4.679   2.787   5.500
 5602SOL     OW17704   0.050   1.668   3.393
 5602SOL    HW117705   0.001   1.751   3.421
 5602SOL    HW217706   7.012   1.588   3.408
 5603SOL     OW17707   4.498   2.591   5.014
 5603SOL    HW117708   4.561   2.667   5.030
 5603SOL    HW217709   4.507   2.560   4.919
 5604SOL     OW17710   0.693   1.208   4.357
 5604SOL    HW117711   0.756   1.168   4.291
 5604SOL    HW217712   0.599   1.196   4.324
 5605SOL     OW17713   1.059   0.386   5.108
 5605SOL    HW117714   1.001   0.460   5.142
 5605SOL    HW217715   1.002   0.307   5.086
 5606SOL     OW17716   4.577   1.413   0.449
 5606SOL    HW117717   4.599   1.380   0.540
 5606SOL    HW217718   4.644   1.483   0.421
 5607SOL     OW17719   6.175   2.249   3.005
 5607SOL    HW117720   6.123   2.255   2.920
 5607SOL    HW217721   6.194   2.153   3.026
 5608SOL     OW17722   6.305   0.628   3.132
 5608SOL    HW117723   6.215   0.608   3.093
 5608SOL    HW217724   6.333   0.720   3.105
 5609SOL     OW17725   4.783   6.443   0.360
 5609SOL    HW117726   4.712   6.449   0.430
 5609SOL    HW217727   4.759   6.372   0.294
 5610SOL     OW17728   5.475   3.963   0.150
 5610SOL    HW117729   5.549   3.996   0.208
 5610SOL    HW217730   5.494   3.869   0.120
 5611SOL     OW17731   0.471   4.559   2.504
 5611SOL    HW117732   0.410   4.518   2.437
 5611SOL    HW217733   0.454   4.657   2.510
 5612SOL     OW17734   2.864   3.020   0.664
 5612SOL    HW117735   2.786   3.070   0.700
 5612SOL    HW217736   2.917   2.980   0.739
 5613SOL     OW17737   6.679   4.918   4.371
 5613SOL    HW117738   6.687   4.910   4.470
 5613SOL    HW217739   6.646   4.831   4.333
 5614SOL     OW17740   6.477   2.218   4.361
 5614SOL    HW117741   6.407   2.224   4.432
 5614SOL    HW217742   6.450   2.152   4.292
 5615SOL     OW17743   6.957   1.855   2.232
 5615SOL    HW117744   6.907   1.823   2.152
 5615SOL    HW217745   0.033   1.866   2.209
 5616SOL     OW17746   2.365   1.504   4.770
 5616SOL    HW117747   2.415   1.537   4.690
 5616SOL    HW217748   2.332   1.582   4.823
 5617SOL     OW17749   1.680   5.032   4.616
 5617SOL    HW117750   1.692   5.130   4.629
 5617SOL    HW217751   1.744   5.000   4.547
 5618SOL     OW17752   6.054   5.615   3.552
 5618SOL    HW117753   6.022   5.678   3.481
 5618SOL    HW217754   6.154   5.616   3.555
 5619SOL     OW17755   3.277   3.057   3.836
 5619SOL    HW117756   3.281   2.962   3.867
 5619SOL    HW217757   3.360   3.079   3.785
 5620SOL     OW17758   4.604   4.175   6.101
 5620SOL    HW117759   4.623   4.079   6.121
 5620SOL    HW217760   4.506   4.187   6.084
 5621SOL     OW17761   1.600   2.964   6.405
 5621SOL    HW117762   1.698   2.981   6.391
 5621SOL    HW217763   1.585   2.930   6.497
 5622SOL     OW17764   4.358   6.063   5.050
 5622SOL    HW117765   4.377   6.065   5.148
 5622SOL    HW217766   4.426   6.006   5.004
 5623SOL     OW17767   4.897   6.869   4.722
 5623SOL    HW117768   4.932   6.957   4.753
 5623SOL    HW217769   4.948   6.795   4.766
 5624SOL     OW17770   1.078   5.287   3.183
 5624SOL    HW117771   1.140   5.365   3.188
 5624SOL    HW217772   1.129   5.204   3.160
 5625SOL     OW17773   1.302   5.516   4.630
 5625SOL    HW117774   1.330   5.602   4.587
 5625SOL    HW217775   1.288   5.531   4.728
 5626SOL     OW17776   2.010   4.488   4.506
 5626SOL    HW117777   2.043   4.566   4.453
 5626SOL    HW217778   1.972   4.419   4.444
 5627SOL     OW17779   0.195   5.510   6.068
 5627SOL    HW117780   0.110   5.500   6.121
 5627SOL    HW217781   0.212   5.607   6.052
 5628SOL     OW17782   2.836   2.804   0.460
 5628SOL    HW117783   2.751   2.757   0.436
 5628SOL    HW217784   2.823   2.855   0.546
 5629SOL     OW17785   3.475   3.205   1.265
 5629SOL    HW117786   3.548   3.182   1.330
 5629SOL    HW217787   3.468   3.304   1.256
 5630SOL     OW17788   1.475   3.844   6.262
 5630SOL    HW117789   1.507   3.934   6.234
 5630SOL    HW217790   1.385   3.827   6.223
 5631SOL     OW17791   4.898   1.523   1.953
 5631SOL    HW117792   4.971   1.473   1.906
 5631SOL    HW217793   4.935   1.564   2.037
 5632SOL     OW17794   5.021   1.115   6.099
 5632SOL    HW117795   5.115   1.082   6.103
 5632SOL    HW217796   4.989   1.138   6.191
 5633SOL     OW17797   0.308   5.102   4.338
 5633SOL    HW117798   0.327   5.082   4.434
 5633SOL    HW217799   0.338   5.195   4.316
 5634SOL     OW17800   2.410   5.328   4.832
 5634SOL    HW117801   2.416   5.296   4.926
 5634SOL    HW217802   2.445   5.257   4.770
 5635SOL     OW17803   2.989   6.602   6.529
 5635SOL    HW117804   2.972   6.541   6.451
 5635SOL    HW217805   3.088   6.608   6.545
 5636SOL     OW17806   6.116   1.597   5.555
 5636SOL    HW117807   6.061   1.667   5.509
 5636SOL    HW217808   6.128   1.622   5.651
 5637SOL     OW17809   5.631   6.813   4.442
 5637SOL    HW117810   5.577   6.887   4.403
 5637SOL    HW217811   5.682   6.767   4.369
 5638SOL     OW17812   5.233   5.819   1.431
 5638SOL    HW117813   5.217   5.778   1.520
 5638SOL    HW217814   5.198   5.759   1.359
 5639SOL     OW17815   1.215   0.874   1.367
 5639SOL    HW117816   1.293   0.879   1.430
 5639SOL    HW217817   1.204   0.962   1.321
 5640SOL     OW17818   2.431   6.730   2.463
 5640SOL    HW117819   2.494   6.716   2.386
 5640SOL    HW217820   2.371   6.650   2.472
 5641SOL     OW17821   0.696   4.675   5.886
 5641SOL    HW117822   0.687   4.715   5.795
 5641SOL    HW217823   0.653   4.585   5.888
 5642SOL     OW17824   0.876   5.094   5.874
 5642SOL    HW117825   0.880   5.002   5.835
 5642SOL    HW217826   0.859   5.088   5.972
 5643SOL     OW17827   3.322   1.145   4.436
 5643SOL    HW117828   3.377   1.066   4.464
 5643SOL    HW217829   3.247   1.158   4.500
 5644SOL     OW17830   5.113   0.725   4.101
 5644SOL    HW117831   5.082   0.747   4.193
 5644SOL    HW217832   5.038   0.737   4.036
 5645SOL     OW17833   6.328   4.538   2.697
 5645SOL    HW117834   6.346   4.634   2.718
 5645SOL    HW217835   6.414   4.487   2.694
 5646SOL     OW17836   1.701   5.440   3.651
 5646SOL    HW117837   1.603   5.418   3.653
 5646SOL    HW217838   1.712   5.539   3.640
 5647SOL     OW17839   6.467   6.274   6.668
 5647SOL    HW117840   6.389   6.331   6.644
 5647SOL    HW217841   6.550   6.312   6.626
 5648SOL     OW17842   2.105   1.111   2.864
 5648SOL    HW117843   2.058   1.166   2.933
 5648SOL    HW217844   2.041   1.084   2.792
 5649SOL     OW17845   1.154   6.365   5.586
 5649SOL    HW117846   1.249   6.356   5.619
 5649SOL    HW217847   1.092   6.331   5.656
 5650SOL     OW17848   0.450   5.245   1.210
 5650SOL    HW117849   0.358   5.253   1.171
 5650SOL    HW217850   0.451   5.174   1.280
 5651SOL     OW17851   6.994   1.878   1.631
 5651SOL    HW117852   6.934   1.806   1.665
 5651SOL    HW217853   6.940   1.959   1.610
 5652SOL     OW17854   4.985   6.238   2.242
 5652SOL    HW117855   4.910   6.282   2.193
 5652SOL    HW217856   5.072   6.269   2.203
 5653SOL     OW17857   0.551   6.489   6.600
 5653SOL    HW117858   0.506   6.457   6.684
 5653SOL    HW217859   0.529   6.585   6.585
 5654SOL     OW17860   0.164   6.616   6.035
 5654SOL    HW117861   0.172   6.664   5.947
 5654SOL    HW217862   0.144   6.682   6.107
 5655SOL     OW17863   0.847   3.111   4.297
 5655SOL    HW117864   0.929   3.067   4.335
 5655SOL    HW217865   0.827   3.194   4.349
 5656SOL     OW17866   2.716   4.469   0.474
 5656SOL    HW117867   2.747   4.428   0.559
 5656SOL    HW217868   2.619   4.446   0.459
 5657SOL     OW17869   5.040   6.910   1.327
 5657SOL    HW117870   5.007   6.877   1.238
 5657SOL    HW217871   4.974   6.975   1.365
 5658SOL     OW17872   3.304   6.193   5.787
 5658SOL    HW117873   3.227   6.162   5.732
 5658SOL    HW217874   3.330   6.285   5.760
 5659SOL     OW17875   3.006   3.937   2.912
 5659SOL    HW117876   3.100   3.904   2.913
 5659SOL    HW217877   2.973   3.941   2.818
 5660SOL     OW17878   5.228   0.555   5.879
 5660SOL    HW117879   5.283   0.476   5.907
 5660SOL    HW217880   5.282   0.638   5.889
 5661SOL     OW17881   0.152   5.004   6.279
 5661SOL    HW117882   0.130   5.041   6.369
 5661SOL    HW217883   0.067   4.983   6.231
 5662SOL     OW17884   2.736   4.707   4.295
 5662SOL    HW117885   2.797   4.721   4.372
 5662SOL    HW217886   2.789   4.706   4.210
 5663SOL     OW17887   1.276   4.307   6.814
 5663SOL    HW117888   1.359   4.360   6.798
 5663SOL    HW217889   1.245   4.320   6.908
 5664SOL     OW17890   0.046   3.683   4.405
 5664SOL    HW117891   0.051   3.600   4.349
 5664SOL    HW217892   0.115   3.748   4.373
 5665SOL     OW17893   1.857   1.381   6.391
 5665SOL    HW117894   1.848   1.436   6.308
 5665SOL    HW217895   1.780   1.400   6.452
 5666SOL     OW17896   4.741   6.078   0.866
 5666SOL    HW117897   4.762   6.016   0.791
 5666SOL    HW217898   4.803   6.156   0.863
 5667SOL     OW17899   0.922   5.200   3.695
 5667SOL    HW117900   0.902   5.102   3.692
 5667SOL    HW217901   0.989   5.222   3.624
 5668SOL     OW17902   4.756   2.240   5.979
 5668SOL    HW117903   4.722   2.163   5.925
 5668SOL    HW217904   4.855   2.231   5.991
 5669SOL     OW17905   6.759   3.495   6.236
 5669SOL    HW117906   6.749   3.567   6.167
 5669SOL    HW217907   6.696   3.421   6.215
 5670SOL     OW17908   0.570   3.047   2.980
 5670SOL    HW117909   0.595   3.137   2.943
 5670SOL    HW217910   0.532   3.058   3.072
 5671SOL     OW17911   1.121   6.580   6.502
 5671SOL    HW117912   1.110   6.521   6.581
 5671SOL    HW217913   1.032   6.610   6.470
 5672SOL     OW17914   4.204   5.090   6.630
 5672SOL    HW117915   4.292   5.093   6.677
 5672SOL    HW217916   4.167   5.183   6.624
 5673SOL     OW17917   1.245   6.892   1.808
 5673SOL    HW117918   1.149   6.918   1.813
 5673SOL    HW217919   1.253   6.798   1.775
 5674SOL     OW17920   6.806   3.739   3.048
 5674SOL    HW117921   6.812   3.751   2.949
 5674SOL    HW217922   6.724   3.786   3.082
 5675SOL     OW17923   4.071   2.145   6.431
 5675SOL    HW117924   4.019   2.061   6.444
 5675SOL    HW217925   4.015   2.211   6.381
 5676SOL     OW17926   1.828   1.931   1.226
 5676SOL    HW117927   1.847   1.855   1.288
 5676SOL    HW217928   1.838   2.017   1.275
 5677SOL     OW17929   0.508   1.952   2.535
 5677SOL    HW117930   0.581   1.887   2.556
 5677SOL    HW217931   0.546   2.044   2.523
 5678SOL     OW17932   2.761   6.900   3.059
 5678SOL    HW117933   2.822   6.938   3.129
 5678SOL    HW217934   2.782   6.941   2.971
 5679SOL     OW17935   1.432   0.594   3.545
 5679SOL    HW117936   1.426   0.619   3.642
 5679SOL    HW217937   1.340   0.579   3.508
 5680SOL     OW17938   1.282   5.165   1.223
 5680SOL    HW117939   1.263   5.103   1.146
 5680SOL    HW217940   1.371   5.209   1.209
 5681SOL     OW17941   0.512   3.627   6.758
 5681SOL    HW117942   0.541   3.578   6.676
 5681SOL    HW217943   0.492   3.722   6.735
 5682SOL     OW17944   1.814   4.709   5.146
 5682SOL    HW117945   1.768   4.796   5.163
 5682SOL    HW217946   1.913   4.724   5.138
 5683SOL     OW17947   4.516   2.202   6.660
 5683SOL    HW117948   4.472   2.136   6.721
 5683SOL    HW217949   4.446   2.245   6.603
 5684SOL     OW17950   4.038   3.181   4.752
 5684SOL    HW117951   3.996   3.092   4.740
 5684SOL    HW217952   4.125   3.171   4.802
 5685SOL     OW17953   0.849   4.420   2.012
 5685SOL    HW117954   0.868   4.409   1.914
 5685SOL    HW217955   0.934   4.443   2.059
 5686SOL     OW17956   3.298   0.623   6.967
 5686SOL    HW117957   3.278   0.711   6.924
 5686SOL    HW217958   3.337   0.560   6.899
 5687SOL     OW17959   6.997   4.039   4.860
 5687SOL    HW117960   6.984   4.097   4.780
 5687SOL    HW217961   0.023   4.090   4.932
 5688SOL     OW17962   6.832   1.478   0.122
 5688SOL    HW117963   6.751   1.475   0.180
 5688SOL    HW217964   6.809   1.524   0.036
 5689SOL     OW17965   4.329   0.974   0.008
 5689SOL    HW117966   4.262   0.990   0.081
 5689SOL    HW217967   4.285   0.983   6.940
 5690SOL     OW17968   2.466   6.184   0.936
 5690SOL    HW117969   2.500   6.113   0.874
 5690SOL    HW217970   2.541   6.244   0.963
 5691SOL     OW17971   2.999   6.516   1.836
 5691SOL    HW117972   2.980   6.550   1.928
 5691SOL    HW217973   3.028   6.420   1.841
 5692SOL     OW17974   6.656   3.187   5.963
 5692SOL    HW117975   6.743   3.235   5.950
 5692SOL    HW217976   6.609   3.224   6.043
 5693SOL     OW17977   5.735   3.282   2.164
 5693SOL    HW117978   5.671   3.318   2.096
 5693SOL    HW217979   5.685   3.225   2.230
 5694SOL     OW17980   0.493   1.207   3.994
 5694SOL    HW117981   0.575   1.150   3.990
 5694SOL    HW217982   0.468   1.222   4.089
 5695SOL     OW17983   0.877   2.718   3.040
 5695SOL    HW117984   0.846   2.626   3.067
 5695SOL    HW217985   0.802   2.766   2.995
 5696SOL     OW17986   1.738   0.271   2.746
 5696SOL    HW117987   1.777   0.214   2.819
 5696SOL    HW217988   1.657   0.226   2.709
 5697SOL     OW17989   6.004   1.813   0.842
 5697SOL    HW117990   6.013   1.877   0.766
 5697SOL    HW217991   6.027   1.720   0.811
 5698SOL     OW17992   0.496   2.971   1.625
 5698SOL    HW117993   0.453   3.030   1.557
 5698SOL    HW217994   0.471   3.002   1.717
 5699SOL     OW17995   6.295   2.449   3.133
 5699SOL    HW117996   6.247   2.374   3.088
 5699SOL    HW217997   6.248   2.472   3.218
 5700SOL     OW17998   6.825   6.446   4.672
 5700SOL    HW117999   6.839   6.386   4.593
 5700SOL    HW218000   6.911   6.460   4.719
 5701SOL     OW18001   1.219   5.820   3.279
 5701SOL    HW118002   1.147   5.861   3.335
 5701SOL    HW218003   1.275   5.893   3.239
 5702SOL     OW18004   1.978   0.289   5.549
 5702SOL    HW118005   1.937   0.369   5.592
 5702SOL    HW218006   2.042   0.318   5.478
 5703SOL     OW18007   4.968   4.480   0.746
 5703SOL    HW118008   5.063   4.450   0.744
 5703SOL    HW218009   4.965   4.580   0.759
 5704SOL     OW18010   4.107   5.463   2.349
 5704SOL    HW118011   4.062   5.433   2.264
 5704SOL    HW218012   4.059   5.424   2.428
 5705SOL     OW18013   5.254   1.024   0.509
 5705SOL    HW118014   5.244   0.951   0.577
 5705SOL    HW218015   5.351   1.037   0.488
 5706SOL     OW18016   1.076   1.979   0.400
 5706SOL    HW118017   1.097   2.001   0.304
 5706SOL    HW218018   1.022   2.054   0.439
 5707SOL     OW18019   0.761   6.751   0.411
 5707SOL    HW118020   0.800   6.753   0.319
 5707SOL    HW218021   0.782   6.837   0.459
 5708SOL     OW18022   5.082   6.017   1.241
 5708SOL    HW118023   5.139   6.078   1.187
 5708SOL    HW218024   5.132   5.987   1.322
 5709SOL     OW18025   1.246   0.027   3.126
 5709SOL    HW118026   1.265   6.953   3.150
 5709SOL    HW218027   1.205   0.031   3.035
 5710SOL     OW18028   2.669   3.499   6.063
 5710SOL    HW118029   2.624   3.504   5.973
 5710SOL    HW218030   2.617   3.438   6.122
 5711SOL     OW18031   4.745   0.731   2.932
 5711SOL    HW118032   4.783   0.719   2.840
 5711SOL    HW218033   4.741   0.643   2.978
 5712SOL     OW18034   0.601   6.089   5.922
 5712SOL    HW118035   0.565   6.070   6.013
 5712SOL    HW218036   0.669   6.020   5.898
 5713SOL     OW18037   1.076   2.101   1.308
 5713SOL    HW118038   0.982   2.113   1.276
 5713SOL    HW218039   1.132   2.064   1.234
 5714SOL     OW18040   1.344   6.259   7.013
 5714SOL    HW118041   1.405   6.180   7.003
 5714SOL    HW218042   1.395   6.343   6.995
 5715SOL     OW18043   1.227   6.286   3.346
 5715SOL    HW118044   1.226   6.344   3.427
 5715SOL    HW218045   1.142   6.299   3.294
 5716SOL     OW18046   1.188   3.878   6.141
 5716SOL    HW118047   1.194   3.977   6.148
 5716SOL    HW218048   1.103   3.847   6.184
 5717SOL     OW18049   1.868   5.623   0.447
 5717SOL    HW118050   1.816   5.686   0.389
 5717SOL    HW218051   1.847   5.529   0.422
 5718SOL     OW18052   1.083   3.796   6.571
 5718SOL    HW118053   1.117   3.883   6.535
 5718SOL    HW218054   1.062   3.806   6.668
 5719SOL     OW18055   2.485   1.317   6.204
 5719SOL    HW118056   2.460   1.403   6.249
 5719SOL    HW218057   2.538   1.261   6.266
 5720SOL     OW18058   1.059   4.656   4.028
 5720SOL    HW118059   1.109   4.622   4.108
 5720SOL    HW218060   1.009   4.739   4.053
 5721SOL     OW18061   6.972   3.720   0.867
 5721SOL    HW118062   0.044   3.733   0.900
 5721SOL    HW218063   6.961   3.766   0.779
 5722SOL     OW18064   5.764   2.068   5.208
 5722SOL    HW118065   5.751   2.020   5.295
 5722SOL    HW218066   5.862   2.072   5.187
 5723SOL     OW18067   4.136   3.827   0.100
 5723SOL    HW118068   4.064   3.780   0.050
 5723SOL    HW218069   4.176   3.765   0.167
 5724SOL     OW18070   4.126   2.404   5.408
 5724SOL    HW118071   4.179   2.464   5.469
 5724SOL    HW218072   4.111   2.451   5.321
 5725SOL     OW18073   5.742   5.720   3.491
 5725SOL    HW118074   5.677   5.691   3.421
 5725SOL    HW218075   5.755   5.646   3.558
 5726SOL     OW18076   6.343   3.433   3.659
 5726SOL    HW118077   6.376   3.338   3.660
 5726SOL    HW218078   6.245   3.434   3.639
 5727SOL     OW18079   0.453   2.737   3.904
 5727SOL    HW118080   0.538   2.742   3.852
 5727SOL    HW218081   0.377   2.762   3.844
 5728SOL     OW18082   4.500   1.287   6.260
 5728SOL    HW118083   4.405   1.255   6.266
 5728SOL    HW218084   4.504   1.367   6.201
 5729SOL     OW18085   1.219   1.359   0.368
 5729SOL    HW118086   1.223   1.389   0.273
 5729SOL    HW218087   1.234   1.437   0.429
 5730SOL     OW18088   3.998   5.148   6.156
 5730SOL    HW118089   4.027   5.058   6.123
 5730SOL    HW218090   3.972   5.205   6.078
 5731SOL     OW18091   2.037   6.498   3.560
 5731SOL    HW118092   2.061   6.575   3.619
 5731SOL    HW218093   1.972   6.439   3.608
 5732SOL     OW18094   6.491   4.337   5.066
 5732SOL    HW118095   6.459   4.277   5.138
 5732SOL    HW218096   6.583   4.311   5.038
 5733SOL     OW18097   3.078   0.180   5.632
 5733SOL    HW118098   3.107   0.106   5.693
 5733SOL    HW218099   3.115   0.164   5.541
 5734SOL     OW18100   1.592   6.284   6.456
 5734SOL    HW118101   1.622   6.192   6.483
 5734SOL    HW218102   1.500   6.300   6.492
 5735SOL     OW18103   4.041   1.276   2.968
 5735SOL    HW118104   4.044   1.247   3.064
 5735SOL    HW218105   4.130   1.313   2.942
 5736SOL     OW18106   5.531   4.718   0.519
 5736SOL    HW118107   5.449   4.688   0.470
 5736SOL    HW218108   5.562   4.645   0.580
 5737SOL     OW18109   5.625   6.015   0.342
 5737SOL    HW118110   5.680   5.933   0.356
 5737SOL    HW218111   5.537   5.991   0.301
 5738SOL     OW18112   3.546   1.700   7.013
 5738SOL    HW118113   3.590   1.682   0.079
 5738SOL    HW218114   3.615   1.723   6.944
 5739SOL     OW18115   1.048   6.157   5.398
 5739SOL    HW118116   0.949   6.158   5.411
 5739SOL    HW218117   1.089   6.232   5.449
 5740SOL     OW18118   4.675   3.771   0.949
 5740SOL    HW118119   4.697   3.853   0.895
 5740SOL    HW218120   4.757   3.716   0.961
 5741SOL     OW18121   0.298   3.809   4.256
 5741SOL    HW118122   0.303   3.906   4.230
 5741SOL    HW218123   0.351   3.795   4.340
 5742SOL     OW18124   4.606   6.017   2.968
 5742SOL    HW118125   4.522   5.979   3.006
 5742SOL    HW218126   4.673   5.944   2.955
 5743SOL     OW18127   2.159   5.855   5.096
 5743SOL    HW118128   2.100   5.869   5.016
 5743SOL    HW218129   2.136   5.921   5.167
 5744SOL     OW18130   5.236   1.390   2.105
 5744SOL    HW118131   5.274   1.469   2.153
 5744SOL    HW218132   5.171   1.421   2.036
 5745SOL     OW18133   2.395   0.936   4.034
 5745SOL    HW118134   2.422   0.991   3.955
 5745SOL    HW218135   2.411   0.988   4.118
 5746SOL     OW18136   4.793   6.431   1.425
 5746SOL    HW118137   4.730   6.374   1.478
 5746SOL    HW218138   4.741   6.500   1.374
 5747SOL     OW18139   0.879   4.991   1.985
 5747SOL    HW118140   0.871   5.060   1.913
 5747SOL    HW218141   0.878   5.036   2.074
 5748SOL     OW18142   1.390   6.779   1.388
 5748SOL    HW118143   1.395   6.719   1.468
 5748SOL    HW218144   1.377   6.874   1.419
 5749SOL     OW18145   1.735   6.413   5.060
 5749SOL    HW118146   1.658   6.366   5.016
 5749SOL    HW218147   1.804   6.435   4.990
 5750SOL     OW18148   5.960   6.401   5.344
 5750SOL    HW118149   5.864   6.418   5.367
 5750SOL    HW218150   5.968   6.310   5.304
 5751SOL     OW18151   2.447   2.551   4.947
 5751SOL    HW118152   2.389   2.629   4.924
 5751SOL    HW218153   2.491   2.566   5.035
 5752SOL     OW18154   5.835   0.072   0.245
 5752SOL    HW118155   5.862   0.166   0.229
 5752SOL    HW218156   5.911   0.011   0.222
 5753SOL     OW18157   3.572   3.973   4.970
 5753SOL    HW118158   3.495   3.936   4.918
 5753SOL    HW218159   3.633   4.023   4.908
 5754SOL     OW18160   0.444   5.004   1.410
 5754SOL    HW118161   0.535   4.974   1.380
 5754SOL    HW218162   0.390   4.924   1.436
 5755SOL     OW18163   1.447   2.216   6.149
 5755SOL    HW118164   1.515   2.220   6.075
 5755SOL    HW218165   1.441   2.304   6.194
 5756SOL     OW18166   0.413   0.863   2.782
 5756SOL    HW118167   0.348   0.787   2.776
 5756SOL    HW218168   0.506   0.826   2.792
 5757SOL     OW18169   0.793   5.464   3.815
 5757SOL    HW118170   0.865   5.397   3.797
 5757SOL    HW218171   0.705   5.417   3.821
 5758SOL     OW18172   2.353   1.398   2.854
 5758SOL    HW118173   2.267   1.364   2.815
 5758SOL    HW218174   2.408   1.441   2.782
 5759SOL     OW18175   4.678   0.626   0.233
 5759SOL    HW118176   4.694   0.568   0.154
 5759SOL    HW218177   4.765   0.644   0.279
 5760SOL     OW18178   5.855   2.413   0.584
 5760SOL    HW118179   5.773   2.395   0.638
 5760SOL    HW218180   5.877   2.333   0.529
 5761SOL     OW18181   6.011   4.967   5.865
 5761SOL    HW118182   6.019   4.883   5.918
 5761SOL    HW218183   5.924   5.011   5.885
 5762SOL     OW18184   5.069   4.294   0.975
 5762SOL    HW118185   5.056   4.265   1.070
 5762SOL    HW218186   4.979   4.308   0.933
 5763SOL     OW18187   5.962   5.892   0.942
 5763SOL    HW118188   5.873   5.933   0.966
 5763SOL    HW218189   5.950   5.794   0.926
 5764SOL     OW18190   4.539   4.571   4.627
 5764SOL    HW118191   4.556   4.475   4.650
 5764SOL    HW218192   4.573   4.629   4.701
 5765SOL     OW18193   6.207   3.266   0.416
 5765SOL    HW118194   6.277   3.201   0.388
 5765SOL    HW218195   6.141   3.277   0.342
 5766SOL     OW18196   1.358   1.817   5.500
 5766SOL    HW118197   1.274   1.798   5.449
 5766SOL    HW218198   1.433   1.836   5.436
 5767SOL     OW18199   2.255   0.486   0.766
 5767SOL    HW118200   2.239   0.387   0.767
 5767SOL    HW218201   2.319   0.510   0.839
 5768SOL     OW18202   0.700   0.007   4.056
 5768SOL    HW118203   0.617   0.062   4.049
 5768SOL    HW218204   0.675   6.931   4.051
 5769SOL     OW18205   2.493   5.300   4.104
 5769SOL    HW118206   2.540   5.364   4.044
 5769SOL    HW218207   2.413   5.344   4.145
 5770SOL     OW18208   6.800   6.196   6.060
 5770SOL    HW118209   6.878   6.139   6.033
 5770SOL    HW218210   6.716   6.142   6.052
 5771SOL     OW18211   1.495   6.751   4.389
 5771SOL    HW118212   1.421   6.781   4.449
 5771SOL    HW218213   1.579   6.798   4.414
 5772SOL     OW18214   5.324   1.344   1.388
 5772SOL    HW118215   5.407   1.298   1.417
 5772SOL    HW218216   5.281   1.292   1.314
 5773SOL     OW18217   4.249   0.902   3.141
 5773SOL    HW118218   4.181   0.914   3.213
 5773SOL    HW218219   4.205   0.870   3.057
 5774SOL     OW18220   3.084   6.911   3.973
 5774SOL    HW118221   3.092   6.932   4.071
 5774SOL    HW218222   3.135   6.828   3.953
 5775SOL     OW18223   1.566   0.488   2.365
 5775SOL    HW118224   1.520   0.482   2.453
 5775SOL    HW218225   1.653   0.438   2.370
 5776SOL     OW18226   0.559   0.440   3.880
 5776SOL    HW118227   0.620   0.499   3.828
 5776SOL    HW218228   0.608   0.402   3.958
 5777SOL     OW18229   6.878   0.040   5.044
 5777SOL    HW118230   6.789   0.073   5.014
 5777SOL    HW218231   6.908   0.094   5.123
 5778SOL     OW18232   1.499   0.313   0.282
 5778SOL    HW118233   1.525   0.236   0.223
 5778SOL    HW218234   1.577   0.337   0.341
 5779SOL     OW18235   4.632   2.330   1.106
 5779SOL    HW118236   4.562   2.316   1.036
 5779SOL    HW218237   4.636   2.427   1.129
 5780SOL     OW18238   6.329   6.481   3.951
 5780SOL    HW118239   6.284   6.480   3.862
 5780SOL    HW218240   6.307   6.397   4.001
 5781SOL     OW18241   6.876   5.073   4.303
 5781SOL    HW118242   6.957   5.053   4.358
 5781SOL    HW218243   6.803   5.009   4.326
 5782SOL     OW18244   1.790   1.635   0.837
 5782SOL    HW118245   1.732   1.715   0.828
 5782SOL    HW218246   1.856   1.633   0.762
 5783SOL     OW18247   0.953   0.864   1.455
 5783SOL    HW118248   1.048   0.866   1.423
 5783SOL    HW218249   0.945   0.803   1.534
 5784SOL     OW18250   0.165   6.121   5.544
 5784SOL    HW118251   0.222   6.176   5.483
 5784SOL    HW218252   0.115   6.180   5.606
 5785SOL     OW18253   2.317   2.118   0.006
 5785SOL    HW118254   2.410   2.137   6.997
 5785SOL    HW218255   2.286   2.193   0.066
 5786SOL     OW18256   0.611   4.669   0.443
 5786SOL    HW118257   0.680   4.639   0.508
 5786SOL    HW218258   0.544   4.727   0.490
 5787SOL     OW18259   3.151   1.884   4.580
 5787SOL    HW118260   3.111   1.914   4.667
 5787SOL    HW218261   3.121   1.944   4.507
 5788SOL     OW18262   2.824   1.541   1.355
 5788SOL    HW118263   2.881   1.593   1.291
 5788SOL    HW218264   2.739   1.513   1.310
 5789SOL     OW18265   3.106   4.599   0.188
 5789SOL    HW118266   3.165   4.659   0.134
 5789SOL    HW218267   3.053   4.541   0.126
 5790SOL     OW18268   1.585   3.941   5.337
 5790SOL    HW118269   1.655   3.870   5.352
 5790SOL    HW218270   1.496   3.897   5.326
 5791SOL     OW18271   3.777   1.952   2.516
 5791SOL    HW118272   3.759   1.990   2.425
 5791SOL    HW218273   3.822   2.022   2.573
 5792SOL     OW18274   6.049   3.424   2.413
 5792SOL    HW118275   6.045   3.513   2.368
 5792SOL    HW218276   5.983   3.422   2.488
 5793SOL     OW18277   5.025   1.301   3.712
 5793SOL    HW118278   4.947   1.246   3.743
 5793SOL    HW218279   5.052   1.364   3.784
 5794SOL     OW18280   2.509   1.531   0.445
 5794SOL    HW118281   2.413   1.542   0.469
 5794SOL    HW218282   2.565   1.586   0.507
 5795SOL     OW18283   6.506   0.282   6.872
 5795SOL    HW118284   6.510   0.374   6.910
 5795SOL    HW218285   6.415   0.266   6.833
 5796SOL     OW18286   4.576   1.218   6.630
 5796SOL    HW118287   4.588   1.281   6.553
 5796SOL    HW218288   4.531   1.266   6.706
 5797SOL     OW18289   4.678   2.740   5.970
 5797SOL    HW118290   4.682   2.640   5.957
 5797SOL    HW218291   4.770   2.775   5.989
 5798SOL     OW18292   0.660   4.755   5.633
 5798SOL    HW118293   0.751   4.774   5.595
 5798SOL    HW218294   0.592   4.805   5.580
 5799SOL     OW18295   0.563   0.450   3.093
 5799SOL    HW118296   0.598   0.452   3.187
 5799SOL    HW218297   0.639   0.464   3.030
 5800SOL     OW18298   6.163   6.349   2.132
 5800SOL    HW118299   6.074   6.360   2.176
 5800SOL    HW218300   6.228   6.414   2.171
 5801SOL     OW18301   2.158   2.386   3.493
 5801SOL    HW118302   2.208   2.315   3.543
 5801SOL    HW218303   2.062   2.384   3.519
 5802SOL     OW18304   0.980   4.215   2.542
 5802SOL    HW118305   0.933   4.161   2.611
 5802SOL    HW218306   1.079   4.203   2.551
 5803SOL     OW18307   2.224   4.655   2.443
 5803SOL    HW118308   2.278   4.739   2.443
 5803SOL    HW218309   2.274   4.583   2.395
 5804SOL     OW18310   0.381   5.445   4.002
 5804SOL    HW118311   0.437   5.446   3.919
 5804SOL    HW218312   0.381   5.537   4.043
 5805SOL     OW18313   2.870   3.508   6.898
 5805SOL    HW118314   2.920   3.502   6.985
 5805SOL    HW218315   2.934   3.530   6.824
 5806SOL     OW18316   0.043   5.709   4.807
 5806SOL    HW118317   0.127   5.727   4.859
 5806SOL    HW218318   6.985   5.718   4.868
 5807SOL     OW18319   0.683   3.995   2.272
 5807SOL    HW118320   0.771   3.947   2.272
 5807SOL    HW218321   0.641   3.989   2.181
 5808SOL     OW18322   5.707   5.584   5.039
 5808SOL    HW118323   5.609   5.589   5.060
 5808SOL    HW218324   5.719   5.565   4.942
 5809SOL     OW18325   5.415   1.802   4.174
 5809SOL    HW118326   5.466   1.753   4.244
 5809SOL    HW218327   5.345   1.859   4.217
 5810SOL     OW18328   3.694   1.689   4.906
 5810SOL    HW118329   3.718   1.734   4.992
 5810SOL    HW218330   3.599   1.709   4.884
 5811SOL     OW18331   2.749   1.047   5.201
 5811SOL    HW118332   2.732   1.054   5.299
 5811SOL    HW218333   2.839   1.005   5.186
 5812SOL     OW18334   6.586   2.751   3.906
 5812SOL    HW118335   6.519   2.699   3.960
 5812SOL    HW218336   6.669   2.697   3.895
 5813SOL     OW18337   2.056   2.066   0.761
 5813SOL    HW118338   2.114   1.994   0.801
 5813SOL    HW218339   1.961   2.049   0.785
 5814SOL     OW18340   6.660   4.523   1.349
 5814SOL    HW118341   6.634   4.532   1.445
 5814SOL    HW218342   6.645   4.609   1.302
 5815SOL     OW18343   3.900   1.937   4.134
 5815SOL    HW118344   3.817   1.970   4.088
 5815SOL    HW218345   3.976   1.999   4.115
 5816SOL     OW18346   4.502   5.197   0.076
 5816SOL    HW118347   4.574   5.199   0.006
 5816SOL    HW218348   4.421   5.151   0.039
 5817SOL     OW18349   5.550   3.301   5.831
 5817SOL    HW118350   5.465   3.353   5.836
 5817SOL    HW218351   5.532   3.211   5.790
 5818SOL     OW18352   6.408   6.238   4.791
 5818SOL    HW118353   6.368   6.257   4.701
 5818SOL    HW218354   6.490   6.293   4.804
 5819SOL     OW18355   3.464   6.696   0.048
 5819SOL    HW118356   3.378   6.746   0.060
 5819SOL    HW218357   3.445   6.599   0.037
 5820SOL     OW18358   3.963   5.539   3.737
 5820SOL    HW118359   3.942   5.442   3.723
 5820SOL    HW218360   3.890   5.595   3.699
 5821SOL     OW18361   0.208   6.924   1.408
 5821SOL    HW118362   0.236   6.994   1.475
 5821SOL    HW218363   0.276   6.919   1.335
 5822SOL     OW18364   1.378   2.284   1.751
 5822SOL    HW118365   1.371   2.383   1.762
 5822SOL    HW218366   1.436   2.263   1.673
 5823SOL     OW18367   1.798   1.027   5.717
 5823SOL    HW118368   1.844   1.108   5.680
 5823SOL    HW218369   1.712   1.054   5.760
 5824SOL     OW18370   6.542   5.517   2.211
 5824SOL    HW118371   6.534   5.417   2.216
 5824SOL    HW218372   6.634   5.544   2.239
 5825SOL     OW18373   1.372   1.357   5.727
 5825SOL    HW118374   1.294   1.329   5.671
 5825SOL    HW218375   1.422   1.431   5.681
 5826SOL     OW18376   6.797   4.844   5.268
 5826SOL    HW118377   6.838   4.764   5.225
 5826SOL    HW218378   6.754   4.902   5.198
 5827SOL     OW18379   2.115   4.421   4.941
 5827SOL    HW118380   2.086   4.412   5.037
 5827SOL    HW218381   2.167   4.340   4.914
 5828SOL     OW18382   6.348   1.856   1.092
 5828SOL    HW118383   6.372   1.953   1.092
 5828SOL    HW218384   6.382   1.814   1.008
 5829SOL     OW18385   1.848   0.787   3.273
 5829SOL    HW118386   1.904   0.749   3.200
 5829SOL    HW218387   1.803   0.870   3.242
 5830SOL     OW18388   5.132   6.649   5.554
 5830SOL    HW118389   5.195   6.722   5.581
 5830SOL    HW218390   5.132   6.641   5.455
 5831SOL     OW18391   0.893   0.901   5.382
 5831SOL    HW118392   0.885   0.834   5.456
 5831SOL    HW218393   0.827   0.975   5.396
 5832SOL     OW18394   3.129   4.588   6.870
 5832SOL    HW118395   3.076   4.660   6.825
 5832SOL    HW218396   3.142   4.512   6.807
 5833SOL     OW18397   3.496   3.689   4.535
 5833SOL    HW118398   3.499   3.676   4.634
 5833SOL    HW218399   3.497   3.600   4.490
 5834SOL     OW18400   0.286   3.201   6.995
 5834SOL    HW118401   0.286   3.277   6.929
 5834SOL    HW218402   0.223   3.222   0.048
 5835SOL     OW18403   5.082   3.093   4.005
 5835SOL    HW118404   5.051   3.087   3.910
 5835SOL    HW218405   5.164   3.037   4.017
 5836SOL     OW18406   2.758   6.582   2.500
 5836SOL    HW118407   2.839   6.555   2.448
 5836SOL    HW218408   2.679   6.585   2.440
 5837SOL     OW18409   4.144   4.090   5.954
 5837SOL    HW118410   4.059   4.081   6.006
 5837SOL    HW218411   4.165   4.003   5.909
 5838SOL     OW18412   3.152   2.611   0.137
 5838SOL    HW118413   3.128   2.646   0.228
 5838SOL    HW218414   3.230   2.662   0.102
 5839SOL     OW18415   0.750   1.601   2.378
 5839SOL    HW118416   0.746   1.668   2.303
 5839SOL    HW218417   0.842   1.564   2.385
 5840SOL     OW18418   0.699   5.543   6.512
 5840SOL    HW118419   0.732   5.567   6.603
 5840SOL    HW218420   0.768   5.566   6.444
 5841SOL     OW18421   5.144   2.131   2.739
 5841SOL    HW118422   5.124   2.204   2.674
 5841SOL    HW218423   5.225   2.080   2.709
 5842SOL     OW18424   4.605   3.216   1.432
 5842SOL    HW118425   4.563   3.306   1.419
 5842SOL    HW218426   4.592   3.161   1.349
 5843SOL     OW18427   1.796   3.940   3.175
 5843SOL    HW118428   1.740   3.946   3.093
 5843SOL    HW218429   1.767   3.861   3.230
 5844SOL     OW18430   1.851   6.514   6.159
 5844SOL    HW118431   1.775   6.516   6.225
 5844SOL    HW218432   1.906   6.597   6.170
 5845SOL     OW18433   0.198   0.763   2.088
 5845SOL    HW118434   0.295   0.779   2.068
 5845SOL    HW218435   0.143   0.798   2.012
 5846SOL     OW18436   0.189   2.430   4.629
 5846SOL    HW118437   0.211   2.413   4.725
 5846SOL    HW218438   0.183   2.528   4.613
 5847SOL     OW18439   2.393   2.425   1.855
 5847SOL    HW118440   2.483   2.383   1.852
 5847SOL    HW218441   2.383   2.488   1.777
 5848SOL     OW18442   2.287   5.743   3.250
 5848SOL    HW118443   2.198   5.788   3.257
 5848SOL    HW218444   2.287   5.682   3.171
 5849SOL     OW18445   0.180   0.026   6.389
 5849SOL    HW118446   0.195   0.039   6.487
 5849SOL    HW218447   0.155   0.114   6.348
 5850SOL     OW18448   6.914   2.640   1.908
 5850SOL    HW118449   6.877   2.652   1.816
 5850SOL    HW218450   6.840   2.645   1.974
 5851SOL     OW18451   4.866   3.836   3.425
 5851SOL    HW118452   4.861   3.857   3.328
 5851SOL    HW218453   4.900   3.743   3.438
 5852SOL     OW18454   6.676   5.861   3.115
 5852SOL    HW118455   6.683   5.850   3.015
 5852SOL    HW218456   6.752   5.916   3.148
 5853SOL     OW18457   3.644   6.047   4.407
 5853SOL    HW118458   3.731   6.016   4.445
 5853SOL    HW218459   3.640   6.024   4.310
 5854SOL     OW18460   5.292   5.015   5.982
 5854SOL    HW118461   5.266   4.942   6.045
 5854SOL    HW218462   5.347   4.977   5.908
 5855SOL     OW18463   0.200   1.212   5.129
 5855SOL    HW118464   0.293   1.191   5.098
 5855SOL    HW218465   0.134   1.167   5.069
 5856SOL     OW18466   1.765   5.740   3.565
 5856SOL    HW118467   1.714   5.824   3.582
 5856SOL    HW218468   1.862   5.756   3.583
 5857SOL     OW18469   6.715   1.830   6.087
 5857SOL    HW118470   6.755   1.744   6.119
 5857SOL    HW218471   6.675   1.816   5.996
 5858SOL     OW18472   2.473   2.110   2.252
 5858SOL    HW118473   2.406   2.086   2.182
 5858SOL    HW218474   2.431   2.104   2.342
 5859SOL     OW18475   5.763   6.477   1.481
 5859SOL    HW118476   5.731   6.527   1.562
 5859SOL    HW218477   5.705   6.500   1.403
 5860SOL     OW18478   1.016   4.128   2.265
 5860SOL    HW118479   0.994   4.187   2.187
 5860SOL    HW218480   0.970   4.164   2.347
 5861SOL     OW18481   4.614   1.872   4.498
 5861SOL    HW118482   4.536   1.832   4.450
 5861SOL    HW218483   4.618   1.837   4.591
 5862SOL     OW18484   5.385   5.000   1.568
 5862SOL    HW118485   5.306   5.053   1.600
 5862SOL    HW218486   5.404   5.023   1.472
 5863SOL     OW18487   3.026   1.350   4.952
 5863SOL    HW118488   3.081   1.382   5.028
 5863SOL    HW218489   2.982   1.428   4.908
 5864SOL     OW18490   3.925   3.634   1.976
 5864SOL    HW118491   4.008   3.585   1.949
 5864SOL    HW218492   3.879   3.584   2.050
 5865SOL     OW18493   5.910   0.692   5.421
 5865SOL    HW118494   5.871   0.785   5.415
 5865SOL    HW218495   6.008   0.698   5.437
 5866SOL     OW18496   3.963   4.156   0.370
 5866SOL    HW118497   3.865   4.170   0.381
 5866SOL    HW218498   4.008   4.245   0.358
 5867SOL     OW18499   0.955   3.618   0.999
 5867SOL    HW118500   0.929   3.618   0.902
 5867SOL    HW218501   0.973   3.524   1.028
 5868SOL     OW18502   0.798   1.635   5.644
 5868SOL    HW118503   0.853   1.582   5.709
 5868SOL    HW218504   0.717   1.581   5.618
 5869SOL     OW18505   1.889   6.354   3.717
 5869SOL    HW118506   1.803   6.306   3.698
 5869SOL    HW218507   1.909   6.350   3.815
 5870SOL     OW18508   5.167   6.187   4.647
 5870SOL    HW118509   5.198   6.105   4.695
 5870SOL    HW218510   5.076   6.212   4.680
 5871SOL     OW18511   3.771   2.688   1.260
 5871SOL    HW118512   3.700   2.639   1.210
 5871SOL    HW218513   3.737   2.709   1.352
 5872SOL     OW18514   3.740   6.042   1.166
 5872SOL    HW118515   3.725   5.952   1.207
 5872SOL    HW218516   3.746   6.111   1.238
 5873SOL     OW18517   2.779   1.801   1.479
 5873SOL    HW118518   2.794   1.702   1.470
 5873SOL    HW218519   2.766   1.823   1.576
 5874SOL     OW18520   2.714   3.982   6.940
 5874SOL    HW118521   2.665   3.903   6.977
 5874SOL    HW218522   2.657   4.064   6.949
 5875SOL     OW18523   4.576   0.999   6.311
 5875SOL    HW118524   4.555   1.096   6.320
 5875SOL    HW218525   4.558   0.970   6.217
 5876SOL     OW18526   3.290   3.474   0.741
 5876SOL    HW118527   3.309   3.497   0.645
 5876SOL    HW218528   3.215   3.408   0.745
 5877SOL     OW18529   0.517   0.409   0.811
 5877SOL    HW118530   0.560   0.499   0.806
 5877SOL    HW218531   0.458   0.395   0.731
 5878SOL     OW18532   5.823   5.151   4.102
 5878SOL    HW118533   5.864   5.196   4.181
 5878SOL    HW218534   5.767   5.075   4.132
 5879SOL     OW18535   1.289   3.448   0.130
 5879SOL    HW118536   1.226   3.382   0.089
 5879SOL    HW218537   1.276   3.537   0.088
 5880SOL     OW18538   5.375   4.523   6.831
 5880SOL    HW118539   5.326   4.557   6.750
 5880SOL    HW218540   5.411   4.432   6.812
 5881SOL     OW18541   1.356   0.114   1.951
 5881SOL    HW118542   1.323   0.046   1.886
 5881SOL    HW218543   1.456   0.108   1.956
 5882SOL     OW18544   0.999   6.030   6.141
 5882SOL    HW118545   1.087   6.015   6.096
 5882SOL    HW218546   0.959   6.116   6.107
 5883SOL     OW18547   0.768   1.332   6.803
 5883SOL    HW118548   0.797   1.252   6.751
 5883SOL    HW218549   0.669   1.332   6.813
 5884SOL     OW18550   4.598   0.880   4.271
 5884SOL    HW118551   4.557   0.803   4.222
 5884SOL    HW218552   4.696   0.864   4.284
 5885SOL     OW18553   0.378   5.714   2.659
 5885SOL    HW118554   0.418   5.627   2.690
 5885SOL    HW218555   0.390   5.722   2.560
 5886SOL     OW18556   0.986   2.064   3.966
 5886SOL    HW118557   0.890   2.062   3.993
 5886SOL    HW218558   1.044   2.054   4.048
 5887SOL     OW18559   2.518   2.011   1.451
 5887SOL    HW118560   2.488   1.916   1.448
 5887SOL    HW218561   2.533   2.044   1.357
 5888SOL     OW18562   2.044   6.755   1.019
 5888SOL    HW118563   1.962   6.770   1.074
 5888SOL    HW218564   2.028   6.785   0.925
 5889SOL     OW18565   6.577   1.868   6.461
 5889SOL    HW118566   6.534   1.801   6.400
 5889SOL    HW218567   6.676   1.866   6.449
 5890SOL     OW18568   2.747   0.396   2.692
 5890SOL    HW118569   2.664   0.341   2.705
 5890SOL    HW218570   2.738   0.452   2.610
 5891SOL     OW18571   2.533   3.745   0.347
 5891SOL    HW118572   2.525   3.665   0.408
 5891SOL    HW218573   2.607   3.803   0.379
 5892SOL     OW18574   1.076   5.377   2.127
 5892SOL    HW118575   1.034   5.384   2.036
 5892SOL    HW218576   1.012   5.413   2.195
 5893SOL     OW18577   2.045   4.331   2.005
 5893SOL    HW118578   2.010   4.238   1.995
 5893SOL    HW218579   1.998   4.391   1.941
 5894SOL     OW18580   0.898   6.201   4.737
 5894SOL    HW118581   0.994   6.220   4.714
 5894SOL    HW218582   0.871   6.114   4.697
 5895SOL     OW18583   5.642   3.557   3.734
 5895SOL    HW118584   5.607   3.524   3.646
 5895SOL    HW218585   5.580   3.529   3.807
 5896SOL     OW18586   4.726   1.692   1.376
 5896SOL    HW118587   4.816   1.658   1.405
 5896SOL    HW218588   4.665   1.615   1.360
 5897SOL     OW18589   3.786   1.024   1.514
 5897SOL    HW118590   3.825   1.093   1.575
 5897SOL    HW218591   3.700   1.057   1.476
 5898SOL     OW18592   2.425   0.420   4.827
 5898SOL    HW118593   2.521   0.415   4.852
 5898SOL    HW218594   2.404   0.512   4.794
 5899SOL     OW18595   6.184   6.180   6.921
 5899SOL    HW118596   6.152   6.186   7.015
 5899SOL    HW218597   6.283   6.197   6.918
 5900SOL     OW18598   6.774   4.649   2.843
 5900SOL    HW118599   6.866   4.689   2.840
 5900SOL    HW218600   6.712   4.712   2.889
 5901SOL     OW18601   3.382   0.535   0.996
 5901SOL    HW118602   3.304   0.595   0.977
 5901SOL    HW218603   3.365   0.484   1.081
 5902SOL     OW18604   5.927   3.366   5.693
 5902SOL    HW118605   6.004   3.429   5.695
 5902SOL    HW218606   5.916   3.325   5.783
 5903SOL     OW18607   4.533   4.120   6.404
 5903SOL    HW118608   4.504   4.145   6.311
 5903SOL    HW218609   4.535   4.021   6.413
 5904SOL     OW18610   0.648   4.201   1.253
 5904SOL    HW118611   0.573   4.256   1.217
 5904SOL    HW218612   0.734   4.229   1.209
 5905SOL     OW18613   6.868   0.189   3.216
 5905SOL    HW118614   6.834   0.283   3.212
 5905SOL    HW218615   6.965   0.190   3.240
 5906SOL     OW18616   4.401   1.529   4.406
 5906SOL    HW118617   4.443   1.493   4.323
 5906SOL    HW218618   4.362   1.619   4.387
 5907SOL     OW18619   1.066   6.465   0.544
 5907SOL    HW118620   1.026   6.516   0.620
 5907SOL    HW218621   1.101   6.377   0.577
 5908SOL     OW18622   6.418   4.094   0.001
 5908SOL    HW118623   6.491   4.161   0.012
 5908SOL    HW218624   6.409   4.040   0.085
 5909SOL     OW18625   6.355   4.991   6.169
 5909SOL    HW118626   6.394   4.978   6.077
 5909SOL    HW218627   6.259   5.019   6.161
 5910SOL     OW18628   0.351   4.272   1.645
 5910SOL    HW118629   0.332   4.346   1.708
 5910SOL    HW218630   0.438   4.229   1.669
 5911SOL     OW18631   6.649   4.957   6.439
 5911SOL    HW118632   6.724   4.980   6.500
 5911SOL    HW218633   6.613   4.866   6.463
 5912SOL     OW18634   6.084   2.915   6.917
 5912SOL    HW118635   6.080   2.968   7.001
 5912SOL    HW218636   6.040   2.966   6.843
 5913SOL     OW18637   3.424   3.028   6.408
 5913SOL    HW118638   3.400   2.931   6.415
 5913SOL    HW218639   3.361   3.073   6.344
 5914SOL     OW18640   2.815   5.837   6.103
 5914SOL    HW118641   2.813   5.863   6.007
 5914SOL    HW218642   2.849   5.743   6.111
 5915SOL     OW18643   5.899   4.308   1.841
 5915SOL    HW118644   5.858   4.231   1.792
 5915SOL    HW218645   5.832   4.381   1.852
 5916SOL     OW18646   4.652   6.072   5.470
 5916SOL    HW118647   4.684   5.983   5.501
 5916SOL    HW218648   4.556   6.065   5.441
 5917SOL     OW18649   3.946   3.617   3.803
 5917SOL    HW118650   3.909   3.537   3.852
 5917SOL    HW218651   3.996   3.675   3.867
 5918SOL     OW18652   2.129   3.606   5.559
 5918SOL    HW118653   2.205   3.544   5.579
 5918SOL    HW218654   2.128   3.627   5.461
 5919SOL     OW18655   4.076   2.537   0.849
 5919SOL    HW118656   4.033   2.560   0.762
 5919SOL    HW218657   4.032   2.455   0.887
 5920SOL     OW18658   3.540   6.925   0.432
 5920SOL    HW118659   3.446   6.891   0.418
 5920SOL    HW218660   3.562   6.991   0.361
 5921SOL     OW18661   3.310   5.340   5.638
 5921SOL    HW118662   3.346   5.267   5.580
 5921SOL    HW218663   3.378   5.367   5.705
 5922SOL     OW18664   6.835   5.329   3.256
 5922SOL    HW118665   6.778   5.276   3.193
 5922SOL    HW218666   6.791   5.416   3.276
 5923SOL     OW18667   5.374   0.095   0.833
 5923SOL    HW118668   5.311   0.051   0.769
 5923SOL    HW218669   5.323   0.153   0.896
 5924SOL     OW18670   6.632   2.003   4.716
 5924SOL    HW118671   6.651   1.905   4.714
 5924SOL    HW218672   6.665   2.042   4.802
 5925SOL     OW18673   4.483   5.438   2.753
 5925SOL    HW118674   4.423   5.512   2.782
 5925SOL    HW218675   4.567   5.440   2.806
 5926SOL     OW18676   3.933   4.837   2.020
 5926SOL    HW118677   3.862   4.796   1.962
 5926SOL    HW218678   4.023   4.809   1.987
 5927SOL     OW18679   1.546   4.190   3.210
 5927SOL    HW118680   1.635   4.164   3.175
 5927SOL    HW218681   1.521   4.132   3.287
 5928SOL     OW18682   3.129   0.392   1.342
 5928SOL    HW118683   3.174   0.382   1.431
 5928SOL    HW218684   3.197   0.381   1.269
 5929SOL     OW18685   0.751   6.282   6.011
 5929SOL    HW118686   0.709   6.345   6.077
 5929SOL    HW218687   0.684   6.212   5.984
 5930SOL     OW18688   6.987   2.231   3.362
 5930SOL    HW118689   0.012   2.227   3.450
 5930SOL    HW218690   0.000   2.158   3.303
 5931SOL     OW18691   6.098   5.570   3.205
 5931SOL    HW118692   6.173   5.529   3.257
 5931SOL    HW218693   6.056   5.643   3.259
 5932SOL     OW18694   2.354   0.003   1.005
 5932SOL    HW118695   2.323   6.954   0.941
 5932SOL    HW218696   2.275   0.042   1.053
 5933SOL     OW18697   0.564   5.911   3.115
 5933SOL    HW118698   0.465   5.922   3.108
 5933SOL    HW218699   0.591   5.917   3.211
 5934SOL     OW18700   3.902   3.926   3.890
 5934SOL    HW118701   3.807   3.899   3.907
 5934SOL    HW218702   3.958   3.903   3.969
 5935SOL     OW18703   4.120   3.472   5.789
 5935SOL    HW118704   4.045   3.495   5.727
 5935SOL    HW218705   4.194   3.538   5.778
 5936SOL     OW18706   4.246   3.774   0.545
 5936SOL    HW118707   4.297   3.727   0.616
 5936SOL    HW218708   4.152   3.789   0.576
 5937SOL     OW18709   0.806   4.652   2.732
 5937SOL    HW118710   0.722   4.597   2.738
 5937SOL    HW218711   0.827   4.669   2.636
 5938SOL     OW18712   1.121   5.452   3.992
 5938SOL    HW118713   1.183   5.387   4.035
 5938SOL    HW218714   1.135   5.451   3.893
 5939SOL     OW18715   3.256   6.991   3.251
 5939SOL    HW118716   3.207   6.904   3.244
 5939SOL    HW218717   3.313   6.991   3.332
 5940SOL     OW18718   4.120   5.255   1.508
 5940SOL    HW118719   4.131   5.277   1.605
 5940SOL    HW218720   4.107   5.340   1.457
 5941SOL     OW18721   6.237   3.232   1.788
 5941SOL    HW118722   6.239   3.292   1.868
 5941SOL    HW218723   6.331   3.211   1.760
 5942SOL     OW18724   4.703   2.926   6.943
 5942SOL    HW118725   4.733   2.914   6.848
 5942SOL    HW218726   4.645   2.850   6.970
 5943SOL     OW18727   3.230   5.296   0.759
 5943SOL    HW118728   3.213   5.364   0.830
 5943SOL    HW218729   3.292   5.226   0.795
 5944SOL     OW18730   5.840   2.448   1.186
 5944SOL    HW118731   5.787   2.514   1.240
 5944SOL    HW218732   5.927   2.430   1.232
 5945SOL     OW18733   6.359   5.296   5.396
 5945SOL    HW118734   6.453   5.270   5.420
 5945SOL    HW218735   6.359   5.338   5.305
 5946SOL     OW18736   3.360   3.464   5.832
 5946SOL    HW118737   3.339   3.412   5.915
 5946SOL    HW218738   3.377   3.401   5.756
 5947SOL     OW18739   3.880   3.168   2.183
 5947SOL    HW118740   3.887   3.087   2.241
 5947SOL    HW218741   3.938   3.155   2.102
 5948SOL     OW18742   4.097   5.027   3.452
 5948SOL    HW118743   4.122   5.123   3.463
 5948SOL    HW218744   4.179   4.971   3.445
 5949SOL     OW18745   3.702   3.225   1.426
 5949SOL    HW118746   3.724   3.194   1.519
 5949SOL    HW218747   3.787   3.234   1.374
 5950SOL     OW18748   5.171   2.645   5.606
 5950SOL    HW118749   5.156   2.571   5.671
 5950SOL    HW218750   5.234   2.614   5.535
 5951SOL     OW18751   0.141   5.482   4.678
 5951SOL    HW118752   0.099   5.395   4.704
 5951SOL    HW218753   0.083   5.558   4.710
 5952SOL     OW18754   5.409   5.362   4.007
 5952SOL    HW118755   5.429   5.460   4.008
 5952SOL    HW218756   5.494   5.311   3.995
 5953SOL     OW18757   6.688   2.777   5.235
 5953SOL    HW118758   6.589   2.771   5.249
 5953SOL    HW218759   6.707   2.844   5.163
 5954SOL     OW18760   0.093   4.366   5.896
 5954SOL    HW118761   0.043   4.371   5.810
 5954SOL    HW218762   0.103   4.458   5.935
 5955SOL     OW18763   4.977   5.548   2.800
 5955SOL    HW118764   5.063   5.599   2.796
 5955SOL    HW218765   4.935   5.546   2.709
 5956SOL     OW18766   3.430   1.163   5.809
 5956SOL    HW118767   3.498   1.115   5.755
 5956SOL    HW218768   3.449   1.151   5.907
 5957SOL     OW18769   4.144   0.557   5.763
 5957SOL    HW118770   4.223   0.578   5.705
 5957SOL    HW218771   4.067   0.527   5.705
 5958SOL     OW18772   6.292   6.039   2.438
 5958SOL    HW118773   6.308   6.071   2.345
 5958SOL    HW218774   6.378   6.038   2.488
 5959SOL     OW18775   3.690   1.957   5.888
 5959SOL    HW118776   3.776   1.980   5.843
 5959SOL    HW218777   3.653   2.039   5.933
 5960SOL     OW18778   4.515   6.235   4.838
 5960SOL    HW118779   4.530   6.142   4.872
 5960SOL    HW218780   4.459   6.231   4.756
 5961SOL     OW18781   4.997   1.492   3.211
 5961SOL    HW118782   4.921   1.457   3.157
 5961SOL    HW218783   5.062   1.538   3.151
 5962SOL     OW18784   4.681   5.606   1.448
 5962SOL    HW118785   4.655   5.519   1.489
 5962SOL    HW218786   4.602   5.644   1.400
 5963SOL     OW18787   3.299   2.926   4.853
 5963SOL    HW118788   3.247   2.843   4.870
 5963SOL    HW218789   3.249   3.005   4.887
 5964SOL     OW18790   0.201   5.265   5.406
 5964SOL    HW118791   0.299   5.276   5.389
 5964SOL    HW218792   0.177   5.168   5.395
 5965SOL     OW18793   1.239   2.523   0.001
 5965SOL    HW118794   1.190   2.519   0.088
 5965SOL    HW218795   1.210   2.603   6.970
 5966SOL     OW18796   2.193   6.149   4.827
 5966SOL    HW118797   2.190   6.050   4.841
 5966SOL    HW218798   2.195   6.195   4.916
 5967SOL     OW18799   4.134   5.878   0.534
 5967SOL    HW118800   4.100   5.888   0.441
 5967SOL    HW218801   4.150   5.968   0.575
 5968SOL     OW18802   4.808   0.939   1.736
 5968SOL    HW118803   4.714   0.949   1.703
 5968SOL    HW218804   4.852   0.862   1.689
 5969SOL     OW18805   6.559   0.710   6.284
 5969SOL    HW118806   6.505   0.782   6.328
 5969SOL    HW218807   6.571   0.634   6.348
 5970SOL     OW18808   0.848   3.960   2.536
 5970SOL    HW118809   0.820   3.962   2.631
 5970SOL    HW218810   0.819   3.874   2.494
 5971SOL     OW18811   1.551   1.578   3.110
 5971SOL    HW118812   1.600   1.501   3.069
 5971SOL    HW218813   1.457   1.550   3.130
 5972SOL     OW18814   5.360   6.392   7.018
 5972SOL    HW118815   5.291   6.363   6.951
 5972SOL    HW218816   5.451   6.368   6.983
 5973SOL     OW18817   1.627   3.750   2.428
 5973SOL    HW118818   1.701   3.721   2.368
 5973SOL    HW218819   1.547   3.774   2.372
 5974SOL     OW18820   5.237   4.565   6.600
 5974SOL    HW118821   5.207   4.654   6.567
 5974SOL    HW218822   5.233   4.498   6.525
 5975SOL     OW18823   3.343   1.928   0.858
 5975SOL    HW118824   3.377   1.836   0.839
 5975SOL    HW218825   3.404   1.995   0.817
 5976SOL     OW18826   3.328   3.796   4.986
 5976SOL    HW118827   3.398   3.786   5.056
 5976SOL    HW218828   3.270   3.715   4.985
 5977SOL     OW18829   2.103   4.659   0.909
 5977SOL    HW118830   2.011   4.676   0.873
 5977SOL    HW218831   2.103   4.671   1.008
 5978SOL     OW18832   4.995   5.973   3.451
 5978SOL    HW118833   5.051   5.902   3.408
 5978SOL    HW218834   4.968   6.040   3.382
 5979SOL     OW18835   6.187   0.075   2.756
 5979SOL    HW118836   6.262   0.130   2.720
 5979SOL    HW218837   6.102   0.128   2.755
 5980SOL     OW18838   4.039   3.369   0.400
 5980SOL    HW118839   4.113   3.349   0.335
 5980SOL    HW218840   3.985   3.446   0.367
 5981SOL     OW18841   6.258   0.985   2.365
 5981SOL    HW118842   6.335   0.922   2.351
 5981SOL    HW218843   6.286   1.077   2.340
 5982SOL     OW18844   6.742   2.802   1.054
 5982SOL    HW118845   6.745   2.877   0.988
 5982SOL    HW218846   6.788   2.829   1.138
 5983SOL     OW18847   1.204   1.033   4.513
 5983SOL    HW118848   1.192   1.059   4.609
 5983SOL    HW218849   1.118   0.994   4.479
 5984SOL     OW18850   6.500   6.818   5.085
 5984SOL    HW118851   6.523   6.728   5.048
 5984SOL    HW218852   6.579   6.853   5.136
 5985SOL     OW18853   6.322   3.417   4.178
 5985SOL    HW118854   6.419   3.420   4.202
 5985SOL    HW218855   6.293   3.321   4.170
 5986SOL     OW18856   3.520   3.440   4.435
 5986SOL    HW118857   3.488   3.382   4.361
 5986SOL    HW218858   3.513   3.391   4.522
 5987SOL     OW18859   4.672   0.784   5.161
 5987SOL    HW118860   4.620   0.701   5.182
 5987SOL    HW218861   4.722   0.771   5.075
 5988SOL     OW18862   4.823   6.717   5.621
 5988SOL    HW118863   4.765   6.670   5.555
 5988SOL    HW218864   4.916   6.681   5.614
 5989SOL     OW18865   2.905   5.828   0.524
 5989SOL    HW118866   2.916   5.736   0.562
 5989SOL    HW218867   2.952   5.894   0.582
 5990SOL     OW18868   3.832   4.499   0.623
 5990SOL    HW118869   3.777   4.524   0.543
 5990SOL    HW218870   3.918   4.550   0.622
 5991SOL     OW18871   3.975   5.265   5.898
 5991SOL    HW118872   4.054   5.325   5.890
 5991SOL    HW218873   3.892   5.315   5.872
 5992SOL     OW18874   3.219   0.657   3.373
 5992SOL    HW118875   3.131   0.703   3.383
 5992SOL    HW218876   3.261   0.683   3.286
 5993SOL     OW18877   3.485   5.990   5.691
 5993SOL    HW118878   3.467   6.086   5.714
 5993SOL    HW218879   3.555   5.986   5.619
 5994SOL     OW18880   6.617   2.203   2.037
 5994SOL    HW118881   6.607   2.243   2.128
 5994SOL    HW218882   6.669   2.265   1.978
 5995SOL     OW18883   5.769   5.093   2.569
 5995SOL    HW118884   5.850   5.096   2.511
 5995SOL    HW218885   5.687   5.094   2.512
 5996SOL     OW18886   1.157   6.193   0.605
 5996SOL    HW118887   1.187   6.101   0.580
 5996SOL    HW218888   1.134   6.195   0.703
 5997SOL     OW18889   1.022   6.212   2.883
 5997SOL    HW118890   0.963   6.175   2.811
 5997SOL    HW218891   1.025   6.148   2.960
 5998SOL     OW18892   6.345   2.222   1.900
 5998SOL    HW118893   6.405   2.253   1.974
 5998SOL    HW218894   6.391   2.238   1.812
 5999SOL     OW18895   1.795   1.335   2.453
 5999SOL    HW118896   1.747   1.423   2.451
 5999SOL    HW218897   1.762   1.281   2.531
 6000SOL     OW18898   3.964   6.711   1.884
 6000SOL    HW118899   3.886   6.649   1.879
 6000SOL    HW218900   3.931   6.806   1.875
 6001SOL     OW18901   0.190   3.988   6.211
 6001SOL    HW118902   0.144   4.063   6.162
 6001SOL    HW218903   0.199   3.910   6.150
 6002SOL     OW18904   6.852   0.267   0.914
 6002SOL    HW118905   6.911   0.190   0.891
 6002SOL    HW218906   6.897   0.323   0.984
 6003SOL     OW18907   0.313   1.940   4.017
 6003SOL    HW118908   0.220   1.969   3.997
 6003SOL    HW218909   0.336   1.966   4.111
 6004SOL     OW18910   0.222   4.562   3.103
 6004SOL    HW118911   0.284   4.487   3.081
 6004SOL    HW218912   0.252   4.607   3.187
 6005SOL     OW18913   4.933   5.311   4.687
 6005SOL    HW118914   4.845   5.290   4.731
 6005SOL    HW218915   5.007   5.282   4.747
 6006SOL     OW18916   2.331   0.798   6.649
 6006SOL    HW118917   2.359   0.819   6.743
 6006SOL    HW218918   2.412   0.788   6.592
 6007SOL     OW18919   4.980   3.689   4.889
 6007SOL    HW118920   5.001   3.773   4.940
 6007SOL    HW218921   4.922   3.630   4.945
 6008SOL     OW18922   1.970   5.064   5.607
 6008SOL    HW118923   1.965   5.099   5.514
 6008SOL    HW218924   1.912   4.983   5.615
 6009SOL     OW18925   4.153   1.017   4.725
 6009SOL    HW118926   4.079   0.960   4.760
 6009SOL    HW218927   4.240   0.968   4.732
 6010SOL     OW18928   1.342   3.850   3.545
 6010SOL    HW118929   1.251   3.811   3.557
 6010SOL    HW218930   1.385   3.863   3.634
 6011SOL     OW18931   4.800   2.839   3.007
 6011SOL    HW118932   4.832   2.912   2.946
 6011SOL    HW218933   4.796   2.874   3.101
 6012SOL     OW18934   5.534   1.015   0.070
 6012SOL    HW118935   5.605   1.037   0.137
 6012SOL    HW218936   5.500   0.922   0.086
 6013SOL     OW18937   5.885   2.712   2.616
 6013SOL    HW118938   5.955   2.779   2.639
 6013SOL    HW218939   5.881   2.699   2.517
 6014SOL     OW18940   4.277   2.815   0.659
 6014SOL    HW118941   4.371   2.793   0.685
 6014SOL    HW218942   4.241   2.742   0.600
 6015SOL     OW18943   5.534   2.184   5.099
 6015SOL    HW118944   5.609   2.134   5.141
 6015SOL    HW218945   5.564   2.222   5.011
 6016SOL     OW18946   0.125   1.634   6.263
 6016SOL    HW118947   0.158   1.688   6.340
 6016SOL    HW218948   0.162   1.541   6.270
 6017SOL     OW18949   0.013   4.729   2.902
 6017SOL    HW118950   0.020   4.798   2.975
 6017SOL    HW218951   0.062   4.762   2.821
 6018SOL     OW18952   3.382   1.130   6.827
 6018SOL    HW118953   3.416   1.036   6.817
 6018SOL    HW218954   3.288   1.128   6.860
 6019SOL     OW18955   6.374   2.035   4.189
 6019SOL    HW118956   6.410   2.028   4.096
 6019SOL    HW218957   6.304   1.965   4.203
 6020SOL     OW18958   2.342   5.170   1.702
 6020SOL    HW118959   2.313   5.209   1.790
 6020SOL    HW218960   2.282   5.205   1.629
 6021SOL     OW18961   4.158   1.065   2.256
 6021SOL    HW118962   4.076   1.012   2.234
 6021SOL    HW218963   4.230   1.003   2.288
 6022SOL     OW18964   4.462   1.689   5.006
 6022SOL    HW118965   4.440   1.628   4.929
 6022SOL    HW218966   4.549   1.734   4.989
 6023SOL     OW18967   5.907   1.021   1.949
 6023SOL    HW118968   5.999   1.045   1.979
 6023SOL    HW218969   5.912   0.949   1.880
 6024SOL     OW18970   0.460   4.510   3.366
 6024SOL    HW118971   0.497   4.558   3.286
 6024SOL    HW218972   0.451   4.575   3.442
 6025SOL     OW18973   3.705   1.671   2.516
 6025SOL    HW118974   3.747   1.758   2.487
 6025SOL    HW218975   3.774   1.614   2.560
 6026SOL     OW18976   6.973   4.332   4.384
 6026SOL    HW118977   0.042   4.368   4.408
 6026SOL    HW218978   6.902   4.397   4.411
 6027SOL     OW18979   1.308   3.706   5.962
 6027SOL    HW118980   1.244   3.759   6.018
 6027SOL    HW218981   1.308   3.611   5.992
 6028SOL     OW18982   0.810   4.286   0.213
 6028SOL    HW118983   0.726   4.314   0.166
 6028SOL    HW218984   0.828   4.190   0.195
 6029SOL     OW18985   2.031   6.404   5.202
 6029SOL    HW118986   2.044   6.390   5.103
 6029SOL    HW218987   2.106   6.459   5.238
 6030SOL     OW18988   4.090   6.463   3.129
 6030SOL    HW118989   4.107   6.437   3.034
 6030SOL    HW218990   4.170   6.509   3.166
 6031SOL     OW18991   3.658   4.951   3.304
 6031SOL    HW118992   3.746   4.905   3.306
 6031SOL    HW218993   3.589   4.892   3.347
 6032SOL     OW18994   2.121   4.101   3.198
 6032SOL    HW118995   2.042   4.133   3.145
 6032SOL    HW218996   2.128   4.001   3.189
 6033SOL     OW18997   2.960   1.699   2.214
 6033SOL    HW118998   3.025   1.639   2.167
 6033SOL    HW218999   2.867   1.671   2.191
 6034SOL     OW19000   1.708   5.921   4.747
 6034SOL    HW119001   1.608   5.929   4.753
 6034SOL    HW219002   1.732   5.824   4.738
 6035SOL     OW19003   0.247   0.663   2.749
 6035SOL    HW119004   0.235   0.567   2.776
 6035SOL    HW219005   0.222   0.674   2.653
 6036SOL     OW19006   6.280   6.213   4.134
 6036SOL    HW119007   6.275   6.273   4.214
 6036SOL    HW219008   6.203   6.150   4.135
 6037SOL     OW19009   4.104   4.768   5.911
 6037SOL    HW119010   4.169   4.843   5.902
 6037SOL    HW219011   4.062   4.749   5.822
 6038SOL     OW19012   1.329   3.067   6.364
 6038SOL    HW119013   1.302   3.029   6.452
 6038SOL    HW219014   1.429   3.066   6.357
 6039SOL     OW19015   3.233   2.937   2.662
 6039SOL    HW119016   3.238   2.852   2.609
 6039SOL    HW219017   3.300   2.934   2.736
 6040SOL     OW19018   0.529   2.034   6.529
 6040SOL    HW119019   0.475   2.080   6.600
 6040SOL    HW219020   0.537   1.937   6.551
 6041SOL     OW19021   2.161   0.420   5.015
 6041SOL    HW119022   2.247   0.461   5.048
 6041SOL    HW219023   2.165   0.321   5.028
 6042SOL     OW19024   5.096   5.785   2.491
 6042SOL    HW119025   5.084   5.884   2.484
 6042SOL    HW219026   5.033   5.739   2.429
 6043SOL     OW19027   0.808   4.507   5.291
 6043SOL    HW119028   0.863   4.591   5.300
 6043SOL    HW219029   0.868   4.431   5.269
 6044SOL     OW19030   1.822   2.227   1.302
 6044SOL    HW119031   1.842   2.248   1.206
 6044SOL    HW219032   1.879   2.283   1.362
 6045SOL     OW19033   6.309   5.070   1.088
 6045SOL    HW119034   6.333   4.987   1.138
 6045SOL    HW219035   6.320   5.054   0.990
 6046SOL     OW19036   3.249   2.033   0.242
 6046SOL    HW119037   3.189   2.106   0.209
 6046SOL    HW219038   3.315   2.009   0.171
 6047SOL     OW19039   5.993   2.231   2.153
 6047SOL    HW119040   6.043   2.313   2.181
 6047SOL    HW219041   6.012   2.213   2.056
 6048SOL     OW19042   4.452   6.297   3.634
 6048SOL    HW119043   4.463   6.382   3.582
 6048SOL    HW219044   4.540   6.269   3.670
 6049SOL     OW19045   6.119   3.561   5.783
 6049SOL    HW119046   6.084   3.614   5.860
 6049SOL    HW219047   6.085   3.600   5.697
 6050SOL     OW19048   2.982   4.942   5.347
 6050SOL    HW119049   2.977   4.999   5.265
 6050SOL    HW219050   2.908   4.875   5.346
 6051SOL     OW19051   1.847   1.588   4.302
 6051SOL    HW119052   1.888   1.654   4.363
 6051SOL    HW219053   1.790   1.635   4.235
 6052SOL     OW19054   6.389   6.401   0.408
 6052SOL    HW119055   6.386   6.483   0.351
 6052SOL    HW219056   6.297   6.367   0.424
 6053SOL     OW19057   2.776   0.847   6.320
 6053SOL    HW119058   2.835   0.807   6.250
 6053SOL    HW219059   2.757   0.942   6.297
 6054SOL     OW19060   2.689   3.628   0.796
 6054SOL    HW119061   2.766   3.593   0.743
 6054SOL    HW219062   2.710   3.721   0.828
 6055SOL     OW19063   5.367   1.449   5.931
 6055SOL    HW119064   5.436   1.396   5.883
 6055SOL    HW219065   5.371   1.429   6.029
 6056SOL     OW19066   5.160   3.034   4.616
 6056SOL    HW119067   5.119   3.051   4.706
 6056SOL    HW219068   5.103   3.074   4.545
 6057SOL     OW19069   5.272   2.802   4.499
 6057SOL    HW119070   5.198   2.738   4.482
 6057SOL    HW219071   5.240   2.877   4.557
 6058SOL     OW19072   5.000   2.746   1.810
 6058SOL    HW119073   5.086   2.716   1.852
 6058SOL    HW219074   4.991   2.845   1.817
 6059SOL     OW19075   4.670   5.501   4.870
 6059SOL    HW119076   4.685   5.406   4.895
 6059SOL    HW219077   4.670   5.558   4.952
 6060SOL     OW19078   3.099   4.117   6.516
 6060SOL    HW119079   3.179   4.087   6.569
 6060SOL    HW219080   3.037   4.168   6.576
 6061SOL     OW19081   4.200   1.930   1.221
 6061SOL    HW119082   4.251   1.930   1.135
 6061SOL    HW219083   4.235   1.858   1.281
 6062SOL     OW19084   1.602   1.360   4.964
 6062SOL    HW119085   1.617   1.298   5.041
 6062SOL    HW219086   1.671   1.433   4.966
 6063SOL     OW19087   3.434   1.347   6.656
 6063SOL    HW119088   3.396   1.275   6.714
 6063SOL    HW219089   3.397   1.436   6.685
 6064SOL     OW19090   2.431   5.904   1.770
 6064SOL    HW119091   2.486   5.839   1.823
 6064SOL    HW219092   2.448   5.889   1.672
 6065SOL     OW19093   5.881   7.012   1.869
 6065SOL    HW119094   5.866   0.061   1.799
 6065SOL    HW219095   5.874   0.033   1.959
 6066SOL     OW19096   4.392   1.874   6.569
 6066SOL    HW119097   4.468   1.902   6.510
 6066SOL    HW219098   4.410   1.903   6.663
 6067SOL     OW19099   5.420   1.655   6.185
 6067SOL    HW119100   5.503   1.659   6.131
 6067SOL    HW219101   5.440   1.614   6.274
 6068SOL     OW19102   5.702   2.555   4.476
 6068SOL    HW119103   5.757   2.539   4.557
 6068SOL    HW219104   5.634   2.626   4.495
 6069SOL     OW19105   0.013   3.423   5.039
 6069SOL    HW119106   0.106   3.388   5.039
 6069SOL    HW219107   0.014   3.522   5.020
 6070SOL     OW19108   2.442   1.838   6.302
 6070SOL    HW119109   2.373   1.891   6.352
 6070SOL    HW219110   2.467   1.887   6.219
 6071SOL     OW19111   5.529   4.750   4.413
 6071SOL    HW119112   5.479   4.783   4.492
 6071SOL    HW219113   5.627   4.743   4.435
 6072SOL     OW19114   0.196   0.359   2.466
 6072SOL    HW119115   0.217   0.405   2.379
 6072SOL    HW219116   0.142   0.277   2.448
 6073SOL     OW19117   6.099   4.261   0.191
 6073SOL    HW119118   6.163   4.204   0.139
 6073SOL    HW219119   6.122   4.358   0.177
 6074SOL     OW19120   0.943   6.642   4.390
 6074SOL    HW119121   0.984   6.682   4.473
 6074SOL    HW219122   0.867   6.701   4.360
 6075SOL     OW19123   6.786   1.979   6.977
 6075SOL    HW119124   6.713   1.939   0.012
 6075SOL    HW219125   6.755   1.984   6.882
 6076SOL     OW19126   2.346   5.727   4.287
 6076SOL    HW119127   2.304   5.796   4.345
 6076SOL    HW219128   2.316   5.636   4.315
 6077SOL     OW19129   4.726   5.803   2.200
 6077SOL    HW119130   4.706   5.879   2.138
 6077SOL    HW219131   4.642   5.752   2.219
 6078SOL     OW19132   3.919   4.658   1.749
 6078SOL    HW119133   3.983   4.599   1.700
 6078SOL    HW219134   3.831   4.657   1.702
 6079SOL     OW19135   3.268   2.856   6.205
 6079SOL    HW119136   3.190   2.918   6.197
 6079SOL    HW219137   3.235   2.763   6.223
 6080SOL     OW19138   6.678   1.106   1.492
 6080SOL    HW119139   6.622   1.090   1.411
 6080SOL    HW219140   6.619   1.127   1.570
 6081SOL     OW19141   6.123   3.184   5.066
 6081SOL    HW119142   6.200   3.154   5.009
 6081SOL    HW219143   6.107   3.282   5.053
 6082SOL     OW19144   2.619   1.561   3.143
 6082SOL    HW119145   2.598   1.502   3.220
 6082SOL    HW219146   2.646   1.652   3.176
 6083SOL     OW19147   0.605   5.257   6.494
 6083SOL    HW119148   0.660   5.336   6.517
 6083SOL    HW219149   0.570   5.266   6.401
 6084SOL     OW19150   0.092   5.420   3.875
 6084SOL    HW119151   0.183   5.458   3.890
 6084SOL    HW219152   0.097   5.320   3.874
 6085SOL     OW19153   0.341   4.130   0.233
 6085SOL    HW119154   0.255   4.088   0.203
 6085SOL    HW219155   0.403   4.058   0.266
 6086SOL     OW19156   2.863   1.291   5.195
 6086SOL    HW119157   2.908   1.287   5.105
 6086SOL    HW219158   2.770   1.257   5.187
 6087SOL     OW19159   4.160   5.477   0.296
 6087SOL    HW119160   4.247   5.459   0.251
 6087SOL    HW219161   4.092   5.503   0.227
 6088SOL     OW19162   6.025   6.551   4.734
 6088SOL    HW119163   5.967   6.474   4.709
 6088SOL    HW219164   6.088   6.523   4.806
 6089SOL     OW19165   6.937   3.272   1.392
 6089SOL    HW119166   6.889   3.290   1.306
 6089SOL    HW219167   6.987   3.353   1.421
 6090SOL     OW19168   1.880   6.455   5.649
 6090SOL    HW119169   1.862   6.537   5.596
 6090SOL    HW219170   1.811   6.445   5.720
 6091SOL     OW19171   2.058   1.797   1.957
 6091SOL    HW119172   2.043   1.890   1.991
 6091SOL    HW219173   2.050   1.732   2.033
 6092SOL     OW19174   2.796   0.725   3.223
 6092SOL    HW119175   2.837   0.814   3.245
 6092SOL    HW219176   2.732   0.699   3.296
 6093SOL     OW19177   0.854   2.811   2.709
 6093SOL    HW119178   0.861   2.907   2.682
 6093SOL    HW219179   0.831   2.755   2.629
 6094SOL     OW19180   4.226   0.857   1.531
 6094SOL    HW119181   4.265   0.860   1.623
 6094SOL    HW219182   4.147   0.795   1.530
 6095SOL     OW19183   4.550   3.656   6.951
 6095SOL    HW119184   4.641   3.649   6.910
 6095SOL    HW219185   4.559   3.681   0.027
 6096SOL     OW19186   5.949   0.539   4.336
 6096SOL    HW119187   5.935   0.551   4.238
 6096SOL    HW219188   5.954   0.628   4.380
 6097SOL     OW19189   1.766   0.280   2.473
 6097SOL    HW119190   1.862   0.254   2.472
 6097SOL    HW219191   1.743   0.321   2.561
 6098SOL     OW19192   1.540   2.166   6.716
 6098SOL    HW119193   1.637   2.182   6.697
 6098SOL    HW219194   1.490   2.253   6.711
 6099SOL     OW19195   0.276   6.088   0.493
 6099SOL    HW119196   0.193   6.074   0.438
 6099SOL    HW219197   0.355   6.050   0.445
 6100SOL     OW19198   4.933   3.464   0.235
 6100SOL    HW119199   4.964   3.375   0.202
 6100SOL    HW219200   4.922   3.461   0.334
 6101SOL     OW19201   6.444   1.971   5.060
 6101SOL    HW119202   6.424   1.960   5.157
 6101SOL    HW219203   6.410   2.060   5.029
 6102SOL     OW19204   3.502   0.442   3.995
 6102SOL    HW119205   3.457   0.428   3.906
 6102SOL    HW219206   3.601   0.440   3.983
 6103SOL     OW19207   0.623   2.188   2.451
 6103SOL    HW119208   0.707   2.241   2.438
 6103SOL    HW219209   0.544   2.250   2.452
 6104SOL     OW19210   6.185   1.985   5.808
 6104SOL    HW119211   6.169   2.011   5.903
 6104SOL    HW219212   6.164   1.888   5.797
 6105SOL     OW19213   2.062   0.518   5.700
 6105SOL    HW119214   2.130   0.458   5.658
 6105SOL    HW219215   2.108   0.599   5.737
 6106SOL     OW19216   1.371   3.904   5.787
 6106SOL    HW119217   1.449   3.962   5.808
 6106SOL    HW219218   1.351   3.845   5.866
 6107SOL     OW19219   2.516   4.547   4.224
 6107SOL    HW119220   2.504   4.489   4.304
 6107SOL    HW219221   2.593   4.610   4.239
 6108SOL     OW19222   0.844   2.966   2.192
 6108SOL    HW119223   0.769   2.902   2.206
 6108SOL    HW219224   0.849   2.992   2.095
 6109SOL     OW19225   4.915   3.010   6.110
 6109SOL    HW119226   4.986   3.077   6.134
 6109SOL    HW219227   4.846   3.054   6.053
 6110SOL     OW19228   3.723   2.687   7.017
 6110SOL    HW119229   3.651   2.750   0.028
 6110SOL    HW219230   3.812   2.720   0.026
 6111SOL     OW19231   2.242   4.102   2.329
 6111SOL    HW119232   2.234   4.140   2.421
 6111SOL    HW219233   2.181   4.023   2.320
 6112SOL     OW19234   3.343   0.419   3.780
 6112SOL    HW119235   3.377   0.346   3.720
 6112SOL    HW219236   3.349   0.507   3.732
 6113SOL     OW19237   0.729   0.988   6.010
 6113SOL    HW119238   0.761   0.939   6.091
 6113SOL    HW219239   0.686   1.074   6.038
 6114SOL     OW19240   5.055   4.954   0.931
 6114SOL    HW119241   5.155   4.944   0.933
 6114SOL    HW219242   5.024   4.994   1.017
 6115SOL     OW19243   5.713   6.708   2.965
 6115SOL    HW119244   5.739   6.805   2.960
 6115SOL    HW219245   5.744   6.670   3.052
 6116SOL     OW19246   2.555   1.230   0.362
 6116SOL    HW119247   2.587   1.320   0.392
 6116SOL    HW219248   2.626   1.187   0.306
 6117SOL     OW19249   6.581   0.639   6.023
 6117SOL    HW119250   6.577   0.678   6.115
 6117SOL    HW219251   6.566   0.711   5.956
 6118SOL     OW19252   6.667   0.415   1.425
 6118SOL    HW119253   6.656   0.337   1.487
 6118SOL    HW219254   6.761   0.449   1.430
 6119SOL     OW19255   0.673   3.682   4.715
 6119SOL    HW119256   0.763   3.699   4.756
 6119SOL    HW219257   0.610   3.756   4.741
 6120SOL     OW19258   4.188   0.084   3.743
 6120SOL    HW119259   4.185   0.169   3.689
 6120SOL    HW219260   4.159   0.008   3.685
 6121SOL     OW19261   0.210   3.078   4.712
 6121SOL    HW119262   0.149   3.061   4.790
 6121SOL    HW219263   0.297   3.115   4.744
 6122SOL     OW19264   3.674   6.689   1.480
 6122SOL    HW119265   3.661   6.785   1.456
 6122SOL    HW219266   3.771   6.671   1.495
 6123SOL     OW19267   6.930   0.232   6.526
 6123SOL    HW119268   7.019   0.253   6.567
 6123SOL    HW219269   6.886   0.159   6.579
 6124SOL     OW19270   2.220   1.202   6.650
 6124SOL    HW119271   2.317   1.196   6.673
 6124SOL    HW219272   2.166   1.154   6.719
 6125SOL     OW19273   2.976   5.601   0.260
 6125SOL    HW119274   3.041   5.550   0.204
 6125SOL    HW219275   2.963   5.554   0.348
 6126SOL     OW19276   6.825   6.447   4.109
 6126SOL    HW119277   6.850   6.434   4.205
 6126SOL    HW219278   6.731   6.481   4.103
 6127SOL     OW19279   2.787   0.113   2.393
 6127SOL    HW119280   2.829   0.203   2.389
 6127SOL    HW219281   2.838   0.054   2.456
 6128SOL     OW19282   6.096   3.588   0.621
 6128SOL    HW119283   6.168   3.574   0.689
 6128SOL    HW219284   6.133   3.575   0.529
 6129SOL     OW19285   6.225   4.068   3.321
 6129SOL    HW119286   6.139   4.018   3.334
 6129SOL    HW219287   6.268   4.085   3.409
 6130SOL     OW19288   6.114   2.207   4.005
 6130SOL    HW119289   6.177   2.281   4.028
 6130SOL    HW219290   6.086   2.160   4.089
 6131SOL     OW19291   6.601   1.592   5.229
 6131SOL    HW119292   6.658   1.519   5.267
 6131SOL    HW219293   6.527   1.552   5.175
 6132SOL     OW19294   5.049   1.410   0.288
 6132SOL    HW119295   5.096   1.387   0.374
 6132SOL    HW219296   5.117   1.431   0.218
 6133SOL     OW19297   1.003   2.420   2.673
 6133SOL    HW119298   1.079   2.356   2.685
 6133SOL    HW219299   1.036   2.513   2.689
 6134SOL     OW19300   3.812   4.447   6.948
 6134SOL    HW119301   3.839   4.382   7.019
 6134SOL    HW219302   3.887   4.457   6.882
 6135SOL     OW19303   0.465   6.895   1.754
 6135SOL    HW119304   0.459   6.974   1.815
 6135SOL    HW219305   0.454   6.925   1.660
 6136SOL     OW19306   1.065   2.714   1.863
 6136SOL    HW119307   1.115   2.674   1.786
 6136SOL    HW219308   1.061   2.648   1.938
 6137SOL     OW19309   5.603   2.078   4.389
 6137SOL    HW119310   5.590   2.168   4.430
 6137SOL    HW219311   5.701   2.059   4.382
 6138SOL     OW19312   4.284   6.177   2.122
 6138SOL    HW119313   4.369   6.204   2.166
 6138SOL    HW219314   4.209   6.235   2.156
 6139SOL     OW19315   2.002   2.523   5.286
 6139SOL    HW119316   2.010   2.621   5.271
 6139SOL    HW219317   1.915   2.502   5.331
 6140SOL     OW19318   0.214   6.106   2.032
 6140SOL    HW119319   0.224   6.073   1.939
 6140SOL    HW219320   0.224   6.206   2.033
 6141SOL     OW19321   5.852   5.743   6.241
 6141SOL    HW119322   5.923   5.755   6.310
 6141SOL    HW219323   5.815   5.832   6.214
 6142SOL     OW19324   6.807   5.218   1.001
 6142SOL    HW119325   6.735   5.287   1.013
 6142SOL    HW219326   6.765   5.128   0.988
 6143SOL     OW19327   6.446   5.188   0.438
 6143SOL    HW119328   6.393   5.258   0.486
 6143SOL    HW219329   6.433   5.100   0.484
 6144SOL     OW19330   6.074   4.700   2.567
 6144SOL    HW119331   6.154   4.651   2.533
 6144SOL    HW219332   6.097   4.796   2.582
 6145SOL     OW19333   4.797   5.568   4.253
 6145SOL    HW119334   4.835   5.626   4.324
 6145SOL    HW219335   4.730   5.621   4.200
 6146SOL     OW19336   3.925   1.150   3.484
 6146SOL    HW119337   3.859   1.222   3.510
 6146SOL    HW219338   3.950   1.098   3.565
 6147SOL     OW19339   1.373   3.914   3.794
 6147SOL    HW119340   1.325   3.949   3.874
 6147SOL    HW219341   1.456   3.866   3.823
 6148SOL     OW19342   0.139   0.248   4.764
 6148SOL    HW119343   0.072   0.302   4.814
 6148SOL    HW219344   0.107   0.232   4.670
 6149SOL     OW19345   3.608   5.205   2.073
 6149SOL    HW119346   3.648   5.213   1.982
 6149SOL    HW219347   3.665   5.255   2.139
 6150SOL     OW19348   3.648   4.419   6.543
 6150SOL    HW119349   3.554   4.432   6.510
 6150SOL    HW219350   3.647   4.408   6.642
 6151SOL     OW19351   6.128   3.805   5.287
 6151SOL    HW119352   6.198   3.736   5.267
 6151SOL    HW219353   6.150   3.890   5.239
 6152SOL     OW19354   5.805   5.847   5.479
 6152SOL    HW119355   5.752   5.830   5.562
 6152SOL    HW219356   5.787   5.774   5.413
 6153SOL     OW19357   4.695   3.574   1.751
 6153SOL    HW119358   4.602   3.559   1.716
 6153SOL    HW219359   4.717   3.671   1.745
 6154SOL     OW19360   5.966   1.488   2.933
 6154SOL    HW119361   5.930   1.576   2.903
 6154SOL    HW219362   5.961   1.482   3.033
 6155SOL     OW19363   1.886   2.237   4.588
 6155SOL    HW119364   1.878   2.266   4.684
 6155SOL    HW219365   1.809   2.177   4.565
 6156SOL     OW19366   4.562   4.760   2.376
 6156SOL    HW119367   4.559   4.774   2.475
 6156SOL    HW219368   4.469   4.745   2.342
 6157SOL     OW19369   1.287   1.735   4.773
 6157SOL    HW119370   1.265   1.809   4.709
 6157SOL    HW219371   1.262   1.647   4.733
 6158SOL     OW19372   4.225   0.946   5.797
 6158SOL    HW119373   4.224   0.846   5.801
 6158SOL    HW219374   4.298   0.976   5.737
 6159SOL     OW19375   4.780   2.300   1.555
 6159SOL    HW119376   4.700   2.249   1.525
 6159SOL    HW219377   4.777   2.310   1.655
 6160SOL     OW19378   4.743   6.622   6.779
 6160SOL    HW119379   4.723   6.590   6.686
 6160SOL    HW219380   4.840   6.608   6.799
 6161SOL     OW19381   6.340   1.962   5.316
 6161SOL    HW119382   6.401   1.900   5.365
 6161SOL    HW219383   6.245   1.931   5.326
 6162SOL     OW19384   1.152   6.095   3.661
 6162SOL    HW119385   1.110   6.024   3.604
 6162SOL    HW219386   1.081   6.144   3.711
 6163SOL     OW19387   5.371   6.045   1.405
 6163SOL    HW119388   5.313   5.964   1.414
 6163SOL    HW219389   5.431   6.052   1.485
 6164SOL     OW19390   2.809   2.922   1.667
 6164SOL    HW119391   2.797   2.908   1.569
 6164SOL    HW219392   2.892   2.876   1.698
 6165SOL     OW19393   4.737   0.126   6.516
 6165SOL    HW119394   4.830   0.141   6.483
 6165SOL    HW219395   4.731   0.039   6.564
 6166SOL     OW19396   3.973   0.840   5.980
 6166SOL    HW119397   3.956   0.746   6.009
 6166SOL    HW219398   3.910   0.901   6.030
 6167SOL     OW19399   1.036   4.350   2.899
 6167SOL    HW119400   0.943   4.351   2.935
 6167SOL    HW219401   1.101   4.334   2.973
 6168SOL     OW19402   0.630   3.528   1.266
 6168SOL    HW119403   0.532   3.550   1.275
 6168SOL    HW219404   0.676   3.603   1.219
 6169SOL     OW19405   1.526   3.183   1.590
 6169SOL    HW119406   1.621   3.177   1.619
 6169SOL    HW219407   1.492   3.092   1.568
 6170SOL     OW19408   0.833   3.891   5.652
 6170SOL    HW119409   0.922   3.930   5.677
 6170SOL    HW219410   0.772   3.892   5.731
 6171SOL     OW19411   0.705   2.420   0.406
 6171SOL    HW119412   0.718   2.339   0.348
 6171SOL    HW219413   0.793   2.466   0.419
 6172SOL     OW19414   1.482   3.278   2.601
 6172SOL    HW119415   1.419   3.348   2.566
 6172SOL    HW219416   1.574   3.296   2.566
 6173SOL     OW19417   6.811   5.049   2.738
 6173SOL    HW119418   6.889   5.089   2.786
 6173SOL    HW219419   6.773   5.116   2.675
 6174SOL     OW19420   5.202   5.770   3.985
 6174SOL    HW119421   5.274   5.779   3.916
 6174SOL    HW219422   5.116   5.748   3.940
 6175SOL     OW19423   4.059   0.520   3.938
 6175SOL    HW119424   4.026   0.561   4.023
 6175SOL    HW219425   4.026   0.426   3.932
 6176SOL     OW19426   5.477   3.956   5.990
 6176SOL    HW119427   5.480   4.024   6.063
 6176SOL    HW219428   5.495   3.865   6.027
 6177SOL     OW19429   5.899   1.852   1.756
 6177SOL    HW119430   5.910   1.834   1.658
 6177SOL    HW219431   5.817   1.807   1.790
 6178SOL     OW19432   5.107   4.565   2.374
 6178SOL    HW119433   5.177   4.501   2.341
 6178SOL    HW219434   5.114   4.575   2.473
 6179SOL     OW19435   6.611   4.532   2.688
 6179SOL    HW119436   6.673   4.577   2.751
 6179SOL    HW219437   6.664   4.487   2.615
 6180SOL     OW19438   2.529   4.643   1.294
 6180SOL    HW119439   2.582   4.612   1.373
 6180SOL    HW219440   2.449   4.694   1.326
 6181SOL     OW19441   5.129   6.635   6.042
 6181SOL    HW119442   5.060   6.678   6.100
 6181SOL    HW219443   5.213   6.690   6.043
 6182SOL     OW19444   4.414   3.144   6.348
 6182SOL    HW119445   4.334   3.101   6.306
 6182SOL    HW219446   4.402   3.243   6.350
 6183SOL     OW19447   1.878   2.450   2.095
 6183SOL    HW119448   1.805   2.394   2.055
 6183SOL    HW219449   1.866   2.453   2.194
 6184SOL     OW19450   3.153   6.651   6.164
 6184SOL    HW119451   3.245   6.613   6.176
 6184SOL    HW219452   3.085   6.579   6.177
 6185SOL     OW19453   0.830   4.004   6.341
 6185SOL    HW119454   0.741   4.033   6.376
 6185SOL    HW219455   0.870   4.076   6.285
 6186SOL     OW19456   6.031   1.000   0.870
 6186SOL    HW119457   5.948   1.047   0.840
 6186SOL    HW219458   6.011   0.942   0.949
 6187SOL     OW19459   4.761   2.861   4.257
 6187SOL    HW119460   4.781   2.951   4.218
 6187SOL    HW219461   4.790   2.859   4.353
 6188SOL     OW19462   1.461   1.741   6.037
 6188SOL    HW119463   1.555   1.770   6.054
 6188SOL    HW219464   1.405   1.762   6.118
 6189SOL     OW19465   4.047   4.800   3.196
 6189SOL    HW119466   3.985   4.810   3.273
 6189SOL    HW219467   4.140   4.786   3.230
 6190SOL     OW19468   0.036   3.700   5.289
 6190SOL    HW119469   7.015   3.721   5.200
 6190SOL    HW219470   0.132   3.676   5.275
 6191SOL     OW19471   3.061   3.069   6.251
 6191SOL    HW119472   2.980   3.055   6.193
 6191SOL    HW219473   3.102   3.158   6.228
 6192SOL     OW19474   3.005   1.998   6.377
 6192SOL    HW119475   2.983   1.929   6.307
 6192SOL    HW219476   3.071   2.063   6.340
 6193SOL     OW19477   4.491   5.870   1.544
 6193SOL    HW119478   4.500   5.795   1.478
 6193SOL    HW219479   4.504   5.957   1.497
 6194SOL     OW19480   6.586   0.283   6.547
 6194SOL    HW119481   6.630   0.229   6.619
 6194SOL    HW219482   6.567   0.224   6.469
 6195SOL     OW19483   5.030   6.035   4.027
 6195SOL    HW119484   5.045   5.995   4.117
 6195SOL    HW219485   5.041   6.135   4.032
 6196SOL     OW19486   4.898   3.877   2.232
 6196SOL    HW119487   4.966   3.879   2.305
 6196SOL    HW219488   4.833   3.803   2.249
 6197SOL     OW19489   2.258   5.339   1.910
 6197SOL    HW119490   2.324   5.357   1.982
 6197SOL    HW219491   2.168   5.376   1.936
 6198SOL     OW19492   4.437   6.553   1.205
 6198SOL    HW119493   4.471   6.559   1.111
 6198SOL    HW219494   4.337   6.542   1.204
 6199SOL     OW19495   0.712   0.936   0.470
 6199SOL    HW119496   0.634   0.972   0.418
 6199SOL    HW219497   0.789   1.000   0.462
 6200SOL     OW19498   0.827   2.001   4.872
 6200SOL    HW119499   0.805   1.904   4.881
 6200SOL    HW219500   0.917   2.011   4.829
 6201SOL     OW19501   0.745   3.330   5.014
 6201SOL    HW119502   0.790   3.266   5.076
 6201SOL    HW219503   0.729   3.417   5.061
 6202SOL     OW19504   5.939   1.061   2.353
 6202SOL    HW119505   6.005   1.120   2.399
 6202SOL    HW219506   5.987   0.992   2.298
 6203SOL     OW19507   5.388   5.722   2.147
 6203SOL    HW119508   5.428   5.726   2.238
 6203SOL    HW219509   5.415   5.803   2.095
 6204SOL     OW19510   0.986   5.846   4.877
 6204SOL    HW119511   0.959   5.872   4.785
 6204SOL    HW219512   0.996   5.927   4.934
 6205SOL     OW19513   6.040   4.609   1.094
 6205SOL    HW119514   6.032   4.685   1.159
 6205SOL    HW219515   6.087   4.533   1.137
 6206SOL     OW19516   5.931   1.445   2.399
 6206SOL    HW119517   5.885   1.494   2.325
 6206SOL    HW219518   6.022   1.416   2.368
 6207SOL     OW19519   2.292   6.557   5.240
 6207SOL    HW119520   2.321   6.652   5.229
 6207SOL    HW219521   2.294   6.533   5.337
 6208SOL     OW19522   3.618   2.353   5.719
 6208SOL    HW119523   3.636   2.262   5.682
 6208SOL    HW219524   3.639   2.423   5.650
 6209SOL     OW19525   3.167   5.525   0.090
 6209SOL    HW119526   3.228   5.541   0.168
 6209SOL    HW219527   3.219   5.538   0.005
 6210SOL     OW19528   4.843   3.919   3.149
 6210SOL    HW119529   4.911   3.859   3.107
 6210SOL    HW219530   4.752   3.895   3.116
 6211SOL     OW19531   3.239   6.407   5.497
 6211SOL    HW119532   3.155   6.461   5.493
 6211SOL    HW219533   3.300   6.436   5.424
 6212SOL     OW19534   2.185   4.907   4.220
 6212SOL    HW119535   2.189   4.811   4.192
 6212SOL    HW219536   2.277   4.944   4.227
 6213SOL     OW19537   4.188   6.750   0.085
 6213SOL    HW119538   4.089   6.763   0.093
 6213SOL    HW219539   4.233   6.839   0.086
 6214SOL     OW19540   5.792   6.073   5.645
 6214SOL    HW119541   5.830   5.984   5.621
 6214SOL    HW219542   5.734   6.064   5.725
 6215SOL     OW19543   3.569   2.839   6.741
 6215SOL    HW119544   3.478   2.845   6.783
 6215SOL    HW219545   3.583   2.746   6.707
 6216SOL     OW19546   6.224   2.029   2.357
 6216SOL    HW119547   6.204   1.931   2.360
 6216SOL    HW219548   6.286   2.047   2.280
 6217SOL     OW19549   0.772   4.273   3.027
 6217SOL    HW119550   0.774   4.313   3.119
 6217SOL    HW219551   0.687   4.301   2.981
 6218SOL     OW19552   3.657   0.217   0.055
 6218SOL    HW119553   3.626   0.123   0.062
 6218SOL    HW219554   3.757   0.218   0.043
 6219SOL     OW19555   1.222   0.849   4.961
 6219SOL    HW119556   1.170   0.891   5.035
 6219SOL    HW219557   1.266   0.765   4.993
 6220SOL     OW19558   3.353   1.410   5.426
 6220SOL    HW119559   3.324   1.346   5.497
 6220SOL    HW219560   3.337   1.504   5.458
 6221SOL     OW19561   6.411   6.683   0.236
 6221SOL    HW119562   6.448   6.738   0.312
 6221SOL    HW219563   6.350   6.740   0.181
 6222SOL     OW19564   0.702   0.640   2.455
 6222SOL    HW119565   0.755   0.711   2.502
 6222SOL    HW219566   0.762   0.588   2.395
 6223SOL     OW19567   1.556   5.613   3.422
 6223SOL    HW119568   1.630   5.654   3.474
 6223SOL    HW219569   1.591   5.534   3.371
 6224SOL     OW19570   3.638   1.252   5.998
 6224SOL    HW119571   3.590   1.269   6.084
 6224SOL    HW219572   3.650   1.338   5.949
 6225SOL     OW19573   4.089   2.807   6.368
 6225SOL    HW119574   4.068   2.801   6.271
 6225SOL    HW219575   4.154   2.735   6.393
 6226SOL     OW19576   1.151   1.412   3.919
 6226SOL    HW119577   1.175   1.415   3.822
 6226SOL    HW219578   1.160   1.319   3.953
 6227SOL     OW19579   3.288   5.076   5.340
 6227SOL    HW119580   3.338   5.031   5.414
 6227SOL    HW219581   3.196   5.100   5.371
 6228SOL     OW19582   0.758   2.477   2.809
 6228SOL    HW119583   0.683   2.523   2.762
 6228SOL    HW219584   0.821   2.438   2.742
 6229SOL     OW19585   0.852   3.082   4.883
 6229SOL    HW119586   0.902   3.119   4.804
 6229SOL    HW219587   0.795   3.154   4.923
 6230SOL     OW19588   1.174   2.453   3.256
 6230SOL    HW119589   1.183   2.435   3.158
 6230SOL    HW219590   1.265   2.471   3.295
 6231SOL     OW19591   5.797   5.405   0.284
 6231SOL    HW119592   5.741   5.337   0.236
 6231SOL    HW219593   5.748   5.492   0.288
 6232SOL     OW19594   6.270   1.266   0.410
 6232SOL    HW119595   6.354   1.231   0.368
 6232SOL    HW219596   6.244   1.352   0.366
 6233SOL     OW19597   6.584   2.877   1.877
 6233SOL    HW119598   6.610   2.969   1.904
 6233SOL    HW219599   6.547   2.878   1.784
 6234SOL     OW19600   0.044   0.275   5.167
 6234SOL    HW119601   0.020   0.333   5.244
 6234SOL    HW219602   0.095   0.195   5.200
 6235SOL     OW19603   0.178   0.510   1.826
 6235SOL    HW119604   0.231   0.425   1.826
 6235SOL    HW219605   0.168   0.543   1.919
 6236SOL     OW19606   6.866   4.948   0.732
 6236SOL    HW119607   6.822   4.946   0.822
 6236SOL    HW219608   6.832   5.026   0.680
 6237SOL     OW19609   3.482   0.315   6.882
 6237SOL    HW119610   3.556   0.292   6.819
 6237SOL    HW219611   3.514   0.302   6.976
 6238SOL     OW19612   4.661   6.739   3.481
 6238SOL    HW119613   4.752   6.764   3.448
 6238SOL    HW219614   4.601   6.819   3.476
 6239SOL     OW19615   3.790   0.788   1.135
 6239SOL    HW119616   3.867   0.747   1.087
 6239SOL    HW219617   3.726   0.827   1.068
 6240SOL     OW19618   3.293   3.707   5.512
 6240SOL    HW119619   3.389   3.732   5.526
 6240SOL    HW219620   3.252   3.767   5.444
 6241SOL     OW19621   4.198   0.709   3.517
 6241SOL    HW119622   4.212   0.806   3.539
 6241SOL    HW219623   4.261   0.682   3.444
 6242SOL     OW19624   2.994   0.552   3.089
 6242SOL    HW119625   2.991   0.652   3.099
 6242SOL    HW219626   2.955   0.527   3.000
 6243SOL     OW19627   6.725   0.201   5.971
 6243SOL    HW119628   6.633   0.173   5.946
 6243SOL    HW219629   6.790   0.168   5.902
 6244SOL     OW19630   4.958   3.576   3.466
 6244SOL    HW119631   5.023   3.576   3.390
 6244SOL    HW219632   4.930   3.482   3.485
 6245SOL     OW19633   0.659   4.275   2.124
 6245SOL    HW119634   0.685   4.284   2.220
 6245SOL    HW219635   0.715   4.336   2.068
 6246SOL     OW19636   0.611   0.996   4.836
 6246SOL    HW119637   0.627   1.052   4.755
 6246SOL    HW219638   0.635   0.901   4.818
 6247SOL     OW19639   1.560   6.552   3.527
 6247SOL    HW119640   1.659   6.566   3.520
 6247SOL    HW219641   1.519   6.555   3.436
 6248SOL     OW19642   3.507   3.988   0.204
 6248SOL    HW119643   3.481   4.050   0.278
 6248SOL    HW219644   3.606   3.994   0.188
 6249SOL     OW19645   0.020   2.819   0.793
 6249SOL    HW119646   0.079   2.870   0.729
 6249SOL    HW219647   6.945   2.840   0.773
 6250SOL     OW19648   6.786   6.531   0.654
 6250SOL    HW119649   6.800   6.432   0.665
 6250SOL    HW219650   6.793   6.575   0.743
 6251SOL     OW19651   3.805   5.878   4.753
 6251SOL    HW119652   3.807   5.910   4.658
 6251SOL    HW219653   3.863   5.798   4.763
 6252SOL     OW19654   2.472   4.538   7.017
 6252SOL    HW119655   2.456   4.606   6.946
 6252SOL    HW219656   2.542   4.572   0.059
 6253SOL     OW19657   2.235   5.060   4.674
 6253SOL    HW119658   2.313   5.081   4.615
 6253SOL    HW219659   2.152   5.102   4.636
 6254SOL     OW19660   6.921   7.015   0.911
 6254SOL    HW119661   6.939   0.006   1.008
 6254SOL    HW219662   7.002   6.978   0.866
 6255SOL     OW19663   2.482   2.034   0.758
 6255SOL    HW119664   2.416   2.109   0.756
 6255SOL    HW219665   2.487   1.992   0.667
 6256SOL     OW19666   4.070   4.791   2.597
 6256SOL    HW119667   4.067   4.772   2.498
 6256SOL    HW219668   4.119   4.717   2.643
 6257SOL     OW19669   3.812   3.032   0.286
 6257SOL    HW119670   3.880   2.999   0.351
 6257SOL    HW219671   3.846   3.112   0.238
 6258SOL     OW19672   3.680   6.809   4.750
 6258SOL    HW119673   3.748   6.860   4.802
 6258SOL    HW219674   3.726   6.752   4.681
 6259SOL     OW19675   2.062   0.849   6.357
 6259SOL    HW119676   2.146   0.812   6.319
 6259SOL    HW219677   2.034   0.930   6.306
 6260SOL     OW19678   3.027   0.397   0.534
 6260SOL    HW119679   2.945   0.339   0.538
 6260SOL    HW219680   3.004   0.489   0.566
 6261SOL     OW19681   4.294   6.790   0.777
 6261SOL    HW119682   4.327   6.708   0.825
 6261SOL    HW219683   4.300   6.774   0.678
 6262SOL     OW19684   1.835   5.852   2.190
 6262SOL    HW119685   1.846   5.926   2.256
 6262SOL    HW219686   1.883   5.771   2.222
 6263SOL     OW19687   0.827   6.472   5.417
 6263SOL    HW119688   0.837   6.416   5.499
 6263SOL    HW219689   0.910   6.526   5.403
 6264SOL     OW19690   1.810   0.043   1.688
 6264SOL    HW119691   1.747   0.055   1.611
 6264SOL    HW219692   1.858   6.977   1.678
 6265SOL     OW19693   4.367   3.232   1.172
 6265SOL    HW119694   4.299   3.193   1.110
 6265SOL    HW219695   4.393   3.323   1.140
 6266SOL     OW19696   4.256   6.715   3.189
 6266SOL    HW119697   4.354   6.697   3.184
 6266SOL    HW219698   4.230   6.783   3.120
 6267SOL     OW19699   1.722   6.821   4.506
 6267SOL    HW119700   1.809   6.776   4.524
 6267SOL    HW219701   1.720   6.910   4.552
 6268SOL     OW19702   2.916   0.677   1.865
 6268SOL    HW119703   2.900   0.628   1.951
 6268SOL    HW219704   2.990   0.743   1.877
 6269SOL     OW19705   5.723   6.817   1.389
 6269SOL    HW119706   5.764   6.896   1.434
 6269SOL    HW219707   5.682   6.844   1.303
 6270SOL     OW19708   0.609   6.942   0.102
 6270SOL    HW119709   0.570   6.979   0.186
 6270SOL    HW219710   0.654   6.854   0.122
 6271SOL     OW19711   6.334   2.437   6.480
 6271SOL    HW119712   6.349   2.522   6.429
 6271SOL    HW219713   6.341   2.359   6.418
 6272SOL     OW19714   0.902   1.191   0.364
 6272SOL    HW119715   0.980   1.233   0.317
 6272SOL    HW219716   0.833   1.164   0.297
 6273SOL     OW19717   0.378   5.213   3.063
 6273SOL    HW119718   0.384   5.312   3.078
 6273SOL    HW219719   0.289   5.180   3.093
 6274SOL     OW19720   3.409   6.996   4.859
 6274SOL    HW119721   3.495   0.012   4.894
 6274SOL    HW219722   3.389   6.910   4.906
 6275SOL     OW19723   2.411   5.694   0.520
 6275SOL    HW119724   2.407   5.791   0.544
 6275SOL    HW219725   2.454   5.684   0.430
 6276SOL     OW19726   3.458   5.598   3.532
 6276SOL    HW119727   3.400   5.593   3.614
 6276SOL    HW219728   3.466   5.694   3.504
 6277SOL     OW19729   4.888   2.190   1.234
 6277SOL    HW119730   4.800   2.144   1.223
 6277SOL    HW219731   4.908   2.243   1.152
 6278SOL     OW19732   4.498   0.595   5.271
 6278SOL    HW119733   4.417   0.544   5.302
 6278SOL    HW219734   4.531   0.653   5.345
 6279SOL     OW19735   4.048   5.691   0.715
 6279SOL    HW119736   4.122   5.677   0.780
 6279SOL    HW219737   4.070   5.769   0.656
 6280SOL     OW19738   0.018   1.361   6.628
 6280SOL    HW119739   6.992   1.299   6.691
 6280SOL    HW219740   0.094   1.313   6.585
 6281SOL     OW19741   6.678   4.439   3.811
 6281SOL    HW119742   6.670   4.529   3.766
 6281SOL    HW219743   6.724   4.376   3.749
 6282SOL     OW19744   5.986   2.665   5.083
 6282SOL    HW119745   6.047   2.741   5.106
 6282SOL    HW219746   5.929   2.691   5.005
 6283SOL     OW19747   1.158   3.987   3.952
 6283SOL    HW119748   1.110   4.073   3.937
 6283SOL    HW219749   1.135   3.950   4.042
 6284SOL     OW19750   1.426   5.668   6.700
 6284SOL    HW119751   1.505   5.608   6.712
 6284SOL    HW219752   1.394   5.700   6.789
 6285SOL     OW19753   1.433   3.333   3.597
 6285SOL    HW119754   1.392   3.248   3.566
 6285SOL    HW219755   1.456   3.325   3.694
 6286SOL     OW19756   0.088   3.421   4.345
 6286SOL    HW119757   0.102   3.388   4.438
 6286SOL    HW219758   0.018   3.365   4.300
 6287SOL     OW19759   3.977   5.116   5.380
 6287SOL    HW119760   3.930   5.033   5.351
 6287SOL    HW219761   4.033   5.152   5.305
 6288SOL     OW19762   4.965   4.617   1.635
 6288SOL    HW119763   5.059   4.650   1.628
 6288SOL    HW219764   4.930   4.597   1.543
 6289SOL     OW19765   2.695   4.680   6.679
 6289SOL    HW119766   2.636   4.655   6.756
 6289SOL    HW219767   2.644   4.732   6.611
 6290SOL     OW19768   5.836   5.225   6.517
 6290SOL    HW119769   5.785   5.165   6.455
 6290SOL    HW219770   5.788   5.313   6.525
 6291SOL     OW19771   3.580   3.734   3.387
 6291SOL    HW119772   3.653   3.745   3.454
 6291SOL    HW219773   3.583   3.641   3.350
 6292SOL     OW19774   2.529   1.926   4.831
 6292SOL    HW119775   2.573   1.997   4.776
 6292SOL    HW219776   2.558   1.934   4.926
 6293SOL     OW19777   4.586   1.764   0.701
 6293SOL    HW119778   4.646   1.715   0.764
 6293SOL    HW219779   4.490   1.746   0.726
 6294SOL     OW19780   4.394   0.133   2.955
 6294SOL    HW119781   4.370   0.138   3.052
 6294SOL    HW219782   4.316   0.096   2.904
 6295SOL     OW19783   5.068   4.763   4.981
 6295SOL    HW119784   4.980   4.721   4.963
 6295SOL    HW219785   5.060   4.827   5.058
 6296SOL     OW19786   0.385   4.388   5.573
 6296SOL    HW119787   0.456   4.437   5.523
 6296SOL    HW219788   0.427   4.332   5.645
 6297SOL     OW19789   5.968   0.054   5.693
 6297SOL    HW119790   5.972   0.117   5.771
 6297SOL    HW219791   5.937   0.104   5.612
 6298SOL     OW19792   6.547   4.239   6.370
 6298SOL    HW119793   6.630   4.286   6.340
 6298SOL    HW219794   6.488   4.223   6.291
 6299SOL     OW19795   6.161   2.770   1.626
 6299SOL    HW119796   6.148   2.826   1.707
 6299SOL    HW219797   6.139   2.824   1.544
 6300SOL     OW19798   5.489   0.143   6.530
 6300SOL    HW119799   5.520   0.237   6.516
 6300SOL    HW219800   5.467   0.101   6.442
 6301SOL     OW19801   3.271   6.639   6.553
 6301SOL    HW119802   3.277   6.733   6.586
 6301SOL    HW219803   3.292   6.637   6.455
 6302SOL     OW19804   2.192   1.404   5.578
 6302SOL    HW119805   2.140   1.483   5.609
 6302SOL    HW219806   2.213   1.414   5.481
 6303SOL     OW19807   0.402   6.368   5.920
 6303SOL    HW119808   0.405   6.288   5.859
 6303SOL    HW219809   0.348   6.346   6.001
 6304SOL     OW19810   3.968   1.877   3.501
 6304SOL    HW119811   4.056   1.892   3.457
 6304SOL    HW219812   3.953   1.947   3.570
 6305SOL     OW19813   6.081   5.861   0.440
 6305SOL    HW119814   6.138   5.841   0.360
 6305SOL    HW219815   6.128   5.927   0.498
 6306SOL     OW19816   0.271   3.513   4.157
 6306SOL    HW119817   0.199   3.474   4.215
 6306SOL    HW219818   0.279   3.611   4.176
 6307SOL     OW19819   3.344   2.983   4.223
 6307SOL    HW119820   3.360   2.919   4.298
 6307SOL    HW219821   3.387   2.948   4.140
 6308SOL     OW19822   1.004   2.192   5.634
 6308SOL    HW119823   1.024   2.141   5.717
 6308SOL    HW219824   1.043   2.144   5.555
 6309SOL     OW19825   0.251   0.340   4.072
 6309SOL    HW119826   0.176   0.356   4.137
 6309SOL    HW219827   0.296   0.427   4.051
 6310SOL     OW19828   2.019   6.390   2.660
 6310SOL    HW119829   2.023   6.480   2.702
 6310SOL    HW219830   2.096   6.380   2.596
 6311SOL     OW19831   4.801   1.760   6.413
 6311SOL    HW119832   4.835   1.708   6.491
 6311SOL    HW219833   4.877   1.788   6.355
 6312SOL     OW19834   1.302   6.904   6.385
 6312SOL    HW119835   1.385   6.894   6.440
 6312SOL    HW219836   1.314   6.980   6.321
 6313SOL     OW19837   5.977   6.814   3.009
 6313SOL    HW119838   5.990   6.801   2.911
 6313SOL    HW219839   6.000   6.729   3.058
 6314SOL     OW19840   3.481   0.301   2.055
 6314SOL    HW119841   3.433   0.320   2.141
 6314SOL    HW219842   3.427   0.236   2.001
 6315SOL     OW19843   2.221   1.566   4.474
 6315SOL    HW119844   2.306   1.616   4.490
 6315SOL    HW219845   2.235   1.499   4.401
 6316SOL     OW19846   4.940   1.982   5.350
 6316SOL    HW119847   4.881   1.991   5.429
 6316SOL    HW219848   4.908   2.042   5.277
 6317SOL     OW19849   4.977   3.474   2.352
 6317SOL    HW119850   4.949   3.500   2.260
 6317SOL    HW219851   5.052   3.533   2.382
 6318SOL     OW19852   4.724   6.995   6.759
 6318SOL    HW119853   4.803   6.935   6.755
 6318SOL    HW219854   4.643   6.942   6.785
 6319SOL     OW19855   6.791   2.045   4.961
 6319SOL    HW119856   6.883   2.010   4.977
 6319SOL    HW219857   6.726   2.000   5.022
 6320SOL     OW19858   6.983   6.783   4.523
 6320SOL    HW119859   6.885   6.774   4.510
 6320SOL    HW219860   0.010   6.720   4.462
 6321SOL     OW19861   4.841   3.179   0.199
 6321SOL    HW119862   4.770   3.230   0.151
 6321SOL    HW219863   4.871   3.102   0.144
 6322SOL     OW19864   3.508   1.849   0.515
 6322SOL    HW119865   3.446   1.921   0.546
 6322SOL    HW219866   3.596   1.889   0.489
 6323SOL     OW19867   1.420   1.849   1.330
 6323SOL    HW119868   1.424   1.940   1.372
 6323SOL    HW219869   1.484   1.788   1.378
 6324SOL     OW19870   4.241   1.821   0.934
 6324SOL    HW119871   4.150   1.781   0.939
 6324SOL    HW219872   4.284   1.797   0.847
 6325SOL     OW19873   2.301   2.768   3.009
 6325SOL    HW119874   2.266   2.826   3.083
 6325SOL    HW219875   2.355   2.694   3.048
 6326SOL     OW19876   5.202   5.503   6.053
 6326SOL    HW119877   5.115   5.479   6.096
 6326SOL    HW219878   5.187   5.572   5.983
 6327SOL     OW19879   0.001   1.431   4.028
 6327SOL    HW119880   7.016   1.530   4.017
 6327SOL    HW219881   6.997   1.406   4.122
 6328SOL     OW19882   4.365   3.665   6.759
 6328SOL    HW119883   4.419   3.629   6.835
 6328SOL    HW219884   4.344   3.761   6.777
 6329SOL     OW19885   1.090   3.246   5.428
 6329SOL    HW119886   1.136   3.171   5.475
 6329SOL    HW219887   1.102   3.330   5.481
 6330SOL     OW19888   5.600   6.507   1.826
 6330SOL    HW119889   5.635   6.596   1.854
 6330SOL    HW219890   5.508   6.518   1.787
 6331SOL     OW19891   6.478   3.146   4.956
 6331SOL    HW119892   6.484   3.167   5.053
 6331SOL    HW219893   6.428   3.218   4.909
 6332SOL     OW19894   0.810   2.686   1.314
 6332SOL    HW119895   0.766   2.754   1.373
 6332SOL    HW219896   0.908   2.704   1.308
 6333SOL     OW19897   4.550   0.131   6.028
 6333SOL    HW119898   4.609   0.154   6.105
 6333SOL    HW219899   4.595   0.156   5.942
 6334SOL     OW19900   3.064   1.255   1.871
 6334SOL    HW119901   2.983   1.313   1.882
 6334SOL    HW219902   3.135   1.283   1.935
 6335SOL     OW19903   4.870   1.063   0.235
 6335SOL    HW119904   4.860   1.149   0.185
 6335SOL    HW219905   4.854   0.987   0.173
 6336SOL     OW19906   0.216   3.592   6.284
 6336SOL    HW119907   0.198   3.645   6.367
 6336SOL    HW219908   0.164   3.506   6.287
 6337SOL     OW19909   3.923   5.626   4.716
 6337SOL    HW119910   4.014   5.586   4.722
 6337SOL    HW219911   3.884   5.605   4.626
 6338SOL     OW19912   3.354   2.115   4.657
 6338SOL    HW119913   3.266   2.142   4.696
 6338SOL    HW219914   3.425   2.119   4.727
 6339SOL     OW19915   1.043   3.737   3.833
 6339SOL    HW119916   1.059   3.729   3.735
 6339SOL    HW219917   1.094   3.816   3.868
 6340SOL     OW19918   2.257   3.699   1.080
 6340SOL    HW119919   2.160   3.713   1.094
 6340SOL    HW219920   2.278   3.601   1.081
 6341SOL     OW19921   0.631   3.804   3.507
 6341SOL    HW119922   0.647   3.887   3.454
 6341SOL    HW219923   0.599   3.731   3.446
 6342SOL     OW19924   3.681   1.235   0.756
 6342SOL    HW119925   3.763   1.235   0.698
 6342SOL    HW219926   3.618   1.164   0.724
 6343SOL     OW19927   4.030   6.972   6.696
 6343SOL    HW119928   3.998   6.886   6.737
 6343SOL    HW219929   4.128   6.981   6.710
 6344SOL     OW19930   5.792   2.039   3.967
 6344SOL    HW119931   5.859   1.965   3.971
 6344SOL    HW219932   5.701   2.001   3.953
 6345SOL     OW19933   4.643   2.818   1.786
 6345SOL    HW119934   4.680   2.903   1.823
 6345SOL    HW219935   4.611   2.759   1.861
 6346SOL     OW19936   6.741   4.763   4.851
 6346SOL    HW119937   6.683   4.794   4.926
 6346SOL    HW219938   6.835   4.753   4.883
 6347SOL     OW19939   2.162   1.537   0.971
 6347SOL    HW119940   2.174   1.530   0.872
 6347SOL    HW219941   2.091   1.605   0.992
 6348SOL     OW19942   0.930   2.647   5.986
 6348SOL    HW119943   0.990   2.566   5.988
 6348SOL    HW219944   0.836   2.617   5.970
 6349SOL     OW19945   1.678   0.814   0.621
 6349SOL    HW119946   1.631   0.782   0.703
 6349SOL    HW219947   1.628   0.890   0.580
 6350SOL     OW19948   0.776   5.116   3.360
 6350SOL    HW119949   0.787   5.022   3.330
 6350SOL    HW219950   0.745   5.172   3.283
 6351SOL     OW19951   6.672   3.755   3.700
 6351SOL    HW119952   6.582   3.719   3.725
 6351SOL    HW219953   6.715   3.694   3.633
 6352SOL     OW19954   2.383   0.359   4.550
 6352SOL    HW119955   2.360   0.390   4.642
 6352SOL    HW219956   2.405   0.438   4.493
 6353SOL     OW19957   2.196   6.157   7.001
 6353SOL    HW119958   2.133   6.088   6.967
 6353SOL    HW219959   2.179   6.173   0.077
 6354SOL     OW19960   3.724   6.108   3.206
 6354SOL    HW119961   3.788   6.183   3.224
 6354SOL    HW219962   3.775   6.025   3.182
 6355SOL     OW19963   2.701   5.951   7.014
 6355SOL    HW119964   2.747   5.879   0.046
 6355SOL    HW219965   2.607   5.923   6.995
 6356SOL     OW19966   5.464   4.995   0.280
 6356SOL    HW119967   5.431   4.931   0.211
 6356SOL    HW219968   5.387   5.050   0.313
 6357SOL     OW19969   6.075   2.928   2.081
 6357SOL    HW119970   6.111   2.926   1.988
 6357SOL    HW219971   6.044   3.021   2.102
 6358SOL     OW19972   0.504   1.737   6.694
 6358SOL    HW119973   0.580   1.700   6.641
 6358SOL    HW219974   0.532   1.823   6.737
 6359SOL     OW19975   6.110   6.309   0.693
 6359SOL    HW119976   6.167   6.318   0.612
 6359SOL    HW219977   6.161   6.340   0.773
 6360SOL     OW19978   0.538   3.471   4.235
 6360SOL    HW119979   0.449   3.458   4.192
 6360SOL    HW219980   0.526   3.499   4.330
 6361SOL     OW19981   1.079   0.518   0.961
 6361SOL    HW119982   1.058   0.464   1.043
 6361SOL    HW219983   1.169   0.492   0.926
 6362SOL     OW19984   1.832   6.224   6.838
 6362SOL    HW119985   1.885   6.308   6.826
 6362SOL    HW219986   1.868   6.153   6.777
 6363SOL     OW19987   3.123   5.208   4.316
 6363SOL    HW119988   3.024   5.217   4.328
 6363SOL    HW219989   3.142   5.143   4.243
 6364SOL     OW19990   2.746   2.643   5.551
 6364SOL    HW119991   2.817   2.644   5.480
 6364SOL    HW219992   2.674   2.707   5.526
 6365SOL     OW19993   5.670   6.337   4.845
 6365SOL    HW119994   5.716   6.375   4.764
 6365SOL    HW219995   5.738   6.294   4.904
 6366SOL     OW19996   0.588   6.166   4.855
 6366SOL    HW119997   0.551   6.114   4.779
 6366SOL    HW219998   0.579   6.264   4.837
 6367SOL     OW19999   3.078   2.068   2.569
 6367SOL    HW120000   3.119   2.125   2.498
 6367SOL    HW220001   3.001   2.017   2.531
 6368SOL     OW20002   4.070   4.766   4.382
 6368SOL    HW120003   3.994   4.756   4.318
 6368SOL    HW220004   4.042   4.825   4.458
 6369SOL     OW20005   1.885   0.135   4.307
 6369SOL    HW120006   1.938   0.114   4.389
 6369SOL    HW220007   1.815   0.202   4.330
 6370SOL     OW20008   5.569   4.086   3.374
 6370SOL    HW120009   5.567   4.168   3.432
 6370SOL    HW220010   5.530   4.009   3.425
 6371SOL     OW20011   5.413   4.064   2.129
 6371SOL    HW120012   5.320   4.095   2.149
 6371SOL    HW220013   5.433   3.980   2.179
 6372SOL     OW20014   1.160   1.775   2.031
 6372SOL    HW120015   1.139   1.678   2.045
 6372SOL    HW220016   1.252   1.783   1.993
 6373SOL     OW20017   5.631   4.408   2.501
 6373SOL    HW120018   5.725   4.428   2.476
 6373SOL    HW220019   5.590   4.487   2.546
 6374SOL     OW20020   4.665   3.309   0.783
 6374SOL    HW120021   4.650   3.324   0.686
 6374SOL    HW220022   4.598   3.243   0.818
 6375SOL     OW20023   0.574   2.226   1.578
 6375SOL    HW120024   0.627   2.292   1.631
 6375SOL    HW220025   0.488   2.269   1.548
 6376SOL     OW20026   3.644   1.461   5.805
 6376SOL    HW120027   3.628   1.535   5.740
 6376SOL    HW220028   3.702   1.391   5.763
 6377SOL     OW20029   6.851   1.447   5.289
 6377SOL    HW120030   6.790   1.371   5.312
 6377SOL    HW220031   6.868   1.502   5.371
 6378SOL     OW20032   5.062   5.565   3.204
 6378SOL    HW120033   5.160   5.574   3.186
 6378SOL    HW220034   5.022   5.502   3.137
 6379SOL     OW20035   0.676   5.066   5.626
 6379SOL    HW120036   0.660   5.076   5.724
 6379SOL    HW220037   0.606   5.008   5.586
 6380SOL     OW20038   6.971   2.636   4.126
 6380SOL    HW120039   0.048   2.655   4.120
 6380SOL    HW220040   6.929   2.653   4.037
 6381SOL     OW20041   4.101   2.642   0.399
 6381SOL    HW120042   4.197   2.665   0.388
 6381SOL    HW220043   4.064   2.609   0.312
 6382SOL     OW20044   3.343   1.582   1.159
 6382SOL    HW120045   3.346   1.495   1.208
 6382SOL    HW220046   3.267   1.581   1.093
 6383SOL     OW20047   2.092   2.560   1.962
 6383SOL    HW120048   2.030   2.500   2.013
 6383SOL    HW220049   2.174   2.577   2.017
 6384SOL     OW20050   5.995   3.174   2.134
 6384SOL    HW120051   6.052   3.199   2.212
 6384SOL    HW220052   5.909   3.226   2.138
 6385SOL     OW20053   6.682   4.147   1.911
 6385SOL    HW120054   6.675   4.059   1.958
 6385SOL    HW220055   6.774   4.159   1.877
 6386SOL     OW20056   1.870   3.802   0.051
 6386SOL    HW120057   1.925   3.718   0.052
 6386SOL    HW220058   1.900   3.860   6.996
 6387SOL     OW20059   6.072   1.054   0.309
 6387SOL    HW120060   6.125   1.111   0.372
 6387SOL    HW220061   6.005   1.001   0.361
 6388SOL     OW20062   6.000   5.293   2.136
 6388SOL    HW120063   5.906   5.327   2.149
 6388SOL    HW220064   6.051   5.305   2.221
 6389SOL     OW20065   1.446   6.927   1.633
 6389SOL    HW120066   1.360   6.930   1.683
 6389SOL    HW220067   1.514   6.875   1.686
 6390SOL     OW20068   6.439   0.094   5.952
 6390SOL    HW120069   6.405   0.105   5.858
 6390SOL    HW220070   6.487   0.006   5.960
 6391SOL     OW20071   1.344   0.956   5.953
 6391SOL    HW120072   1.353   0.954   6.053
 6391SOL    HW220073   1.248   0.945   5.928
 6392SOL     OW20074   3.027   6.146   3.528
 6392SOL    HW120075   3.021   6.211   3.603
 6392SOL    HW220076   3.118   6.104   3.529
 6393SOL     OW20077   5.502   6.078   1.625
 6393SOL    HW120078   5.444   6.142   1.675
 6393SOL    HW220079   5.598   6.106   1.633
 6394SOL     OW20080   1.901   4.997   0.973
 6394SOL    HW120081   1.903   4.932   0.896
 6394SOL    HW220082   1.987   5.048   0.976
 6395SOL     OW20083   6.945   3.066   1.906
 6395SOL    HW120084   6.899   3.147   1.942
 6395SOL    HW220085   6.887   3.024   1.836
 6396SOL     OW20086   6.455   4.212   5.906
 6396SOL    HW120087   6.374   4.270   5.896
 6396SOL    HW220088   6.532   4.253   5.856
 6397SOL     OW20089   6.529   1.445   2.335
 6397SOL    HW120090   6.611   1.420   2.285
 6397SOL    HW220091   6.498   1.535   2.305
 6398SOL     OW20092   1.893   6.923   2.017
 6398SOL    HW120093   1.821   6.856   2.035
 6398SOL    HW220094   1.979   6.877   1.997
 6399SOL     OW20095   1.483   0.182   6.748
 6399SOL    HW120096   1.386   0.199   6.764
 6399SOL    HW220097   1.518   0.120   6.819
 6400SOL     OW20098   1.969   4.849   2.655
 6400SOL    HW120099   1.944   4.881   2.746
 6400SOL    HW220100   1.901   4.882   2.589
 6401SOL     OW20101   5.433   5.224   3.218
 6401SOL    HW120102   5.482   5.291   3.163
 6401SOL    HW220103   5.485   5.138   3.221
 6402SOL     OW20104   1.852   3.006   3.878
 6402SOL    HW120105   1.862   2.909   3.899
 6402SOL    HW220106   1.899   3.060   3.948
 6403SOL     OW20107   6.081   6.089   6.369
 6403SOL    HW120108   6.171   6.087   6.414
 6403SOL    HW220109   6.093   6.079   6.270
 6404SOL     OW20110   3.937   1.576   2.679
 6404SOL    HW120111   3.963   1.650   2.741
 6404SOL    HW220112   4.011   1.509   2.675
 6405SOL     OW20113   4.066   1.185   4.278
 6405SOL    HW120114   4.048   1.120   4.351
 6405SOL    HW220115   4.158   1.170   4.241
 6406SOL     OW20116   1.559   3.190   1.930
 6406SOL    HW120117   1.512   3.278   1.923
 6406SOL    HW220118   1.631   3.185   1.860
 6407SOL     OW20119   2.326   0.114   3.373
 6407SOL    HW120120   2.236   0.116   3.331
 6407SOL    HW220121   2.394   0.086   3.305
 6408SOL     OW20122   5.830   0.447   0.403
 6408SOL    HW120123   5.916   0.405   0.376
 6408SOL    HW220124   5.819   0.439   0.502
 6409SOL     OW20125   0.050   4.917   2.658
 6409SOL    HW120126   0.080   5.007   2.627
 6409SOL    HW220127   6.986   4.892   2.611
 6410SOL     OW20128   2.076   1.210   6.394
 6410SOL    HW120129   2.004   1.279   6.395
 6410SOL    HW220130   2.139   1.226   6.470
 6411SOL     OW20131   1.242   2.975   2.236
 6411SOL    HW120132   1.227   3.010   2.144
 6411SOL    HW220133   1.254   2.876   2.232
 6412SOL     OW20134   2.403   0.822   6.901
 6412SOL    HW120135   2.355   0.894   6.952
 6412SOL    HW220136   2.500   0.844   6.895
 6413SOL     OW20137   3.724   5.105   4.418
 6413SOL    HW120138   3.630   5.123   4.389
 6413SOL    HW220139   3.724   5.036   4.491
 6414SOL     OW20140   6.298   0.122   7.013
 6414SOL    HW120141   6.282   0.105   6.916
 6414SOL    HW220142   6.392   0.095   0.015
 6415SOL     OW20143   1.638   3.371   4.104
 6415SOL    HW120144   1.698   3.322   4.166
 6415SOL    HW220145   1.591   3.444   4.154
 6416SOL     OW20146   2.693   0.028   6.461
 6416SOL    HW120147   2.635   0.060   6.387
 6416SOL    HW220148   2.713   6.952   6.449
 6417SOL     OW20149   4.865   2.895   0.577
 6417SOL    HW120150   4.914   2.922   0.660
 6417SOL    HW220151   4.851   2.976   0.519
 6418SOL     OW20152   5.135   4.243   2.853
 6418SOL    HW120153   5.203   4.196   2.908
 6418SOL    HW220154   5.149   4.342   2.860
 6419SOL     OW20155   0.869   5.233   4.341
 6419SOL    HW120156   0.891   5.232   4.243
 6419SOL    HW220157   0.889   5.143   4.380
 6420SOL     OW20158   1.938   1.184   3.948
 6420SOL    HW120159   1.867   1.251   3.926
 6420SOL    HW220160   2.025   1.212   3.907
 6421SOL     OW20161   4.442   0.659   1.167
 6421SOL    HW120162   4.414   0.590   1.233
 6421SOL    HW220163   4.374   0.665   1.094
 6422SOL     OW20164   6.648   1.795   5.019
 6422SOL    HW120165   6.631   1.703   5.056
 6422SOL    HW220166   6.563   1.848   5.022
 6423SOL     OW20167   4.560   5.854   4.620
 6423SOL    HW120168   4.637   5.789   4.622
 6423SOL    HW220169   4.535   5.871   4.524
 6424SOL     OW20170   1.649   3.719   5.157
 6424SOL    HW120171   1.593   3.696   5.078
 6424SOL    HW220172   1.727   3.774   5.127
 6425SOL     OW20173   0.232   5.663   3.063
 6425SOL    HW120174   0.239   5.763   3.064
 6425SOL    HW220175   0.153   5.636   3.009
 6426SOL     OW20176   5.675   5.559   3.753
 6426SOL    HW120177   5.692   5.465   3.722
 6426SOL    HW220178   5.637   5.557   3.845
 6427SOL     OW20179   2.937   3.760   3.311
 6427SOL    HW120180   2.946   3.773   3.410
 6427SOL    HW220181   2.979   3.837   3.263
 6428SOL     OW20182   5.076   3.353   0.574
 6428SOL    HW120183   5.167   3.375   0.609
 6428SOL    HW220184   5.085   3.300   0.489
 6429SOL     OW20185   0.970   0.628   5.583
 6429SOL    HW120186   1.058   0.583   5.572
 6429SOL    HW220187   0.972   0.686   5.665
 6430SOL     OW20188   6.536   0.677   4.818
 6430SOL    HW120189   6.470   0.698   4.889
 6430SOL    HW220190   6.546   0.578   4.809
 6431SOL     OW20191   4.709   5.586   2.867
 6431SOL    HW120192   4.679   5.627   2.953
 6431SOL    HW220193   4.808   5.569   2.870
 6432SOL     OW20194   3.471   4.297   6.326
 6432SOL    HW120195   3.468   4.394   6.302
 6432SOL    HW220196   3.389   4.273   6.378
 6433SOL     OW20197   3.158   5.015   0.245
 6433SOL    HW120198   3.084   4.962   0.204
 6433SOL    HW220199   3.192   5.082   0.179
 6434SOL     OW20200   2.582   6.625   6.015
 6434SOL    HW120201   2.679   6.637   6.040
 6434SOL    HW220202   2.570   6.649   5.919
 6435SOL     OW20203   6.195   0.135   0.819
 6435SOL    HW120204   6.159   0.227   0.805
 6435SOL    HW220205   6.295   0.137   0.812
 6436SOL     OW20206   1.113   3.708   3.580
 6436SOL    HW120207   1.144   3.623   3.538
 6436SOL    HW220208   1.056   3.759   3.516
 6437SOL     OW20209   1.534   2.802   6.630
 6437SOL    HW120210   1.621   2.753   6.645
 6437SOL    HW220211   1.458   2.738   6.642
 6438SOL     OW20212   0.917   4.995   6.123
 6438SOL    HW120213   0.838   4.944   6.089
 6438SOL    HW220214   0.995   4.982   6.061
 6439SOL     OW20215   5.420   0.995   2.833
 6439SOL    HW120216   5.454   0.995   2.739
 6439SOL    HW220217   5.388   0.903   2.856
 6440SOL     OW20218   2.744   0.329   5.957
 6440SOL    HW120219   2.842   0.314   5.941
 6440SOL    HW220220   2.692   0.293   5.879
 6441SOL     OW20221   0.864   1.121   1.508
 6441SOL    HW120222   0.830   1.141   1.416
 6441SOL    HW220223   0.902   1.029   1.510
 6442SOL     OW20224   2.716   1.615   4.658
 6442SOL    HW120225   2.733   1.549   4.585
 6442SOL    HW220226   2.654   1.686   4.625
 6443SOL     OW20227   3.691   2.333   5.991
 6443SOL    HW120228   3.610   2.280   6.015
 6443SOL    HW220229   3.688   2.357   5.894
 6444SOL     OW20230   6.234   2.570   4.564
 6444SOL    HW120231   6.209   2.620   4.646
 6444SOL    HW220232   6.325   2.600   4.533
 6445SOL     OW20233   3.915   3.306   3.321
 6445SOL    HW120234   3.843   3.245   3.288
 6445SOL    HW220235   3.892   3.337   3.414
 6446SOL     OW20236   0.258   2.028   0.351
 6446SOL    HW120237   0.182   2.028   0.286
 6446SOL    HW220238   0.276   1.934   0.382
 6447SOL     OW20239   6.260   4.413   1.654
 6447SOL    HW120240   6.340   4.355   1.642
 6447SOL    HW220241   6.243   4.426   1.752
 6448SOL     OW20242   4.885   4.608   1.382
 6448SOL    HW120243   4.848   4.660   1.305
 6448SOL    HW220244   4.979   4.580   1.361
 6449SOL     OW20245   2.697   5.085   1.790
 6449SOL    HW120246   2.615   5.032   1.768
 6449SOL    HW220247   2.736   5.051   1.876
 6450SOL     OW20248   0.843   4.009   0.166
 6450SOL    HW120249   0.856   4.011   0.067
 6450SOL    HW220250   0.922   3.966   0.209
 6451SOL     OW20251   2.732   1.535   5.979
 6451SOL    HW120252   2.788   1.480   6.040
 6451SOL    HW220253   2.664   1.478   5.934
 6452SOL     OW20254   4.862   4.121   2.560
 6452SOL    HW120255   4.807   4.162   2.487
 6452SOL    HW220256   4.959   4.132   2.538
 6453SOL     OW20257   2.582   7.008   1.181
 6453SOL    HW120258   2.565   0.038   1.265
 6453SOL    HW220259   2.498   7.005   1.127
 6454SOL     OW20260   0.576   1.639   2.881
 6454SOL    HW120261   0.487   1.594   2.891
 6454SOL    HW220262   0.618   1.652   2.970
 6455SOL     OW20263   6.467   3.178   3.602
 6455SOL    HW120264   6.560   3.170   3.638
 6455SOL    HW220265   6.467   3.239   3.522
 6456SOL     OW20266   1.556   1.067   2.883
 6456SOL    HW120267   1.625   1.115   2.936
 6456SOL    HW220268   1.583   1.061   2.788
 6457SOL     OW20269   5.086   6.478   1.460
 6457SOL    HW120270   4.988   6.482   1.440
 6457SOL    HW220271   5.106   6.395   1.512
 6458SOL     OW20272   1.657   5.081   5.054
 6458SOL    HW120273   1.643   4.982   5.056
 6458SOL    HW220274   1.746   5.101   5.014
 6459SOL     OW20275   6.188   2.616   2.752
 6459SOL    HW120276   6.167   2.628   2.849
 6459SOL    HW220277   6.145   2.690   2.700
 6460SOL     OW20278   5.810   5.807   5.922
 6460SOL    HW120279   5.736   5.756   5.965
 6460SOL    HW220280   5.865   5.852   5.992
 6461SOL     OW20281   2.538   4.229   0.316
 6461SOL    HW120282   2.490   4.175   0.247
 6461SOL    HW220283   2.634   4.240   0.290
 6462SOL     OW20284   0.643   2.886   4.564
 6462SOL    HW120285   0.630   2.946   4.485
 6462SOL    HW220286   0.657   2.792   4.533
 6463SOL     OW20287   5.179   6.677   0.838
 6463SOL    HW120288   5.113   6.602   0.833
 6463SOL    HW220289   5.261   6.646   0.886
 6464SOL     OW20290   1.862   5.817   5.213
 6464SOL    HW120291   1.849   5.907   5.171
 6464SOL    HW220292   1.775   5.784   5.250
 6465SOL     OW20293   0.003   2.900   2.766
 6465SOL    HW120294   0.063   2.925   2.690
 6465SOL    HW220295   7.012   2.800   2.767
 6466SOL     OW20296   6.598   1.831   0.132
 6466SOL    HW120297   6.651   1.778   0.066
 6466SOL    HW220298   6.508   1.789   0.142
 6467SOL     OW20299   3.768   0.338   1.086
 6467SOL    HW120300   3.829   0.303   1.015
 6467SOL    HW220301   3.814   0.412   1.136
 6468SOL     OW20302   3.349   6.450   1.845
 6468SOL    HW120303   3.429   6.411   1.891
 6468SOL    HW220304   3.283   6.481   1.914
 6469SOL     OW20305   3.756   2.158   3.743
 6469SOL    HW120306   3.671   2.111   3.719
 6469SOL    HW220307   3.740   2.216   3.823
 6470SOL     OW20308   6.250   2.663   0.368
 6470SOL    HW120309   6.189   2.624   0.437
 6470SOL    HW220310   6.339   2.684   0.410
 6471SOL     OW20311   0.845   6.311   5.741
 6471SOL    HW120312   0.864   6.408   5.752
 6471SOL    HW220313   0.795   6.278   5.821
 6472SOL     OW20314   6.463   5.609   2.843
 6472SOL    HW120315   6.444   5.664   2.761
 6472SOL    HW220316   6.406   5.643   2.919
 6473SOL     OW20317   1.887   1.641   5.502
 6473SOL    HW120318   1.873   1.736   5.529
 6473SOL    HW220319   1.945   1.637   5.420
 6474SOL     OW20320   3.748   5.410   5.828
 6474SOL    HW120321   3.810   5.453   5.894
 6474SOL    HW220322   3.659   5.455   5.832
 6475SOL     OW20323   5.813   4.431   3.762
 6475SOL    HW120324   5.775   4.446   3.671
 6475SOL    HW220325   5.898   4.484   3.772
 6476SOL     OW20326   4.642   3.112   6.483
 6476SOL    HW120327   4.651   3.016   6.511
 6476SOL    HW220328   4.558   3.124   6.431
 6477SOL     OW20329   6.024   5.229   1.130
 6477SOL    HW120330   6.085   5.156   1.161
 6477SOL    HW220331   6.079   5.308   1.101
 6478SOL     OW20332   3.467   6.686   2.350
 6478SOL    HW120333   3.520   6.675   2.267
 6478SOL    HW220334   3.526   6.720   2.424
 6479SOL     OW20335   3.526   5.310   4.620
 6479SOL    HW120336   3.554   5.292   4.526
 6479SOL    HW220337   3.488   5.402   4.626
 6480SOL     OW20338   2.111   1.492   6.661
 6480SOL    HW120339   2.033   1.546   6.693
 6480SOL    HW220340   2.082   1.398   6.643
 6481SOL     OW20341   3.322   2.590   1.709
 6481SOL    HW120342   3.349   2.493   1.707
 6481SOL    HW220343   3.401   2.647   1.688
 6482SOL     OW20344   6.471   2.442   6.706
 6482SOL    HW120345   6.421   2.437   6.620
 6482SOL    HW220346   6.481   2.538   6.734
 6483SOL     OW20347   0.360   6.631   3.957
 6483SOL    HW120348   0.263   6.617   3.941
 6483SOL    HW220349   0.380   6.622   4.055
 6484SOL     OW20350   3.159   1.106   2.438
 6484SOL    HW120351   3.096   1.106   2.516
 6484SOL    HW220352   3.149   1.192   2.388
 6485SOL     OW20353   2.004   5.827   3.656
 6485SOL    HW120354   1.980   5.832   3.753
 6485SOL    HW220355   2.073   5.897   3.635
 6486SOL     OW20356   0.621   5.479   2.426
 6486SOL    HW120357   0.622   5.487   2.525
 6486SOL    HW220358   0.528   5.494   2.392
 6487SOL     OW20359   0.835   6.620   5.752
 6487SOL    HW120360   0.786   6.666   5.677
 6487SOL    HW220361   0.775   6.615   5.832
 6488SOL     OW20362   4.202   5.756   4.590
 6488SOL    HW120363   4.233   5.850   4.578
 6488SOL    HW220364   4.214   5.729   4.685
 6489SOL     OW20365   3.223   3.399   6.478
 6489SOL    HW120366   3.223   3.333   6.403
 6489SOL    HW220367   3.229   3.492   6.441
 6490SOL     OW20368   2.781   1.113   6.207
 6490SOL    HW120369   2.822   1.074   6.125
 6490SOL    HW220370   2.783   1.213   6.201
 6491SOL     OW20371   2.786   0.621   1.589
 6491SOL    HW120372   2.786   0.620   1.689
 6491SOL    HW220373   2.799   0.528   1.554
 6492SOL     OW20374   3.829   3.262   4.903
 6492SOL    HW120375   3.914   3.235   4.858
 6492SOL    HW220376   3.807   3.356   4.880
 6493SOL     OW20377   1.035   4.219   6.319
 6493SOL    HW120378   1.085   4.294   6.364
 6493SOL    HW220379   1.053   4.221   6.221
 6494SOL     OW20380   6.896   6.450   2.716
 6494SOL    HW120381   6.976   6.495   2.674
 6494SOL    HW220382   6.894   6.472   2.813
 6495SOL     OW20383   6.596   0.806   4.519
 6495SOL    HW120384   6.544   0.823   4.435
 6495SOL    HW220385   6.534   0.777   4.591
 6496SOL     OW20386   5.795   0.161   1.684
 6496SOL    HW120387   5.697   0.179   1.681
 6496SOL    HW220388   5.845   0.248   1.680
 6497SOL     OW20389   1.432   0.453   1.188
 6497SOL    HW120390   1.456   0.396   1.266
 6497SOL    HW220391   1.358   0.515   1.214
 6498SOL     OW20392   0.631   4.076   4.399
 6498SOL    HW120393   0.583   3.989   4.384
 6498SOL    HW220394   0.710   4.061   4.459
 6499SOL     OW20395   5.893   3.826   4.652
 6499SOL    HW120396   5.964   3.848   4.586
 6499SOL    HW220397   5.821   3.895   4.648
 6500SOL     OW20398   0.144   3.934   2.608
 6500SOL    HW120399   0.079   3.939   2.684
 6500SOL    HW220400   0.234   3.907   2.642
 6501SOL     OW20401   0.380   0.976   0.847
 6501SOL    HW120402   0.375   1.018   0.756
 6501SOL    HW220403   0.475   0.960   0.872
 6502SOL     OW20404   0.269   3.624   1.643
 6502SOL    HW120405   0.354   3.646   1.691
 6502SOL    HW220406   0.238   3.704   1.591
 6503SOL     OW20407   5.782   0.981   3.889
 6503SOL    HW120408   5.842   1.048   3.845
 6503SOL    HW220409   5.706   1.028   3.934
 6504SOL     OW20410   3.325   6.371   6.621
 6504SOL    HW120411   3.293   6.461   6.589
 6504SOL    HW220412   3.269   6.299   6.580
 6505SOL     OW20413   4.533   6.387   5.862
 6505SOL    HW120414   4.493   6.405   5.952
 6505SOL    HW220415   4.610   6.323   5.872
 6506SOL     OW20416   0.223   2.529   3.510
 6506SOL    HW120417   0.169   2.515   3.593
 6506SOL    HW220418   0.173   2.493   3.431
 6507SOL     OW20419   2.766   5.837   5.830
 6507SOL    HW120420   2.689   5.775   5.840
 6507SOL    HW220421   2.760   5.884   5.742
 6508SOL     OW20422   1.805   0.563   2.684
 6508SOL    HW120423   1.790   0.466   2.707
 6508SOL    HW220424   1.846   0.570   2.593
 6509SOL     OW20425   4.869   1.719   4.882
 6509SOL    HW120426   4.953   1.748   4.837
 6509SOL    HW220427   4.793   1.721   4.816
 6510SOL     OW20428   5.120   5.023   6.557
 6510SOL    HW120429   5.218   5.009   6.543
 6510SOL    HW220430   5.105   5.113   6.598
 6511SOL     OW20431   4.828   1.521   5.227
 6511SOL    HW120432   4.835   1.428   5.192
 6511SOL    HW220433   4.803   1.582   5.152
 6512SOL     OW20434   3.237   6.756   2.461
 6512SOL    HW120435   3.220   6.674   2.516
 6512SOL    HW220436   3.326   6.748   2.417
 6513SOL     OW20437   1.541   6.070   3.962
 6513SOL    HW120438   1.531   6.048   4.059
 6513SOL    HW220439   1.480   6.145   3.938
 6514SOL     OW20440   5.946   1.199   4.665
 6514SOL    HW120441   6.034   1.220   4.707
 6514SOL    HW220442   5.961   1.159   4.575
 6515SOL     OW20443   1.489   3.562   3.002
 6515SOL    HW120444   1.586   3.560   2.980
 6515SOL    HW220445   1.470   3.493   3.072
 6516SOL     OW20446   6.823   3.036   1.405
 6516SOL    HW120447   6.882   3.116   1.396
 6516SOL    HW220448   6.842   2.972   1.331
 6517SOL     OW20449   0.048   1.919   1.024
 6517SOL    HW120450   0.022   1.840   0.969
 6517SOL    HW220451   6.996   1.938   1.090
 6518SOL     OW20452   0.525   0.578   2.080
 6518SOL    HW120453   0.544   0.613   2.171
 6518SOL    HW220454   0.554   0.645   2.011
 6519SOL     OW20455   0.046   2.015   2.688
 6519SOL    HW120456   0.125   1.972   2.643
 6519SOL    HW220457   6.983   1.980   2.648
 6520SOL     OW20458   0.267   5.814   6.928
 6520SOL    HW120459   0.228   5.906   6.927
 6520SOL    HW220460   0.322   5.800   6.845
 6521SOL     OW20461   2.207   2.752   4.047
 6521SOL    HW120462   2.150   2.831   4.070
 6521SOL    HW220463   2.240   2.709   4.130
 6522SOL     OW20464   2.347   4.427   4.766
 6522SOL    HW120465   2.359   4.332   4.793
 6522SOL    HW220466   2.275   4.469   4.821
 6523SOL     OW20467   3.695   0.521   6.570
 6523SOL    HW120468   3.617   0.579   6.594
 6523SOL    HW220469   3.665   0.447   6.510
 6524SOL     OW20470   2.971   2.621   1.274
 6524SOL    HW120471   3.006   2.530   1.297
 6524SOL    HW220472   3.030   2.691   1.314
 6525SOL     OW20473   1.966   4.889   3.087
 6525SOL    HW120474   1.886   4.880   3.146
 6525SOL    HW220475   2.022   4.806   3.094
 6526SOL     OW20476   0.680   0.446   1.523
 6526SOL    HW120477   0.745   0.371   1.508
 6526SOL    HW220478   0.726   0.533   1.506
 6527SOL     OW20479   6.861   2.168   0.151
 6527SOL    HW120480   6.846   2.104   0.076
 6527SOL    HW220481   6.800   2.145   0.227
 6528SOL     OW20482   6.483   1.773   5.423
 6528SOL    HW120483   6.487   1.712   5.344
 6528SOL    HW220484   6.536   1.734   5.499
 6529SOL     OW20485   1.313   0.447   2.616
 6529SOL    HW120486   1.309   0.363   2.670
 6529SOL    HW220487   1.387   0.505   2.650
 6530SOL     OW20488   0.397   1.815   0.807
 6530SOL    HW120489   0.344   1.900   0.812
 6530SOL    HW220490   0.478   1.831   0.750
 6531SOL     OW20491   4.977   3.344   5.096
 6531SOL    HW120492   4.925   3.258   5.085
 6531SOL    HW220493   4.917   3.421   5.074
 6532SOL     OW20494   1.688   1.548   1.086
 6532SOL    HW120495   1.594   1.521   1.110
 6532SOL    HW220496   1.693   1.564   0.988
 6533SOL     OW20497   4.297   5.680   0.446
 6533SOL    HW120498   4.257   5.759   0.493
 6533SOL    HW220499   4.227   5.637   0.389
 6534SOL     OW20500   5.192   5.170   1.665
 6534SOL    HW120501   5.093   5.156   1.670
 6534SOL    HW220502   5.225   5.209   1.751
 6535SOL     OW20503   6.215   4.705   4.213
 6535SOL    HW120504   6.200   4.703   4.312
 6535SOL    HW220505   6.273   4.784   4.190
 6536SOL     OW20506   0.327   1.794   4.957
 6536SOL    HW120507   0.298   1.756   4.869
 6536SOL    HW220508   0.355   1.889   4.945
 6537SOL     OW20509   6.611   4.613   5.130
 6537SOL    HW120510   6.583   4.538   5.070
 6537SOL    HW220511   6.587   4.700   5.087
 6538SOL     OW20512   1.660   3.596   5.778
 6538SOL    HW120513   1.582   3.540   5.803
 6538SOL    HW220514   1.744   3.545   5.793
 6539SOL     OW20515   5.186   0.243   6.661
 6539SOL    HW120516   5.282   0.271   6.657
 6539SOL    HW220517   5.138   0.295   6.731
 6540SOL     OW20518   3.521   2.820   6.160
 6540SOL    HW120519   3.572   2.764   6.225
 6540SOL    HW220520   3.434   2.847   6.200
 6541SOL     OW20521   5.376   1.882   5.832
 6541SOL    HW120522   5.301   1.948   5.846
 6541SOL    HW220523   5.339   1.795   5.800
 6542SOL     OW20524   1.237   3.170   3.977
 6542SOL    HW120525   1.141   3.193   3.996
 6542SOL    HW220526   1.276   3.121   4.055
 6543SOL     OW20527   4.339   2.537   5.550
 6543SOL    HW120528   4.316   2.559   5.645
 6543SOL    HW220529   4.328   2.618   5.493
 6544SOL     OW20530   1.178   6.785   3.198
 6544SOL    HW120531   1.090   6.782   3.245
 6544SOL    HW220532   1.189   6.704   3.141
 6545SOL     OW20533   4.426   0.686   0.215
 6545SOL    HW120534   4.521   0.664   0.239
 6545SOL    HW220535   4.400   0.638   0.132
 6546SOL     OW20536   3.132   4.095   6.199
 6546SOL    HW120537   3.135   4.192   6.177
 6546SOL    HW220538   3.057   4.077   6.263
 6547SOL     OW20539   4.960   0.438   6.727
 6547SOL    HW120540   4.900   0.378   6.780
 6547SOL    HW220541   4.938   0.533   6.747
 6548SOL     OW20542   1.175   2.753   0.842
 6548SOL    HW120543   1.246   2.768   0.773
 6548SOL    HW220544   1.166   2.655   0.860
 6549SOL     OW20545   4.408   0.557   2.211
 6549SOL    HW120546   4.336   0.546   2.279
 6549SOL    HW220547   4.377   0.520   2.123
 6550SOL     OW20548   0.249   6.962   4.153
 6550SOL    HW120549   0.311   6.953   4.075
 6550SOL    HW220550   0.233   0.037   4.173
 6551SOL     OW20551   2.073   3.629   1.881
 6551SOL    HW120552   1.985   3.587   1.901
 6551SOL    HW220553   2.144   3.559   1.878
 6552SOL     OW20554   2.446   6.764   0.215
 6552SOL    HW120555   2.380   6.831   0.249
 6552SOL    HW220556   2.425   6.742   0.120
 6553SOL     OW20557   0.839   2.464   3.076
 6553SOL    HW120558   0.780   2.393   3.115
 6553SOL    HW220559   0.830   2.463   2.976
 6554SOL     OW20560   1.641   0.282   4.333
 6554SOL    HW120561   1.662   0.353   4.265
 6554SOL    HW220562   1.652   0.319   4.425
 6555SOL     OW20563   5.871   1.927   2.951
 6555SOL    HW120564   5.814   1.870   3.009
 6555SOL    HW220565   5.897   2.010   3.001
 6556SOL     OW20566   5.999   3.621   3.125
 6556SOL    HW120567   6.033   3.527   3.132
 6556SOL    HW220568   6.076   3.685   3.124
 6557SOL     OW20569   2.432   0.779   3.589
 6557SOL    HW120570   2.408   0.868   3.629
 6557SOL    HW220571   2.378   0.707   3.634
 6558SOL     OW20572   6.026   5.422   6.829
 6558SOL    HW120573   5.942   5.379   6.797
 6558SOL    HW220574   6.016   5.447   6.926
 6559SOL     OW20575   0.050   4.353   6.584
 6559SOL    HW120576   6.975   4.378   6.570
 6559SOL    HW220577   0.064   4.258   6.559
 6560SOL     OW20578   3.855   4.415   1.471
 6560SOL    HW120579   3.799   4.390   1.392
 6560SOL    HW220580   3.816   4.496   1.515
 6561SOL     OW20581   3.230   4.062   1.602
 6561SOL    HW120582   3.200   3.966   1.606
 6561SOL    HW220583   3.184   4.108   1.526
 6562SOL     OW20584   5.335   2.200   1.111
 6562SOL    HW120585   5.401   2.146   1.163
 6562SOL    HW220586   5.334   2.293   1.147
 6563SOL     OW20587   5.406   6.382   6.388
 6563SOL    HW120588   5.343   6.405   6.314
 6563SOL    HW220589   5.499   6.379   6.353
 6564SOL     OW20590   6.661   3.870   1.977
 6564SOL    HW120591   6.585   3.832   1.925
 6564SOL    HW220592   6.746   3.824   1.952
 6565SOL     OW20593   6.224   0.324   3.233
 6565SOL    HW120594   6.290   0.255   3.263
 6565SOL    HW220595   6.244   0.349   3.138
 6566SOL     OW20596   3.674   6.411   3.006
 6566SOL    HW120597   3.682   6.437   2.909
 6566SOL    HW220598   3.612   6.334   3.015
 6567SOL     OW20599   5.032   0.895   2.163
 6567SOL    HW120600   5.107   0.835   2.191
 6567SOL    HW220601   5.056   0.990   2.183
 6568SOL     OW20602   3.620   1.833   3.679
 6568SOL    HW120603   3.610   1.899   3.605
 6568SOL    HW220604   3.697   1.772   3.659
 6569SOL     OW20605   2.621   2.761   0.060
 6569SOL    HW120606   2.558   2.726   7.012
 6569SOL    HW220607   2.599   2.857   0.080
 6570SOL     OW20608   3.358   1.031   2.043
 6570SOL    HW120609   3.451   1.019   2.078
 6570SOL    HW220610   3.348   0.983   1.956
 6571SOL     OW20611   3.129   4.857   2.571
 6571SOL    HW120612   3.100   4.771   2.613
 6571SOL    HW220613   3.225   4.874   2.593
 6572SOL     OW20614   0.044   4.352   4.103
 6572SOL    HW120615   0.036   4.262   4.062
 6572SOL    HW220616   6.988   4.368   4.164
 6573SOL     OW20617   0.586   2.058   2.210
 6573SOL    HW120618   0.610   1.964   2.234
 6573SOL    HW220619   0.611   2.119   2.286
 6574SOL     OW20620   2.578   5.800   2.867
 6574SOL    HW120621   2.498   5.741   2.855
 6574SOL    HW220622   2.586   5.861   2.788
 6575SOL     OW20623   0.656   6.998   3.726
 6575SOL    HW120624   0.679   6.934   3.799
 6575SOL    HW220625   0.731   0.041   3.713
 6576SOL     OW20626   3.007   6.208   0.506
 6576SOL    HW120627   3.021   6.120   0.552
 6576SOL    HW220628   2.953   6.268   0.565
 6577SOL     OW20629   1.331   1.861   3.556
 6577SOL    HW120630   1.356   1.841   3.462
 6577SOL    HW220631   1.257   1.929   3.557
 6578SOL     OW20632   0.819   6.247   2.021
 6578SOL    HW120633   0.748   6.269   1.954
 6578SOL    HW220634   0.907   6.238   1.975
 6579SOL     OW20635   6.627   2.633   3.564
 6579SOL    HW120636   6.589   2.541   3.565
 6579SOL    HW220637   6.657   2.658   3.656
 6580SOL     OW20638   0.626   1.903   0.617
 6580SOL    HW120639   0.592   1.987   0.659
 6580SOL    HW220640   0.590   1.895   0.524
 6581SOL     OW20641   2.584   0.618   0.691
 6581SOL    HW120642   2.585   0.646   0.787
 6581SOL    HW220643   2.593   0.699   0.632
 6582SOL     OW20644   0.200   1.147   3.444
 6582SOL    HW120645   0.204   1.162   3.345
 6582SOL    HW220646   0.187   1.234   3.491
 6583SOL     OW20647   4.938   6.499   5.310
 6583SOL    HW120648   4.856   6.481   5.256
 6583SOL    HW220649   4.945   6.433   5.384
 6584SOL     OW20650   4.314   1.700   6.969
 6584SOL    HW120651   4.227   1.695   7.017
 6584SOL    HW220652   4.373   1.625   6.999
 6585SOL     OW20653   6.308   5.923   0.266
 6585SOL    HW120654   6.329   5.850   0.201
 6585SOL    HW220655   6.378   5.925   0.338
 6586SOL     OW20656   6.151   1.701   5.813
 6586SOL    HW120657   6.230   1.645   5.841
 6586SOL    HW220658   6.089   1.712   5.890
 6587SOL     OW20659   1.223   4.752   6.408
 6587SOL    HW120660   1.273   4.747   6.495
 6587SOL    HW220661   1.156   4.826   6.413
 6588SOL     OW20662   0.694   2.859   1.463
 6588SOL    HW120663   0.618   2.884   1.522
 6588SOL    HW220664   0.771   2.921   1.479
 6589SOL     OW20665   4.431   0.491   1.931
 6589SOL    HW120666   4.522   0.531   1.920
 6589SOL    HW220667   4.376   0.510   1.850
 6590SOL     OW20668   0.242   1.197   6.460
 6590SOL    HW120669   0.304   1.183   6.537
 6590SOL    HW220670   0.197   1.110   6.438
 6591SOL     OW20671   5.042   5.743   3.694
 6591SOL    HW120672   5.065   5.649   3.720
 6591SOL    HW220673   5.002   5.743   3.602
 6592SOL     OW20674   5.607   6.399   2.988
 6592SOL    HW120675   5.626   6.480   3.044
 6592SOL    HW220676   5.635   6.415   2.894
 6593SOL     OW20677   2.519   2.504   2.332
 6593SOL    HW120678   2.470   2.458   2.406
 6593SOL    HW220679   2.578   2.438   2.286
 6594SOL     OW20680   3.522   1.337   5.070
 6594SOL    HW120681   3.620   1.354   5.082
 6594SOL    HW220682   3.493   1.370   4.980
 6595SOL     OW20683   1.170   4.020   6.446
 6595SOL    HW120684   1.112   4.085   6.397
 6595SOL    HW220685   1.264   4.056   6.449
 6596SOL     OW20686   3.579   0.262   4.320
 6596SOL    HW120687   3.557   0.207   4.239
 6596SOL    HW220688   3.554   0.212   4.402
 6597SOL     OW20689   1.737   5.059   1.868
 6597SOL    HW120690   1.704   5.010   1.787
 6597SOL    HW220691   1.693   5.022   1.950
 6598SOL     OW20692   1.851   4.843   3.635
 6598SOL    HW120693   1.866   4.868   3.540
 6598SOL    HW220694   1.934   4.859   3.688
 6599SOL     OW20695   4.218   6.379   6.403
 6599SOL    HW120696   4.205   6.351   6.308
 6599SOL    HW220697   4.310   6.419   6.413
 6600SOL     OW20698   3.617   6.419   5.099
 6600SOL    HW120699   3.709   6.416   5.136
 6600SOL    HW220700   3.610   6.494   5.032
 6601SOL     OW20701   0.742   2.595   4.253
 6601SOL    HW120702   0.756   2.574   4.156
 6601SOL    HW220703   0.720   2.692   4.264
 6602SOL     OW20704   1.880   0.447   1.211
 6602SOL    HW120705   1.977   0.440   1.187
 6602SOL    HW220706   1.871   0.461   1.310
 6603SOL     OW20707   1.099   2.814   3.469
 6603SOL    HW120708   1.083   2.811   3.567
 6603SOL    HW220709   1.019   2.777   3.421
 6604SOL     OW20710   1.713   6.356   1.556
 6604SOL    HW120711   1.658   6.440   1.560
 6604SOL    HW220712   1.766   6.347   1.640
 6605SOL     OW20713   5.240   5.062   2.224
 6605SOL    HW120714   5.323   5.035   2.176
 6605SOL    HW220715   5.263   5.108   2.309
 6606SOL     OW20716   6.835   5.538   2.153
 6606SOL    HW120717   6.817   5.619   2.097
 6606SOL    HW220718   6.807   5.456   2.103
 6607SOL     OW20719   1.099   4.707   3.368
 6607SOL    HW120720   1.087   4.662   3.457
 6607SOL    HW220721   1.091   4.806   3.380
 6608SOL     OW20722   7.005   6.445   6.754
 6608SOL    HW120723   0.065   6.469   6.807
 6608SOL    HW220724   6.934   6.410   6.816
 6609SOL     OW20725   5.561   0.758   6.814
 6609SOL    HW120726   5.540   0.669   6.852
 6609SOL    HW220727   5.487   0.822   6.835
 6610SOL     OW20728   2.673   6.537   6.934
 6610SOL    HW120729   2.768   6.512   6.951
 6610SOL    HW220730   2.613   6.471   6.978
 6611SOL     OW20731   4.787   2.919   3.298
 6611SOL    HW120732   4.807   3.009   3.259
 6611SOL    HW220733   4.797   2.924   3.398
 6612SOL     OW20734   6.707   2.391   6.558
 6612SOL    HW120735   6.698   2.298   6.525
 6612SOL    HW220736   6.628   2.414   6.615
 6613SOL     OW20737   6.736   6.558   5.447
 6613SOL    HW120738   6.698   6.554   5.355
 6613SOL    HW220739   6.769   6.467   5.473
 6614SOL     OW20740   4.430   6.112   6.880
 6614SOL    HW120741   4.511   6.168   6.898
 6614SOL    HW220742   4.449   6.049   6.805
 6615SOL     OW20743   1.367   5.662   1.402
 6615SOL    HW120744   1.335   5.578   1.447
 6615SOL    HW220745   1.403   5.640   1.312
 6616SOL     OW20746   4.593   0.266   6.710
 6616SOL    HW120747   4.633   0.355   6.730
 6616SOL    HW220748   4.650   0.218   6.644
 6617SOL     OW20749   4.266   5.730   3.367
 6617SOL    HW120750   4.234   5.824   3.375
 6617SOL    HW220751   4.316   5.705   3.449
 6618SOL     OW20752   1.893   1.691   2.750
 6618SOL    HW120753   1.904   1.684   2.651
 6618SOL    HW220754   1.797   1.680   2.774
 6619SOL     OW20755   5.513   0.034   4.324
 6619SOL    HW120756   5.592   0.045   4.263
 6619SOL    HW220757   5.503   0.115   4.381
 6620SOL     OW20758   2.167   3.333   5.133
 6620SOL    HW120759   2.252   3.318   5.183
 6620SOL    HW220760   2.093   3.281   5.176
 6621SOL     OW20761   3.778   3.212   5.635
 6621SOL    HW120762   3.710   3.141   5.614
 6621SOL    HW220763   3.835   3.181   5.711
 6622SOL     OW20764   5.632   6.204   2.563
 6622SOL    HW120765   5.607   6.292   2.523
 6622SOL    HW220766   5.551   6.160   2.601
 6623SOL     OW20767   4.122   3.437   5.238
 6623SOL    HW120768   4.143   3.432   5.140
 6623SOL    HW220769   4.024   3.420   5.251
 6624SOL     OW20770   0.599   4.518   5.479
 6624SOL    HW120771   0.599   4.579   5.558
 6624SOL    HW220772   0.683   4.530   5.427
 6625SOL     OW20773   5.593   1.807   4.931
 6625SOL    HW120774   5.680   1.803   4.883
 6625SOL    HW220775   5.530   1.868   4.883
 6626SOL     OW20776   3.107   6.850   5.532
 6626SOL    HW120777   3.057   6.829   5.616
 6626SOL    HW220778   3.193   6.896   5.555
 6627SOL     OW20779   1.826   6.628   3.464
 6627SOL    HW120780   1.893   6.574   3.515
 6627SOL    HW220781   1.873   6.682   3.395
 6628SOL     OW20782   5.901   5.138   4.527
 6628SOL    HW120783   5.883   5.093   4.614
 6628SOL    HW220784   5.996   5.122   4.500
 6629SOL     OW20785   4.515   5.788   6.369
 6629SOL    HW120786   4.538   5.885   6.379
 6629SOL    HW220787   4.469   5.774   6.281
 6630SOL     OW20788   3.633   1.852   1.463
 6630SOL    HW120789   3.561   1.804   1.513
 6630SOL    HW220790   3.635   1.948   1.490
 6631SOL     OW20791   2.251   6.229   3.970
 6631SOL    HW120792   2.270   6.131   3.981
 6631SOL    HW220793   2.174   6.241   3.908
 6632SOL     OW20794   0.803   0.567   1.091
 6632SOL    HW120795   0.896   0.603   1.080
 6632SOL    HW220796   0.790   0.489   1.029
 6633SOL     OW20797   2.069   5.130   6.060
 6633SOL    HW120798   2.111   5.093   5.978
 6633SOL    HW220799   1.978   5.090   6.072
 6634SOL     OW20800   5.563   1.621   5.508
 6634SOL    HW120801   5.490   1.669   5.460
 6634SOL    HW220802   5.567   1.653   5.602
 6635SOL     OW20803   5.048   4.644   3.949
 6635SOL    HW120804   5.004   4.555   3.959
 6635SOL    HW220805   4.980   4.717   3.963
 6636SOL     OW20806   4.674   1.605   0.265
 6636SOL    HW120807   4.632   1.647   0.184
 6636SOL    HW220808   4.675   1.671   0.340
 6637SOL     OW20809   1.524   6.999   6.942
 6637SOL    HW120810   1.611   6.973   6.901
 6637SOL    HW220811   1.450   6.946   6.899
 6638SOL     OW20812   2.901   3.661   2.919
 6638SOL    HW120813   2.877   3.756   2.936
 6638SOL    HW220814   2.977   3.656   2.854
 6639SOL     OW20815   4.334   4.466   6.988
 6639SOL    HW120816   4.391   4.384   6.993
 6639SOL    HW220817   4.244   4.447   0.008
 6640SOL     OW20818   6.683   1.971   5.313
 6640SOL    HW120819   6.617   1.897   5.312
 6640SOL    HW220820   6.701   1.999   5.407
 6641SOL     OW20821   3.384   1.617   6.761
 6641SOL    HW120822   3.289   1.632   6.787
 6641SOL    HW220823   3.444   1.641   6.838
 6642SOL     OW20824   2.861   5.944   6.323
 6642SOL    HW120825   2.854   5.905   6.231
 6642SOL    HW220826   2.790   5.906   6.381
 6643SOL     OW20827   5.380   5.974   0.216
 6643SOL    HW120828   5.341   6.035   0.147
 6643SOL    HW220829   5.381   5.880   0.181
 6644SOL     OW20830   2.349   5.945   1.289
 6644SOL    HW120831   2.275   6.009   1.269
 6644SOL    HW220832   2.314   5.852   1.292
 6645SOL     OW20833   5.225   4.009   0.933
 6645SOL    HW120834   5.226   3.920   0.887
 6645SOL    HW220835   5.266   4.078   0.873
 6646SOL     OW20836   4.863   1.136   5.167
 6646SOL    HW120837   4.952   1.133   5.213
 6646SOL    HW220838   4.862   1.069   5.092
 6647SOL     OW20839   4.261   0.028   0.097
 6647SOL    HW120840   4.205   0.109   0.114
 6647SOL    HW220841   4.358   0.052   0.106
 6648SOL     OW20842   3.321   6.740   4.654
 6648SOL    HW120843   3.376   6.671   4.606
 6648SOL    HW220844   3.382   6.800   4.706
 6649SOL     OW20845   6.099   1.710   6.160
 6649SOL    HW120846   6.042   1.651   6.102
 6649SOL    HW220847   6.046   1.791   6.187
 6650SOL     OW20848   4.113   1.606   5.364
 6650SOL    HW120849   4.079   1.659   5.286
 6650SOL    HW220850   4.041   1.599   5.433
 6651SOL     OW20851   1.569   1.031   5.854
 6651SOL    HW120852   1.632   0.997   5.924
 6651SOL    HW220853   1.475   1.019   5.885
 6652SOL     OW20854   0.130   4.561   6.756
 6652SOL    HW120855   0.140   4.658   6.737
 6652SOL    HW220856   0.105   4.513   6.671
 6653SOL     OW20857   3.999   3.209   1.356
 6653SOL    HW120858   3.986   3.132   1.293
 6653SOL    HW220859   4.091   3.205   1.396
 6654SOL     OW20860   1.488   5.308   1.462
 6654SOL    HW120861   1.541   5.331   1.544
 6654SOL    HW220862   1.404   5.363   1.461
 6655SOL     OW20863   6.976   6.484   3.115
 6655SOL    HW120864   6.947   6.404   3.167
 6655SOL    HW220865   0.048   6.471   3.082
 6656SOL     OW20866   5.819   1.849   2.488
 6656SOL    HW120867   5.860   1.930   2.447
 6656SOL    HW220868   5.891   1.783   2.511
 6657SOL     OW20869   6.351   3.619   4.905
 6657SOL    HW120870   6.436   3.598   4.856
 6657SOL    HW220871   6.368   3.615   5.004
 6658SOL     OW20872   5.220   0.666   5.209
 6658SOL    HW120873   5.141   0.622   5.250
 6658SOL    HW220874   5.300   0.607   5.219
 6659SOL     OW20875   2.082   2.820   1.560
 6659SOL    HW120876   2.167   2.836   1.611
 6659SOL    HW220877   2.041   2.907   1.534
 6660SOL     OW20878   1.625   4.878   1.656
 6660SOL    HW120879   1.580   4.789   1.650
 6660SOL    HW220880   1.572   4.947   1.607
 6661SOL     OW20881   2.472   0.349   5.403
 6661SOL    HW120882   2.512   0.285   5.338
 6661SOL    HW220883   2.540   0.418   5.429
 6662SOL     OW20884   1.562   1.014   0.460
 6662SOL    HW120885   1.469   0.982   0.444
 6662SOL    HW220886   1.559   1.103   0.506
 6663SOL     OW20887   6.741   6.703   4.913
 6663SOL    HW120888   6.814   6.714   4.845
 6663SOL    HW220889   6.686   6.622   4.890
 6664SOL     OW20890   1.776   6.884   0.863
 6664SOL    HW120891   1.776   6.947   0.785
 6664SOL    HW220892   1.824   6.925   0.940
 6665SOL     OW20893   1.786   6.588   4.837
 6665SOL    HW120894   1.689   6.575   4.856
 6665SOL    HW220895   1.808   6.685   4.839
 6666SOL     OW20896   6.728   5.899   5.703
 6666SOL    HW120897   6.655   5.930   5.763
 6666SOL    HW220898   6.749   5.803   5.723
 6667SOL     OW20899   0.196   6.624   5.450
 6667SOL    HW120900   0.160   6.547   5.397
 6667SOL    HW220901   0.182   6.607   5.547
 6668SOL     OW20902   6.534   5.849   1.320
 6668SOL    HW120903   6.447   5.889   1.347
 6668SOL    HW220904   6.604   5.921   1.317
 6669SOL     OW20905   2.716   2.052   2.008
 6669SOL    HW120906   2.784   2.122   1.989
 6669SOL    HW220907   2.645   2.055   1.937
 6670SOL     OW20908   3.164   1.093   5.280
 6670SOL    HW120909   3.260   1.114   5.300
 6670SOL    HW220910   3.110   1.177   5.283
 6671SOL     OW20911   4.241   7.001   0.380
 6671SOL    HW120912   4.282   0.059   0.425
 6671SOL    HW220913   4.217   0.004   0.286
 6672SOL     OW20914   6.503   1.612   0.531
 6672SOL    HW120915   6.421   1.569   0.569
 6672SOL    HW220916   6.579   1.601   0.595
 6673SOL     OW20917   4.928   4.390   3.982
 6673SOL    HW120918   4.871   4.325   4.032
 6673SOL    HW220919   4.975   4.342   3.907
 6674SOL     OW20920   6.938   4.265   0.245
 6674SOL    HW120921   6.985   4.324   0.311
 6674SOL    HW220922   6.843   4.254   0.273
 6675SOL     OW20923   5.972   3.077   0.170
 6675SOL    HW120924   5.880   3.059   0.137
 6675SOL    HW220925   6.005   2.997   0.220
 6676SOL     OW20926   0.435   3.852   5.087
 6676SOL    HW120927   0.407   3.946   5.066
 6676SOL    HW220928   0.532   3.851   5.113
 6677SOL     OW20929   0.659   1.403   6.375
 6677SOL    HW120930   0.754   1.385   6.349
 6677SOL    HW220931   0.611   1.446   6.300
 6678SOL     OW20932   3.125   3.877   0.725
 6678SOL    HW120933   3.107   3.906   0.631
 6678SOL    HW220934   3.205   3.926   0.761
 6679SOL     OW20935   3.648   0.135   3.890
 6679SOL    HW120936   3.568   0.083   3.920
 6679SOL    HW220937   3.645   0.145   3.791
 6680SOL     OW20938   4.491   0.003   6.310
 6680SOL    HW120939   4.446   0.032   6.394
 6680SOL    HW220940   4.543   0.079   6.271
 6681SOL     OW20941   4.495   5.910   0.522
 6681SOL    HW120942   4.531   5.820   0.498
 6681SOL    HW220943   4.484   5.965   0.440
 6682SOL     OW20944   2.155   5.012   0.065
 6682SOL    HW120945   2.163   5.104   0.103
 6682SOL    HW220946   2.232   4.956   0.096
 6683SOL     OW20947   6.134   3.135   5.440
 6683SOL    HW120948   6.143   3.142   5.539
 6683SOL    HW220949   6.193   3.202   5.396
 6684SOL     OW20950   3.980   6.325   2.686
 6684SOL    HW120951   3.962   6.227   2.676
 6684SOL    HW220952   3.912   6.377   2.635
 6685SOL     OW20953   4.384   3.409   6.374
 6685SOL    HW120954   4.343   3.463   6.301
 6685SOL    HW220955   4.457   3.462   6.417
 6686SOL     OW20956   5.310   5.600   4.178
 6686SOL    HW120957   5.233   5.556   4.223
 6686SOL    HW220958   5.276   5.671   4.116
 6687SOL     OW20959   1.045   3.364   2.188
 6687SOL    HW120960   1.131   3.331   2.227
 6687SOL    HW220961   0.970   3.310   2.225
 6688SOL     OW20962   4.433   4.685   1.444
 6688SOL    HW120963   4.510   4.622   1.440
 6688SOL    HW220964   4.406   4.700   1.539
 6689SOL     OW20965   4.809   3.906   5.794
 6689SOL    HW120966   4.803   3.817   5.838
 6689SOL    HW220967   4.893   3.953   5.822
 6690SOL     OW20968   0.664   0.236   0.579
 6690SOL    HW120969   0.567   0.215   0.570
 6690SOL    HW220970   0.718   0.161   0.541
 6691SOL     OW20971   2.101   0.238   2.574
 6691SOL    HW120972   2.107   0.163   2.641
 6691SOL    HW220973   2.105   0.200   2.482
 6692SOL     OW20974   3.922   3.833   3.443
 6692SOL    HW120975   3.904   3.758   3.507
 6692SOL    HW220976   3.930   3.919   3.493
 6693SOL     OW20977   4.290   2.220   5.292
 6693SOL    HW120978   4.230   2.142   5.273
 6693SOL    HW220979   4.238   2.291   5.340
 6694SOL     OW20980   4.093   5.793   1.264
 6694SOL    HW120981   4.086   5.813   1.362
 6694SOL    HW220982   4.075   5.876   1.212
 6695SOL     OW20983   2.807   2.579   6.192
 6695SOL    HW120984   2.725   2.578   6.249
 6695SOL    HW220985   2.842   2.486   6.181
 6696SOL     OW20986   3.846   2.974   4.202
 6696SOL    HW120987   3.786   3.051   4.223
 6696SOL    HW220988   3.905   2.954   4.280
 6697SOL     OW20989   4.669   1.541   2.902
 6697SOL    HW120990   4.746   1.599   2.876
 6697SOL    HW220991   4.599   1.543   2.830
 6698SOL     OW20992   3.201   2.649   0.780
 6698SOL    HW120993   3.181   2.672   0.876
 6698SOL    HW220994   3.277   2.585   0.777
 6699SOL     OW20995   2.269   6.186   5.440
 6699SOL    HW120996   2.266   6.133   5.525
 6699SOL    HW220997   2.360   6.177   5.399
 6700SOL     OW20998   0.165   1.445   1.400
 6700SOL    HW120999   0.153   1.422   1.303
 6700SOL    HW221000   0.254   1.488   1.413
 6701SOL     OW21001   5.962   5.154   1.899
 6701SOL    HW121002   5.981   5.165   1.996
 6701SOL    HW221003   5.865   5.131   1.886
 6702SOL     OW21004   1.898   2.249   1.028
 6702SOL    HW121005   1.845   2.183   0.974
 6702SOL    HW221006   1.990   2.212   1.043
 6703SOL     OW21007   6.696   6.932   0.784
 6703SOL    HW121008   6.638   6.878   0.846
 6703SOL    HW221009   6.761   6.986   0.837
 6704SOL     OW21010   4.150   2.214   2.946
 6704SOL    HW121011   4.056   2.185   2.961
 6704SOL    HW221012   4.168   2.217   2.847
 6705SOL     OW21013   6.035   3.016   0.525
 6705SOL    HW121014   6.089   3.020   0.609
 6705SOL    HW221015   6.089   2.971   0.453
 6706SOL     OW21016   0.656   5.710   1.193
 6706SOL    HW121017   0.647   5.627   1.137
 6706SOL    HW221018   0.681   5.787   1.134
 6707SOL     OW21019   5.855   6.734   3.475
 6707SOL    HW121020   5.881   6.638   3.475
 6707SOL    HW221021   5.835   6.764   3.382
 6708SOL     OW21022   5.432   5.403   0.880
 6708SOL    HW121023   5.466   5.429   0.970
 6708SOL    HW221024   5.480   5.320   0.850
 6709SOL     OW21025   1.352   6.030   3.163
 6709SOL    HW121026   1.363   6.109   3.224
 6709SOL    HW221027   1.295   6.057   3.085
 6710SOL     OW21028   3.323   0.880   6.181
 6710SOL    HW121029   3.251   0.944   6.155
 6710SOL    HW221030   3.407   0.931   6.202
 6711SOL     OW21031   5.494   6.684   5.627
 6711SOL    HW121032   5.572   6.627   5.653
 6711SOL    HW221033   5.525   6.761   5.572
 6712SOL     OW21034   5.441   3.259   1.038
 6712SOL    HW121035   5.488   3.327   0.980
 6712SOL    HW221036   5.367   3.217   0.985
 6713SOL     OW21037   1.624   0.961   3.260
 6713SOL    HW121038   1.618   1.007   3.349
 6713SOL    HW221039   1.614   1.029   3.188
 6714SOL     OW21040   6.470   1.580   6.789
 6714SOL    HW121041   6.554   1.547   6.746
 6714SOL    HW221042   6.443   1.667   6.747
 6715SOL     OW21043   1.618   0.356   0.858
 6715SOL    HW121044   1.669   0.401   0.785
 6715SOL    HW221045   1.618   0.414   0.939
 6716SOL     OW21046   0.259   5.544   1.804
 6716SOL    HW121047   0.324   5.497   1.864
 6716SOL    HW221048   0.309   5.593   1.732
 6717SOL     OW21049   3.025   2.808   6.384
 6717SOL    HW121050   3.105   2.787   6.441
 6717SOL    HW221051   3.025   2.905   6.362
 6718SOL     OW21052   4.815   6.882   0.977
 6718SOL    HW121053   4.904   6.881   1.022
 6718SOL    HW221054   4.790   6.976   0.954
 6719SOL     OW21055   2.947   6.764   0.106
 6719SOL    HW121056   2.857   6.807   0.102
 6719SOL    HW221057   2.985   6.758   0.014
 6720SOL     OW21058   2.128   0.568   3.425
 6720SOL    HW121059   2.101   0.660   3.454
 6720SOL    HW221060   2.081   0.545   3.339
 6721SOL     OW21061   0.066   6.450   0.201
 6721SOL    HW121062   0.076   6.522   0.270
 6721SOL    HW221063   7.001   6.401   0.216
 6722SOL     OW21064   6.387   2.741   0.781
 6722SOL    HW121065   6.297   2.717   0.817
 6722SOL    HW221066   6.457   2.684   0.825
 6723SOL     OW21067   1.415   0.316   4.677
 6723SOL    HW121068   1.515   0.318   4.667
 6723SOL    HW221069   1.379   0.233   4.634
 6724SOL     OW21070   2.068   3.326   6.218
 6724SOL    HW121071   1.974   3.307   6.246
 6724SOL    HW221072   2.121   3.360   6.296
 6725SOL     OW21073   6.561   2.550   1.733
 6725SOL    HW121074   6.562   2.623   1.800
 6725SOL    HW221075   6.467   2.535   1.701
 6726SOL     OW21076   1.087   3.015   4.436
 6726SOL    HW121077   1.035   2.943   4.482
 6726SOL    HW221078   1.169   3.036   4.490
 6727SOL     OW21079   0.178   4.868   5.620
 6727SOL    HW121080   0.210   4.936   5.685
 6727SOL    HW221081   0.227   4.782   5.634
 6728SOL     OW21082   4.115   2.123   2.661
 6728SOL    HW121083   4.157   2.176   2.587
 6728SOL    HW221084   4.155   2.031   2.662
 6729SOL     OW21085   6.896   0.417   0.599
 6729SOL    HW121086   6.924   0.327   0.630
 6729SOL    HW221087   6.976   0.476   0.591
 6730SOL     OW21088   1.798   6.766   1.585
 6730SOL    HW121089   1.875   6.704   1.601
 6730SOL    HW221090   1.782   6.775   1.487
 6731SOL     OW21091   1.332   6.293   1.469
 6731SOL    HW121092   1.405   6.242   1.515
 6731SOL    HW221093   1.307   6.246   1.384
 6732SOL     OW21094   6.098   4.308   4.164
 6732SOL    HW121095   6.164   4.371   4.123
 6732SOL    HW221096   6.120   4.215   4.137
 6733SOL     OW21097   3.744   5.625   6.628
 6733SOL    HW121098   3.689   5.706   6.608
 6733SOL    HW221099   3.747   5.566   6.547
 6734SOL     OW21100   6.323   2.273   4.604
 6734SOL    HW121101   6.384   2.322   4.666
 6734SOL    HW221102   6.243   2.331   4.583
 6735SOL     OW21103   6.604   3.625   4.577
 6735SOL    HW121104   6.533   3.690   4.550
 6735SOL    HW221105   6.591   3.538   4.528
 6736SOL     OW21106   2.765   3.252   6.839
 6736SOL    HW121107   2.842   3.188   6.837
 6736SOL    HW221108   2.797   3.341   6.871
 6737SOL     OW21109   2.094   3.235   1.182
 6737SOL    HW121110   2.177   3.237   1.127
 6737SOL    HW221111   2.090   3.149   1.234
 6738SOL     OW21112   1.569   5.924   3.450
 6738SOL    HW121113   1.591   5.999   3.388
 6738SOL    HW221114   1.505   5.956   3.520
 6739SOL     OW21115   4.736   6.413   4.012
 6739SOL    HW121116   4.824   6.371   3.993
 6739SOL    HW221117   4.726   6.496   3.956
 6740SOL     OW21118   6.890   6.885   5.926
 6740SOL    HW121119   6.842   6.965   5.893
 6740SOL    HW221120   6.953   6.911   6.000
 6741SOL     OW21121   3.671   2.611   5.602
 6741SOL    HW121122   3.582   2.624   5.559
 6741SOL    HW221123   3.689   2.687   5.665
 6742SOL     OW21124   5.997   5.474   2.983
 6742SOL    HW121125   6.026   5.503   3.074
 6742SOL    HW221126   6.007   5.550   2.919
 6743SOL     OW21127   3.845   4.602   6.142
 6743SOL    HW121128   3.836   4.571   6.237
 6743SOL    HW221129   3.873   4.524   6.085
 6744SOL     OW21130   6.242   4.582   5.422
 6744SOL    HW121131   6.235   4.545   5.329
 6744SOL    HW221132   6.318   4.538   5.469
 6745SOL     OW21133   0.257   6.735   3.597
 6745SOL    HW121134   0.356   6.736   3.615
 6745SOL    HW221135   0.213   6.808   3.650
 6746SOL     OW21136   0.653   0.743   3.940
 6746SOL    HW121137   0.669   0.838   3.914
 6746SOL    HW221138   0.656   0.685   3.859
 6747SOL     OW21139   5.713   1.667   6.159
 6747SOL    HW121140   5.719   1.607   6.239
 6747SOL    HW221141   5.719   1.763   6.188
 6748SOL     OW21142   3.722   1.725   3.027
 6748SOL    HW121143   3.710   1.626   3.021
 6748SOL    HW221144   3.705   1.766   2.937
 6749SOL     OW21145   3.645   4.007   0.690
 6749SOL    HW121146   3.602   3.954   0.763
 6749SOL    HW221147   3.613   4.102   0.695
 6750SOL     OW21148   3.597   2.101   4.318
 6750SOL    HW121149   3.499   2.082   4.326
 6750SOL    HW221150   3.625   2.162   4.392
 6751SOL     OW21151   5.480   0.346   2.844
 6751SOL    HW121152   5.546   0.336   2.918
 6751SOL    HW221153   5.496   0.276   2.774
 6752SOL     OW21154   2.279   6.987   3.092
 6752SOL    HW121155   2.293   6.915   3.160
 6752SOL    HW221156   2.363   0.020   3.084
 6753SOL     OW21157   3.258   1.247   5.625
 6753SOL    HW121158   3.164   1.262   5.655
 6753SOL    HW221159   3.319   1.244   5.704
 6754SOL     OW21160   6.965   0.690   0.807
 6754SOL    HW121161   6.954   0.742   0.892
 6754SOL    HW221162   0.008   0.615   0.821
 6755SOL     OW21163   4.392   1.762   2.233
 6755SOL    HW121164   4.472   1.742   2.178
 6755SOL    HW221165   4.326   1.815   2.179
 6756SOL     OW21166   3.971   6.191   4.671
 6756SOL    HW121167   3.888   6.247   4.672
 6756SOL    HW221168   4.002   6.176   4.765
 6757SOL     OW21169   2.831   2.463   0.484
 6757SOL    HW121170   2.830   2.527   0.407
 6757SOL    HW221171   2.879   2.504   0.561
 6758SOL     OW21172   5.823   2.101   1.670
 6758SOL    HW121173   5.882   2.110   1.590
 6758SOL    HW221174   5.849   2.021   1.722
 6759SOL     OW21175   1.330   3.688   3.336
 6759SOL    HW121176   1.275   3.606   3.351
 6759SOL    HW221177   1.347   3.733   3.424
 6760SOL     OW21178   6.826   3.727   2.710
 6760SOL    HW121179   6.842   3.702   2.614
 6760SOL    HW221180   6.816   3.644   2.765
 6761SOL     OW21181   6.697   2.325   5.621
 6761SOL    HW121182   6.759   2.372   5.684
 6761SOL    HW221183   6.671   2.236   5.660
 6762SOL     OW21184   0.764   4.384   4.686
 6762SOL    HW121185   0.822   4.449   4.735
 6762SOL    HW221186   0.718   4.431   4.610
 6763SOL     OW21187   6.339   5.638   3.565
 6763SOL    HW121188   6.409   5.585   3.516
 6763SOL    HW221189   6.360   5.638   3.663
 6764SOL     OW21190   1.489   5.356   1.090
 6764SOL    HW121191   1.507   5.341   0.993
 6764SOL    HW221192   1.439   5.441   1.102
 6765SOL     OW21193   5.621   5.192   3.921
 6765SOL    HW121194   5.700   5.196   3.982
 6765SOL    HW221195   5.572   5.106   3.935
 6766SOL     OW21196   4.800   6.877   5.841
 6766SOL    HW121197   4.820   6.816   5.764
 6766SOL    HW221198   4.762   6.963   5.807
 6767SOL     OW21199   1.646   1.316   0.788
 6767SOL    HW121200   1.643   1.411   0.758
 6767SOL    HW221201   1.735   1.277   0.769
 6768SOL     OW21202   1.452   6.915   4.755
 6768SOL    HW121203   1.421   6.885   4.845
 6768SOL    HW221204   1.552   6.921   4.754
 6769SOL     OW21205   2.717   0.840   6.629
 6769SOL    HW121206   2.802   0.816   6.675
 6769SOL    HW221207   2.717   0.799   6.537
 6770SOL     OW21208   6.508   1.026   3.373
 6770SOL    HW121209   6.550   0.935   3.375
 6770SOL    HW221210   6.497   1.056   3.279
 6771SOL     OW21211   4.532   1.777   3.595
 6771SOL    HW121212   4.606   1.714   3.571
 6771SOL    HW221213   4.458   1.769   3.529
 6772SOL     OW21214   4.389   2.414   2.616
 6772SOL    HW121215   4.384   2.369   2.705
 6772SOL    HW221216   4.442   2.498   2.624
 6773SOL     OW21217   6.096   5.638   2.322
 6773SOL    HW121218   6.121   5.695   2.400
 6773SOL    HW221219   6.088   5.695   2.240
 6774SOL     OW21220   1.012   3.853   5.387
 6774SOL    HW121221   0.942   3.800   5.434
 6774SOL    HW221222   1.072   3.791   5.336
 6775SOL     OW21223   2.652   2.347   2.149
 6775SOL    HW121224   2.726   2.344   2.082
 6775SOL    HW221225   2.589   2.271   2.134
 6776SOL     OW21226   5.203   3.987   0.119
 6776SOL    HW121227   5.180   3.941   0.033
 6776SOL    HW221228   5.301   3.982   0.134
 6777SOL     OW21229   4.964   4.770   0.755
 6777SOL    HW121230   5.012   4.761   0.668
 6777SOL    HW221231   4.986   4.859   0.796
 6778SOL     OW21232   5.769   5.424   2.177
 6778SOL    HW121233   5.775   5.493   2.249
 6778SOL    HW221234   5.674   5.408   2.152
 6779SOL     OW21235   5.649   5.410   6.722
 6779SOL    HW121236   5.575   5.387   6.659
 6779SOL    HW221237   5.645   5.349   6.801
 6780SOL     OW21238   1.483   2.509   2.266
 6780SOL    HW121239   1.501   2.430   2.207
 6780SOL    HW221240   1.414   2.484   2.334
 6781SOL     OW21241   7.018   2.215   4.165
 6781SOL    HW121242   6.921   2.230   4.184
 6781SOL    HW221243   0.049   2.216   4.251
 6782SOL     OW21244   0.115   0.713   3.015
 6782SOL    HW121245   0.187   0.665   3.064
 6782SOL    HW221246   0.143   0.728   2.920
 6783SOL     OW21247   6.248   1.282   5.214
 6783SOL    HW121248   6.161   1.233   5.218
 6783SOL    HW221249   6.236   1.367   5.163
 6784SOL     OW21250   1.463   3.045   0.555
 6784SOL    HW121251   1.474   3.101   0.473
 6784SOL    HW221252   1.525   2.966   0.550
 6785SOL     OW21253   5.866   5.519   4.559
 6785SOL    HW121254   5.788   5.498   4.619
 6785SOL    HW221255   5.838   5.507   4.463
 6786SOL     OW21256   1.888   2.303   0.103
 6786SOL    HW121257   1.866   2.394   0.068
 6786SOL    HW221258   1.932   2.249   0.031
 6787SOL     OW21259   2.088   2.955   6.992
 6787SOL    HW121260   2.004   2.998   0.003
 6787SOL    HW221261   2.070   2.859   6.970
 6788SOL     OW21262   1.018   4.161   1.518
 6788SOL    HW121263   0.929   4.119   1.503
 6788SOL    HW221264   1.051   4.139   1.610
 6789SOL     OW21265   0.362   5.242   2.691
 6789SOL    HW121266   0.430   5.313   2.672
 6789SOL    HW221267   0.404   5.152   2.682
 6790SOL     OW21268   0.200   3.777   0.975
 6790SOL    HW121269   0.274   3.842   0.959
 6790SOL    HW221270   0.184   3.768   1.074
 6791SOL     OW21271   3.888   1.684   2.210
 6791SOL    HW121272   3.937   1.754   2.261
 6791SOL    HW221273   3.820   1.727   2.150
 6792SOL     OW21274   6.107   6.916   5.053
 6792SOL    HW121275   6.017   6.874   5.053
 6792SOL    HW221276   6.159   6.883   4.974
 6793SOL     OW21277   1.902   1.779   0.525
 6793SOL    HW121278   1.979   1.769   0.589
 6793SOL    HW221279   1.837   1.845   0.562
 6794SOL     OW21280   4.191   1.049   5.483
 6794SOL    HW121281   4.275   1.100   5.463
 6794SOL    HW221282   4.136   1.099   5.550
 6795SOL     OW21283   2.731   6.526   0.606
 6795SOL    HW121284   2.694   6.557   0.518
 6795SOL    HW221285   2.721   6.427   0.613
 6796SOL     OW21286   6.485   0.333   2.807
 6796SOL    HW121287   6.478   0.432   2.795
 6796SOL    HW221288   6.536   0.313   2.890
 6797SOL     OW21289   6.423   2.212   1.598
 6797SOL    HW121290   6.397   2.115   1.595
 6797SOL    HW221291   6.520   2.220   1.618
 6798SOL     OW21292   5.168   7.000   2.018
 6798SOL    HW121293   5.245   7.019   2.079
 6798SOL    HW221294   5.105   6.938   2.064
 6799SOL     OW21295   6.583   6.771   2.044
 6799SOL    HW121296   6.594   6.758   1.945
 6799SOL    HW221297   6.544   6.688   2.084
 6800SOL     OW21298   2.028   3.469   2.158
 6800SOL    HW121299   2.101   3.462   2.091
 6800SOL    HW221300   2.049   3.412   2.238
 6801SOL     OW21301   0.687   0.213   2.817
 6801SOL    HW121302   0.595   0.252   2.823
 6801SOL    HW221303   0.749   0.264   2.877
 6802SOL     OW21304   2.930   6.019   1.431
 6802SOL    HW121305   2.971   6.099   1.474
 6802SOL    HW221306   2.989   5.940   1.444
 6803SOL     OW21307   4.550   3.011   5.267
 6803SOL    HW121308   4.621   3.062   5.315
 6803SOL    HW221309   4.469   3.069   5.257
 6804SOL     OW21310   3.439   5.056   3.863
 6804SOL    HW121311   3.419   5.152   3.881
 6804SOL    HW221312   3.505   5.022   3.931
 6805SOL     OW21313   0.569   4.756   6.583
 6805SOL    HW121314   0.497   4.765   6.514
 6805SOL    HW221315   0.607   4.664   6.579
 6806SOL     OW21316   6.289   0.708   3.660
 6806SOL    HW121317   6.279   0.704   3.561
 6806SOL    HW221318   6.232   0.638   3.702
 6807SOL     OW21319   3.130   3.496   1.568
 6807SOL    HW121320   3.115   3.507   1.470
 6807SOL    HW221321   3.213   3.546   1.595
 6808SOL     OW21322   6.996   2.264   5.554
 6808SOL    HW121323   6.896   2.257   5.555
 6808SOL    HW221324   0.011   2.232   5.641
 6809SOL     OW21325   0.646   3.197   1.259
 6809SOL    HW121326   0.629   3.291   1.289
 6809SOL    HW221327   0.744   3.177   1.262
 6810SOL     OW21328   1.799   1.109   3.013
 6810SOL    HW121329   1.880   1.158   3.044
 6810SOL    HW221330   1.826   1.021   2.973
 6811SOL     OW21331   5.572   3.436   1.237
 6811SOL    HW121332   5.564   3.339   1.257
 6811SOL    HW221333   5.580   3.450   1.139
 6812SOL     OW21334   2.948   3.529   4.565
 6812SOL    HW121335   3.044   3.513   4.590
 6812SOL    HW221336   2.911   3.447   4.521
 6813SOL     OW21337   4.903   2.588   3.002
 6813SOL    HW121338   4.881   2.683   3.022
 6813SOL    HW221339   4.852   2.528   3.064
 6814SOL     OW21340   3.453   1.560   6.253
 6814SOL    HW121341   3.422   1.539   6.160
 6814SOL    HW221342   3.381   1.534   6.318
 6815SOL     OW21343   3.771   6.424   1.176
 6815SOL    HW121344   3.750   6.376   1.261
 6815SOL    HW221345   3.686   6.460   1.136
 6816SOL     OW21346   6.827   6.942   6.346
 6816SOL    HW121347   6.859   0.014   6.328
 6816SOL    HW221348   6.848   6.916   6.440
 6817SOL     OW21349   2.491   2.597   3.149
 6817SOL    HW121350   2.419   2.545   3.196
 6817SOL    HW221351   2.548   2.535   3.095
 6818SOL     OW21352   2.531   6.350   1.903
 6818SOL    HW121353   2.451   6.290   1.893
 6818SOL    HW221354   2.608   6.310   1.853
 6819SOL     OW21355   4.826   1.976   3.251
 6819SOL    HW121356   4.779   1.888   3.245
 6819SOL    HW221357   4.914   1.970   3.202
 6820SOL     OW21358   2.190   5.827   2.193
 6820SOL    HW121359   2.191   5.797   2.098
 6820SOL    HW221360   2.128   5.769   2.246
 6821SOL     OW21361   3.802   2.132   5.017
 6821SOL    HW121362   3.898   2.147   5.044
 6821SOL    HW221363   3.792   2.149   4.919
 6822SOL     OW21364   5.360   2.562   6.093
 6822SOL    HW121365   5.338   2.644   6.145
 6822SOL    HW221366   5.277   2.524   6.053
 6823SOL     OW21367   4.224   3.441   5.506
 6823SOL    HW121368   4.227   3.482   5.415
 6823SOL    HW221369   4.140   3.388   5.516
 6824SOL     OW21370   1.224   2.290   0.658
 6824SOL    HW121371   1.261   2.239   0.580
 6824SOL    HW221372   1.213   2.228   0.736
 6825SOL     OW21373   4.820   6.630   1.123
 6825SOL    HW121374   4.801   6.710   1.066
 6825SOL    HW221375   4.756   6.628   1.199
 6826SOL     OW21376   1.763   3.137   2.973
 6826SOL    HW121377   1.810   3.147   2.885
 6826SOL    HW221378   1.706   3.055   2.972
 6827SOL     OW21379   4.313   5.404   6.611
 6827SOL    HW121380   4.401   5.358   6.621
 6827SOL    HW221381   4.253   5.377   6.686
 6828SOL     OW21382   3.005   1.632   1.771
 6828SOL    HW121383   2.992   1.725   1.803
 6828SOL    HW221384   3.099   1.603   1.789
 6829SOL     OW21385   5.129   6.167   5.402
 6829SOL    HW121386   5.115   6.234   5.475
 6829SOL    HW221387   5.129   6.214   5.314
 6830SOL     OW21388   5.229   1.172   3.582
 6830SOL    HW121389   5.271   1.234   3.516
 6830SOL    HW221390   5.163   1.223   3.638
 6831SOL     OW21391   1.388   0.492   6.660
 6831SOL    HW121392   1.453   0.450   6.596
 6831SOL    HW221393   1.296   0.457   6.641
 6832SOL     OW21394   2.459   3.861   0.927
 6832SOL    HW121395   2.440   3.847   0.830
 6832SOL    HW221396   2.395   3.807   0.982
 6833SOL     OW21397   3.105   4.475   6.410
 6833SOL    HW121398   3.006   4.460   6.412
 6833SOL    HW221399   3.134   4.491   6.316
 6834SOL     OW21400   4.224   6.270   1.054
 6834SOL    HW121401   4.214   6.363   1.091
 6834SOL    HW221402   4.311   6.264   1.004
 6835SOL     OW21403   3.783   0.930   4.504
 6835SOL    HW121404   3.755   0.885   4.419
 6835SOL    HW221405   3.735   1.017   4.513
 6836SOL     OW21406   2.510   4.742   0.390
 6836SOL    HW121407   2.432   4.751   0.453
 6836SOL    HW221408   2.515   4.648   0.357
 6837SOL     OW21409   0.749   1.781   2.133
 6837SOL    HW121410   0.751   1.695   2.082
 6837SOL    HW221411   0.813   1.846   2.091
 6838SOL     OW21412   3.424   6.393   0.073
 6838SOL    HW121413   3.480   6.323   0.028
 6838SOL    HW221414   3.443   6.392   0.171
 6839SOL     OW21415   5.997   1.047   6.657
 6839SOL    HW121416   6.044   1.038   6.745
 6839SOL    HW221417   5.984   0.957   6.617
 6840SOL     OW21418   3.575   1.156   4.786
 6840SOL    HW121419   3.563   1.214   4.866
 6840SOL    HW221420   3.490   1.107   4.767
 6841SOL     OW21421   4.268   4.384   6.735
 6841SOL    HW121422   4.335   4.360   6.665
 6841SOL    HW221423   4.314   4.432   6.810
 6842SOL     OW21424   2.946   4.053   0.816
 6842SOL    HW121425   2.861   4.019   0.857
 6842SOL    HW221426   2.994   3.977   0.773
 6843SOL     OW21427   6.056   6.465   1.303
 6843SOL    HW121428   6.001   6.384   1.322
 6843SOL    HW221429   6.153   6.442   1.313
 6844SOL     OW21430   5.258   0.460   3.802
 6844SOL    HW121431   5.327   0.389   3.802
 6844SOL    HW221432   5.196   0.447   3.880
 6845SOL     OW21433   6.483   4.093   2.945
 6845SOL    HW121434   6.407   4.081   2.881
 6845SOL    HW221435   6.449   4.134   3.030
 6846SOL     OW21436   3.673   3.010   6.914
 6846SOL    HW121437   3.650   2.939   6.847
 6846SOL    HW221438   3.652   2.977   7.006
 6847SOL     OW21439   0.352   3.166   4.209
 6847SOL    HW121440   0.263   3.194   4.174
 6847SOL    HW221441   0.367   3.069   4.188
 6848SOL     OW21442   4.879   5.876   3.858
 6848SOL    HW121443   4.945   5.943   3.892
 6848SOL    HW221444   4.894   5.860   3.760
 6849SOL     OW21445   4.217   5.124   5.188
 6849SOL    HW121446   4.130   5.076   5.176
 6849SOL    HW221447   4.220   5.204   5.129
 6850SOL     OW21448   5.787   4.169   2.133
 6850SOL    HW121449   5.766   4.072   2.131
 6850SOL    HW221450   5.732   4.217   2.065
 6851SOL     OW21451   0.722   1.984   2.731
 6851SOL    HW121452   0.715   1.885   2.718
 6851SOL    HW221453   0.804   2.018   2.687
 6852SOL     OW21454   2.366   4.083   1.090
 6852SOL    HW121455   2.402   3.990   1.088
 6852SOL    HW221456   2.419   4.141   1.028
 6853SOL     OW21457   5.798   4.756   7.011
 6853SOL    HW121458   5.821   4.845   0.030
 6853SOL    HW221459   5.701   4.737   0.001
 6854SOL     OW21460   4.259   1.192   6.273
 6854SOL    HW121461   4.247   1.117   6.208
 6854SOL    HW221462   4.193   1.264   6.253
 6855SOL     OW21463   4.138   6.373   4.013
 6855SOL    HW121464   4.040   6.380   3.994
 6855SOL    HW221465   4.189   6.385   3.928
 6856SOL     OW21466   6.789   2.652   4.916
 6856SOL    HW121467   6.823   2.666   5.009
 6856SOL    HW221468   6.847   2.586   4.869
 6857SOL     OW21469   3.201   2.172   6.364
 6857SOL    HW121470   3.269   2.101   6.379
 6857SOL    HW221471   3.243   2.262   6.372
 6858SOL     OW21472   4.115   3.623   2.927
 6858SOL    HW121473   4.186   3.681   2.968
 6858SOL    HW221474   4.046   3.602   2.996
 6859SOL     OW21475   1.011   1.462   0.807
 6859SOL    HW121476   1.003   1.555   0.843
 6859SOL    HW221477   0.934   1.406   0.838
 6860SOL     OW21478   6.732   4.958   1.329
 6860SOL    HW121479   6.811   4.972   1.389
 6860SOL    HW221480   6.732   5.027   1.257
 6861SOL     OW21481   3.886   4.803   0.310
 6861SOL    HW121482   3.978   4.814   0.273
 6861SOL    HW221483   3.839   4.891   0.308
 6862SOL     OW21484   1.647   5.204   6.029
 6862SOL    HW121485   1.552   5.210   5.999
 6862SOL    HW221486   1.685   5.117   5.999
 6863SOL     OW21487   5.252   6.484   5.845
 6863SOL    HW121488   5.196   6.550   5.895
 6863SOL    HW221489   5.305   6.531   5.775
 6864SOL     OW21490   2.470   4.679   4.698
 6864SOL    HW121491   2.430   4.587   4.690
 6864SOL    HW221492   2.481   4.719   4.607
 6865SOL     OW21493   1.027   6.346   4.165
 6865SOL    HW121494   0.990   6.392   4.085
 6865SOL    HW221495   1.064   6.414   4.228
 6866SOL     OW21496   5.941   5.142   3.683
 6866SOL    HW121497   5.949   5.076   3.758
 6866SOL    HW221498   5.859   5.123   3.631
 6867SOL     OW21499   2.316   4.252   2.126
 6867SOL    HW121500   2.320   4.184   2.199
 6867SOL    HW221501   2.220   4.274   2.106
 6868SOL     OW21502   1.688   5.581   6.719
 6868SOL    HW121503   1.719   5.555   6.627
 6868SOL    HW221504   1.738   5.528   6.787
 6869SOL     OW21505   5.563   0.847   6.341
 6869SOL    HW121506   5.501   0.924   6.349
 6869SOL    HW221507   5.550   0.785   6.418
 6870SOL     OW21508   0.390   4.487   1.816
 6870SOL    HW121509   0.412   4.583   1.802
 6870SOL    HW221510   0.412   4.461   1.910
 6871SOL     OW21511   6.338   4.221   3.131
 6871SOL    HW121512   6.259   4.263   3.087
 6871SOL    HW221513   6.308   4.157   3.201
 6872SOL     OW21514   0.476   2.280   1.066
 6872SOL    HW121515   0.434   2.190   1.082
 6872SOL    HW221516   0.424   2.350   1.114
 6873SOL     OW21517   6.536   3.733   4.148
 6873SOL    HW121518   6.524   3.658   4.083
 6873SOL    HW221519   6.607   3.795   4.115
 6874SOL     OW21520   6.749   5.347   2.600
 6874SOL    HW121521   6.656   5.317   2.578
 6874SOL    HW221522   6.794   5.377   2.516
 6875SOL     OW21523   2.392   2.688   2.486
 6875SOL    HW121524   2.450   2.636   2.424
 6875SOL    HW221525   2.332   2.749   2.433
 6876SOL     OW21526   4.036   0.515   3.634
 6876SOL    HW121527   4.115   0.561   3.595
 6876SOL    HW221528   4.037   0.525   3.733
 6877SOL     OW21529   2.698   3.621   1.240
 6877SOL    HW121530   2.759   3.651   1.313
 6877SOL    HW221531   2.751   3.570   1.172
 6878SOL     OW21532   3.953   0.872   4.140
 6878SOL    HW121533   3.902   0.801   4.092
 6878SOL    HW221534   3.894   0.914   4.210
 6879SOL     OW21535   0.932   2.875   0.894
 6879SOL    HW121536   1.007   2.830   0.845
 6879SOL    HW221537   0.877   2.805   0.940
 6880SOL     OW21538   2.378   5.376   5.268
 6880SOL    HW121539   2.353   5.316   5.191
 6880SOL    HW221540   2.468   5.351   5.301
 6881SOL     OW21541   1.692   4.451   0.906
 6881SOL    HW121542   1.619   4.417   0.964
 6881SOL    HW221543   1.766   4.384   0.902
 6882SOL     OW21544   2.690   0.750   0.066
 6882SOL    HW121545   2.733   0.738   0.155
 6882SOL    HW221546   2.690   0.847   0.041
 6883SOL     OW21547   4.911   1.752   6.895
 6883SOL    HW121548   4.985   1.798   6.847
 6883SOL    HW221549   4.863   1.690   6.833
 6884SOL     OW21550   1.094   4.059   3.645
 6884SOL    HW121551   1.101   4.002   3.727
 6884SOL    HW221552   0.998   4.076   3.625
 6885SOL     OW21553   4.671   4.400   4.396
 6885SOL    HW121554   4.597   4.467   4.404
 6885SOL    HW221555   4.657   4.326   4.462
 6886SOL     OW21556   7.011   0.890   4.215
 6886SOL    HW121557   0.073   0.865   4.264
 6886SOL    HW221558   6.944   0.816   4.221
 6887SOL     OW21559   5.151   5.919   6.336
 6887SOL    HW121560   5.223   5.851   6.349
 6887SOL    HW221561   5.192   6.010   6.328
 6888SOL     OW21562   5.208   5.621   6.321
 6888SOL    HW121563   5.298   5.637   6.363
 6888SOL    HW221564   5.220   5.571   6.235
 6889SOL     OW21565   1.594   2.945   5.867
 6889SOL    HW121566   1.548   2.983   5.947
 6889SOL    HW221567   1.562   2.852   5.851
 6890SOL     OW21568   3.878   6.261   2.142
 6890SOL    HW121569   3.808   6.278   2.211
 6890SOL    HW221570   3.967   6.293   2.175
 6891SOL     OW21571   1.879   4.226   2.386
 6891SOL    HW121572   1.811   4.288   2.424
 6891SOL    HW221573   1.969   4.270   2.389
 6892SOL     OW21574   3.806   2.123   3.447
 6892SOL    HW121575   3.793   2.157   3.540
 6892SOL    HW221576   3.878   2.177   3.402
 6893SOL     OW21577   4.671   4.770   0.331
 6893SOL    HW121578   4.766   4.742   0.317
 6893SOL    HW221579   4.610   4.713   0.275
 6894SOL     OW21580   6.067   5.116   0.444
 6894SOL    HW121581   6.103   5.059   0.518
 6894SOL    HW221582   5.991   5.171   0.480
 6895SOL     OW21583   2.741   4.935   1.263
 6895SOL    HW121584   2.700   5.009   1.316
 6895SOL    HW221585   2.743   4.852   1.318
 6896SOL     OW21586   2.517   0.684   4.102
 6896SOL    HW121587   2.549   0.641   4.017
 6896SOL    HW221588   2.482   0.775   4.082
 6897SOL     OW21589   5.069   3.653   5.174
 6897SOL    HW121590   5.046   3.612   5.086
 6897SOL    HW221591   4.989   3.702   5.210
 6898SOL     OW21592   4.272   1.287   1.697
 6898SOL    HW121593   4.262   1.384   1.675
 6898SOL    HW221594   4.361   1.271   1.739
 6899SOL     OW21595   4.552   6.239   1.941
 6899SOL    HW121596   4.615   6.303   1.896
 6899SOL    HW221597   4.534   6.162   1.880
 6900SOL     OW21598   5.927   5.827   4.945
 6900SOL    HW121599   6.005   5.831   5.008
 6900SOL    HW221600   5.927   5.739   4.898
 6901SOL     OW21601   6.314   5.984   6.108
 6901SOL    HW121602   6.221   6.018   6.096
 6901SOL    HW221603   6.317   5.886   6.090
 6902SOL     OW21604   6.918   6.019   7.000
 6902SOL    HW121605   6.845   6.040   0.045
 6902SOL    HW221606   6.877   5.983   6.916
 6903SOL     OW21607   3.074   5.487   5.647
 6903SOL    HW121608   3.166   5.452   5.631
 6903SOL    HW221609   3.008   5.430   5.598
 6904SOL     OW21610   6.772   0.446   4.702
 6904SOL    HW121611   6.801   0.501   4.781
 6904SOL    HW221612   6.807   0.353   4.712
 6905SOL     OW21613   5.735   5.867   6.548
 6905SOL    HW121614   5.664   5.934   6.523
 6905SOL    HW221615   5.697   5.802   6.614
 6906SOL     OW21616   4.112   1.372   4.509
 6906SOL    HW121617   4.211   1.367   4.492
 6906SOL    HW221618   4.064   1.386   4.423
 6907SOL     OW21619   5.465   2.785   1.953
 6907SOL    HW121620   5.541   2.753   2.011
 6907SOL    HW221621   5.448   2.882   1.971
 6908SOL     OW21622   1.561   5.428   6.960
 6908SOL    HW121623   1.594   5.388   6.875
 6908SOL    HW221624   1.488   5.493   6.940
 6909SOL     OW21625   5.066   4.233   1.262
 6909SOL    HW121626   5.118   4.154   1.294
 6909SOL    HW221627   4.970   4.224   1.291
 6910SOL     OW21628   0.908   2.661   3.318
 6910SOL    HW121629   0.892   2.627   3.226
 6910SOL    HW221630   0.953   2.590   3.373
 6911SOL     OW21631   4.229   6.891   4.255
 6911SOL    HW121632   4.146   6.933   4.219
 6911SOL    HW221633   4.307   6.914   4.196
 6912SOL     OW21634   3.308   3.663   6.317
 6912SOL    HW121635   3.404   3.691   6.324
 6912SOL    HW221636   3.280   3.664   6.222
 6913SOL     OW21637   5.368   6.234   3.723
 6913SOL    HW121638   5.334   6.160   3.781
 6913SOL    HW221639   5.326   6.227   3.632
 6914SOL     OW21640   6.056   4.064   3.599
 6914SOL    HW121641   6.022   4.018   3.681
 6914SOL    HW221642   6.151   4.093   3.614
 6915SOL     OW21643   5.865   2.678   1.628
 6915SOL    HW121644   5.961   2.703   1.617
 6915SOL    HW221645   5.809   2.738   1.571
 6916SOL     OW21646   5.389   1.711   6.739
 6916SOL    HW121647   5.450   1.638   6.770
 6916SOL    HW221648   5.325   1.675   6.672
 6917SOL     OW21649   3.392   6.895   1.554
 6917SOL    HW121650   3.451   6.816   1.569
 6917SOL    HW221651   3.390   6.917   1.457
 6918SOL     OW21652   0.415   2.637   4.690
 6918SOL    HW121653   0.380   2.608   4.779
 6918SOL    HW221654   0.376   2.727   4.666
 6919SOL     OW21655   5.497   5.833   3.884
 6919SOL    HW121656   5.478   5.784   3.799
 6919SOL    HW221657   5.447   5.920   3.885
 6920SOL     OW21658   4.190   6.260   6.135
 6920SOL    HW121659   4.094   6.271   6.163
 6920SOL    HW221660   4.194   6.215   6.046
 6921SOL     OW21661   4.719   5.740   4.027
 6921SOL    HW121662   4.698   5.819   4.085
 6921SOL    HW221663   4.785   5.766   3.957
 6922SOL     OW21664   1.502   6.398   4.911
 6922SOL    HW121665   1.484   6.317   4.855
 6922SOL    HW221666   1.425   6.461   4.904
 6923SOL     OW21667   4.970   5.362   3.012
 6923SOL    HW121668   4.975   5.415   2.927
 6923SOL    HW221669   5.057   5.317   3.029
 6924SOL     OW21670   1.746   4.341   6.469
 6924SOL    HW121671   1.763   4.246   6.493
 6924SOL    HW221672   1.827   4.378   6.423
 6925SOL     OW21673   4.995   6.192   3.605
 6925SOL    HW121674   4.912   6.175   3.659
 6925SOL    HW221675   5.012   6.113   3.545
 6926SOL     OW21676   2.963   2.546   0.696
 6926SOL    HW121677   3.044   2.606   0.698
 6926SOL    HW221678   2.923   2.541   0.788
 6927SOL     OW21679   3.978   2.898   5.834
 6927SOL    HW121680   4.063   2.879   5.785
 6927SOL    HW221681   3.959   2.996   5.832
 6928SOL     OW21682   5.949   6.082   1.235
 6928SOL    HW121683   5.886   6.006   1.223
 6928SOL    HW221684   5.926   6.155   1.172
 6929SOL     OW21685   5.003   5.624   1.492
 6929SOL    HW121686   4.933   5.679   1.446
 6929SOL    HW221687   5.045   5.562   1.426
 6930SOL     OW21688   1.159   0.867   1.681
 6930SOL    HW121689   1.110   0.780   1.690
 6930SOL    HW221690   1.094   0.943   1.678
 6931SOL     OW21691   2.171   0.921   2.361
 6931SOL    HW121692   2.266   0.939   2.336
 6931SOL    HW221693   2.167   0.868   2.445
 6932SOL     OW21694   3.967   6.734   6.823
 6932SOL    HW121695   3.985   6.652   6.877
 6932SOL    HW221696   3.874   6.731   6.787
 6933SOL     OW21697   3.571   5.509   5.473
 6933SOL    HW121698   3.557   5.414   5.500
 6933SOL    HW221699   3.498   5.538   5.412
 6934SOL     OW21700   4.465   3.815   6.407
 6934SOL    HW121701   4.444   3.856   6.495
 6934SOL    HW221702   4.379   3.798   6.357
 6935SOL     OW21703   4.851   5.550   2.534
 6935SOL    HW121704   4.780   5.617   2.555
 6935SOL    HW221705   4.907   5.582   2.458
 6936SOL     OW21706   6.274   2.070   3.340
 6936SOL    HW121707   6.241   2.057   3.247
 6936SOL    HW221708   6.207   2.122   3.393
 6937SOL     OW21709   6.445   6.258   6.935
 6937SOL    HW121710   6.458   6.265   6.836
 6937SOL    HW221711   6.446   6.350   6.976
 6938SOL     OW21712   6.422   2.725   5.276
 6938SOL    HW121713   6.434   2.629   5.301
 6938SOL    HW221714   6.369   2.771   5.346
 6939SOL     OW21715   0.697   5.229   2.230
 6939SOL    HW121716   0.682   5.318   2.273
 6939SOL    HW221717   0.635   5.162   2.268
 6940SOL     OW21718   3.604   0.263   5.958
 6940SOL    HW121719   3.523   0.317   5.935
 6940SOL    HW221720   3.655   0.309   6.031
 6941SOL     OW21721   3.087   4.076   1.997
 6941SOL    HW121722   3.074   4.140   2.073
 6941SOL    HW221723   3.178   4.034   2.003
 6942SOL     OW21724   6.127   6.942   1.441
 6942SOL    HW121725   6.040   6.990   1.452
 6942SOL    HW221726   6.110   6.844   1.434
 6943SOL     OW21727   3.169   5.537   0.471
 6943SOL    HW121728   3.212   5.466   0.415
 6943SOL    HW221729   3.206   5.626   0.446
 6944SOL     OW21730   0.674   4.511   6.491
 6944SOL    HW121731   0.585   4.470   6.514
 6944SOL    HW221732   0.744   4.440   6.493
 6945SOL     OW21733   6.169   1.475   0.243
 6945SOL    HW121734   6.112   1.474   0.161
 6945SOL    HW221735   6.126   1.531   0.314
 6946SOL     OW21736   4.178   6.548   1.094
 6946SOL    HW121737   4.124   6.537   1.178
 6946SOL    HW221738   4.116   6.551   1.015
 6947SOL     OW21739   3.605   5.836   6.578
 6947SOL    HW121740   3.533   5.835   6.508
 6947SOL    HW221741   3.635   5.930   6.594
 6948SOL     OW21742   0.876   0.071   0.466
 6948SOL    HW121743   0.944   0.095   0.397
 6948SOL    HW221744   0.920   0.059   0.555
 6949SOL     OW21745   3.556   0.472   3.468
 6949SOL    HW121746   3.627   0.423   3.519
 6949SOL    HW221747   3.525   0.550   3.522
 6950SOL     OW21748   1.307   1.834   5.139
 6950SOL    HW121749   1.221   1.824   5.089
 6950SOL    HW221750   1.371   1.762   5.110
 6951SOL     OW21751   6.327   5.256   5.675
 6951SOL    HW121752   6.414   5.264   5.725
 6951SOL    HW221753   6.339   5.289   5.581
 6952SOL     OW21754   0.540   6.244   3.194
 6952SOL    HW121755   0.483   6.293   3.260
 6952SOL    HW221756   0.636   6.253   3.219
 6953SOL     OW21757   4.085   6.415   1.598
 6953SOL    HW121758   4.156   6.412   1.668
 6953SOL    HW221759   3.996   6.432   1.641
 6954SOL     OW21760   6.843   3.682   2.430
 6954SOL    HW121761   6.821   3.756   2.367
 6954SOL    HW221762   6.814   3.595   2.392
 6955SOL     OW21763   5.522   0.198   1.654
 6955SOL    HW121764   5.501   0.295   1.672
 6955SOL    HW221765   5.454   0.161   1.590
 6956SOL     OW21766   5.479   5.966   3.444
 6956SOL    HW121767   5.542   5.938   3.518
 6956SOL    HW221768   5.385   5.966   3.479
 6957SOL     OW21769   6.452   5.665   1.109
 6957SOL    HW121770   6.486   5.742   1.163
 6957SOL    HW221771   6.354   5.653   1.125
 6958SOL     OW21772   3.877   3.299   4.548
 6958SOL    HW121773   3.878   3.387   4.500
 6958SOL    HW221774   3.942   3.302   4.624
 6959SOL     OW21775   2.035   3.474   3.444
 6959SOL    HW121776   2.091   3.483   3.526
 6959SOL    HW221777   2.018   3.377   3.426
 6960SOL     OW21778   1.178   4.329   1.118
 6960SOL    HW121779   1.262   4.379   1.137
 6960SOL    HW221780   1.169   4.254   1.183
 6961SOL     OW21781   5.517   0.994   4.015
 6961SOL    HW121782   5.464   1.033   4.090
 6961SOL    HW221783   5.515   0.894   4.020
 6962SOL     OW21784   4.777   6.144   1.730
 6962SOL    HW121785   4.718   6.174   1.655
 6962SOL    HW221786   4.758   6.200   1.811
 6963SOL     OW21787   4.907   5.869   1.067
 6963SOL    HW121788   4.951   5.930   1.133
 6963SOL    HW221789   4.886   5.919   0.983
 6964SOL     OW21790   3.665   1.027   5.685
 6964SOL    HW121791   3.745   0.968   5.696
 6964SOL    HW221792   3.689   1.120   5.712
 6965SOL     OW21793   1.785   0.974   7.009
 6965SOL    HW121794   1.717   1.024   0.042
 6965SOL    HW221795   1.781   0.877   0.011
 6966SOL     OW21796   1.195   2.211   2.650
 6966SOL    HW121797   1.259   2.275   2.609
 6966SOL    HW221798   1.238   2.165   2.727
 6967SOL     OW21799   2.743   1.219   5.787
 6967SOL    HW121800   2.835   1.247   5.815
 6967SOL    HW221801   2.680   1.230   5.864
 6968SOL     OW21802   3.506   0.407   3.222
 6968SOL    HW121803   3.532   0.452   3.308
 6968SOL    HW221804   3.548   0.455   3.145
 6969SOL     OW21805   2.994   2.313   1.632
 6969SOL    HW121806   2.979   2.349   1.724
 6969SOL    HW221807   3.076   2.256   1.632
 6970SOL     OW21808   4.395   4.440   5.593
 6970SOL    HW121809   4.431   4.432   5.500
 6970SOL    HW221810   4.449   4.382   5.654
 6971SOL     OW21811   6.555   4.548   0.780
 6971SOL    HW121812   6.615   4.605   0.724
 6971SOL    HW221813   6.606   4.469   0.814
 6972SOL     OW21814   5.454   4.623   2.854
 6972SOL    HW121815   5.517   4.571   2.911
 6972SOL    HW221816   5.481   4.719   2.852
 6973SOL     OW21817   1.150   3.306   3.286
 6973SOL    HW121818   1.196   3.329   3.201
 6973SOL    HW221819   1.158   3.208   3.303
 6974SOL     OW21820   2.928   3.808   2.625
 6974SOL    HW121821   2.925   3.816   2.525
 6974SOL    HW221822   2.971   3.722   2.650
 6975SOL     OW21823   1.428   6.176   5.890
 6975SOL    HW121824   1.461   6.239   5.961
 6975SOL    HW221825   1.428   6.222   5.802
 6976SOL     OW21826   5.640   5.249   5.752
 6976SOL    HW121827   5.654   5.154   5.779
 6976SOL    HW221828   5.709   5.307   5.795
 6977SOL     OW21829   3.688   2.771   1.495
 6977SOL    HW121830   3.765   2.835   1.490
 6977SOL    HW221831   3.690   2.722   1.582
 6978SOL     OW21832   5.795   1.591   2.206
 6978SOL    HW121833   5.706   1.567   2.166
 6978SOL    HW221834   5.822   1.682   2.175
 6979SOL     OW21835   1.065   4.077   1.775
 6979SOL    HW121836   1.108   4.145   1.834
 6979SOL    HW221837   0.986   4.036   1.822
 6980SOL     OW21838   1.543   1.607   3.986
 6980SOL    HW121839   1.571   1.529   4.042
 6980SOL    HW221840   1.593   1.604   3.899
 6981SOL     OW21841   3.892   3.167   5.913
 6981SOL    HW121842   3.979   3.189   5.957
 6981SOL    HW221843   3.835   3.115   5.977
 6982SOL     OW21844   0.727   1.225   5.025
 6982SOL    HW121845   0.670   1.169   5.084
 6982SOL    HW221846   0.782   1.167   4.965
 6983SOL     OW21847   3.979   2.033   3.743
 6983SOL    HW121848   3.887   2.072   3.735
 6983SOL    HW221849   4.038   2.097   3.792
 6984SOL     OW21850   1.684   1.293   3.357
 6984SOL    HW121851   1.773   1.248   3.369
 6984SOL    HW221852   1.687   1.384   3.399
 6985SOL     OW21853   6.145   5.025   1.362
 6985SOL    HW121854   6.118   5.111   1.405
 6985SOL    HW221855   6.243   5.010   1.374
 6986SOL     OW21856   2.425   0.013   6.356
 6986SOL    HW121857   2.426   6.987   6.268
 6986SOL    HW221858   2.352   0.081   6.356
 6987SOL     OW21859   5.990   1.227   6.412
 6987SOL    HW121860   5.910   1.211   6.470
 6987SOL    HW221861   6.072   1.191   6.458
 6988SOL     OW21862   1.284   6.515   6.828
 6988SOL    HW121863   1.219   6.439   6.827
 6988SOL    HW221864   1.349   6.505   6.752
 6989SOL     OW21865   1.170   4.078   3.337
 6989SOL    HW121866   1.230   4.003   3.312
 6989SOL    HW221867   1.160   4.082   3.436
 6990SOL     OW21868   4.789   2.978   1.591
 6990SOL    HW121869   4.722   2.948   1.660
 6990SOL    HW221870   4.748   2.971   1.500
 6991SOL     OW21871   4.593   4.331   3.778
 6991SOL    HW121872   4.551   4.393   3.845
 6991SOL    HW221873   4.598   4.239   3.817
 6992SOL     OW21874   5.630   6.849   6.669
 6992SOL    HW121875   5.687   6.775   6.703
 6992SOL    HW221876   5.568   6.880   6.742
 6993SOL     OW21877   6.229   0.306   2.946
 6993SOL    HW121878   6.324   0.314   2.917
 6993SOL    HW221879   6.203   0.210   2.950
 6994SOL     OW21880   0.379   2.526   4.090
 6994SOL    HW121881   0.432   2.598   4.045
 6994SOL    HW221882   0.436   2.444   4.099
 6995SOL     OW21883   0.542   4.647   6.214
 6995SOL    HW121884   0.590   4.569   6.253
 6995SOL    HW221885   0.488   4.692   6.285
 6996SOL     OW21886   1.717   0.369   6.782
 6996SOL    HW121887   1.635   0.315   6.800
 6996SOL    HW221888   1.704   0.462   6.815
 6997SOL     OW21889   0.407   5.492   5.860
 6997SOL    HW121890   0.468   5.552   5.913
 6997SOL    HW221891   0.326   5.471   5.914
 6998SOL     OW21892   2.127   0.405   1.625
 6998SOL    HW121893   2.083   0.489   1.593
 6998SOL    HW221894   2.057   0.339   1.654
 6999SOL     OW21895   2.722   2.358   6.507
 6999SOL    HW121896   2.644   2.378   6.449
 6999SOL    HW221897   2.804   2.347   6.450
 7000SOL     OW21898   5.113   6.629   1.760
 7000SOL    HW121899   5.203   6.585   1.755
 7000SOL    HW221900   5.115   6.713   1.706
 7001SOL     OW21901   2.289   3.135   6.128
 7001SOL    HW121902   2.312   3.078   6.207
 7001SOL    HW221903   2.205   3.186   6.146
 7002SOL     OW21904   1.499   5.539   3.937
 7002SOL    HW121905   1.449   5.597   4.000
 7002SOL    HW221906   1.455   5.541   3.847
 7003SOL     OW21907   4.222   5.657   0.910
 7003SOL    HW121908   4.286   5.729   0.940
 7003SOL    HW221909   4.224   5.582   0.977
 7004SOL     OW21910   0.674   5.559   1.692
 7004SOL    HW121911   0.697   5.562   1.594
 7004SOL    HW221912   0.638   5.468   1.715
 7005SOL     OW21913   1.115   6.854   0.633
 7005SOL    HW121914   1.089   6.767   0.676
 7005SOL    HW221915   1.075   6.930   0.685
 7006SOL     OW21916   4.883   5.155   4.011
 7006SOL    HW121917   4.976   5.190   4.025
 7006SOL    HW221918   4.820   5.206   4.069
 7007SOL     OW21919   4.724   0.555   4.352
 7007SOL    HW121920   4.661   0.479   4.364
 7007SOL    HW221921   4.758   0.584   4.442
 7008SOL     OW21922   0.402   4.214   4.366
 7008SOL    HW121923   0.368   4.237   4.275
 7008SOL    HW221924   0.490   4.169   4.358
 7009SOL     OW21925   4.609   6.287   2.905
 7009SOL    HW121926   4.574   6.319   2.817
 7009SOL    HW221927   4.584   6.190   2.916
 7010SOL     OW21928   5.569   4.273   3.567
 7010SOL    HW121929   5.580   4.371   3.584
 7010SOL    HW221930   5.545   4.227   3.653
 7011SOL     OW21931   3.375   6.081   6.492
 7011SOL    HW121932   3.294   6.131   6.464
 7011SOL    HW221933   3.396   6.010   6.424
 7012SOL     OW21934   0.838   1.627   1.371
 7012SOL    HW121935   0.828   1.726   1.359
 7012SOL    HW221936   0.760   1.592   1.423
 7013SOL     OW21937   0.901   6.824   0.161
 7013SOL    HW121938   0.841   6.782   0.092
 7013SOL    HW221939   0.922   6.918   0.134
 7014SOL     OW21940   4.458   3.146   0.803
 7014SOL    HW121941   4.402   3.072   0.766
 7014SOL    HW221942   4.401   3.226   0.823
 7015SOL     OW21943   6.199   4.050   0.991
 7015SOL    HW121944   6.238   3.981   0.932
 7015SOL    HW221945   6.120   4.012   1.040
 7016SOL     OW21946   3.465   5.015   1.579
 7016SOL    HW121947   3.381   5.039   1.627
 7016SOL    HW221948   3.455   4.926   1.535
 7017SOL     OW21949   2.581   4.962   3.461
 7017SOL    HW121950   2.531   4.876   3.469
 7017SOL    HW221951   2.522   5.030   3.417
 7018SOL     OW21952   5.453   3.433   4.383
 7018SOL    HW121953   5.546   3.397   4.376
 7018SOL    HW221954   5.387   3.358   4.379
 7019SOL     OW21955   3.373   4.677   0.381
 7019SOL    HW121956   3.275   4.694   0.370
 7019SOL    HW221957   3.389   4.626   0.465
 7020SOL     OW21958   6.649   4.296   5.717
 7020SOL    HW121959   6.690   4.287   5.807
 7020SOL    HW221960   6.698   4.237   5.652
 7021SOL     OW21961   1.888   2.095   5.156
 7021SOL    HW121962   1.892   2.063   5.251
 7021SOL    HW221963   1.836   2.180   5.151
 7022SOL     OW21964   4.505   6.806   6.752
 7022SOL    HW121965   4.458   6.770   6.672
 7022SOL    HW221966   4.561   6.733   6.793
 7023SOL     OW21967   1.681   2.576   3.270
 7023SOL    HW121968   1.688   2.607   3.365
 7023SOL    HW221969   1.771   2.550   3.237
 7024SOL     OW21970   3.075   3.779   5.217
 7024SOL    HW121971   3.149   3.757   5.153
 7024SOL    HW221972   2.999   3.820   5.166
 7025SOL     OW21973   3.327   0.579   0.477
 7025SOL    HW121974   3.259   0.541   0.415
 7025SOL    HW221975   3.282   0.636   0.546
 7026SOL     OW21976   3.327   2.106   2.012
 7026SOL    HW121977   3.384   2.110   1.929
 7026SOL    HW221978   3.385   2.085   2.091
 7027SOL     OW21979   1.972   5.354   3.984
 7027SOL    HW121980   1.906   5.430   3.982
 7027SOL    HW221981   1.922   5.267   3.981
 7028SOL     OW21982   3.249   1.456   2.988
 7028SOL    HW121983   3.190   1.514   2.932
 7028SOL    HW221984   3.344   1.487   2.980
 7029SOL     OW21985   4.578   4.748   5.268
 7029SOL    HW121986   4.628   4.832   5.289
 7029SOL    HW221987   4.589   4.683   5.343
 7030SOL     OW21988   1.030   0.964   5.149
 7030SOL    HW121989   0.957   0.933   5.210
 7030SOL    HW221990   0.991   0.998   5.064
 7031SOL     OW21991   3.828   5.829   6.267
 7031SOL    HW121992   3.914   5.870   6.298
 7031SOL    HW221993   3.757   5.900   6.262
 7032SOL     OW21994   4.260   2.042   3.990
 7032SOL    HW121995   4.268   1.975   3.915
 7032SOL    HW221996   4.197   2.114   3.963
 7033SOL     OW21997   1.961   2.514   3.284
 7033SOL    HW121998   2.000   2.446   3.222
 7033SOL    HW221999   1.957   2.477   3.377
 7034SOL     OW22000   0.219   1.155   3.161
 7034SOL    HW122001   0.260   1.145   3.071
 7034SOL    HW222002   0.127   1.117   3.160
 7035SOL     OW22003   1.632   6.882   0.405
 7035SOL    HW122004   1.579   6.937   0.340
 7035SOL    HW222005   1.625   6.786   0.381
 7036SOL     OW22006   6.990   0.969   2.837
 7036SOL    HW122007   0.052   0.996   2.789
 7036SOL    HW222008   6.913   0.970   2.774
 7037SOL     OW22009   1.521   1.684   6.649
 7037SOL    HW122010   1.488   1.748   6.720
 7037SOL    HW222011   1.525   1.732   6.561
 7038SOL     OW22012   2.179   3.784   5.016
 7038SOL    HW122013   2.190   3.745   5.107
 7038SOL    HW222014   2.232   3.869   5.010
 7039SOL     OW22015   1.201   5.528   3.153
 7039SOL    HW122016   1.249   5.599   3.206
 7039SOL    HW222017   1.107   5.556   3.136
 7040SOL     OW22018   5.323   2.315   5.565
 7040SOL    HW122019   5.288   2.369   5.641
 7040SOL    HW222020   5.249   2.257   5.529
 7041SOL     OW22021   6.774   1.191   1.906
 7041SOL    HW122022   6.725   1.157   1.986
 7041SOL    HW222023   6.722   1.169   1.823
 7042SOL     OW22024   4.148   5.864   4.886
 7042SOL    HW122025   4.054   5.896   4.898
 7042SOL    HW222026   4.207   5.908   4.953
 7043SOL     OW22027   2.199   5.030   3.049
 7043SOL    HW122028   2.195   5.120   3.093
 7043SOL    HW222029   2.118   4.977   3.074
 7044SOL     OW22030   5.882   5.323   4.868
 7044SOL    HW122031   5.805   5.383   4.843
 7044SOL    HW222032   5.875   5.300   4.965
 7045SOL     OW22033   5.148   5.016   2.838
 7045SOL    HW122034   5.190   4.939   2.791
 7045SOL    HW222035   5.108   5.079   2.771
 7046SOL     OW22036   3.196   1.659   3.754
 7046SOL    HW122037   3.136   1.729   3.717
 7046SOL    HW222038   3.157   1.568   3.738
 7047SOL     OW22039   6.496   0.748   2.460
 7047SOL    HW122040   6.484   0.758   2.361
 7047SOL    HW222041   6.593   0.731   2.480
 7048SOL     OW22042   5.740   6.725   4.206
 7048SOL    HW122043   5.778   6.637   4.176
 7048SOL    HW222044   5.770   6.797   4.143
 7049SOL     OW22045   3.760   1.813   1.035
 7049SOL    HW122046   3.814   1.884   1.079
 7049SOL    HW222047   3.686   1.785   1.097
 7050SOL     OW22048   4.015   3.486   1.347
 7050SOL    HW122049   3.938   3.523   1.398
 7050SOL    HW222050   4.004   3.387   1.337
 7051SOL     OW22051   6.723   0.135   1.216
 7051SOL    HW122052   6.672   0.194   1.279
 7051SOL    HW222053   6.667   0.117   1.135
 7052SOL     OW22054   6.421   1.381   3.370
 7052SOL    HW122055   6.359   1.326   3.315
 7052SOL    HW222056   6.382   1.473   3.383
 7053SOL     OW22057   1.847   3.240   4.844
 7053SOL    HW122058   1.854   3.167   4.912
 7053SOL    HW222059   1.930   3.241   4.788
 7054SOL     OW22060   0.134   6.877   0.853
 7054SOL    HW122061   0.232   6.894   0.861
 7054SOL    HW222062   0.118   6.783   0.825
 7055SOL     OW22063   2.890   0.118   6.616
 7055SOL    HW122064   2.812   0.089   6.562
 7055SOL    HW222065   2.878   0.090   6.711
 7056SOL     OW22066   6.696   5.180   1.650
 7056SOL    HW122067   6.770   5.125   1.611
 7056SOL    HW222068   6.641   5.219   1.577
 7057SOL     OW22069   2.763   4.877   4.038
 7057SOL    HW122070   2.730   4.959   4.084
 7057SOL    HW222071   2.690   4.809   4.034
 7058SOL     OW22072   5.490   2.751   5.748
 7058SOL    HW122073   5.566   2.695   5.715
 7058SOL    HW222074   5.403   2.707   5.725
 7059SOL     OW22075   0.673   1.555   4.088
 7059SOL    HW122076   0.770   1.533   4.074
 7059SOL    HW222077   0.664   1.619   4.164
 7060SOL     OW22078   3.387   0.131   1.860
 7060SOL    HW122079   3.326   0.056   1.886
 7060SOL    HW222080   3.375   0.152   1.763
 7061SOL     OW22081   0.567   3.272   3.544
 7061SOL    HW122082   0.580   3.179   3.577
 7061SOL    HW222083   0.499   3.272   3.470
 7062SOL     OW22084   3.293   2.201   5.345
 7062SOL    HW122085   3.207   2.154   5.327
 7062SOL    HW222086   3.293   2.290   5.299
 7063SOL     OW22087   1.508   6.592   1.857
 7063SOL    HW122088   1.529   6.582   1.955
 7063SOL    HW222089   1.560   6.670   1.821
 7064SOL     OW22090   4.100   1.735   0.118
 7064SOL    HW122091   4.067   1.661   0.176
 7064SOL    HW222092   4.027   1.765   0.057
 7065SOL     OW22093   3.879   3.469   5.613
 7065SOL    HW122094   3.806   3.513   5.665
 7065SOL    HW222095   3.866   3.370   5.613
 7066SOL     OW22096   3.680   0.020   6.073
 7066SOL    HW122097   3.645   0.105   6.035
 7066SOL    HW222098   3.773   0.005   6.041
 7067SOL     OW22099   1.322   3.486   5.607
 7067SOL    HW122100   1.349   3.582   5.599
 7067SOL    HW222101   1.354   3.449   5.694
 7068SOL     OW22102   6.268   4.392   4.769
 7068SOL    HW122103   6.308   4.324   4.830
 7068SOL    HW222104   6.231   4.347   4.688
 7069SOL     OW22105   5.500   2.226   4.726
 7069SOL    HW122106   5.517   2.255   4.632
 7069SOL    HW222107   5.561   2.275   4.788
 7070SOL     OW22108   1.097   0.089   4.632
 7070SOL    HW122109   1.197   0.093   4.633
 7070SOL    HW222110   1.063   0.115   4.542
 7071SOL     OW22111   3.917   6.245   6.160
 7071SOL    HW122112   3.872   6.331   6.184
 7071SOL    HW222113   3.857   6.190   6.104
 7072SOL     OW22114   2.118   5.853   0.194
 7072SOL    HW122115   2.056   5.905   0.134
 7072SOL    HW222116   2.100   5.876   0.289
 7073SOL     OW22117   5.123   6.932   3.683
 7073SOL    HW122118   5.112   0.005   3.653
 7073SOL    HW222119   5.120   6.928   3.783
 7074SOL     OW22120   6.258   2.950   1.816
 7074SOL    HW122121   6.336   2.915   1.765
 7074SOL    HW222122   6.259   3.050   1.815
 7075SOL     OW22123   1.863   4.152   4.907
 7075SOL    HW122124   1.942   4.105   4.868
 7075SOL    HW222125   1.823   4.213   4.839
 7076SOL     OW22126   5.382   3.130   0.613
 7076SOL    HW122127   5.470   3.125   0.565
 7076SOL    HW222128   5.317   3.068   0.569
 7077SOL     OW22129   2.027   4.162   3.928
 7077SOL    HW122130   1.998   4.255   3.905
 7077SOL    HW222131   1.947   4.102   3.932
 7078SOL     OW22132   6.538   6.040   1.934
 7078SOL    HW122133   6.534   5.948   1.973
 7078SOL    HW222134   6.631   6.059   1.903
 7079SOL     OW22135   0.923   0.173   4.012
 7079SOL    HW122136   0.997   0.173   4.079
 7079SOL    HW222137   0.873   0.087   4.018
 7080SOL     OW22138   3.223   1.615   4.390
 7080SOL    HW122139   3.242   1.692   4.330
 7080SOL    HW222140   3.283   1.538   4.367
 7081SOL     OW22141   2.075   5.970   0.437
 7081SOL    HW122142   2.123   5.924   0.511
 7081SOL    HW222143   2.084   6.069   0.447
 7082SOL     OW22144   6.476   4.923   0.114
 7082SOL    HW122145   6.554   4.893   0.168
 7082SOL    HW222146   6.502   4.932   0.018
 7083SOL     OW22147   1.416   1.393   1.982
 7083SOL    HW122148   1.367   1.357   1.903
 7083SOL    HW222149   1.476   1.467   1.953
 7084SOL     OW22150   0.946   5.651   5.737
 7084SOL    HW122151   0.994   5.643   5.649
 7084SOL    HW222152   0.855   5.609   5.729
 7085SOL     OW22153   0.143   1.854   1.916
 7085SOL    HW122154   0.074   1.781   1.915
 7085SOL    HW222155   0.234   1.813   1.906
 7086SOL     OW22156   5.621   1.059   5.776
 7086SOL    HW122157   5.671   1.101   5.700
 7086SOL    HW222158   5.663   0.972   5.800
 7087SOL     OW22159   6.089   4.297   3.030
 7087SOL    HW122160   6.070   4.272   2.936
 7087SOL    HW222161   6.010   4.344   3.070
 7088SOL     OW22162   5.101   2.384   4.592
 7088SOL    HW122163   5.039   2.428   4.527
 7088SOL    HW222164   5.068   2.400   4.685
 7089SOL     OW22165   2.297   2.651   4.291
 7089SOL    HW122166   2.299   2.739   4.340
 7089SOL    HW222167   2.318   2.577   4.354
 7090SOL     OW22168   2.317   1.225   0.201
 7090SOL    HW122169   2.315   1.310   0.148
 7090SOL    HW222170   2.347   1.245   0.294
 7091SOL     OW22171   0.828   1.083   0.829
 7091SOL    HW122172   0.774   1.160   0.795
 7091SOL    HW222173   0.894   1.116   0.896
 7092SOL     OW22174   4.459   3.107   5.616
 7092SOL    HW122175   4.371   3.131   5.657
 7092SOL    HW222176   4.522   3.185   5.624
 7093SOL     OW22177   3.661   4.001   2.292
 7093SOL    HW122178   3.744   3.953   2.263
 7093SOL    HW222179   3.676   4.042   2.382
 7094SOL     OW22180   0.505   6.241   5.507
 7094SOL    HW122181   0.470   6.206   5.594
 7094SOL    HW222182   0.433   6.238   5.438
 7095SOL     OW22183   2.491   4.397   6.084
 7095SOL    HW122184   2.459   4.467   6.021
 7095SOL    HW222185   2.506   4.311   6.034
 7096SOL     OW22186   6.465   0.054   2.114
 7096SOL    HW122187   6.469   0.041   2.015
 7096SOL    HW222188   6.413   7.001   2.156
 7097SOL     OW22189   4.719   0.554   1.885
 7097SOL    HW122190   4.788   0.487   1.914
 7097SOL    HW222191   4.742   0.644   1.923
 7098SOL     OW22192   1.937   5.517   5.548
 7098SOL    HW122193   1.848   5.564   5.552
 7098SOL    HW222194   1.944   5.455   5.626
 7099SOL     OW22195   3.769   1.887   5.114
 7099SOL    HW122196   3.774   1.982   5.084
 7099SOL    HW222197   3.680   1.870   5.157
 7100SOL     OW22198   6.398   3.555   0.277
 7100SOL    HW122199   6.299   3.557   0.292
 7100SOL    HW222200   6.416   3.553   0.179
 7101SOL     OW22201   2.586   1.578   5.336
 7101SOL    HW122202   2.544   1.488   5.342
 7101SOL    HW222203   2.515   1.646   5.317
 7102SOL     OW22204   5.840   0.378   0.664
 7102SOL    HW122205   5.788   0.300   0.701
 7102SOL    HW222206   5.936   0.351   0.652
 7103SOL     OW22207   5.768   5.927   2.204
 7103SOL    HW122208   5.809   5.838   2.184
 7103SOL    HW222209   5.809   5.996   2.144
 7104SOL     OW22210   6.536   3.834   3.077
 7104SOL    HW122211   6.517   3.932   3.070
 7104SOL    HW222212   6.482   3.795   3.152
 7105SOL     OW22213   2.981   3.026   5.220
 7105SOL    HW122214   2.987   3.097   5.290
 7105SOL    HW222215   2.892   2.981   5.225
 7106SOL     OW22216   3.350   2.836   2.000
 7106SOL    HW122217   3.414   2.829   1.923
 7106SOL    HW222218   3.366   2.922   2.048
 7107SOL     OW22219   4.856   0.235   0.709
 7107SOL    HW122220   4.777   0.189   0.750
 7107SOL    HW222221   4.824   0.294   0.635
 7108SOL     OW22222   3.287   5.486   2.547
 7108SOL    HW122223   3.246   5.489   2.638
 7108SOL    HW222224   3.232   5.539   2.483
 7109SOL     OW22225   1.863   0.007   6.092
 7109SOL    HW122226   1.802   0.026   6.169
 7109SOL    HW222227   1.917   6.946   6.112
 7110SOL     OW22228   3.019   5.899   4.270
 7110SOL    HW122229   3.075   5.868   4.347
 7110SOL    HW222230   2.944   5.835   4.256
 7111SOL     OW22231   1.133   2.488   4.824
 7111SOL    HW122232   1.169   2.533   4.741
 7111SOL    HW222233   1.182   2.522   4.904
 7112SOL     OW22234   1.924   4.941   4.457
 7112SOL    HW122235   1.989   4.880   4.502
 7112SOL    HW222236   1.972   5.000   4.392
 7113SOL     OW22237   3.634   4.028   5.217
 7113SOL    HW122238   3.613   3.996   5.124
 7113SOL    HW222239   3.570   3.986   5.282
 7114SOL     OW22240   4.837   5.477   0.755
 7114SOL    HW122241   4.873   5.407   0.816
 7114SOL    HW222242   4.880   5.565   0.775
 7115SOL     OW22243   4.225   3.069   0.318
 7115SOL    HW122244   4.300   3.009   0.289
 7115SOL    HW222245   4.227   3.153   0.264
 7116SOL     OW22246   5.255   4.532   3.181
 7116SOL    HW122247   5.297   4.451   3.221
 7116SOL    HW222248   5.163   4.544   3.219
 7117SOL     OW22249   0.057   6.491   4.821
 7117SOL    HW122250   0.153   6.494   4.846
 7117SOL    HW222251   0.023   6.584   4.806
 7118SOL     OW22252   3.401   4.887   6.178
 7118SOL    HW122253   3.421   4.829   6.099
 7118SOL    HW222254   3.483   4.896   6.235
 7119SOL     OW22255   5.351   0.965   4.846
 7119SOL    HW122256   5.287   1.015   4.787
 7119SOL    HW222257   5.436   1.017   4.855
 7120SOL     OW22258   3.563   2.045   1.802
 7120SOL    HW122259   3.578   2.083   1.710
 7120SOL    HW222260   3.621   2.092   1.868
 7121SOL     OW22261   0.706   6.800   3.886
 7121SOL    HW122262   0.783   6.764   3.938
 7121SOL    HW222263   0.669   6.728   3.826
 7122SOL     OW22264   1.462   0.788   5.686
 7122SOL    HW122265   1.366   0.769   5.708
 7122SOL    HW222266   1.496   0.862   5.744
 7123SOL     OW22267   1.066   5.106   3.944
 7123SOL    HW122268   1.135   5.157   3.996
 7123SOL    HW222269   1.023   5.167   3.877
 7124SOL     OW22270   0.363   2.409   1.516
 7124SOL    HW122271   0.405   2.490   1.557
 7124SOL    HW222272   0.271   2.397   1.553
 7125SOL     OW22273   1.408   0.385   0.573
 7125SOL    HW122274   1.424   0.327   0.493
 7125SOL    HW222275   1.494   0.400   0.621
 7126SOL     OW22276   3.258   4.751   0.831
 7126SOL    HW122277   3.168   4.782   0.801
 7126SOL    HW222278   3.263   4.652   0.825
 7127SOL     OW22279   2.936   5.726   6.823
 7127SOL    HW122280   2.909   5.746   6.729
 7127SOL    HW222281   3.026   5.765   6.841
 7128SOL     OW22282   3.163   3.944   6.855
 7128SOL    HW122283   3.071   3.910   6.839
 7128SOL    HW222284   3.160   4.022   6.918
 7129SOL     OW22285   2.182   1.031   0.561
 7129SOL    HW122286   2.241   0.957   0.593
 7129SOL    HW222287   2.097   1.032   0.614
 7130SOL     OW22288   3.302   6.208   4.356
 7130SOL    HW122289   3.351   6.149   4.420
 7130SOL    HW222290   3.367   6.263   4.303
 7131SOL     OW22291   2.899   1.099   1.374
 7131SOL    HW122292   2.928   1.005   1.395
 7131SOL    HW222293   2.921   1.158   1.452
 7132SOL     OW22294   4.193   4.058   0.239
 7132SOL    HW122295   4.172   3.981   0.179
 7132SOL    HW222296   4.128   4.061   0.314
 7133SOL     OW22297   4.030   4.588   5.389
 7133SOL    HW122298   3.945   4.554   5.429
 7133SOL    HW222299   4.078   4.512   5.344
 7134SOL     OW22300   4.491   0.233   2.038
 7134SOL    HW122301   4.439   0.314   2.009
 7134SOL    HW222302   4.555   0.259   2.111
 7135SOL     OW22303   2.110   2.306   3.111
 7135SOL    HW122304   2.138   2.216   3.144
 7135SOL    HW222305   2.104   2.304   3.011
 7136SOL     OW22306   3.474   1.624   0.349
 7136SOL    HW122307   3.549   1.627   0.284
 7136SOL    HW222308   3.465   1.713   0.394
 7137SOL     OW22309   3.098   1.868   0.407
 7137SOL    HW122310   3.175   1.921   0.370
 7137SOL    HW222311   3.016   1.924   0.406
 7138SOL     OW22312   1.977   1.756   1.024
 7138SOL    HW122313   1.899   1.721   0.972
 7138SOL    HW222314   1.946   1.827   1.088
 7139SOL     OW22315   4.702   4.999   2.153
 7139SOL    HW122316   4.661   5.080   2.195
 7139SOL    HW222317   4.694   5.005   2.053
 7140SOL     OW22318   6.057   3.808   0.787
 7140SOL    HW122319   6.058   3.717   0.745
 7140SOL    HW222320   6.151   3.843   0.790
 7141SOL     OW22321   3.666   6.710   1.179
 7141SOL    HW122322   3.615   6.703   1.264
 7141SOL    HW222323   3.604   6.734   1.104
 7142SOL     OW22324   4.073   0.001   3.494
 7142SOL    HW122325   4.076   0.076   3.429
 7142SOL    HW222326   4.127   6.945   3.459
 7143SOL     OW22327   2.325   3.401   0.029
 7143SOL    HW122328   2.250   3.427   6.990
 7143SOL    HW222329   2.389   3.342   7.001
 7144SOL     OW22330   1.260   0.954   3.667
 7144SOL    HW122331   1.325   1.005   3.722
 7144SOL    HW222332   1.298   0.863   3.647
 7145SOL     OW22333   3.897   0.872   6.555
 7145SOL    HW122334   3.830   0.885   6.482
 7145SOL    HW222335   3.873   0.790   6.608
 7146SOL     OW22336   1.576   0.731   6.084
 7146SOL    HW122337   1.611   0.821   6.110
 7146SOL    HW222338   1.638   0.660   6.118
 7147SOL     OW22339   6.823   6.081   2.952
 7147SOL    HW122340   6.761   6.014   2.911
 7147SOL    HW222341   6.773   6.164   2.976
 7148SOL     OW22342   6.215   6.117   1.694
 7148SOL    HW122343   6.180   6.183   1.761
 7148SOL    HW222344   6.304   6.147   1.660
 7149SOL     OW22345   0.310   5.202   3.814
 7149SOL    HW122346   0.277   5.186   3.907
 7149SOL    HW222347   0.259   5.145   3.750
 7150SOL     OW22348   3.476   3.158   0.458
 7150SOL    HW122349   3.412   3.128   0.387
 7150SOL    HW222350   3.470   3.097   0.537
 7151SOL     OW22351   3.181   6.775   1.314
 7151SOL    HW122352   3.116   6.769   1.239
 7151SOL    HW222353   3.236   6.691   1.316
 7152SOL     OW22354   6.757   0.422   6.138
 7152SOL    HW122355   6.702   0.498   6.103
 7152SOL    HW222356   6.760   0.349   6.070
 7153SOL     OW22357   3.748   4.907   1.735
 7153SOL    HW122358   3.820   4.845   1.704
 7153SOL    HW222359   3.685   4.858   1.795
 7154SOL     OW22360   4.693   6.132   3.212
 7154SOL    HW122361   4.649   6.052   3.251
 7154SOL    HW222362   4.678   6.133   3.113
 7155SOL     OW22363   3.012   3.512   1.822
 7155SOL    HW122364   2.921   3.471   1.814
 7155SOL    HW222365   3.063   3.497   1.738
 7156SOL     OW22366   5.777   4.013   2.415
 7156SOL    HW122367   5.808   4.082   2.349
 7156SOL    HW222368   5.769   4.055   2.506
 7157SOL     OW22369   7.004   4.976   2.135
 7157SOL    HW122370   6.924   4.918   2.145
 7157SOL    HW222371   0.004   4.988   2.038
 7158SOL     OW22372   1.183   0.374   3.463
 7158SOL    HW122373   1.090   0.396   3.493
 7158SOL    HW222374   1.179   0.335   3.371
 7159SOL     OW22375   1.463   4.899   4.184
 7159SOL    HW122376   1.560   4.886   4.208
 7159SOL    HW222377   1.433   4.989   4.214
 7160SOL     OW22378   6.296   0.017   2.985
 7160SOL    HW122379   6.252   0.024   2.896
 7160SOL    HW222380   6.354   6.957   2.987
 7161SOL     OW22381   3.255   3.831   2.950
 7161SOL    HW122382   3.302   3.765   3.009
 7161SOL    HW222383   3.244   3.791   2.858
 7162SOL     OW22384   1.456   5.258   5.845
 7162SOL    HW122385   1.509   5.185   5.802
 7162SOL    HW222386   1.411   5.313   5.774
 7163SOL     OW22387   2.837   0.371   2.334
 7163SOL    HW122388   2.910   0.439   2.336
 7163SOL    HW222389   2.754   0.413   2.296
 7164SOL     OW22390   2.717   0.391   4.868
 7164SOL    HW122391   2.810   0.381   4.901
 7164SOL    HW222392   2.701   0.325   4.794
 7165SOL     OW22393   5.323   6.207   1.766
 7165SOL    HW122394   5.338   6.301   1.798
 7165SOL    HW222395   5.261   6.208   1.687
 7166SOL     OW22396   5.620   2.029   0.415
 7166SOL    HW122397   5.532   1.984   0.401
 7166SOL    HW222398   5.642   2.083   0.334
 7167SOL     OW22399   4.868   3.326   4.836
 7167SOL    HW122400   4.826   3.345   4.747
 7167SOL    HW222401   4.848   3.401   4.898
 7168SOL     OW22402   2.830   2.191   3.026
 7168SOL    HW122403   2.919   2.199   3.069
 7168SOL    HW222404   2.842   2.170   2.929
 7169SOL     OW22405   6.628   4.280   5.318
 7169SOL    HW122406   6.548   4.311   5.368
 7169SOL    HW222407   6.609   4.191   5.277
 7170SOL     OW22408   4.782   0.443   2.546
 7170SOL    HW122409   4.739   0.379   2.610
 7170SOL    HW222410   4.876   0.413   2.527
 7171SOL     OW22411   5.600   4.013   0.561
 7171SOL    HW122412   5.668   3.943   0.586
 7171SOL    HW222413   5.595   4.021   0.462
 7172SOL     OW22414   1.879   0.288   4.943
 7172SOL    HW122415   1.957   0.329   4.898
 7172SOL    HW222416   1.876   0.316   5.039
 7173SOL     OW22417   6.494   4.968   6.871
 7173SOL    HW122418   6.435   4.917   6.809
 7173SOL    HW222419   6.586   4.974   6.832
 7174SOL     OW22420   0.031   4.364   0.478
 7174SOL    HW122421   0.029   4.265   0.495
 7174SOL    HW222422   0.010   4.412   0.564
 7175SOL     OW22423   6.353   2.990   5.639
 7175SOL    HW122424   6.443   2.994   5.681
 7175SOL    HW222425   6.347   2.911   5.579
 7176SOL     OW22426   0.060   1.896   3.541
 7176SOL    HW122427   0.117   1.977   3.533
 7176SOL    HW222428   0.101   1.832   3.606
 7177SOL     OW22429   1.384   4.871   5.193
 7177SOL    HW122430   1.388   4.909   5.101
 7177SOL    HW222431   1.362   4.773   5.188
 7178SOL     OW22432   6.964   1.861   5.773
 7178SOL    HW122433   7.000   1.771   5.795
 7178SOL    HW222434   7.009   1.896   5.691
 7179SOL     OW22435   1.381   3.687   4.653
 7179SOL    HW122436   1.389   3.621   4.728
 7179SOL    HW222437   1.347   3.774   4.690
 7180SOL     OW22438   2.158   3.744   0.406
 7180SOL    HW122439   2.122   3.784   0.322
 7180SOL    HW222440   2.093   3.759   0.481
 7181SOL     OW22441   2.530   0.261   0.256
 7181SOL    HW122442   2.480   0.175   0.242
 7181SOL    HW222443   2.481   0.317   0.323
 7182SOL     OW22444   0.414   3.944   3.658
 7182SOL    HW122445   0.377   3.904   3.741
 7182SOL    HW222446   0.452   3.872   3.600
 7183SOL     OW22447   2.009   5.688   2.380
 7183SOL    HW122448   2.051   5.706   2.469
 7183SOL    HW222449   1.911   5.671   2.393
 7184SOL     OW22450   6.758   1.526   3.913
 7184SOL    HW122451   6.791   1.434   3.934
 7184SOL    HW222452   6.830   1.577   3.866
 7185SOL     OW22453   5.650   1.649   5.770
 7185SOL    HW122454   5.642   1.568   5.828
 7185SOL    HW222455   5.679   1.727   5.826
 7186SOL     OW22456   6.504   1.610   1.431
 7186SOL    HW122457   6.470   1.674   1.362
 7186SOL    HW222458   6.470   1.518   1.410
 7187SOL     OW22459   2.939   4.052   5.134
 7187SOL    HW122460   2.884   4.019   5.211
 7187SOL    HW222461   2.932   4.151   5.128
 7188SOL     OW22462   4.437   5.850   0.038
 7188SOL    HW122463   4.351   5.810   0.070
 7188SOL    HW222464   4.421   5.899   6.973
 7189SOL     OW22465   6.915   2.350   5.965
 7189SOL    HW122466   6.933   2.383   6.058
 7189SOL    HW222467   6.842   2.405   5.924
 7190SOL     OW22468   6.236   5.607   1.535
 7190SOL    HW122469   6.167   5.672   1.569
 7190SOL    HW222470   6.326   5.637   1.565
 7191SOL     OW22471   1.545   4.708   2.992
 7191SOL    HW122472   1.492   4.768   3.051
 7191SOL    HW222473   1.542   4.743   2.898
 7192SOL     OW22474   1.852   4.309   6.004
 7192SOL    HW122475   1.925   4.355   5.954
 7192SOL    HW222476   1.778   4.286   5.940
 7193SOL     OW22477   1.916   2.040   2.071
 7193SOL    HW122478   1.924   2.124   2.018
 7193SOL    HW222479   1.918   2.062   2.169
 7194SOL     OW22480   1.883   3.012   6.353
 7194SOL    HW122481   1.907   3.090   6.410
 7194SOL    HW222482   1.951   2.940   6.364
 7195SOL     OW22483   6.787   4.141   0.484
 7195SOL    HW122484   6.761   4.171   0.576
 7195SOL    HW222485   6.876   4.096   0.488
 7196SOL     OW22486   2.403   3.792   1.727
 7196SOL    HW122487   2.386   3.820   1.821
 7196SOL    HW222488   2.492   3.747   1.721
 7197SOL     OW22489   1.280   3.471   6.078
 7197SOL    HW122490   1.250   3.383   6.042
 7197SOL    HW222491   1.201   3.522   6.112
 7198SOL     OW22492   0.510   1.051   0.336
 7198SOL    HW122493   0.543   1.122   0.274
 7198SOL    HW222494   0.451   0.987   0.286
 7199SOL     OW22495   0.422   0.220   2.563
 7199SOL    HW122496   0.430   0.228   2.663
 7199SOL    HW222497   0.342   0.270   2.532
 7200SOL     OW22498   2.323   2.911   6.646
 7200SOL    HW122499   2.260   2.834   6.644
 7200SOL    HW222500   2.292   2.978   6.714
 7201SOL     OW22501   0.839   5.946   3.966
 7201SOL    HW122502   0.850   5.966   4.063
 7201SOL    HW222503   0.778   5.868   3.955
 7202SOL     OW22504   4.299   6.984   6.781
 7202SOL    HW122505   4.293   0.025   6.859
 7202SOL    HW222506   4.386   6.933   6.785
 7203SOL     OW22507   6.867   1.116   1.201
 7203SOL    HW122508   6.798   1.050   1.170
 7203SOL    HW222509   6.935   1.069   1.258
 7204SOL     OW22510   0.052   1.018   5.966
 7204SOL    HW122511   0.016   0.999   5.875
 7204SOL    HW222512   0.030   0.942   6.028
 7205SOL     OW22513   1.560   4.506   5.692
 7205SOL    HW122514   1.463   4.522   5.708
 7205SOL    HW222515   1.584   4.413   5.723
 7206SOL     OW22516   1.203   0.971   2.110
 7206SOL    HW122517   1.281   0.983   2.047
 7206SOL    HW222518   1.126   0.931   2.060
 7207SOL     OW22519   3.944   0.529   4.230
 7207SOL    HW122520   3.962   0.592   4.305
 7207SOL    HW222521   3.998   0.446   4.242
 7208SOL     OW22522   4.453   0.275   3.505
 7208SOL    HW122523   4.509   0.348   3.545
 7208SOL    HW222524   4.356   0.300   3.511
 7209SOL     OW22525   2.685   2.966   1.397
 7209SOL    HW122526   2.604   2.909   1.405
 7209SOL    HW222527   2.660   3.062   1.406
 7210SOL     OW22528   3.812   1.628   3.568
 7210SOL    HW122529   3.871   1.705   3.545
 7210SOL    HW222530   3.807   1.565   3.491
 7211SOL     OW22531   1.816   6.028   5.081
 7211SOL    HW122532   1.804   6.074   4.993
 7211SOL    HW222533   1.794   6.092   5.155
 7212SOL     OW22534   0.567   6.503   5.525
 7212SOL    HW122535   0.664   6.503   5.498
 7212SOL    HW222536   0.534   6.409   5.528
 7213SOL     OW22537   3.675   6.665   6.824
 7213SOL    HW122538   3.631   6.627   6.905
 7213SOL    HW222539   3.659   6.604   6.746
 7214SOL     OW22540   6.348   0.578   5.202
 7214SOL    HW122541   6.297   0.498   5.170
 7214SOL    HW222542   6.327   0.594   5.299
 7215SOL     OW22543   6.580   3.020   3.977
 7215SOL    HW122544   6.493   3.068   3.982
 7215SOL    HW222545   6.563   2.922   3.966
 7216SOL     OW22546   2.906   0.150   1.664
 7216SOL    HW122547   2.817   0.139   1.618
 7216SOL    HW222548   2.977   0.165   1.596
 7217SOL     OW22549   1.885   3.543   3.215
 7217SOL    HW122550   1.922   3.505   3.300
 7217SOL    HW222551   1.959   3.552   3.148
 7218SOL     OW22552   6.269   2.982   4.437
 7218SOL    HW122553   6.173   2.954   4.444
 7218SOL    HW222554   6.304   3.000   4.529
 7219SOL     OW22555   3.702   1.110   2.908
 7219SOL    HW122556   3.720   1.094   3.005
 7219SOL    HW222557   3.734   1.201   2.882
 7220SOL     OW22558   6.498   4.070   4.149
 7220SOL    HW122559   6.405   4.097   4.174
 7220SOL    HW222560   6.548   4.039   4.230
 7221SOL     OW22561   3.774   5.787   5.242
 7221SOL    HW122562   3.785   5.885   5.223
 7221SOL    HW222563   3.767   5.737   5.156
 7222SOL     OW22564   6.346   6.361   3.477
 7222SOL    HW122565   6.445   6.375   3.481
 7222SOL    HW222566   6.307   6.421   3.407
 7223SOL     OW22567   3.128   1.508   0.986
 7223SOL    HW122568   3.117   1.411   1.006
 7223SOL    HW222569   3.172   1.520   0.897
 7224SOL     OW22570   5.245   2.593   3.953
 7224SOL    HW122571   5.296   2.577   4.037
 7224SOL    HW222572   5.151   2.559   3.964
 7225SOL     OW22573   1.422   6.274   0.305
 7225SOL    HW122574   1.328   6.287   0.274
 7225SOL    HW222575   1.461   6.194   0.260
 7226SOL     OW22576   5.554   0.162   1.040
 7226SOL    HW122577   5.525   0.080   0.990
 7226SOL    HW222578   5.473   0.210   1.076
 7227SOL     OW22579   2.610   1.787   1.244
 7227SOL    HW122580   2.667   1.742   1.313
 7227SOL    HW222581   2.664   1.801   1.161
 7228SOL     OW22582   1.221   1.605   2.602
 7228SOL    HW122583   1.262   1.557   2.525
 7228SOL    HW222584   1.126   1.576   2.614
 7229SOL     OW22585   1.454   5.932   5.814
 7229SOL    HW122586   1.456   6.031   5.832
 7229SOL    HW222587   1.377   5.911   5.754
 7230SOL     OW22588   3.670   5.609   4.550
 7230SOL    HW122589   3.572   5.606   4.531
 7230SOL    HW222590   3.720   5.634   4.467
 7231SOL     OW22591   3.487   0.506   6.321
 7231SOL    HW122592   3.446   0.416   6.336
 7231SOL    HW222593   3.415   0.571   6.297
 7232SOL     OW22594   4.956   5.885   2.811
 7232SOL    HW122595   4.883   5.849   2.868
 7232SOL    HW222596   4.917   5.951   2.746
 7233SOL     OW22597   1.622   1.827   4.438
 7233SOL    HW122598   1.653   1.796   4.348
 7233SOL    HW222599   1.532   1.788   4.458
 7234SOL     OW22600   6.060   2.963   3.031
 7234SOL    HW122601   5.988   3.028   3.007
 7234SOL    HW222602   6.120   2.950   2.952
 7235SOL     OW22603   7.004   4.443   2.477
 7235SOL    HW122604   0.024   4.354   2.495
 7235SOL    HW222605   0.048   4.515   2.501
 7236SOL     OW22606   2.656   1.862   2.191
 7236SOL    HW122607   2.557   1.870   2.198
 7236SOL    HW222608   2.689   1.924   2.120
 7237SOL     OW22609   4.374   0.019   4.701
 7237SOL    HW122610   4.458   6.996   4.669
 7237SOL    HW222611   4.390   0.118   4.709
 7238SOL     OW22612   4.202   2.407   6.723
 7238SOL    HW122613   4.283   2.404   6.781
 7238SOL    HW222614   4.211   2.339   6.649
 7239SOL     OW22615   0.378   1.849   1.536
 7239SOL    HW122616   0.325   1.766   1.555
 7239SOL    HW222617   0.362   1.878   1.442
 7240SOL     OW22618   0.386   0.995   5.872
 7240SOL    HW122619   0.300   1.029   5.911
 7240SOL    HW222620   0.434   1.070   5.826
 7241SOL     OW22621   2.514   0.469   0.994
 7241SOL    HW122622   2.552   0.561   0.999
 7241SOL    HW222623   2.566   0.415   0.928
 7242SOL     OW22624   6.438   5.735   6.694
 7242SOL    HW122625   6.395   5.689   6.771
 7242SOL    HW222626   6.495   5.670   6.644
 7243SOL     OW22627   6.432   4.337   6.605
 7243SOL    HW122628   6.334   4.342   6.590
 7243SOL    HW222629   6.477   4.300   6.524
 7244SOL     OW22630   6.613   0.837   1.846
 7244SOL    HW122631   6.592   0.742   1.867
 7244SOL    HW222632   6.528   0.891   1.845
 7245SOL     OW22633   1.608   2.872   4.962
 7245SOL    HW122634   1.526   2.924   4.985
 7245SOL    HW222635   1.582   2.786   4.917
 7246SOL     OW22636   0.932   0.419   3.557
 7246SOL    HW122637   0.862   0.351   3.577
 7246SOL    HW222638   0.890   0.508   3.539
 7247SOL     OW22639   2.061   1.618   5.025
 7247SOL    HW122640   1.962   1.616   5.041
 7247SOL    HW222641   2.080   1.590   4.931
 7248SOL     OW22642   3.079   1.659   2.926
 7248SOL    HW122643   3.150   1.709   2.876
 7248SOL    HW222644   2.990   1.698   2.905
 7249SOL     OW22645   5.187   4.883   1.855
 7249SOL    HW122646   5.088   4.884   1.840
 7249SOL    HW222647   5.216   4.973   1.888
 7250SOL     OW22648   5.832   6.137   5.999
 7250SOL    HW122649   5.775   6.219   5.990
 7250SOL    HW222650   5.786   6.071   6.058
 7251SOL     OW22651   0.158   0.022   5.643
 7251SOL    HW122652   0.163   0.071   5.730
 7251SOL    HW222653   0.091   0.066   5.584
 7252SOL     OW22654   3.606   3.091   1.896
 7252SOL    HW122655   3.645   3.035   1.969
 7252SOL    HW222656   3.510   3.109   1.916
 7253SOL     OW22657   2.039   6.224   0.234
 7253SOL    HW122658   1.981   6.222   0.316
 7253SOL    HW222659   2.026   6.310   0.186
 7254SOL     OW22660   5.072   4.885   4.679
 7254SOL    HW122661   5.140   4.911   4.748
 7254SOL    HW222662   5.112   4.820   4.615
 7255SOL     OW22663   4.209   3.659   0.303
 7255SOL    HW122664   4.229   3.722   0.378
 7255SOL    HW222665   4.111   3.637   0.303
 7256SOL     OW22666   2.733   5.916   4.540
 7256SOL    HW122667   2.797   5.905   4.464
 7256SOL    HW222668   2.651   5.861   4.522
 7257SOL     OW22669   6.426   1.669   3.408
 7257SOL    HW122670   6.479   1.722   3.341
 7257SOL    HW222671   6.355   1.727   3.447
 7258SOL     OW22672   4.802   1.351   3.052
 7258SOL    HW122673   4.765   1.434   3.010
 7258SOL    HW222674   4.729   1.284   3.065
 7259SOL     OW22675   1.813   3.615   1.400
 7259SOL    HW122676   1.799   3.531   1.348
 7259SOL    HW222677   1.907   3.646   1.387
 7260SOL     OW22678   4.977   1.532   1.533
 7260SOL    HW122679   5.031   1.582   1.464
 7260SOL    HW222680   4.991   1.434   1.522
 7261SOL     OW22681   1.599   3.873   1.739
 7261SOL    HW122682   1.674   3.920   1.786
 7261SOL    HW222683   1.522   3.861   1.801
 7262SOL     OW22684   5.360   2.677   6.354
 7262SOL    HW122685   5.348   2.762   6.405
 7262SOL    HW222686   5.287   2.612   6.378
 7263SOL     OW22687   1.014   6.659   6.889
 7263SOL    HW122688   1.024   6.600   6.809
 7263SOL    HW222689   1.049   6.612   6.970
 7264SOL     OW22690   5.073   1.885   6.695
 7264SOL    HW122691   5.131   1.909   6.617
 7264SOL    HW222692   5.037   1.968   6.737
 7265SOL     OW22693   5.455   5.417   5.673
 7265SOL    HW122694   5.476   5.477   5.750
 7265SOL    HW222695   5.520   5.341   5.671
 7266SOL     OW22696   5.556   0.478   2.206
 7266SOL    HW122697   5.587   0.504   2.114
 7266SOL    HW222698   5.587   0.546   2.272
 7267SOL     OW22699   6.425   6.518   5.084
 7267SOL    HW122700   6.520   6.489   5.096
 7267SOL    HW222701   6.377   6.510   5.171
 7268SOL     OW22702   6.638   5.355   4.051
 7268SOL    HW122703   6.580   5.430   4.084
 7268SOL    HW222704   6.733   5.374   4.075
 7269SOL     OW22705   0.850   6.098   6.440
 7269SOL    HW122706   0.898   6.166   6.385
 7269SOL    HW222707   0.914   6.025   6.467
 7270SOL     OW22708   1.064   3.377   4.806
 7270SOL    HW122709   1.079   3.358   4.903
 7270SOL    HW222710   1.054   3.291   4.757
 7271SOL     OW22711   0.717   5.517   4.397
 7271SOL    HW122712   0.729   5.498   4.300
 7271SOL    HW222713   0.807   5.529   4.440
 7272SOL     OW22714   6.238   5.086   2.180
 7272SOL    HW122715   6.210   4.990   2.175
 7272SOL    HW222716   6.166   5.144   2.143
 7273SOL     OW22717   6.159   4.410   1.239
 7273SOL    HW122718   6.071   4.362   1.245
 7273SOL    HW222719   6.229   4.345   1.210
 7274SOL     OW22720   0.257   5.505   6.686
 7274SOL    HW122721   0.281   5.409   6.672
 7274SOL    HW222722   0.331   5.563   6.652
 7275SOL     OW22723   0.603   6.474   2.808
 7275SOL    HW122724   0.670   6.546   2.826
 7275SOL    HW222725   0.632   6.422   2.727
 7276SOL     OW22726   4.930   1.087   3.250
 7276SOL    HW122727   5.006   1.133   3.205
 7276SOL    HW222728   4.864   1.056   3.182
 7277SOL     OW22729   4.885   0.911   4.330
 7277SOL    HW122730   4.927   0.825   4.355
 7277SOL    HW222731   4.939   0.987   4.367
 7278SOL     OW22732   3.878   2.194   1.770
 7278SOL    HW122733   3.934   2.170   1.849
 7278SOL    HW222734   3.804   2.255   1.799
 7279SOL     OW22735   3.775   4.516   5.766
 7279SOL    HW122736   3.868   4.551   5.775
 7279SOL    HW222737   3.710   4.592   5.777
 7280SOL     OW22738   0.477   1.683   3.699
 7280SOL    HW122739   0.497   1.594   3.741
 7280SOL    HW222740   0.518   1.686   3.607
 7281SOL     OW22741   2.314   1.700   6.965
 7281SOL    HW122742   2.402   1.748   6.975
 7281SOL    HW222743   2.239   1.763   6.985
 7282SOL     OW22744   6.002   5.079   2.418
 7282SOL    HW122745   6.051   5.151   2.368
 7282SOL    HW222746   6.068   5.024   2.469
 7283SOL     OW22747   5.018   0.916   2.775
 7283SOL    HW122748   5.025   0.879   2.682
 7283SOL    HW222749   5.099   0.889   2.827
 7284SOL     OW22750   0.249   2.560   6.026
 7284SOL    HW122751   0.273   2.515   5.940
 7284SOL    HW222752   0.166   2.518   6.063
 7285SOL     OW22753   5.617   3.163   2.405
 7285SOL    HW122754   5.565   3.158   2.490
 7285SOL    HW222755   5.712   3.136   2.423
 7286SOL     OW22756   2.329   0.779   0.581
 7286SOL    HW122757   2.359   0.685   0.601
 7286SOL    HW222758   2.377   0.813   0.501
 7287SOL     OW22759   0.703   2.780   5.754
 7287SOL    HW122760   0.685   2.834   5.836
 7287SOL    HW222761   0.799   2.791   5.728
 7288SOL     OW22762   1.850   1.243   1.261
 7288SOL    HW122763   1.889   1.161   1.301
 7288SOL    HW222764   1.911   1.278   1.190
 7289SOL     OW22765   5.442   2.240   3.999
 7289SOL    HW122766   5.421   2.291   3.916
 7289SOL    HW222767   5.484   2.153   3.975
 7290SOL     OW22768   3.803   1.271   4.973
 7290SOL    HW122769   3.811   1.174   4.951
 7290SOL    HW222770   3.786   1.323   4.889
 7291SOL     OW22771   1.989   6.510   0.508
 7291SOL    HW122772   1.943   6.452   0.575
 7291SOL    HW222773   2.068   6.462   0.470
 7292SOL     OW22774   3.685   1.291   3.596
 7292SOL    HW122775   3.668   1.239   3.680
 7292SOL    HW222776   3.651   1.384   3.607
 7293SOL     OW22777   1.329   2.149   4.579
 7293SOL    HW122778   1.365   2.182   4.666
 7293SOL    HW222779   1.272   2.221   4.538
 7294SOL     OW22780   2.961   5.056   6.850
 7294SOL    HW122781   2.875   5.106   6.847
 7294SOL    HW222782   3.028   5.101   6.791
 7295SOL     OW22783   5.771   2.874   1.469
 7295SOL    HW122784   5.714   2.916   1.398
 7295SOL    HW222785   5.742   2.908   1.559
 7296SOL     OW22786   3.449   5.799   2.383
 7296SOL    HW122787   3.429   5.711   2.426
 7296SOL    HW222788   3.455   5.869   2.454
 7297SOL     OW22789   4.389   0.205   1.292
 7297SOL    HW122790   4.429   0.218   1.201
 7297SOL    HW222791   4.419   0.117   1.329
 7298SOL     OW22792   4.999   5.423   6.215
 7298SOL    HW122793   5.050   5.340   6.233
 7298SOL    HW222794   4.904   5.400   6.191
 7299SOL     OW22795   0.963   2.229   0.952
 7299SOL    HW122796   1.048   2.185   0.923
 7299SOL    HW222797   0.924   2.178   1.029
 7300SOL     OW22798   0.638   6.800   2.584
 7300SOL    HW122799   0.584   6.716   2.573
 7300SOL    HW222800   0.576   6.879   2.583
 7301SOL     OW22801   5.848   1.467   4.278
 7301SOL    HW122802   5.874   1.382   4.324
 7301SOL    HW222803   5.749   1.470   4.266
 7302SOL     OW22804   1.123   2.582   5.406
 7302SOL    HW122805   1.037   2.613   5.366
 7302SOL    HW222806   1.159   2.653   5.466
 7303SOL     OW22807   3.890   0.967   0.241
 7303SOL    HW122808   3.843   0.886   0.276
 7303SOL    HW222809   3.860   0.985   0.147
 7304SOL     OW22810   3.220   5.476   2.122
 7304SOL    HW122811   3.263   5.563   2.099
 7304SOL    HW222812   3.286   5.402   2.110
 7305SOL     OW22813   5.011   0.470   0.221
 7305SOL    HW122814   5.059   0.407   0.283
 7305SOL    HW222815   4.982   0.551   0.272
 7306SOL     OW22816   4.980   1.619   0.708
 7306SOL    HW122817   5.011   1.569   0.789
 7306SOL    HW222818   4.911   1.564   0.660
 7307SOL     OW22819   2.595   6.502   2.698
 7307SOL    HW122820   2.598   6.402   2.705
 7307SOL    HW222821   2.659   6.533   2.628
 7308SOL     OW22822   6.962   3.013   5.378
 7308SOL    HW122823   6.892   3.029   5.449
 7308SOL    HW222824   6.986   2.916   5.377
 7309SOL     OW22825   3.860   4.888   0.938
 7309SOL    HW122826   3.881   4.855   0.845
 7309SOL    HW222827   3.762   4.885   0.953
 7310SOL     OW22828   2.166   3.994   0.704
 7310SOL    HW122829   2.211   3.906   0.719
 7310SOL    HW222830   2.075   3.991   0.744
 7311SOL     OW22831   2.142   2.101   1.050
 7311SOL    HW122832   2.202   2.100   1.130
 7311SOL    HW222833   2.145   2.011   1.005
 7312SOL     OW22834   1.249   3.926   5.134
 7312SOL    HW122835   1.314   3.933   5.059
 7312SOL    HW222836   1.263   3.840   5.183
 7313SOL     OW22837   1.962   1.036   0.266
 7313SOL    HW122838   2.006   1.081   0.344
 7313SOL    HW222839   1.926   1.106   0.204
 7314SOL     OW22840   0.304   5.126   6.078
 7314SOL    HW122841   0.251   5.073   6.144
 7314SOL    HW222842   0.376   5.177   6.126
 7315SOL     OW22843   6.383   6.437   2.382
 7315SOL    HW122844   6.465   6.458   2.434
 7315SOL    HW222845   6.302   6.453   2.440
 7316SOL     OW22846   3.669   3.728   6.696
 7316SOL    HW122847   3.752   3.678   6.720
 7316SOL    HW222848   3.589   3.676   6.726
 7317SOL     OW22849   5.046   1.291   2.880
 7317SOL    HW122850   4.951   1.259   2.880
 7317SOL    HW222851   5.096   1.246   2.955
 7318SOL     OW22852   2.183   0.453   2.343
 7318SOL    HW122853   2.181   0.374   2.403
 7318SOL    HW222854   2.263   0.510   2.365
 7319SOL     OW22855   6.877   3.367   6.562
 7319SOL    HW122856   6.899   3.291   6.624
 7319SOL    HW222857   6.869   3.452   6.614
 7320SOL     OW22858   0.555   3.640   2.949
 7320SOL    HW122859   0.521   3.716   3.004
 7320SOL    HW222860   0.616   3.584   3.006
 7321SOL     OW22861   1.927   0.699   5.999
 7321SOL    HW122862   1.944   0.605   5.969
 7321SOL    HW222863   1.871   0.698   6.082
 7322SOL     OW22864   6.853   2.610   3.399
 7322SOL    HW122865   6.764   2.599   3.445
 7322SOL    HW222866   6.864   2.706   3.371
 7323SOL     OW22867   1.861   2.765   1.389
 7323SOL    HW122868   1.866   2.804   1.297
 7323SOL    HW222869   1.947   2.783   1.438
 7324SOL     OW22870   4.731   5.893   1.874
 7324SOL    HW122871   4.670   5.924   1.946
 7324SOL    HW222872   4.754   5.970   1.814
 7325SOL     OW22873   2.794   0.389   6.855
 7325SOL    HW122874   2.818   0.455   6.926
 7325SOL    HW222875   2.853   0.403   6.775
 7326SOL     OW22876   2.612   6.000   6.065
 7326SOL    HW122877   2.532   5.997   6.125
 7326SOL    HW222878   2.675   5.925   6.090
 7327SOL     OW22879   6.369   1.611   6.165
 7327SOL    HW122880   6.282   1.661   6.164
 7327SOL    HW222881   6.388   1.576   6.073
 7328SOL     OW22882   3.328   0.336   5.684
 7328SOL    HW122883   3.356   0.387   5.765
 7328SOL    HW222884   3.244   0.286   5.703
 7329SOL     OW22885   6.932   4.092   1.022
 7329SOL    HW122886   6.871   4.095   1.102
 7329SOL    HW222887   7.012   4.036   1.043
 7330SOL     OW22888   2.120   2.721   6.646
 7330SOL    HW122889   2.084   2.633   6.617
 7330SOL    HW222890   2.091   2.740   6.740
 7331SOL     OW22891   4.813   6.155   1.257
 7331SOL    HW122892   4.903   6.124   1.229
 7331SOL    HW222893   4.812   6.255   1.263
 7332SOL     OW22894   3.289   6.039   0.352
 7332SOL    HW122895   3.275   6.115   0.288
 7332SOL    HW222896   3.336   6.073   0.433
 7333SOL     OW22897   6.895   3.322   1.962
 7333SOL    HW122898   6.849   3.377   2.031
 7333SOL    HW222899   6.874   3.357   1.871
 7334SOL     OW22900   2.630   5.855   6.437
 7334SOL    HW122901   2.560   5.797   6.395
 7334SOL    HW222902   2.588   5.938   6.473
 7335SOL     OW22903   1.645   2.587   3.561
 7335SOL    HW122904   1.597   2.674   3.572
 7335SOL    HW222905   1.619   2.526   3.637
 7336SOL     OW22906   1.480   6.448   2.557
 7336SOL    HW122907   1.445   6.541   2.565
 7336SOL    HW222908   1.459   6.397   2.640
 7337SOL     OW22909   0.959   3.175   1.285
 7337SOL    HW122910   1.009   3.261   1.273
 7337SOL    HW222911   0.987   3.109   1.215
 7338SOL     OW22912   5.283   2.012   1.517
 7338SOL    HW122913   5.344   2.021   1.595
 7338SOL    HW222914   5.210   2.081   1.523
 7339SOL     OW22915   6.121   0.370   3.989
 7339SOL    HW122916   6.188   0.436   4.024
 7339SOL    HW222917   6.030   0.393   4.024
 7340SOL     OW22918   3.271   1.504   0.160
 7340SOL    HW122919   3.333   1.426   0.170
 7340SOL    HW222920   3.300   1.578   0.221
 7341SOL     OW22921   0.689   4.074   5.905
 7341SOL    HW122922   0.614   4.019   5.943
 7341SOL    HW222923   0.651   4.153   5.856
 7342SOL     OW22924   0.292   1.255   6.769
 7342SOL    HW122925   0.238   1.321   6.821
 7342SOL    HW222926   0.334   1.189   6.832
 7343SOL     OW22927   6.021   3.848   1.064
 7343SOL    HW122928   5.971   3.787   1.125
 7343SOL    HW222929   5.998   3.827   0.969
 7344SOL     OW22930   1.142   1.282   6.115
 7344SOL    HW122931   1.082   1.273   6.036
 7344SOL    HW222932   1.224   1.334   6.089
 7345SOL     OW22933   4.797   4.794   5.047
 7345SOL    HW122934   4.713   4.846   5.065
 7345SOL    HW222935   4.826   4.747   5.131
 7346SOL     OW22936   4.400   4.707   1.773
 7346SOL    HW122937   4.459   4.627   1.764
 7346SOL    HW222938   4.416   4.750   1.862
 7347SOL     OW22939   0.179   2.300   0.134
 7347SOL    HW122940   0.112   2.322   0.204
 7347SOL    HW222941   0.266   2.275   0.176
 7348SOL     OW22942   1.793   3.874   4.456
 7348SOL    HW122943   1.757   3.791   4.498
 7348SOL    HW222944   1.827   3.853   4.364
 7349SOL     OW22945   4.633   1.615   1.711
 7349SOL    HW122946   4.659   1.673   1.634
 7349SOL    HW222947   4.714   1.569   1.746
 7350SOL     OW22948   2.282   3.135   5.575
 7350SOL    HW122949   2.347   3.155   5.649
 7350SOL    HW222950   2.291   3.040   5.547
 7351SOL     OW22951   5.666   6.426   5.378
 7351SOL    HW122952   5.654   6.457   5.472
 7351SOL    HW222953   5.653   6.327   5.374
 7352SOL     OW22954   2.377   1.256   3.097
 7352SOL    HW122955   2.368   1.160   3.073
 7352SOL    HW222956   2.387   1.311   3.014
 7353SOL     OW22957   0.849   0.168   6.283
 7353SOL    HW122958   0.867   0.101   6.355
 7353SOL    HW222959   0.757   0.155   6.247
 7354SOL     OW22960   0.731   2.159   5.077
 7354SOL    HW122961   0.709   2.248   5.037
 7354SOL    HW222962   0.763   2.097   5.005
 7355SOL     OW22963   1.606   0.700   0.877
 7355SOL    HW122964   1.631   0.642   0.954
 7355SOL    HW222965   1.510   0.729   0.887
 7356SOL     OW22966   3.778   4.056   5.956
 7356SOL    HW122967   3.723   4.121   5.904
 7356SOL    HW222968   3.723   4.017   6.029
 7357SOL     OW22969   3.935   6.716   1.196
 7357SOL    HW122970   3.948   6.813   1.177
 7357SOL    HW222971   3.841   6.690   1.174
 7358SOL     OW22972   5.942   3.680   2.859
 7358SOL    HW122973   5.848   3.689   2.825
 7358SOL    HW222974   5.942   3.687   2.959
 7359SOL     OW22975   3.565   1.852   6.210
 7359SOL    HW122976   3.654   1.821   6.176
 7359SOL    HW222977   3.504   1.774   6.220
 7360SOL     OW22978   3.113   3.456   5.549
 7360SOL    HW122979   3.206   3.492   5.554
 7360SOL    HW222980   3.057   3.514   5.489
 7361SOL     OW22981   4.309   0.052   1.962
 7361SOL    HW122982   4.380   0.116   1.992
 7361SOL    HW222983   4.308   6.993   2.022
 7362SOL     OW22984   1.463   4.635   5.452
 7362SOL    HW122985   1.496   4.616   5.360
 7362SOL    HW222986   1.507   4.575   5.518
 7363SOL     OW22987   4.497   1.905   1.676
 7363SOL    HW122988   4.445   1.822   1.699
 7363SOL    HW222989   4.458   1.983   1.725
 7364SOL     OW22990   4.780   0.884   1.353
 7364SOL    HW122991   4.696   0.882   1.300
 7364SOL    HW222992   4.759   0.900   1.449
 7365SOL     OW22993   0.281   5.982   1.790
 7365SOL    HW122994   0.237   6.035   1.717
 7365SOL    HW222995   0.352   5.924   1.751
 7366SOL     OW22996   2.846   6.032   6.803
 7366SOL    HW122997   2.804   5.994   6.886
 7366SOL    HW222998   2.911   6.104   6.829
 7367SOL     OW22999   5.274   2.676   1.293
 7367SOL    HW123000   5.223   2.626   1.363
 7367SOL    HW223001   5.240   2.770   1.289
 7368SOL     OW23002   3.489   2.845   2.821
 7368SOL    HW123003   3.507   2.750   2.795
 7368SOL    HW223004   3.540   2.866   2.905
 7369SOL     OW23005   3.627   2.134   0.116
 7369SOL    HW123006   3.726   2.117   0.113
 7369SOL    HW223007   3.611   2.230   0.138
 7370SOL     OW23008   2.333   0.651   4.673
 7370SOL    HW123009   2.412   0.697   4.634
 7370SOL    HW223010   2.250   0.680   4.626
 7371SOL     OW23011   2.465   6.610   3.329
 7371SOL    HW123012   2.447   6.512   3.318
 7371SOL    HW223013   2.485   6.629   3.425
 7372SOL     OW23014   4.410   1.297   4.539
 7372SOL    HW123015   4.419   1.389   4.500
 7372SOL    HW223016   4.466   1.233   4.488
 7373SOL     OW23017   6.089   1.402   3.603
 7373SOL    HW123018   6.178   1.404   3.648
 7373SOL    HW223019   6.079   1.316   3.552
 7374SOL     OW23020   2.326   1.781   4.976
 7374SOL    HW123021   2.248   1.841   4.990
 7374SOL    HW223022   2.389   1.823   4.910
 7375SOL     OW23023   2.466   2.120   2.727
 7375SOL    HW123024   2.516   2.205   2.745
 7375SOL    HW223025   2.498   2.049   2.790
 7376SOL     OW23026   2.716   2.143   0.760
 7376SOL    HW123027   2.648   2.074   0.787
 7376SOL    HW223028   2.787   2.148   0.830
 7377SOL     OW23029   5.554   4.474   0.749
 7377SOL    HW123030   5.616   4.434   0.681
 7377SOL    HW223031   5.607   4.528   0.814
 7378SOL     OW23032   0.363   0.822   6.104
 7378SOL    HW123033   0.416   0.857   6.027
 7378SOL    HW223034   0.276   0.871   6.109
 7379SOL     OW23035   3.083   1.500   2.612
 7379SOL    HW123036   3.156   1.441   2.645
 7379SOL    HW223037   3.122   1.575   2.558
 7380SOL     OW23038   6.819   4.746   4.087
 7380SOL    HW123039   6.821   4.646   4.079
 7380SOL    HW223040   6.753   4.783   4.022
 7381SOL     OW23041   4.067   3.181   0.824
 7381SOL    HW123042   3.980   3.132   0.834
 7381SOL    HW223043   4.115   3.147   0.743
 7382SOL     OW23044   0.661   6.779   5.571
 7382SOL    HW123045   0.622   6.827   5.650
 7382SOL    HW223046   0.596   6.710   5.538
 7383SOL     OW23047   2.326   6.563   0.940
 7383SOL    HW123048   2.349   6.584   1.035
 7383SOL    HW223049   2.274   6.478   0.936
 7384SOL     OW23050   6.096   6.779   2.756
 7384SOL    HW123051   6.194   6.799   2.755
 7384SOL    HW223052   6.082   6.680   2.758
 7385SOL     OW23053   3.786   5.986   2.373
 7385SOL    HW123054   3.722   5.972   2.296
 7385SOL    HW223055   3.878   6.003   2.337
 7386SOL     OW23056   0.235   2.424   6.914
 7386SOL    HW123057   0.203   2.366   6.989
 7386SOL    HW223058   0.262   2.366   6.836
 7387SOL     OW23059   6.270   6.430   5.322
 7387SOL    HW123060   6.301   6.335   5.330
 7387SOL    HW223061   6.171   6.432   5.308
 7388SOL     OW23062   1.088   5.550   2.500
 7388SOL    HW123063   1.177   5.562   2.456
 7388SOL    HW223064   1.062   5.635   2.545
 7389SOL     OW23065   6.040   3.923   6.573
 7389SOL    HW123066   6.114   3.970   6.525
 7389SOL    HW223067   5.990   3.989   6.630
 7390SOL     OW23068   1.269   1.880   0.844
 7390SOL    HW123069   1.311   1.795   0.877
 7390SOL    HW223070   1.240   1.867   0.749
 7391SOL     OW23071   4.177   3.485   3.768
 7391SOL    HW123072   4.227   3.499   3.683
 7391SOL    HW223073   4.081   3.509   3.754
 7392SOL     OW23074   2.818   6.806   6.414
 7392SOL    HW123075   2.748   6.751   6.369
 7392SOL    HW223076   2.877   6.746   6.469
 7393SOL     OW23077   6.055   4.465   2.756
 7393SOL    HW123078   5.996   4.543   2.738
 7393SOL    HW223079   6.151   4.495   2.760
 7394SOL     OW23080   2.607   2.758   6.028
 7394SOL    HW123081   2.679   2.752   5.959
 7394SOL    HW223082   2.646   2.738   6.118
 7395SOL     OW23083   1.990   3.082   1.493
 7395SOL    HW123084   1.897   3.094   1.458
 7395SOL    HW223085   2.020   3.166   1.538
 7396SOL     OW23086   1.603   6.130   1.486
 7396SOL    HW123087   1.559   6.094   1.569
 7396SOL    HW223088   1.650   6.215   1.507
 7397SOL     OW23089   4.484   5.402   4.465
 7397SOL    HW123090   4.563   5.445   4.510
 7397SOL    HW223091   4.423   5.473   4.430
 7398SOL     OW23092   1.948   4.941   4.110
 7398SOL    HW123093   1.888   4.867   4.141
 7398SOL    HW223094   2.039   4.931   4.151
 7399SOL     OW23095   0.478   3.176   4.768
 7399SOL    HW123096   0.523   3.261   4.793
 7399SOL    HW223097   0.547   3.105   4.752
 7400SOL     OW23098   4.267   2.831   6.068
 7400SOL    HW123099   4.298   2.915   6.112
 7400SOL    HW223100   4.168   2.822   6.078
 7401SOL     OW23101   1.346   2.499   4.382
 7401SOL    HW123102   1.398   2.559   4.321
 7401SOL    HW223103   1.409   2.436   4.427
 7402SOL     OW23104   3.168   5.761   6.123
 7402SOL    HW123105   3.115   5.746   6.039
 7402SOL    HW223106   3.263   5.736   6.107
 7403SOL     OW23107   1.896   3.511   2.511
 7403SOL    HW123108   1.852   3.570   2.443
 7403SOL    HW223109   1.895   3.416   2.479
 7404SOL     OW23110   2.469   4.915   1.652
 7404SOL    HW123111   2.430   4.834   1.698
 7404SOL    HW223112   2.412   4.994   1.673
 7405SOL     OW23113   3.597   5.467   5.083
 7405SOL    HW123114   3.555   5.404   5.018
 7405SOL    HW223115   3.534   5.543   5.102
 7406SOL     OW23116   0.236   2.813   3.474
 7406SOL    HW123117   0.221   2.719   3.505
 7406SOL    HW223118   0.333   2.835   3.478
 7407SOL     OW23119   1.028   6.939   5.364
 7407SOL    HW123120   1.120   6.902   5.375
 7407SOL    HW223121   0.981   6.890   5.290
 7408SOL     OW23122   3.167   4.143   0.068
 7408SOL    HW123123   3.093   4.183   0.012
 7408SOL    HW223124   3.253   4.188   0.046
 7409SOL     OW23125   5.277   3.150   0.136
 7409SOL    HW123126   5.204   3.154   0.205
 7409SOL    HW223127   5.297   3.054   0.115
 7410SOL     OW23128   0.506   0.141   0.255
 7410SOL    HW123129   0.560   0.225   0.245
 7410SOL    HW223130   0.491   0.122   0.352
 7411SOL     OW23131   1.865   0.326   6.559
 7411SOL    HW123132   1.804   0.390   6.511
 7411SOL    HW223133   1.830   0.310   6.651
 7412SOL     OW23134   5.401   0.414   1.767
 7412SOL    HW123135   5.356   0.502   1.751
 7412SOL    HW223136   5.392   0.389   1.863
 7413SOL     OW23137   4.711   5.275   4.197
 7413SOL    HW123138   4.701   5.361   4.247
 7413SOL    HW223139   4.631   5.217   4.214
 7414SOL     OW23140   1.116   1.113   3.500
 7414SOL    HW123141   1.066   1.056   3.436
 7414SOL    HW223142   1.179   1.056   3.554
 7415SOL     OW23143   1.317   4.672   4.233
 7415SOL    HW123144   1.365   4.584   4.242
 7415SOL    HW223145   1.385   4.744   4.218
 7416SOL     OW23146   2.046   1.129   2.474
 7416SOL    HW123147   2.081   1.043   2.438
 7416SOL    HW223148   2.066   1.203   2.410
 7417SOL     OW23149   2.183   1.874   0.902
 7417SOL    HW123150   2.276   1.840   0.911
 7417SOL    HW223151   2.120   1.811   0.946
 7418SOL     OW23152   2.572   5.804   0.297
 7418SOL    HW123153   2.646   5.871   0.292
 7418SOL    HW223154   2.596   5.724   0.243
 7419SOL     OW23155   6.911   2.920   4.160
 7419SOL    HW123156   6.835   2.972   4.198
 7419SOL    HW223157   6.933   2.844   4.222
 7420SOL     OW23158   0.615   6.498   1.411
 7420SOL    HW123159   0.550   6.507   1.336
 7420SOL    HW223160   0.621   6.585   1.461
 7421SOL     OW23161   3.954   3.881   1.168
 7421SOL    HW123162   3.885   3.942   1.128
 7421SOL    HW223163   3.933   3.786   1.143
 7422SOL     OW23164   0.320   4.252   2.495
 7422SOL    HW123165   0.317   4.289   2.588
 7422SOL    HW223166   0.394   4.186   2.488
 7423SOL     OW23167   6.343   2.647   5.731
 7423SOL    HW123168   6.326   2.561   5.684
 7423SOL    HW223169   6.414   2.698   5.682
 7424SOL     OW23170   6.628   0.409   5.596
 7424SOL    HW123171   6.617   0.477   5.524
 7424SOL    HW223172   6.714   0.424   5.644
 7425SOL     OW23173   4.411   6.517   0.408
 7425SOL    HW123174   4.476   6.510   0.484
 7425SOL    HW223175   4.382   6.612   0.398
 7426SOL     OW23176   3.051   2.099   5.670
 7426SOL    HW123177   3.144   2.063   5.677
 7426SOL    HW223178   3.007   2.094   5.759
 7427SOL     OW23179   4.978   1.040   3.566
 7427SOL    HW123180   4.970   1.096   3.484
 7427SOL    HW223181   5.058   1.069   3.619
 7428SOL     OW23182   4.644   1.814   5.336
 7428SOL    HW123183   4.714   1.841   5.270
 7428SOL    HW223184   4.616   1.893   5.390
 7429SOL     OW23185   0.311   6.454   4.215
 7429SOL    HW123186   0.366   6.374   4.238
 7429SOL    HW223187   0.271   6.443   4.124
 7430SOL     OW23188   0.987   3.348   0.990
 7430SOL    HW123189   1.073   3.299   0.979
 7430SOL    HW223190   0.926   3.327   0.913
 7431SOL     OW23191   1.661   2.877   2.986
 7431SOL    HW123192   1.702   2.889   2.896
 7431SOL    HW223193   1.612   2.790   2.989
 7432SOL     OW23194   1.008   0.974   3.094
 7432SOL    HW123195   1.081   0.924   3.047
 7432SOL    HW223196   0.995   1.063   3.051
 7433SOL     OW23197   4.376   5.358   6.303
 7433SOL    HW123198   4.295   5.363   6.362
 7433SOL    HW223199   4.433   5.280   6.331
 7434SOL     OW23200   4.935   5.520   4.967
 7434SOL    HW123201   4.852   5.476   4.933
 7434SOL    HW223202   4.919   5.558   5.058
 7435SOL     OW23203   4.057   5.527   1.300
 7435SOL    HW123204   4.108   5.492   1.221
 7435SOL    HW223205   4.048   5.626   1.292
 7436SOL     OW23206   4.103   4.227   6.340
 7436SOL    HW123207   4.131   4.302   6.400
 7436SOL    HW223208   4.123   4.251   6.245
 7437SOL     OW23209   2.028   5.937   6.976
 7437SOL    HW123210   2.071   5.891   6.898
 7437SOL    HW223211   1.951   5.881   7.009
 7438SOL     OW23212   1.086   5.672   0.509
 7438SOL    HW123213   1.168   5.655   0.564
 7438SOL    HW223214   1.013   5.706   0.568
 7439SOL     OW23215   1.778   6.654   5.493
 7439SOL    HW123216   1.692   6.607   5.513
 7439SOL    HW223217   1.761   6.753   5.488
 7440SOL     OW23218   0.167   2.975   4.088
 7440SOL    HW123219   0.198   2.933   4.173
 7440SOL    HW223220   0.068   2.964   4.079
 7441SOL     OW23221   5.195   6.591   4.461
 7441SOL    HW123222   5.274   6.602   4.521
 7441SOL    HW223223   5.180   6.675   4.408
 7442SOL     OW23224   6.555   1.279   6.039
 7442SOL    HW123225   6.628   1.214   6.021
 7442SOL    HW223226   6.467   1.232   6.039
 7443SOL     OW23227   6.200   6.540   1.688
 7443SOL    HW123228   6.189   6.486   1.605
 7443SOL    HW223229   6.163   6.489   1.766
 7444SOL     OW23230   5.679   2.252   6.577
 7444SOL    HW123231   5.698   2.267   6.674
 7444SOL    HW223232   5.636   2.334   6.539
 7445SOL     OW23233   3.906   0.527   1.236
 7445SOL    HW123234   3.881   0.622   1.256
 7445SOL    HW223235   4.003   0.513   1.259
 7446SOL     OW23236   5.625   3.119   0.451
 7446SOL    HW123237   5.610   3.032   0.404
 7446SOL    HW223238   5.684   3.104   0.531
 7447SOL     OW23239   6.101   3.789   0.108
 7447SOL    HW123240   6.162   3.868   0.109
 7447SOL    HW223241   6.045   3.791   0.025
 7448SOL     OW23242   6.757   6.890   5.219
 7448SOL    HW123243   6.822   6.849   5.282
 7448SOL    HW223244   6.806   6.927   5.140
 7449SOL     OW23245   0.431   4.439   2.080
 7449SOL    HW123246   0.371   4.454   2.158
 7449SOL    HW223247   0.489   4.359   2.097
 7450SOL     OW23248   5.544   2.810   5.404
 7450SOL    HW123249   5.486   2.891   5.410
 7450SOL    HW223250   5.487   2.728   5.403
 7451SOL     OW23251   6.693   5.874   2.833
 7451SOL    HW123252   6.763   5.870   2.762
 7451SOL    HW223253   6.607   5.840   2.797
 7452SOL     OW23254   6.088   6.002   4.109
 7452SOL    HW123255   6.013   6.039   4.054
 7452SOL    HW223256   6.052   5.935   4.174
 7453SOL     OW23257   5.500   5.866   5.319
 7453SOL    HW123258   5.581   5.885   5.263
 7453SOL    HW223259   5.519   5.789   5.380
 7454SOL     OW23260   1.405   2.139   1.451
 7454SOL    HW123261   1.316   2.162   1.490
 7454SOL    HW223262   1.476   2.197   1.491
 7455SOL     OW23263   6.666   2.659   1.457
 7455SOL    HW123264   6.605   2.579   1.454
 7455SOL    HW223265   6.630   2.730   1.397
 7456SOL     OW23266   1.234   1.070   4.789
 7456SOL    HW123267   1.258   0.984   4.835
 7456SOL    HW223268   1.266   1.147   4.844
 7457SOL     OW23269   3.540   0.901   5.062
 7457SOL    HW123270   3.469   0.914   4.993
 7457SOL    HW223271   3.564   0.804   5.067
 7458SOL     OW23272   1.940   6.772   5.827
 7458SOL    HW123273   1.997   6.693   5.849
 7458SOL    HW223274   1.853   6.765   5.876
 7459SOL     OW23275   4.910   0.634   2.223
 7459SOL    HW123276   4.822   0.634   2.270
 7459SOL    HW223277   4.903   0.687   2.139
 7460SOL     OW23278   0.684   4.996   0.549
 7460SOL    HW123279   0.624   4.937   0.603
 7460SOL    HW223280   0.632   5.076   0.518
 7461SOL     OW23281   6.278   0.070   6.744
 7461SOL    HW123282   6.209   0.035   6.680
 7461SOL    HW223283   6.368   0.071   6.699
 7462SOL     OW23284   1.559   4.274   2.290
 7462SOL    HW123285   1.602   4.363   2.298
 7462SOL    HW223286   1.602   4.223   2.215
 7463SOL     OW23287   2.771   4.811   1.004
 7463SOL    HW123288   2.737   4.816   1.098
 7463SOL    HW223289   2.856   4.863   0.996
 7464SOL     OW23290   5.679   6.388   6.295
 7464SOL    HW123291   5.700   6.398   6.198
 7464SOL    HW223292   5.749   6.436   6.349
 7465SOL     OW23293   2.934   5.632   6.358
 7465SOL    HW123294   3.022   5.678   6.348
 7465SOL    HW223295   2.910   5.587   6.272
 7466SOL     OW23296   0.392   0.338   4.798
 7466SOL    HW123297   0.317   0.293   4.750
 7466SOL    HW223298   0.479   0.313   4.756
 7467SOL     OW23299   0.611   1.415   0.385
 7467SOL    HW123300   0.704   1.394   0.415
 7467SOL    HW223301   0.563   1.464   0.458
 7468SOL     OW23302   5.872   2.497   3.846
 7468SOL    HW123303   5.849   2.403   3.818
 7468SOL    HW223304   5.789   2.551   3.853
 7469SOL     OW23305   6.654   0.869   6.978
 7469SOL    HW123306   6.669   0.904   6.885
 7469SOL    HW223307   6.599   0.934   0.009
 7470SOL     OW23308   5.851   3.933   3.318
 7470SOL    HW123309   5.845   3.834   3.304
 7470SOL    HW223310   5.762   3.968   3.348
 7471SOL     OW23311   5.331   6.802   5.799
 7471SOL    HW123312   5.332   6.892   5.753
 7471SOL    HW223313   5.384   6.737   5.745
 7472SOL     OW23314   6.049   0.788   6.142
 7472SOL    HW123315   5.952   0.793   6.168
 7472SOL    HW223316   6.057   0.803   6.044
 7473SOL     OW23317   5.800   5.345   4.352
 7473SOL    HW123318   5.701   5.331   4.343
 7473SOL    HW223319   5.835   5.283   4.422
 7474SOL     OW23320   0.399   1.626   5.905
 7474SOL    HW123321   0.365   1.665   5.819
 7474SOL    HW223322   0.366   1.680   5.982
 7475SOL     OW23323   4.616   2.597   2.637
 7475SOL    HW123324   4.603   2.614   2.539
 7475SOL    HW223325   4.709   2.624   2.663
 7476SOL     OW23326   3.572   0.889   3.857
 7476SOL    HW123327   3.640   0.817   3.841
 7476SOL    HW223328   3.512   0.896   3.778
 7477SOL     OW23329   0.283   1.719   5.654
 7477SOL    HW123330   0.298   1.632   5.607
 7477SOL    HW223331   0.197   1.760   5.623
 7478SOL     OW23332   5.875   3.685   5.314
 7478SOL    HW123333   5.969   3.714   5.295
 7478SOL    HW223334   5.815   3.720   5.242
 7479SOL     OW23335   4.199   2.262   2.441
 7479SOL    HW123336   4.218   2.265   2.343
 7479SOL    HW223337   4.264   2.321   2.490
 7480SOL     OW23338   1.633   4.289   2.864
 7480SOL    HW123339   1.544   4.329   2.843
 7480SOL    HW223340   1.620   4.193   2.890
 7481SOL     OW23341   5.423   5.796   0.904
 7481SOL    HW123342   5.488   5.866   0.934
 7481SOL    HW223343   5.473   5.720   0.862
 7482SOL     OW23344   4.561   2.418   3.055
 7482SOL    HW123345   4.571   2.508   3.012
 7482SOL    HW223346   4.634   2.405   3.123
 7483SOL     OW23347   4.882   3.391   4.465
 7483SOL    HW123348   4.867   3.397   4.367
 7483SOL    HW223349   4.883   3.484   4.504
 7484SOL     OW23350   1.217   6.539   3.950
 7484SOL    HW123351   1.203   6.625   3.999
 7484SOL    HW223352   1.306   6.540   3.906
 7485SOL     OW23353   3.822   0.141   4.272
 7485SOL    HW123354   3.822   0.054   4.321
 7485SOL    HW223355   3.744   0.196   4.300
 7486SOL     OW23356   1.780   5.945   0.502
 7486SOL    HW123357   1.869   5.912   0.471
 7486SOL    HW223358   1.746   5.886   0.575
 7487SOL     OW23359   2.350   0.356   2.885
 7487SOL    HW123360   2.277   0.421   2.911
 7487SOL    HW223361   2.423   0.360   2.954
 7488SOL     OW23362   2.531   5.717   4.563
 7488SOL    HW123363   2.463   5.790   4.562
 7488SOL    HW223364   2.485   5.628   4.563
 7489SOL     OW23365   6.170   2.748   6.219
 7489SOL    HW123366   6.096   2.777   6.158
 7489SOL    HW223367   6.235   2.691   6.168
 7490SOL     OW23368   1.495   0.385   2.901
 7490SOL    HW123369   1.502   0.372   2.999
 7490SOL    HW223370   1.565   0.450   2.871
 7491SOL     OW23371   4.124   3.476   6.754
 7491SOL    HW123372   4.153   3.394   6.802
 7491SOL    HW223373   4.202   3.538   6.742
 7492SOL     OW23374   1.702   0.476   3.579
 7492SOL    HW123375   1.605   0.497   3.564
 7492SOL    HW223376   1.758   0.557   3.561
 7493SOL     OW23377   0.494   3.299   6.734
 7493SOL    HW123378   0.511   3.210   6.777
 7493SOL    HW223379   0.422   3.346   6.785
 7494SOL     OW23380   5.568   1.787   2.866
 7494SOL    HW123381   5.580   1.778   2.965
 7494SOL    HW223382   5.471   1.780   2.844
 7495SOL     OW23383   1.796   2.265   6.630
 7495SOL    HW123384   1.881   2.310   6.655
 7495SOL    HW223385   1.814   2.196   6.560
 7496SOL     OW23386   6.685   3.143   3.746
 7496SOL    HW123387   6.659   3.071   3.810
 7496SOL    HW223388   6.785   3.146   3.739
 7497SOL     OW23389   2.321   4.732   0.636
 7497SOL    HW123390   2.250   4.759   0.700
 7497SOL    HW223391   2.370   4.652   0.672
 7498SOL     OW23392   3.361   0.972   4.841
 7498SOL    HW123393   3.361   0.889   4.785
 7498SOL    HW223394   3.267   1.000   4.858
 7499SOL     OW23395   4.333   1.740   3.401
 7499SOL    HW123396   4.290   1.650   3.409
 7499SOL    HW223397   4.395   1.740   3.322
 7500SOL     OW23398   3.172   5.781   3.182
 7500SOL    HW123399   3.185   5.868   3.230
 7500SOL    HW223400   3.201   5.706   3.241
 7501SOL     OW23401   5.179   3.921   4.755
 7501SOL    HW123402   5.112   3.896   4.825
 7501SOL    HW223403   5.172   4.018   4.734
 7502SOL     OW23404   3.032   1.034   4.209
 7502SOL    HW123405   2.949   1.046   4.155
 7502SOL    HW223406   3.098   1.105   4.186
 7503SOL     OW23407   1.944   6.563   1.304
 7503SOL    HW123408   1.866   6.510   1.270
 7503SOL    HW223409   1.911   6.649   1.343
 7504SOL     OW23410   0.645   6.329   3.578
 7504SOL    HW123411   0.622   6.358   3.671
 7504SOL    HW223412   0.573   6.357   3.515
 7505SOL     OW23413   2.052   3.024   5.747
 7505SOL    HW123414   1.956   3.048   5.761
 7505SOL    HW223415   2.093   3.088   5.682
 7506SOL     OW23416   5.696   1.744   3.104
 7506SOL    HW123417   5.658   1.802   3.176
 7506SOL    HW223418   5.715   1.653   3.141
 7507SOL     OW23419   6.985   1.774   2.487
 7507SOL    HW123420   0.057   1.797   2.514
 7507SOL    HW223421   6.961   1.824   2.403
 7508SOL     OW23422   1.512   5.917   1.333
 7508SOL    HW123423   1.552   5.995   1.381
 7508SOL    HW223424   1.483   5.848   1.400
 7509SOL     OW23425   5.879   3.787   0.377
 7509SOL    HW123426   5.959   3.839   0.349
 7509SOL    HW223427   5.868   3.792   0.476
 7510SOL     OW23428   2.970   3.657   4.954
 7510SOL    HW123429   3.063   3.624   4.967
 7510SOL    HW223430   2.906   3.582   4.968
 7511SOL     OW23431   2.669   6.028   3.565
 7511SOL    HW123432   2.761   6.001   3.536
 7511SOL    HW223433   2.640   5.971   3.641
 7512SOL     OW23434   2.777   0.478   6.475
 7512SOL    HW123435   2.679   0.460   6.470
 7512SOL    HW223436   2.827   0.400   6.438
 7513SOL     OW23437   1.585   1.193   1.701
 7513SOL    HW123438   1.663   1.255   1.696
 7513SOL    HW223439   1.501   1.245   1.715
 7514SOL     OW23440   2.368   4.884   2.471
 7514SOL    HW123441   2.311   4.922   2.545
 7514SOL    HW223442   2.432   4.954   2.439
 7515SOL     OW23443   6.737   5.524   4.427
 7515SOL    HW123444   6.776   5.557   4.341
 7515SOL    HW223445   6.760   5.427   4.439
 7516SOL     OW23446   6.386   5.386   5.974
 7516SOL    HW123447   6.413   5.476   5.941
 7516SOL    HW223448   6.459   5.320   5.956
 7517SOL     OW23449   6.886   1.709   0.827
 7517SOL    HW123450   6.927   1.704   0.736
 7517SOL    HW223451   6.858   1.804   0.846
 7518SOL     OW23452   5.108   3.861   4.327
 7518SOL    HW123453   5.056   3.878   4.243
 7518SOL    HW223454   5.141   3.767   4.327
 7519SOL     OW23455   0.803   6.417   4.476
 7519SOL    HW123456   0.849   6.498   4.441
 7519SOL    HW223457   0.718   6.444   4.522
 7520SOL     OW23458   2.356   0.006   2.578
 7520SOL    HW123459   2.454   7.005   2.579
 7520SOL    HW223460   2.325   0.010   2.483
 7521SOL     OW23461   4.850   2.460   5.178
 7521SOL    HW123462   4.844   2.511   5.091
 7521SOL    HW223463   4.927   2.495   5.231
 7522SOL     OW23464   1.539   1.399   6.198
 7522SOL    HW123465   1.632   1.426   6.174
 7522SOL    HW223466   1.481   1.401   6.116
 7523SOL     OW23467   5.015   0.210   6.441
 7523SOL    HW123468   5.010   0.112   6.461
 7523SOL    HW223469   5.040   0.260   6.524
 7524SOL     OW23470   1.024   2.927   5.078
 7524SOL    HW123471   0.949   2.989   5.056
 7524SOL    HW223472   1.067   2.896   4.993
 7525SOL     OW23473   3.600   0.921   6.481
 7525SOL    HW123474   3.565   1.013   6.460
 7525SOL    HW223475   3.582   0.860   6.403
 7526SOL     OW23476   3.074   3.104   1.318
 7526SOL    HW123477   3.161   3.082   1.274
 7526SOL    HW223478   3.070   3.060   1.408
 7527SOL     OW23479   2.969   6.354   3.749
 7527SOL    HW123480   3.045   6.406   3.787
 7527SOL    HW223481   2.905   6.416   3.704
 7528SOL     OW23482   6.156   2.361   0.413
 7528SOL    HW123483   6.186   2.421   0.339
 7528SOL    HW223484   6.069   2.318   0.387
 7529SOL     OW23485   5.589   1.714   4.388
 7529SOL    HW123486   5.675   1.766   4.395
 7529SOL    HW223487   5.533   1.732   4.469
 7530SOL     OW23488   7.021   2.741   2.422
 7530SOL    HW123489   0.090   2.702   2.440
 7530SOL    HW223490   6.951   2.674   2.443
 7531SOL     OW23491   5.525   2.744   4.581
 7531SOL    HW123492   5.521   2.753   4.681
 7531SOL    HW223493   5.439   2.773   4.541
 7532SOL     OW23494   4.330   6.239   0.079
 7532SOL    HW123495   4.333   6.186   7.016
 7532SOL    HW223496   4.235   6.259   0.103
 7533SOL     OW23497   3.464   1.799   1.674
 7533SOL    HW123498   3.488   1.890   1.708
 7533SOL    HW223499   3.364   1.791   1.667
 7534SOL     OW23500   4.826   6.129   5.101
 7534SOL    HW123501   4.810   6.091   5.192
 7534SOL    HW223502   4.904   6.081   5.059
 7535SOL     OW23503   2.011   0.063   4.779
 7535SOL    HW123504   2.002   0.162   4.775
 7535SOL    HW223505   2.067   0.038   4.858
 7536SOL     OW23506   5.633   4.129   4.267
 7536SOL    HW123507   5.644   4.034   4.296
 7536SOL    HW223508   5.563   4.173   4.323
 7537SOL     OW23509   2.035   5.090   2.318
 7537SOL    HW123510   1.940   5.088   2.288
 7537SOL    HW223511   2.039   5.119   2.413
 7538SOL     OW23512   1.963   2.415   1.442
 7538SOL    HW123513   1.989   2.445   1.534
 7538SOL    HW223514   1.913   2.488   1.396
 7539SOL     OW23515   1.600   3.523   4.341
 7539SOL    HW123516   1.594   3.587   4.417
 7539SOL    HW223517   1.540   3.445   4.357
 7540SOL     OW23518   4.356   0.823   4.792
 7540SOL    HW123519   4.405   0.759   4.733
 7540SOL    HW223520   4.422   0.873   4.849
 7541SOL     OW23521   0.361   4.111   5.017
 7541SOL    HW123522   0.320   4.160   4.940
 7541SOL    HW223523   0.372   4.174   5.094
 7542SOL     OW23524   1.042   5.567   6.856
 7542SOL    HW123525   1.098   5.574   6.774
 7542SOL    HW223526   1.015   5.472   6.871
 7543SOL     OW23527   3.842   1.177   5.229
 7543SOL    HW123528   3.885   1.096   5.269
 7543SOL    HW223529   3.788   1.150   5.148
 7544SOL     OW23530   6.097   2.168   3.535
 7544SOL    HW123531   6.159   2.228   3.585
 7544SOL    HW223532   6.052   2.106   3.599
 7545SOL     OW23533   0.845   5.929   6.699
 7545SOL    HW123534   0.914   6.001   6.695
 7545SOL    HW223535   0.766   5.954   6.643
 7546SOL     OW23536   4.270   1.744   1.402
 7546SOL    HW123537   4.272   1.685   1.483
 7546SOL    HW223538   4.318   1.698   1.327
 7547SOL     OW23539   5.515   1.327   0.619
 7547SOL    HW123540   5.556   1.418   0.620
 7547SOL    HW223541   5.494   1.299   0.713
 7548SOL     OW23542   4.211   2.142   6.902
 7548SOL    HW123543   4.259   2.054   6.902
 7548SOL    HW223544   4.246   2.199   6.977
 7549SOL     OW23545   3.237   3.178   6.962
 7549SOL    HW123546   3.329   3.171   6.925
 7549SOL    HW223547   3.224   3.267   7.005
 7550SOL     OW23548   2.022   4.622   4.035
 7550SOL    HW123549   2.100   4.678   4.007
 7550SOL    HW223550   1.939   4.656   3.991
 7551SOL     OW23551   6.057   2.928   5.180
 7551SOL    HW123552   6.122   2.919   5.256
 7551SOL    HW223553   6.041   3.025   5.162
 7552SOL     OW23554   1.433   6.292   3.795
 7552SOL    HW123555   1.451   6.390   3.787
 7552SOL    HW223556   1.446   6.248   3.706
 7553SOL     OW23557   4.137   6.978   5.613
 7553SOL    HW123558   4.155   0.048   5.648
 7553SOL    HW223559   4.201   6.913   5.653
 7554SOL     OW23560   5.368   0.749   6.534
 7554SOL    HW123561   5.369   0.800   6.620
 7554SOL    HW223562   5.290   0.686   6.533
 7555SOL     OW23563   3.407   5.525   6.610
 7555SOL    HW123564   3.481   5.590   6.626
 7555SOL    HW223565   3.397   5.466   6.690
 7556SOL     OW23566   2.541   3.035   0.144
 7556SOL    HW123567   2.446   3.021   0.174
 7556SOL    HW223568   2.554   3.130   0.116
 7557SOL     OW23569   5.478   0.336   6.240
 7557SOL    HW123570   5.509   0.356   6.147
 7557SOL    HW223571   5.558   0.317   6.298
 7558SOL     OW23572   1.969   2.725   4.759
 7558SOL    HW123573   2.027   2.807   4.763
 7558SOL    HW223574   1.899   2.730   4.830
 7559SOL     OW23575   4.352   3.486   0.133
 7559SOL    HW123576   4.311   3.543   0.205
 7559SOL    HW223577   4.414   3.542   0.078
 7560SOL     OW23578   4.725   0.025   0.483
 7560SOL    HW123579   4.681   6.957   0.465
 7560SOL    HW223580   4.743   0.034   0.580
 7561SOL     OW23581   0.013   3.394   6.264
 7561SOL    HW123582   0.012   3.320   6.198
 7561SOL    HW223583   6.940   3.424   6.281
 7562SOL     OW23584   0.305   5.825   5.708
 7562SOL    HW123585   0.235   5.792   5.645
 7562SOL    HW223586   0.396   5.802   5.672
 7563SOL     OW23587   3.142   0.085   1.455
 7563SOL    HW123588   3.061   0.128   1.416
 7563SOL    HW223589   3.217   0.086   1.389
 7564SOL     OW23590   4.434   0.775   3.786
 7564SOL    HW123591   4.349   0.826   3.772
 7564SOL    HW223592   4.417   0.695   3.844
 7565SOL     OW23593   6.161   3.502   6.653
 7565SOL    HW123594   6.171   3.405   6.674
 7565SOL    HW223595   6.236   3.553   6.695
 7566SOL     OW23596   6.095   5.389   2.642
 7566SOL    HW123597   6.051   5.476   2.664
 7566SOL    HW223598   6.114   5.339   2.727
 7567SOL     OW23599   1.914   1.268   5.627
 7567SOL    HW123600   1.838   1.302   5.571
 7567SOL    HW223601   1.915   1.315   5.715
 7568SOL     OW23602   5.577   4.884   2.909
 7568SOL    HW123603   5.515   4.852   2.980
 7568SOL    HW223604   5.667   4.903   2.949
 7569SOL     OW23605   3.185   4.519   6.112
 7569SOL    HW123606   3.221   4.502   6.021
 7569SOL    HW223607   3.177   4.618   6.127
 7570SOL     OW23608   5.652   3.973   4.670
 7570SOL    HW123609   5.599   3.943   4.750
 7570SOL    HW223610   5.592   3.976   4.590
 7571SOL     OW23611   4.604   4.323   3.508
 7571SOL    HW123612   4.670   4.248   3.511
 7571SOL    HW223613   4.573   4.344   3.601
 7572SOL     OW23614   4.743   0.858   2.287
 7572SOL    HW123615   4.771   0.954   2.281
 7572SOL    HW223616   4.819   0.800   2.259
 7573SOL     OW23617   0.436   6.823   4.770
 7573SOL    HW123618   0.371   6.835   4.844
 7573SOL    HW223619   0.513   6.768   4.802
 7574SOL     OW23620   4.860   0.854   5.658
 7574SOL    HW123621   4.853   0.862   5.757
 7574SOL    HW223622   4.922   0.924   5.623
 7575SOL     OW23623   5.347   0.096   6.870
 7575SOL    HW123624   5.442   0.074   6.853
 7575SOL    HW223625   5.298   0.104   6.782
 7576SOL     OW23626   5.099   3.127   0.359
 7576SOL    HW123627   5.008   3.100   0.328
 7576SOL    HW223628   5.145   3.049   0.400
 7577SOL     OW23629   0.695   6.677   0.050
 7577SOL    HW123630   0.669   6.615   0.124
 7577SOL    HW223631   0.733   6.624   6.995
 7578SOL     OW23632   3.232   5.252   2.414
 7578SOL    HW123633   3.286   5.235   2.332
 7578SOL    HW223634   3.254   5.342   2.451
 7579SOL     OW23635   0.080   0.923   1.919
 7579SOL    HW123636   0.124   0.916   1.830
 7579SOL    HW223637   0.073   1.019   1.945
 7580SOL     OW23638   0.785   3.740   3.982
 7580SOL    HW123639   0.800   3.693   4.070
 7580SOL    HW223640   0.874   3.761   3.941
 7581SOL     OW23641   0.449   1.847   1.226
 7581SOL    HW123642   0.387   1.921   1.201
 7581SOL    HW223643   0.528   1.848   1.164
 7582SOL     OW23644   3.868   1.464   3.304
 7582SOL    HW123645   3.912   1.386   3.259
 7582SOL    HW223646   3.913   1.548   3.275
 7583SOL     OW23647   4.990   2.722   2.258
 7583SOL    HW123648   4.915   2.745   2.196
 7583SOL    HW223649   4.983   2.626   2.284
 7584SOL     OW23650   2.943   0.962   3.271
 7584SOL    HW123651   2.997   0.997   3.348
 7584SOL    HW223652   2.849   0.995   3.279
 7585SOL     OW23653   1.754   2.963   6.086
 7585SOL    HW123654   1.787   2.963   6.180
 7585SOL    HW223655   1.831   2.958   6.023
 7586SOL     OW23656   2.382   6.800   3.833
 7586SOL    HW123657   2.411   6.889   3.868
 7586SOL    HW223658   2.431   6.728   3.881
 7587SOL     OW23659   2.090   1.826   6.294
 7587SOL    HW123660   2.144   1.828   6.210
 7587SOL    HW223661   2.149   1.804   6.371
 7588SOL     OW23662   2.084   2.861   3.629
 7588SOL    HW123663   2.145   2.791   3.593
 7588SOL    HW223664   2.132   2.914   3.699
 7589SOL     OW23665   0.262   0.458   2.235
 7589SOL    HW123666   0.327   0.447   2.160
 7589SOL    HW223667   0.185   0.514   2.205
 7590SOL     OW23668   4.125   1.816   6.703
 7590SOL    HW123669   4.074   1.745   6.653
 7590SOL    HW223670   4.219   1.819   6.669
 7591SOL     OW23671   5.790   4.572   0.537
 7591SOL    HW123672   5.804   4.583   0.438
 7591SOL    HW223673   5.856   4.507   0.573
 7592SOL     OW23674   6.206   5.847   4.683
 7592SOL    HW123675   6.205   5.751   4.710
 7592SOL    HW223676   6.128   5.894   4.724
 7593SOL     OW23677   6.583   3.205   7.001
 7593SOL    HW123678   6.659   3.142   6.985
 7593SOL    HW223679   6.511   3.189   6.933
 7594SOL     OW23680   1.603   4.538   2.127
 7594SOL    HW123681   1.634   4.461   2.072
 7594SOL    HW223682   1.667   4.553   2.203
 7595SOL     OW23683   5.894   3.260   5.936
 7595SOL    HW123684   5.856   3.167   5.929
 7595SOL    HW223685   5.912   3.282   6.031
 7596SOL     OW23686   3.433   6.405   4.231
 7596SOL    HW123687   3.397   6.427   4.140
 7596SOL    HW223688   3.529   6.380   4.223
 7597SOL     OW23689   1.631   6.845   2.813
 7597SOL    HW123690   1.663   6.918   2.752
 7597SOL    HW223691   1.709   6.791   2.844
 7598SOL     OW23692   6.955   0.798   3.218
 7598SOL    HW123693   7.005   0.760   3.141
 7598SOL    HW223694   7.012   0.795   3.300
 7599SOL     OW23695   5.506   2.447   2.730
 7599SOL    HW123696   5.421   2.425   2.777
 7599SOL    HW223697   5.572   2.373   2.742
 7600SOL     OW23698   0.926   1.656   3.659
 7600SOL    HW123699   0.927   1.734   3.597
 7600SOL    HW223700   1.014   1.651   3.708
 7601SOL     OW23701   2.555   5.009   2.112
 7601SOL    HW123702   2.643   4.982   2.073
 7601SOL    HW223703   2.482   4.957   2.068
 7602SOL     OW23704   1.804   3.466   6.887
 7602SOL    HW123705   1.712   3.449   6.925
 7602SOL    HW223706   1.855   3.380   6.887
 7603SOL     OW23707   1.984   5.839   6.407
 7603SOL    HW123708   1.890   5.870   6.423
 7603SOL    HW223709   1.992   5.743   6.431
 7604SOL     OW23710   1.492   2.888   4.221
 7604SOL    HW123711   1.474   2.789   4.221
 7604SOL    HW223712   1.537   2.914   4.136
 7605SOL     OW23713   1.312   0.333   0.989
 7605SOL    HW123714   1.379   0.327   0.916
 7605SOL    HW223715   1.356   0.368   1.072
 7606SOL     OW23716   6.026   2.932   4.720
 7606SOL    HW123717   6.101   2.999   4.720
 7606SOL    HW223718   5.947   2.971   4.672
 7607SOL     OW23719   3.502   5.073   0.642
 7607SOL    HW123720   3.430   5.099   0.578
 7607SOL    HW223721   3.464   5.065   0.734
 7608SOL     OW23722   4.050   3.457   0.898
 7608SOL    HW123723   4.033   3.368   0.856
 7608SOL    HW223724   4.145   3.463   0.927
 7609SOL     OW23725   1.764   3.103   4.150
 7609SOL    HW123726   1.697   3.055   4.093
 7609SOL    HW223727   1.816   3.037   4.204
 7610SOL     OW23728   4.145   4.455   6.493
 7610SOL    HW123729   4.237   4.449   6.530
 7610SOL    HW223730   4.146   4.509   6.409
 7611SOL     OW23731   5.388   3.802   1.379
 7611SOL    HW123732   5.379   3.868   1.453
 7611SOL    HW223733   5.378   3.849   1.291
 7612SOL     OW23734   5.027   3.211   2.342
 7612SOL    HW123735   5.030   3.310   2.356
 7612SOL    HW223736   4.990   3.190   2.252
 7613SOL     OW23737   0.646   2.019   1.053
 7613SOL    HW123738   0.658   1.933   1.003
 7613SOL    HW223739   0.600   2.085   0.994
 7614SOL     OW23740   5.733   3.076   0.695
 7614SOL    HW123741   5.792   2.995   0.695
 7614SOL    HW223742   5.660   3.065   0.763
 7615SOL     OW23743   4.015   4.543   6.802
 7615SOL    HW123744   4.089   4.500   6.752
 7615SOL    HW223745   4.024   4.643   6.796
 7616SOL     OW23746   6.625   6.430   4.851
 7616SOL    HW123747   6.704   6.429   4.789
 7616SOL    HW223748   6.640   6.365   4.925
 7617SOL     OW23749   3.332   6.229   3.505
 7617SOL    HW123750   3.410   6.279   3.465
 7617SOL    HW223751   3.262   6.294   3.534
 7618SOL     OW23752   0.325   2.549   6.319
 7618SOL    HW123753   0.342   2.642   6.354
 7618SOL    HW223754   0.258   2.554   6.245
 7619SOL     OW23755   6.706   3.095   4.765
 7619SOL    HW123756   6.645   3.130   4.836
 7619SOL    HW223757   6.695   2.996   4.757
 7620SOL     OW23758   3.961   5.601   1.724
 7620SOL    HW123759   3.936   5.691   1.688
 7620SOL    HW223760   3.913   5.530   1.672
 7621SOL     OW23761   6.745   0.943   0.789
 7621SOL    HW123762   6.790   0.903   0.709
 7621SOL    HW223763   6.814   0.978   0.852
 7622SOL     OW23764   4.340   4.427   5.939
 7622SOL    HW123765   4.385   4.344   5.906
 7622SOL    HW223766   4.398   4.472   6.007
 7623SOL     OW23767   4.739   4.426   6.942
 7623SOL    HW123768   4.660   4.370   6.915
 7623SOL    HW223769   4.737   4.441   0.019
 7624SOL     OW23770   6.763   3.784   4.708
 7624SOL    HW123771   6.803   3.842   4.637
 7624SOL    HW223772   6.696   3.722   4.667
 7625SOL     OW23773   5.327   1.221   0.100
 7625SOL    HW123774   5.400   1.155   0.083
 7625SOL    HW223775   5.250   1.175   0.144
 7626SOL     OW23776   6.215   0.366   5.378
 7626SOL    HW123777   6.213   0.342   5.281
 7626SOL    HW223778   6.296   0.325   5.420
 7627SOL     OW23779   3.839   3.002   0.871
 7627SOL    HW123780   3.810   2.978   0.778
 7627SOL    HW223781   3.839   2.920   0.928
 7628SOL     OW23782   3.249   2.870   2.289
 7628SOL    HW123783   3.237   2.811   2.209
 7628SOL    HW223784   3.343   2.866   2.321
 7629SOL     OW23785   0.090   4.804   3.473
 7629SOL    HW123786   0.030   4.864   3.420
 7629SOL    HW223787   0.051   4.790   3.564
 7630SOL     OW23788   0.693   0.734   0.637
 7630SOL    HW123789   0.600   0.746   0.673
 7630SOL    HW223790   0.717   0.813   0.580
 7631SOL     OW23791   0.993   2.441   5.748
 7631SOL    HW123792   0.956   2.378   5.680
 7631SOL    HW223793   1.082   2.409   5.779
 7632SOL     OW23794   4.980   4.079   0.742
 7632SOL    HW123795   5.044   4.118   0.808
 7632SOL    HW223796   4.894   4.057   0.788
 7633SOL     OW23797   5.328   0.709   1.784
 7633SOL    HW123798   5.424   0.740   1.784
 7633SOL    HW223799   5.271   0.778   1.829
 7634SOL     OW23800   2.303   1.305   1.789
 7634SOL    HW123801   2.328   1.248   1.711
 7634SOL    HW223802   2.301   1.401   1.761
 7635SOL     OW23803   3.472   4.962   5.160
 7635SOL    HW123804   3.397   5.012   5.204
 7635SOL    HW223805   3.475   4.869   5.196
 7636SOL     OW23806   1.316   3.083   4.244
 7636SOL    HW123807   1.389   3.015   4.236
 7636SOL    HW223808   1.229   3.038   4.262
 7637SOL     OW23809   2.753   6.280   2.246
 7637SOL    HW123810   2.702   6.199   2.220
 7637SOL    HW223811   2.847   6.256   2.267
 7638SOL     OW23812   2.022   5.443   2.079
 7638SOL    HW123813   1.923   5.442   2.064
 7638SOL    HW223814   2.049   5.360   2.128
 7639SOL     OW23815   0.391   1.378   0.954
 7639SOL    HW123816   0.420   1.296   0.906
 7639SOL    HW223817   0.295   1.368   0.983
 7640SOL     OW23818   2.662   1.443   5.629
 7640SOL    HW123819   2.745   1.469   5.580
 7640SOL    HW223820   2.674   1.352   5.671
 7641SOL     OW23821   1.008   3.558   2.566
 7641SOL    HW123822   1.046   3.600   2.483
 7641SOL    HW223823   0.914   3.589   2.579
 7642SOL     OW23824   3.472   1.612   2.671
 7642SOL    HW123825   3.404   1.652   2.608
 7642SOL    HW223826   3.564   1.625   2.633
 7643SOL     OW23827   5.364   1.869   3.140
 7643SOL    HW123828   5.348   1.959   3.099
 7643SOL    HW223829   5.434   1.877   3.211
 7644SOL     OW23830   4.605   2.645   2.389
 7644SOL    HW123831   4.651   2.575   2.335
 7644SOL    HW223832   4.639   2.735   2.363
 7645SOL     OW23833   5.117   3.764   5.657
 7645SOL    HW123834   5.113   3.768   5.757
 7645SOL    HW223835   5.164   3.680   5.629
 7646SOL     OW23836   1.215   2.770   4.143
 7646SOL    HW123837   1.157   2.715   4.204
 7646SOL    HW223838   1.214   2.731   4.051
 7647SOL     OW23839   0.029   2.273   3.637
 7647SOL    HW123840   0.036   2.295   3.734
 7647SOL    HW223841   0.113   2.229   3.606
 7648SOL     OW23842   2.589   1.841   2.482
 7648SOL    HW123843   2.628   1.892   2.405
 7648SOL    HW223844   2.557   1.906   2.552
 7649SOL     OW23845   1.609   0.382   3.922
 7649SOL    HW123846   1.524   0.331   3.910
 7649SOL    HW223847   1.677   0.347   3.858
 7650SOL     OW23848   5.655   0.483   0.139
 7650SOL    HW123849   5.671   0.471   0.237
 7650SOL    HW223850   5.623   0.396   0.100
 7651SOL     OW23851   2.227   0.310   4.319
 7651SOL    HW123852   2.277   0.363   4.388
 7651SOL    HW223853   2.245   0.213   4.333
 7652SOL     OW23854   5.537   2.335   4.474
 7652SOL    HW123855   5.469   2.356   4.404
 7652SOL    HW223856   5.593   2.415   4.492
 7653SOL     OW23857   0.695   1.678   0.227
 7653SOL    HW123858   0.775   1.675   0.287
 7653SOL    HW223859   0.675   1.585   0.196
 7654SOL     OW23860   4.839   3.104   4.118
 7654SOL    HW123861   4.841   3.202   4.139
 7654SOL    HW223862   4.930   3.075   4.087
 7655SOL     OW23863   4.218   6.407   3.754
 7655SOL    HW123864   4.153   6.438   3.684
 7655SOL    HW223865   4.295   6.362   3.709
 7656SOL     OW23866   3.930   4.087   6.987
 7656SOL    HW123867   3.951   3.994   7.014
 7656SOL    HW223868   4.003   4.123   6.930
 7657SOL     OW23869   1.422   2.170   3.282
 7657SOL    HW123870   1.371   2.085   3.300
 7657SOL    HW223871   1.370   2.228   3.220
 7658SOL     OW23872   2.871   0.196   0.266
 7658SOL    HW123873   2.963   0.168   0.240
 7658SOL    HW223874   2.815   0.115   0.285
 7659SOL     OW23875   5.047   4.596   6.858
 7659SOL    HW123876   5.036   4.661   6.933
 7659SOL    HW223877   5.144   4.571   6.850
 7660SOL     OW23878   6.597   5.825   3.837
 7660SOL    HW123879   6.637   5.736   3.814
 7660SOL    HW223880   6.574   5.827   3.934
 7661SOL     OW23881   5.918   2.500   5.748
 7661SOL    HW123882   5.955   2.469   5.835
 7661SOL    HW223883   5.932   2.428   5.679
 7662SOL     OW23884   1.270   3.104   4.626
 7662SOL    HW123885   1.291   3.086   4.723
 7662SOL    HW223886   1.355   3.104   4.574
 7663SOL     OW23887   6.064   5.141   6.357
 7663SOL    HW123888   5.974   5.161   6.395
 7663SOL    HW223889   6.054   5.105   6.264
 7664SOL     OW23890   3.950   0.953   1.965
 7664SOL    HW123891   3.994   1.039   1.940
 7664SOL    HW223892   3.944   0.947   2.065
 7665SOL     OW23893   6.168   0.909   5.272
 7665SOL    HW123894   6.070   0.916   5.251
 7665SOL    HW223895   6.184   0.826   5.326
 7666SOL     OW23896   0.290   4.635   2.833
 7666SOL    HW123897   0.239   4.612   2.916
 7666SOL    HW223898   0.357   4.705   2.855
 7667SOL     OW23899   3.968   0.515   2.221
 7667SOL    HW123900   3.902   0.532   2.148
 7667SOL    HW223901   4.004   0.602   2.254
 7668SOL     OW23902   2.515   5.190   0.762
 7668SOL    HW123903   2.579   5.243   0.707
 7668SOL    HW223904   2.566   5.139   0.832
 7669SOL     OW23905   4.715   1.118   5.609
 7669SOL    HW123906   4.797   1.063   5.627
 7669SOL    HW223907   4.691   1.111   5.513
 7670SOL     OW23908   0.553   5.308   0.774
 7670SOL    HW123909   0.481   5.291   0.706
 7670SOL    HW223910   0.640   5.322   0.727
 7671SOL     OW23911   3.588   1.009   2.177
 7671SOL    HW123912   3.580   0.939   2.247
 7671SOL    HW223913   3.599   1.098   2.219
 7672SOL     OW23914   0.653   5.646   3.005
 7672SOL    HW123915   0.635   5.724   3.065
 7672SOL    HW223916   0.723   5.671   2.938
 7673SOL     OW23917   2.107   5.904   1.824
 7673SOL    HW123918   2.130   5.814   1.861
 7673SOL    HW223919   2.166   5.973   1.865
 7674SOL     OW23920   4.841   1.091   4.126
 7674SOL    HW123921   4.809   1.168   4.182
 7674SOL    HW223922   4.862   1.013   4.185
 7675SOL     OW23923   5.705   6.355   3.378
 7675SOL    HW123924   5.790   6.387   3.421
 7675SOL    HW223925   5.674   6.423   3.311
 7676SOL     OW23926   3.104   2.277   0.176
 7676SOL    HW123927   3.169   2.347   0.206
 7676SOL    HW223928   3.064   2.305   0.088
 7677SOL     OW23929   0.330   3.949   1.928
 7677SOL    HW123930   0.324   3.863   1.978
 7677SOL    HW223931   0.243   3.998   1.935
 7678SOL     OW23932   2.349   2.789   5.230
 7678SOL    HW123933   2.334   2.752   5.138
 7678SOL    HW223934   2.388   2.880   5.224
 7679SOL     OW23935   2.616   6.435   5.623
 7679SOL    HW123936   2.698   6.438   5.682
 7679SOL    HW223937   2.542   6.389   5.672
 7680SOL     OW23938   1.661   0.984   1.123
 7680SOL    HW123939   1.624   0.891   1.122
 7680SOL    HW223940   1.758   0.981   1.099
 7681SOL     OW23941   2.866   0.637   0.793
 7681SOL    HW123942   2.779   0.632   0.744
 7681SOL    HW223943   2.869   0.721   0.847
 7682SOL     OW23944   4.158   6.879   2.245
 7682SOL    HW123945   4.073   6.890   2.193
 7682SOL    HW223946   4.236   6.895   2.185
 7683SOL     OW23947   0.023   1.554   4.854
 7683SOL    HW123948   6.992   1.584   4.933
 7683SOL    HW223949   0.014   1.455   4.844
 7684SOL     OW23950   4.515   1.183   1.057
 7684SOL    HW123951   4.456   1.263   1.070
 7684SOL    HW223952   4.489   1.112   1.123
 7685SOL     OW23953   2.354   1.882   5.786
 7685SOL    HW123954   2.287   1.909   5.718
 7685SOL    HW223955   2.405   1.802   5.753
 7686SOL     OW23956   6.605   6.441   3.418
 7686SOL    HW123957   6.578   6.428   3.323
 7686SOL    HW223958   6.668   6.519   3.425
 7687SOL     OW23959   6.149   5.375   4.741
 7687SOL    HW123960   6.188   5.283   4.737
 7687SOL    HW223961   6.052   5.369   4.761
 7688SOL     OW23962   0.390   6.147   5.754
 7688SOL    HW123963   0.325   6.072   5.745
 7688SOL    HW223964   0.473   6.114   5.799
 7689SOL     OW23965   5.735   6.520   2.752
 7689SOL    HW123966   5.833   6.502   2.739
 7689SOL    HW223967   5.723   6.597   2.814
 7690SOL     OW23968   6.014   5.501   0.068
 7690SOL    HW123969   5.960   5.449   0.134
 7690SOL    HW223970   6.105   5.519   0.107
 7691SOL     OW23971   5.548   4.251   2.837
 7691SOL    HW123972   5.545   4.323   2.906
 7691SOL    HW223973   5.497   4.171   2.869
 7692SOL     OW23974   0.457   6.305   2.117
 7692SOL    HW123975   0.503   6.256   2.191
 7692SOL    HW223976   0.477   6.259   2.030
 7693SOL     OW23977   3.263   0.755   1.384
 7693SOL    HW123978   3.302   0.677   1.336
 7693SOL    HW223979   3.253   0.733   1.481
 7694SOL     OW23980   5.329   3.469   3.450
 7694SOL    HW123981   5.352   3.421   3.535
 7694SOL    HW223982   5.395   3.543   3.435
 7695SOL     OW23983   5.091   0.576   1.546
 7695SOL    HW123984   5.106   0.477   1.552
 7695SOL    HW223985   5.077   0.613   1.638
 7696SOL     OW23986   6.914   1.315   6.099
 7696SOL    HW123987   7.009   1.323   6.070
 7696SOL    HW223988   6.872   1.406   6.101
 7697SOL     OW23989   2.615   0.314   3.648
 7697SOL    HW123990   2.622   0.287   3.744
 7697SOL    HW223991   2.680   0.388   3.630
 7698SOL     OW23992   5.617   1.345   3.970
 7698SOL    HW123993   5.556   1.275   3.931
 7698SOL    HW223994   5.570   1.433   3.972
 7699SOL     OW23995   2.575   5.661   5.871
 7699SOL    HW123996   2.612   5.568   5.875
 7699SOL    HW223997   2.479   5.660   5.896
 7700SOL     OW23998   4.354   5.489   3.236
 7700SOL    HW123999   4.405   5.423   3.291
 7700SOL    HW224000   4.338   5.572   3.290
 7701SOL     OW24001   6.915   2.707   6.756
 7701SOL    HW124002   7.000   2.688   6.805
 7701SOL    HW224003   6.837   2.672   6.808
 7702SOL     OW24004   4.697   5.897   5.175
 7702SOL    HW124005   4.665   5.985   5.141
 7702SOL    HW224006   4.686   5.893   5.274
 7703SOL     OW24007   5.982   5.779   6.460
 7703SOL    HW124008   5.915   5.844   6.495
 7703SOL    HW224009   6.073   5.807   6.488
 7704SOL     OW24010   5.829   0.605   4.073
 7704SOL    HW124011   5.884   0.689   4.069
 7704SOL    HW224012   5.732   0.628   4.072
 7705SOL     OW24013   2.159   5.917   0.963
 7705SOL    HW124014   2.210   5.836   0.993
 7705SOL    HW224015   2.162   5.986   1.036
 7706SOL     OW24016   3.633   3.256   3.937
 7706SOL    HW124017   3.554   3.247   3.876
 7706SOL    HW224018   3.678   3.167   3.947
 7707SOL     OW24019   6.813   3.996   5.934
 7707SOL    HW124020   6.743   4.003   6.004
 7707SOL    HW224021   6.770   3.973   5.846
 7708SOL     OW24022   1.302   6.531   5.211
 7708SOL    HW124023   1.287   6.437   5.178
 7708SOL    HW224024   1.398   6.555   5.199
 7709SOL     OW24025   6.915   4.858   1.729
 7709SOL    HW124026   6.839   4.828   1.787
 7709SOL    HW224027   6.887   4.936   1.673
 7710SOL     OW24028   2.268   2.267   0.282
 7710SOL    HW124029   2.359   2.242   0.315
 7710SOL    HW224030   2.199   2.224   0.341
 7711SOL     OW24031   6.050   5.600   6.106
 7711SOL    HW124032   6.115   5.547   6.160
 7711SOL    HW224033   5.989   5.650   6.168
 7712SOL     OW24034   6.291   5.291   0.800
 7712SOL    HW124035   6.231   5.345   0.859
 7712SOL    HW224036   6.277   5.316   0.705
 7713SOL     OW24037   1.371   3.873   0.872
 7713SOL    HW124038   1.455   3.858   0.924
 7713SOL    HW224039   1.311   3.794   0.883
 7714SOL     OW24040   6.863   5.034   5.484
 7714SOL    HW124041   6.960   5.047   5.468
 7714SOL    HW224042   6.829   4.961   5.424
 7715SOL     OW24043   3.080   2.501   6.497
 7715SOL    HW124044   3.062   2.436   6.570
 7715SOL    HW224045   3.005   2.568   6.493
 7716SOL     OW24046   6.471   4.397   0.303
 7716SOL    HW124047   6.548   4.454   0.275
 7716SOL    HW224048   6.406   4.451   0.357
 7717SOL     OW24049   0.838   1.263   5.696
 7717SOL    HW124050   0.886   1.237   5.779
 7717SOL    HW224051   0.903   1.301   5.630
 7718SOL     OW24052   6.744   4.125   2.913
 7718SOL    HW124053   6.648   4.103   2.897
 7718SOL    HW224054   6.766   4.112   3.010
 7719SOL     OW24055   0.208   4.251   4.845
 7719SOL    HW124056   0.179   4.316   4.774
 7719SOL    HW224057   0.143   4.254   4.921
 7720SOL     OW24058   6.197   2.753   6.497
 7720SOL    HW124059   6.265   2.680   6.492
 7720SOL    HW224060   6.180   2.789   6.405
 7721SOL     OW24061   0.705   5.407   2.040
 7721SOL    HW124062   0.740   5.339   2.104
 7721SOL    HW224063   0.741   5.497   2.064
 7722SOL     OW24064   1.929   4.362   3.518
 7722SOL    HW124065   1.894   4.325   3.604
 7722SOL    HW224066   1.904   4.301   3.442
 7723SOL     OW24067   3.876   3.726   7.018
 7723SOL    HW124068   3.882   3.644   6.962
 7723SOL    HW224069   3.783   3.764   7.012
 7724SOL     OW24070   3.121   4.247   0.960
 7724SOL    HW124071   3.073   4.272   1.044
 7724SOL    HW224072   3.072   4.172   0.916
 7725SOL     OW24073   6.330   1.360   3.043
 7725SOL    HW124074   6.375   1.271   3.044
 7725SOL    HW224075   6.397   1.433   3.056
 7726SOL     OW24076   1.799   4.618   6.198
 7726SOL    HW124077   1.801   4.695   6.135
 7726SOL    HW224078   1.706   4.607   6.233
 7727SOL     OW24079   6.753   2.478   2.308
 7727SOL    HW124080   6.666   2.492   2.260
 7727SOL    HW224081   6.744   2.508   2.402
 7728SOL     OW24082   2.099   2.979   5.060
 7728SOL    HW124083   2.075   3.015   5.151
 7728SOL    HW224084   2.197   2.993   5.044
 7729SOL     OW24085   5.997   1.141   1.565
 7729SOL    HW124086   5.926   1.193   1.517
 7729SOL    HW224087   6.023   1.189   1.649
 7730SOL     OW24088   6.916   4.993   6.216
 7730SOL    HW124089   6.866   4.910   6.192
 7730SOL    HW224090   6.851   5.068   6.231
 7731SOL     OW24091   6.009   0.168   7.016
 7731SOL    HW124092   5.960   0.090   6.977
 7731SOL    HW224093   6.108   0.151   7.013
 7732SOL     OW24094   3.967   0.122   0.193
 7732SOL    HW124095   3.912   0.081   0.266
 7732SOL    HW224096   3.958   0.068   0.110
 7733SOL     OW24097   5.026   6.540   2.402
 7733SOL    HW124098   5.072   6.575   2.484
 7733SOL    HW224099   4.970   6.460   2.427
 7734SOL     OW24100   1.584   4.896   4.848
 7734SOL    HW124101   1.665   4.839   4.838
 7734SOL    HW224102   1.586   4.970   4.780
 7735SOL     OW24103   5.329   6.010   6.611
 7735SOL    HW124104   5.250   5.959   6.645
 7735SOL    HW224105   5.332   6.004   6.511
 7736SOL     OW24106   2.560   2.748   6.690
 7736SOL    HW124107   2.476   2.782   6.648
 7736SOL    HW224108   2.600   2.819   6.748
 7737SOL     OW24109   3.436   0.325   2.341
 7737SOL    HW124110   3.446   0.260   2.417
 7737SOL    HW224111   3.526   0.357   2.312
 7738SOL     OW24112   2.794   5.229   0.541
 7738SOL    HW124113   2.755   5.138   0.548
 7738SOL    HW224114   2.753   5.289   0.610
 7739SOL     OW24115   1.253   2.152   1.961
 7739SOL    HW124116   1.155   2.162   1.948
 7739SOL    HW224117   1.299   2.163   1.872
 7740SOL     OW24118   2.776   0.951   3.708
 7740SOL    HW124119   2.763   1.011   3.629
 7740SOL    HW224120   2.839   0.877   3.685
 7741SOL     OW24121   0.203   4.458   5.235
 7741SOL    HW124122   0.178   4.453   5.138
 7741SOL    HW224123   0.293   4.416   5.248
 7742SOL     OW24124   4.284   2.345   3.167
 7742SOL    HW124125   4.365   2.381   3.121
 7742SOL    HW224126   4.220   2.310   3.099
 7743SOL     OW24127   4.534   1.546   7.013
 7743SOL    HW124128   4.595   1.605   6.960
 7743SOL    HW224129   4.519   1.461   6.963
 7744SOL     OW24130   1.180   0.122   4.108
 7744SOL    HW124131   1.157   0.061   4.184
 7744SOL    HW224132   1.277   0.110   4.084
 7745SOL     OW24133   3.701   0.751   0.263
 7745SOL    HW124134   3.655   0.752   0.352
 7745SOL    HW224135   3.639   0.718   0.193
 7746SOL     OW24136   1.018   0.322   0.753
 7746SOL    HW124137   1.068   0.401   0.788
 7746SOL    HW224138   0.948   0.353   0.688
 7747SOL     OW24139   6.312   6.396   1.328
 7747SOL    HW124140   6.294   6.305   1.290
 7747SOL    HW224141   6.411   6.414   1.325
 7748SOL     OW24142   3.225   3.948   4.154
 7748SOL    HW124143   3.171   3.970   4.235
 7748SOL    HW224144   3.313   3.909   4.182
 7749SOL     OW24145   3.396   3.378   4.760
 7749SOL    HW124146   3.456   3.301   4.780
 7749SOL    HW224147   3.312   3.345   4.717
 7750SOL     OW24148   0.102   5.742   0.172
 7750SOL    HW124149   0.176   5.727   0.238
 7750SOL    HW224150   0.085   5.657   0.122
 7751SOL     OW24151   1.238   2.660   2.472
 7751SOL    HW124152   1.161   2.707   2.430
 7751SOL    HW224153   1.256   2.699   2.562
 7752SOL     OW24154   5.415   6.233   5.696
 7752SOL    HW124155   5.380   6.161   5.635
 7752SOL    HW224156   5.383   6.217   5.789
 7753SOL     OW24157   2.205   0.527   4.038
 7753SOL    HW124158   2.140   0.501   3.967
 7753SOL    HW224159   2.298   0.515   4.003
 7754SOL     OW24160   4.684   6.765   1.773
 7754SOL    HW124161   4.747   6.688   1.763
 7754SOL    HW224162   4.734   6.844   1.809
 7755SOL     OW24163   1.221   2.287   5.874
 7755SOL    HW124164   1.258   2.329   5.957
 7755SOL    HW224165   1.295   2.268   5.810
 7756SOL     OW24166   3.867   5.218   2.752
 7756SOL    HW124167   3.784   5.235   2.698
 7756SOL    HW224168   3.844   5.215   2.849
 7757SOL     OW24169   5.518   5.680   4.758
 7757SOL    HW124170   5.442   5.668   4.694
 7757SOL    HW224171   5.487   5.658   4.851
 7758SOL     OW24172   1.223   1.721   0.135
 7758SOL    HW124173   1.255   1.627   0.149
 7758SOL    HW224174   1.284   1.783   0.185
 7759SOL     OW24175   1.129   2.092   5.377
 7759SOL    HW124176   1.052   2.123   5.321
 7759SOL    HW224177   1.178   2.020   5.329
 7760SOL     OW24178   5.552   3.440   2.780
 7760SOL    HW124179   5.523   3.438   2.875
 7760SOL    HW224180   5.607   3.522   2.763
 7761SOL     OW24181   1.267   0.089   6.136
 7761SOL    HW124182   1.325   0.011   6.114
 7761SOL    HW224183   1.305   0.172   6.095
 7762SOL     OW24184   4.580   0.502   3.880
 7762SOL    HW124185   4.648   0.527   3.948
 7762SOL    HW224186   4.530   0.421   3.911
 7763SOL     OW24187   1.316   1.427   0.118
 7763SOL    HW124188   1.312   1.329   0.097
 7763SOL    HW224189   1.410   1.459   0.113
 7764SOL     OW24190   3.685   2.931   3.377
 7764SOL    HW124191   3.749   2.963   3.447
 7764SOL    HW224192   3.596   2.910   3.419
 7765SOL     OW24193   6.021   2.031   3.756
 7765SOL    HW124194   6.037   2.099   3.828
 7765SOL    HW224195   5.974   1.952   3.795
 7766SOL     OW24196   5.594   2.000   6.529
 7766SOL    HW124197   5.625   2.092   6.555
 7766SOL    HW224198   5.517   1.973   6.587
 7767SOL     OW24199   4.185   6.670   3.852
 7767SOL    HW124200   4.189   6.571   3.839
 7767SOL    HW224201   4.273   6.710   3.829
 7768SOL     OW24202   4.252   4.620   2.731
 7768SOL    HW124203   4.209   4.625   2.821
 7768SOL    HW224204   4.343   4.581   2.740
 7769SOL     OW24205   4.810   2.845   2.587
 7769SOL    HW124206   4.746   2.907   2.633
 7769SOL    HW224207   4.796   2.852   2.488
 7770SOL     OW24208   1.331   3.938   1.868
 7770SOL    HW124209   1.264   4.008   1.845
 7770SOL    HW224210   1.284   3.857   1.902
 7771SOL     OW24211   2.942   1.816   5.149
 7771SOL    HW124212   2.994   1.897   5.174
 7771SOL    HW224213   2.991   1.734   5.178
 7772SOL     OW24214   5.612   0.654   2.445
 7772SOL    HW124215   5.525   0.689   2.411
 7772SOL    HW224216   5.598   0.566   2.489
 7773SOL     OW24217   2.983   5.560   4.508
 7773SOL    HW124218   2.939   5.591   4.424
 7773SOL    HW224219   2.927   5.585   4.587
 7774SOL     OW24220   5.633   1.941   5.904
 7774SOL    HW124221   5.647   2.021   5.962
 7774SOL    HW224222   5.535   1.930   5.886
 7775SOL     OW24223   4.098   6.387   2.218
 7775SOL    HW124224   4.115   6.387   2.316
 7775SOL    HW224225   4.141   6.467   2.176
 7776SOL     OW24226   2.235   4.605   0.119
 7776SOL    HW124227   2.254   4.700   0.141
 7776SOL    HW224228   2.298   4.573   0.048
 7777SOL     OW24229   0.967   0.819   4.825
 7777SOL    HW124230   0.937   0.731   4.863
 7777SOL    HW224231   1.063   0.834   4.847
 7778SOL     OW24232   5.169   4.932   0.588
 7778SOL    HW124233   5.223   4.991   0.648
 7778SOL    HW224234   5.097   4.985   0.545
 7779SOL     OW24235   3.124   2.230   1.131
 7779SOL    HW124236   3.076   2.277   1.206
 7779SOL    HW224237   3.194   2.291   1.093
 7780SOL     OW24238   0.604   5.319   5.531
 7780SOL    HW124239   0.568   5.277   5.447
 7780SOL    HW224240   0.651   5.249   5.585
 7781SOL     OW24241   1.103   4.777   0.436
 7781SOL    HW124242   1.060   4.765   0.526
 7781SOL    HW224243   1.162   4.858   0.438
 7782SOL     OW24244   0.694   4.870   4.502
 7782SOL    HW124245   0.679   4.925   4.585
 7782SOL    HW224246   0.606   4.850   4.459
 7783SOL     OW24247   1.118   6.138   4.580
 7783SOL    HW124248   1.113   6.057   4.639
 7783SOL    HW224249   1.059   6.124   4.500
 7784SOL     OW24250   2.768   2.813   0.905
 7784SOL    HW124251   2.747   2.780   0.997
 7784SOL    HW224252   2.866   2.810   0.889
 7785SOL     OW24253   1.661   6.393   4.109
 7785SOL    HW124254   1.578   6.339   4.126
 7785SOL    HW224255   1.637   6.490   4.102
 7786SOL     OW24256   3.207   6.477   6.871
 7786SOL    HW124257   3.269   6.465   6.793
 7786SOL    HW224258   3.258   6.465   6.956
 7787SOL     OW24259   2.766   2.864   6.341
 7787SOL    HW124260   2.809   2.924   6.274
 7787SOL    HW224261   2.838   2.816   6.392
 7788SOL     OW24262   1.659   5.376   1.693
 7788SOL    HW124263   1.709   5.457   1.663
 7788SOL    HW224264   1.724   5.302   1.709
 7789SOL     OW24265   2.541   6.825   6.515
 7789SOL    HW124266   2.517   6.908   6.466
 7789SOL    HW224267   2.474   6.753   6.495
 7790SOL     OW24268   5.206   5.184   3.072
 7790SOL    HW124269   5.220   5.172   2.973
 7790SOL    HW224270   5.292   5.213   3.114
 7791SOL     OW24271   2.368   5.824   3.493
 7791SOL    HW124272   2.350   5.800   3.398
 7791SOL    HW224273   2.306   5.896   3.522
 7792SOL     OW24274   1.641   4.872   5.309
 7792SOL    HW124275   1.638   4.971   5.317
 7792SOL    HW224276   1.555   4.839   5.270
 7793SOL     OW24277   3.138   1.043   6.939
 7793SOL    HW124278   3.142   0.993   0.005
 7793SOL    HW224279   3.076   1.121   6.947
 7794SOL     OW24280   5.805   4.914   3.226
 7794SOL    HW124281   5.859   4.950   3.302
 7794SOL    HW224282   5.828   4.818   3.211
 7795SOL     OW24283   2.417   3.764   5.341
 7795SOL    HW124284   2.419   3.842   5.279
 7795SOL    HW224285   2.476   3.783   5.420
 7796SOL     OW24286   3.628   4.178   3.307
 7796SOL    HW124287   3.586   4.138   3.389
 7796SOL    HW224288   3.687   4.111   3.263
 7797SOL     OW24289   1.553   0.110   2.614
 7797SOL    HW124290   1.507   0.121   2.526
 7797SOL    HW224291   1.636   0.056   2.602
 7798SOL     OW24292   2.090   4.513   5.659
 7798SOL    HW124293   2.153   4.591   5.665
 7798SOL    HW224294   2.115   4.456   5.581
 7799SOL     OW24295   1.213   5.949   2.457
 7799SOL    HW124296   1.174   5.983   2.371
 7799SOL    HW224297   1.146   5.891   2.503
 7800SOL     OW24298   1.277   5.370   0.731
 7800SOL    HW124299   1.242   5.367   0.824
 7800SOL    HW224300   1.364   5.420   0.729
 7801SOL     OW24301   2.061   1.710   1.706
 7801SOL    HW124302   2.073   1.731   1.803
 7801SOL    HW224303   2.060   1.796   1.654
 7802SOL     OW24304   5.941   2.515   0.941
 7802SOL    HW124305   5.880   2.581   0.898
 7802SOL    HW224306   5.904   2.487   1.030
 7803SOL     OW24307   4.220   1.904   6.378
 7803SOL    HW124308   4.174   1.993   6.379
 7803SOL    HW224309   4.279   1.897   6.459
 7804SOL     OW24310   4.742   2.444   4.620
 7804SOL    HW124311   4.728   2.345   4.611
 7804SOL    HW224312   4.813   2.474   4.557
 7805SOL     OW24313   5.195   1.999   0.999
 7805SOL    HW124314   5.271   1.976   0.938
 7805SOL    HW224315   5.225   2.066   1.067
 7806SOL     OW24316   5.856   2.185   6.381
 7806SOL    HW124317   5.789   2.207   6.452
 7806SOL    HW224318   5.827   2.102   6.333
 7807SOL     OW24319   0.817   4.818   5.100
 7807SOL    HW124320   0.803   4.734   5.047
 7807SOL    HW224321   0.877   4.798   5.178
 7808SOL     OW24322   6.676   3.290   4.000
 7808SOL    HW124323   6.767   3.297   4.041
 7808SOL    HW224324   6.677   3.220   3.929
 7809SOL     OW24325   1.787   5.564   4.029
 7809SOL    HW124326   1.708   5.560   3.968
 7809SOL    HW224327   1.812   5.660   4.044
 7810SOL     OW24328   3.455   0.928   4.493
 7810SOL    HW124329   3.450   0.889   4.585
 7810SOL    HW224330   3.496   0.861   4.431
 7811SOL     OW24331   1.301   5.524   2.876
 7811SOL    HW124332   1.315   5.620   2.852
 7811SOL    HW224333   1.271   5.517   2.971
 7812SOL     OW24334   1.092   2.294   3.808
 7812SOL    HW124335   1.172   2.248   3.769
 7812SOL    HW224336   1.020   2.226   3.826
 7813SOL     OW24337   4.441   2.606   6.663
 7813SOL    HW124338   4.515   2.547   6.631
 7813SOL    HW224339   4.424   2.590   6.760
 7814SOL     OW24340   0.146   2.895   3.241
 7814SOL    HW124341   0.053   2.864   3.220
 7814SOL    HW224342   0.180   2.848   3.323
 7815SOL     OW24343   5.097   0.688   5.680
 7815SOL    HW124344   5.105   0.636   5.765
 7815SOL    HW224345   5.001   0.696   5.655
 7816SOL     OW24346   1.660   2.396   6.416
 7816SOL    HW124347   1.669   2.365   6.510
 7816SOL    HW224348   1.750   2.414   6.377
 7817SOL     OW24349   5.552   4.990   3.202
 7817SOL    HW124350   5.509   4.906   3.171
 7817SOL    HW224351   5.648   4.974   3.223
 7818SOL     OW24352   4.270   0.893   2.574
 7818SOL    HW124353   4.225   0.805   2.555
 7818SOL    HW224354   4.367   0.886   2.554
 7819SOL     OW24355   6.795   3.528   1.701
 7819SOL    HW124356   6.882   3.564   1.734
 7819SOL    HW224357   6.804   3.431   1.678
 7820SOL     OW24358   1.727   2.378   5.097
 7820SOL    HW124359   1.630   2.398   5.108
 7820SOL    HW224360   1.776   2.401   5.181
 7821SOL     OW24361   5.624   6.145   0.601
 7821SOL    HW124362   5.556   6.218   0.596
 7821SOL    HW224363   5.632   6.101   0.512
 7822SOL     OW24364   0.877   1.882   5.925
 7822SOL    HW124365   0.966   1.924   5.906
 7822SOL    HW224366   0.886   1.783   5.925
 7823SOL     OW24367   2.672   3.982   5.351
 7823SOL    HW124368   2.656   3.927   5.433
 7823SOL    HW224369   2.597   3.968   5.286
 7824SOL     OW24370   5.972   0.833   4.023
 7824SOL    HW124371   5.898   0.896   4.000
 7824SOL    HW224372   6.040   0.834   3.950
 7825SOL     OW24373   1.447   2.591   1.304
 7825SOL    HW124374   1.396   2.661   1.254
 7825SOL    HW224375   1.385   2.539   1.362
 7826SOL     OW24376   6.285   1.833   1.362
 7826SOL    HW124377   6.323   1.833   1.270
 7826SOL    HW224378   6.334   1.899   1.419
 7827SOL     OW24379   2.028   5.267   0.863
 7827SOL    HW124380   2.077   5.353   0.877
 7827SOL    HW224381   2.073   5.194   0.914
 7828SOL     OW24382   0.821   4.278   6.483
 7828SOL    HW124383   0.792   4.197   6.535
 7828SOL    HW224384   0.888   4.251   6.414
 7829SOL     OW24385   2.688   4.072   1.290
 7829SOL    HW124386   2.624   4.013   1.340
 7829SOL    HW224387   2.739   4.127   1.356
 7830SOL     OW24388   2.515   4.577   4.989
 7830SOL    HW124389   2.501   4.538   4.899
 7830SOL    HW224390   2.613   4.575   5.011
 7831SOL     OW24391   2.343   6.663   1.507
 7831SOL    HW124392   2.433   6.687   1.471
 7831SOL    HW224393   2.284   6.633   1.431
 7832SOL     OW24394   5.863   0.933   3.389
 7832SOL    HW124395   5.835   0.894   3.477
 7832SOL    HW224396   5.950   0.891   3.360
 7833SOL     OW24397   0.630   1.271   6.071
 7833SOL    HW124398   0.567   1.295   6.145
 7833SOL    HW224399   0.717   1.319   6.085
 7834SOL     OW24400   6.872   1.451   3.474
 7834SOL    HW124401   6.889   1.356   3.448
 7834SOL    HW224402   6.782   1.460   3.516
 7835SOL     OW24403   3.471   2.008   5.450
 7835SOL    HW124404   3.415   2.081   5.409
 7835SOL    HW224405   3.540   2.049   5.509
 7836SOL     OW24406   3.201   2.871   5.357
 7836SOL    HW124407   3.180   2.961   5.319
 7836SOL    HW224408   3.263   2.822   5.296
 7837SOL     OW24409   5.474   5.316   6.956
 7837SOL    HW124410   5.470   5.405   7.003
 7837SOL    HW224411   5.550   5.262   6.992
 7838SOL     OW24412   3.873   0.039   0.666
 7838SOL    HW124413   3.861   6.975   0.615
 7838SOL    HW224414   3.787   0.090   0.667
 7839SOL     OW24415   5.887   3.983   5.061
 7839SOL    HW124416   5.905   3.950   5.153
 7839SOL    HW224417   5.789   3.977   5.042
 7840SOL     OW24418   6.234   2.739   3.600
 7840SOL    HW124419   6.325   2.754   3.561
 7840SOL    HW224420   6.195   2.654   3.562
 7841SOL     OW24421   3.536   2.102   6.054
 7841SOL    HW124422   3.438   2.085   6.066
 7841SOL    HW224423   3.587   2.050   6.122
 7842SOL     OW24424   2.737   2.008   2.660
 7842SOL    HW124425   2.806   2.080   2.664
 7842SOL    HW224426   2.781   1.919   2.669
 7843SOL     OW24427   7.003   6.005   3.664
 7843SOL    HW124428   6.909   5.971   3.671
 7843SOL    HW224429   0.038   5.938   3.616
 7844SOL     OW24430   3.597   0.150   2.872
 7844SOL    HW124431   3.571   0.203   2.792
 7844SOL    HW224432   3.520   0.146   2.936
 7845SOL     OW24433   5.706   2.013   2.692
 7845SOL    HW124434   5.732   1.974   2.781
 7845SOL    HW224435   5.701   1.941   2.624
 7846SOL     OW24436   0.434   1.484   2.072
 7846SOL    HW124437   0.405   1.396   2.035
 7846SOL    HW224438   0.388   1.558   2.022
 7847SOL     OW24439   6.660   1.449   3.256
 7847SOL    HW124440   6.724   1.464   3.332
 7847SOL    HW224441   6.569   1.433   3.292
 7848SOL     OW24442   3.311   4.051   0.828
 7848SOL    HW124443   3.287   4.051   0.925
 7848SOL    HW224444   3.386   4.116   0.813
 7849SOL     OW24445   6.537   4.361   4.319
 7849SOL    HW124446   6.479   4.414   4.380
 7849SOL    HW224447   6.511   4.379   4.224
 7850SOL     OW24448   0.209   1.411   4.407
 7850SOL    HW124449   0.208   1.338   4.476
 7850SOL    HW224450   0.302   1.423   4.372
 7851SOL     OW24451   6.530   1.161   1.753
 7851SOL    HW124452   6.488   1.241   1.710
 7851SOL    HW224453   6.462   1.088   1.762
 7852SOL     OW24454   2.863   1.430   6.207
 7852SOL    HW124455   2.840   1.449   6.302
 7852SOL    HW224456   2.960   1.410   6.199
 7853SOL     OW24457   5.076   2.431   1.940
 7853SOL    HW124458   5.165   2.444   1.896
 7853SOL    HW224459   5.089   2.418   2.039
 7854SOL     OW24460   3.430   3.385   6.638
 7854SOL    HW124461   3.368   3.401   6.561
 7854SOL    HW224462   3.431   3.465   6.697
 7855SOL     OW24463   4.966   6.622   4.600
 7855SOL    HW124464   4.996   6.629   4.695
 7855SOL    HW224465   5.044   6.602   4.542
 7856SOL     OW24466   6.363   5.514   5.205
 7856SOL    HW124467   6.293   5.557   5.261
 7856SOL    HW224468   6.454   5.546   5.234
 7857SOL     OW24469   5.236   2.273   6.601
 7857SOL    HW124470   5.283   2.224   6.528
 7857SOL    HW224471   5.237   2.371   6.581
 7858SOL     OW24472   6.349   6.704   4.125
 7858SOL    HW124473   6.297   6.638   4.071
 7858SOL    HW224474   6.323   6.697   4.221
 7859SOL     OW24475   4.179   3.047   6.272
 7859SOL    HW124476   4.153   2.963   6.319
 7859SOL    HW224477   4.119   3.122   6.299
 7860SOL     OW24478   3.348   0.748   3.132
 7860SOL    HW124479   3.409   0.817   3.171
 7860SOL    HW224480   3.270   0.793   3.088
 7861SOL     OW24481   3.704   4.625   1.586
 7861SOL    HW124482   3.644   4.627   1.666
 7861SOL    HW224483   3.663   4.680   1.513
 7862SOL     OW24484   1.990   4.763   1.990
 7862SOL    HW124485   2.022   4.711   2.069
 7862SOL    HW224486   2.059   4.829   1.963
 7863SOL     OW24487   0.184   4.457   4.496
 7863SOL    HW124488   0.220   4.378   4.546
 7863SOL    HW224489   0.240   4.474   4.415
 7864SOL     OW24490   0.755   5.786   5.038
 7864SOL    HW124491   0.753   5.821   5.131
 7864SOL    HW224492   0.822   5.839   4.984
 7865SOL     OW24493   6.478   6.179   3.900
 7865SOL    HW124494   6.488   6.085   3.869
 7865SOL    HW224495   6.428   6.181   3.987
 7866SOL     OW24496   1.342   1.437   5.989
 7866SOL    HW124497   1.325   1.415   5.893
 7866SOL    HW224498   1.394   1.523   5.994
 7867SOL     OW24499   6.002   6.063   3.278
 7867SOL    HW124500   6.051   6.090   3.361
 7867SOL    HW224501   5.907   6.094   3.283
 7868SOL     OW24502   4.561   6.049   1.319
 7868SOL    HW124503   4.655   6.080   1.304
 7868SOL    HW224504   4.498   6.125   1.302
 7869SOL     OW24505   5.438   3.702   0.097
 7869SOL    HW124506   5.354   3.688   0.043
 7869SOL    HW224507   5.420   3.676   0.192
 7870SOL     OW24508   4.215   5.232   3.804
 7870SOL    HW124509   4.197   5.166   3.877
 7870SOL    HW224510   4.279   5.192   3.738
 7871SOL     OW24511   4.708   1.945   2.267
 7871SOL    HW124512   4.677   1.856   2.232
 7871SOL    HW224513   4.802   1.937   2.299
 7872SOL     OW24514   1.661   3.734   3.282
 7872SOL    HW124515   1.572   3.688   3.285
 7872SOL    HW224516   1.733   3.667   3.263
 7873SOL     OW24517   6.006   6.519   6.161
 7873SOL    HW124518   5.962   6.574   6.232
 7873SOL    HW224519   5.956   6.433   6.148
 7874SOL     OW24520   4.890   2.378   0.068
 7874SOL    HW124521   4.874   2.280   0.057
 7874SOL    HW224522   4.892   2.401   0.165
 7875SOL     OW24523   4.229   3.202   6.617
 7875SOL    HW124524   4.277   3.185   6.531
 7875SOL    HW224525   4.131   3.195   6.603
 7876SOL     OW24526   1.581   6.905   3.629
 7876SOL    HW124527   1.487   6.886   3.600
 7876SOL    HW224528   1.620   6.824   3.672
 7877SOL     OW24529   1.315   1.826   2.934
 7877SOL    HW124530   1.221   1.797   2.919
 7877SOL    HW224531   1.377   1.753   2.907
 7878SOL     OW24532   4.626   4.341   4.691
 7878SOL    HW124533   4.617   4.370   4.786
 7878SOL    HW224534   4.690   4.265   4.685
 7879SOL     OW24535   4.018   5.646   3.238
 7879SOL    HW124536   4.109   5.658   3.279
 7879SOL    HW224537   4.025   5.578   3.165
 7880SOL     OW24538   1.834   4.691   0.836
 7880SOL    HW124539   1.834   4.712   0.738
 7880SOL    HW224540   1.759   4.629   0.857
 7881SOL     OW24541   6.409   5.070   4.870
 7881SOL    HW124542   6.470   5.082   4.792
 7881SOL    HW224543   6.316   5.055   4.838
 7882SOL     OW24544   1.272   3.109   1.968
 7882SOL    HW124545   1.218   3.083   1.888
 7882SOL    HW224546   1.298   3.205   1.962
 7883SOL     OW24547   1.199   0.546   0.634
 7883SOL    HW124548   1.264   0.470   0.639
 7883SOL    HW224549   1.196   0.580   0.540
 7884SOL     OW24550   2.087   3.365   4.716
 7884SOL    HW124551   2.133   3.285   4.755
 7884SOL    HW224552   2.097   3.442   4.779
 7885SOL     OW24553   5.972   5.587   1.181
 7885SOL    HW124554   6.039   5.523   1.219
 7885SOL    HW224555   5.905   5.611   1.251
 7886SOL     OW24556   3.768   5.066   0.156
 7886SOL    HW124557   3.714   5.026   0.083
 7886SOL    HW224558   3.709   5.090   0.233
 7887SOL     OW24559   3.308   2.368   5.656
 7887SOL    HW124560   3.221   2.415   5.675
 7887SOL    HW224561   3.319   2.358   5.557
 7888SOL     OW24562   6.434   0.255   5.471
 7888SOL    HW124563   6.502   0.321   5.504
 7888SOL    HW224564   6.477   0.194   5.404
 7889SOL     OW24565   1.329   4.742   1.110
 7889SOL    HW124566   1.415   4.748   1.060
 7889SOL    HW224567   1.347   4.712   1.204
 7890SOL     OW24568   1.925   2.517   2.623
 7890SOL    HW124569   1.862   2.481   2.691
 7890SOL    HW224570   1.874   2.563   2.550
 7891SOL     OW24571   1.834   3.419   3.915
 7891SOL    HW124572   1.806   3.405   3.820
 7891SOL    HW224573   1.761   3.389   3.976
 7892SOL     OW24574   2.155   0.832   4.115
 7892SOL    HW124575   2.149   0.737   4.084
 7892SOL    HW224576   2.233   0.876   4.071
 7893SOL     OW24577   6.944   6.072   2.516
 7893SOL    HW124578   6.994   6.058   2.430
 7893SOL    HW224579   7.006   6.109   2.585
 7894SOL     OW24580   3.525   6.925   1.023
 7894SOL    HW124581   3.608   6.925   0.968
 7894SOL    HW224582   3.474   7.010   1.006
 7895SOL     OW24583   6.186   0.651   5.447
 7895SOL    HW124584   6.185   0.551   5.443
 7895SOL    HW224585   6.220   0.681   5.536
 7896SOL     OW24586   4.790   4.161   0.402
 7896SOL    HW124587   4.833   4.111   0.326
 7896SOL    HW224588   4.735   4.236   0.365
 7897SOL     OW24589   2.384   3.989   0.198
 7897SOL    HW124590   2.435   3.909   0.230
 7897SOL    HW224591   2.331   3.965   0.118
 7898SOL     OW24592   4.620   2.117   3.718
 7898SOL    HW124593   4.646   2.181   3.645
 7898SOL    HW224594   4.563   2.044   3.679
 7899SOL     OW24595   5.576   1.196   1.209
 7899SOL    HW124596   5.572   1.105   1.167
 7899SOL    HW224597   5.566   1.186   1.308
 7900SOL     OW24598   1.458   5.064   1.574
 7900SOL    HW124599   1.396   4.988   1.555
 7900SOL    HW224600   1.440   5.139   1.511
 7901SOL     OW24601   4.749   1.526   6.802
 7901SOL    HW124602   4.771   1.443   6.853
 7901SOL    HW224603   4.716   1.501   6.711
 7902SOL     OW24604   4.979   6.058   1.537
 7902SOL    HW124605   4.993   5.972   1.488
 7902SOL    HW224606   4.890   6.057   1.582
 7903SOL     OW24607   5.691   1.117   0.846
 7903SOL    HW124608   5.601   1.158   0.859
 7903SOL    HW224609   5.746   1.129   0.930
 7904SOL     OW24610   5.708   6.514   3.728
 7904SOL    HW124611   5.673   6.568   3.805
 7904SOL    HW224612   5.664   6.424   3.728
 7905SOL     OW24613   4.674   2.811   0.216
 7905SOL    HW124614   4.584   2.849   0.234
 7905SOL    HW224615   4.740   2.886   0.205
 7906SOL     OW24616   0.139   5.682   0.585
 7906SOL    HW124617   0.235   5.657   0.575
 7906SOL    HW224618   0.129   5.749   0.659
 7907SOL     OW24619   5.165   2.613   3.148
 7907SOL    HW124620   5.152   2.630   3.051
 7907SOL    HW224621   5.077   2.611   3.194
 7908SOL     OW24622   0.782   1.849   5.450
 7908SOL    HW124623   0.685   1.870   5.455
 7908SOL    HW224624   0.807   1.789   5.526
 7909SOL     OW24625   5.495   3.592   5.016
 7909SOL    HW124626   5.465   3.551   5.102
 7909SOL    HW224627   5.431   3.568   4.943
 7910SOL     OW24628   2.959   3.538   5.855
 7910SOL    HW124629   2.931   3.470   5.788
 7910SOL    HW224630   3.041   3.585   5.822
 7911SOL     OW24631   1.665   3.055   6.957
 7911SOL    HW124632   1.654   3.075   6.859
 7911SOL    HW224633   1.586   3.089   7.007
 7912SOL     OW24634   6.859   5.084   0.307
 7912SOL    HW124635   6.784   5.142   0.276
 7912SOL    HW224636   6.909   5.131   0.380
 7913SOL     OW24637   1.596   5.001   1.282
 7913SOL    HW124638   1.511   4.970   1.324
 7913SOL    HW224639   1.648   5.057   1.347
 7914SOL     OW24640   0.066   4.287   6.887
 7914SOL    HW124641   0.137   4.293   6.957
 7914SOL    HW224642   0.080   4.360   6.820
 7915SOL     OW24643   4.765   2.892   2.327
 7915SOL    HW124644   4.860   2.871   2.305
 7915SOL    HW224645   4.721   2.933   2.247
 7916SOL     OW24646   0.429   4.081   5.384
 7916SOL    HW124647   0.347   4.103   5.331
 7916SOL    HW224648   0.492   4.159   5.381
 7917SOL     OW24649   3.662   4.164   3.887
 7917SOL    HW124650   3.701   4.078   3.854
 7917SOL    HW224651   3.569   4.148   3.921
 7918SOL     OW24652   0.303   1.743   6.867
 7918SOL    HW124653   0.356   1.804   6.926
 7918SOL    HW224654   0.350   1.732   6.779
 7919SOL     OW24655   2.013   4.037   2.014
 7919SOL    HW124656   2.070   4.000   1.940
 7919SOL    HW224657   2.034   3.990   2.099
 7920SOL     OW24658   0.336   5.473   1.112
 7920SOL    HW124659   0.424   5.425   1.110
 7920SOL    HW224660   0.326   5.527   1.028
 7921SOL     OW24661   4.453   6.565   0.895
 7921SOL    HW124662   4.535   6.615   0.868
 7921SOL    HW224663   4.454   6.475   0.851
 7922SOL     OW24664   6.692   6.614   6.597
 7922SOL    HW124665   6.648   6.600   6.686
 7922SOL    HW224666   6.687   6.529   6.544
 7923SOL     OW24667   3.237   0.615   2.191
 7923SOL    HW124668   3.250   0.568   2.278
 7923SOL    HW224669   3.250   0.713   2.203
 7924SOL     OW24670   4.161   6.604   2.035
 7924SOL    HW124671   4.224   6.680   2.052
 7924SOL    HW224672   4.075   6.640   1.998
 7925SOL     OW24673   0.788   1.797   6.257
 7925SOL    HW124674   0.775   1.891   6.226
 7925SOL    HW224675   0.878   1.765   6.228
 7926SOL     OW24676   5.347   1.722   5.325
 7926SOL    HW124677   5.351   1.804   5.383
 7926SOL    HW224678   5.253   1.708   5.294
 7927SOL     OW24679   3.740   5.258   4.015
 7927SOL    HW124680   3.792   5.285   4.096
 7927SOL    HW224681   3.658   5.315   4.008
 7928SOL     OW24682   1.088   2.284   4.523
 7928SOL    HW124683   1.055   2.251   4.611
 7928SOL    HW224684   1.012   2.290   4.459
 7929SOL     OW24685   4.124   4.286   5.734
 7929SOL    HW124686   4.128   4.203   5.791
 7929SOL    HW224687   4.214   4.329   5.732
 7930SOL     OW24688   4.482   5.346   4.067
 7930SOL    HW124689   4.454   5.250   4.062
 7930SOL    HW224690   4.570   5.351   4.115
 7931SOL     OW24691   1.192   2.109   6.137
 7931SOL    HW124692   1.287   2.138   6.125
 7931SOL    HW224693   1.188   2.010   6.148
 7932SOL     OW24694   2.061   6.212   6.505
 7932SOL    HW124695   2.021   6.286   6.451
 7932SOL    HW224696   2.120   6.251   6.577
 7933SOL     OW24697   0.511   6.164   6.858
 7933SOL    HW124698   0.529   6.078   6.810
 7933SOL    HW224699   0.417   6.193   6.839
 7934SOL     OW24700   2.377   4.865   0.178
 7934SOL    HW124701   2.449   4.899   0.117
 7934SOL    HW224702   2.419   4.828   0.261
 7935SOL     OW24703   5.459   6.287   0.353
 7935SOL    HW124704   5.432   6.195   0.326
 7935SOL    HW224705   5.401   6.318   0.429
 7936SOL     OW24706   4.030   5.756   2.323
 7936SOL    HW124707   3.968   5.804   2.261
 7936SOL    HW224708   4.045   5.662   2.290
 7937SOL     OW24709   6.508   0.165   3.848
 7937SOL    HW124710   6.525   0.067   3.859
 7937SOL    HW224711   6.415   0.186   3.879
 7938SOL     OW24712   5.991   5.408   5.221
 7938SOL    HW124713   6.033   5.353   5.294
 7938SOL    HW224714   6.056   5.478   5.192
 7939SOL     OW24715   1.299   2.827   5.506
 7939SOL    HW124716   1.275   2.817   5.602
 7939SOL    HW224717   1.394   2.802   5.492
 7940SOL     OW24718   1.752   4.097   2.083
 7940SOL    HW124719   1.836   4.046   2.066
 7940SOL    HW224720   1.673   4.037   2.071
 7941SOL     OW24721   6.413   6.758   0.787
 7941SOL    HW124722   6.437   6.674   0.737
 7941SOL    HW224723   6.475   6.770   0.864
 7942SOL     OW24724   6.700   5.434   2.846
 7942SOL    HW124725   6.664   5.527   2.849
 7942SOL    HW224726   6.726   5.412   2.752
 7943SOL     OW24727   5.628   3.379   0.327
 7943SOL    HW124728   5.675   3.452   0.377
 7943SOL    HW224729   5.626   3.296   0.383
 7944SOL     OW24730   0.407   3.112   1.416
 7944SOL    HW124731   0.494   3.152   1.388
 7944SOL    HW224732   0.341   3.185   1.434
 7945SOL     OW24733   5.427   5.947   1.992
 7945SOL    HW124734   5.442   6.034   2.040
 7945SOL    HW224735   5.447   5.959   1.895
 7946SOL     OW24736   2.263   1.687   5.528
 7946SOL    HW124737   2.314   1.698   5.443
 7946SOL    HW224738   2.215   1.772   5.549
 7947SOL     OW24739   3.780   2.108   6.310
 7947SOL    HW124740   3.788   2.053   6.393
 7947SOL    HW224741   3.792   2.205   6.333
 7948SOL     OW24742   0.967   6.286   0.900
 7948SOL    HW124743   0.894   6.254   0.960
 7948SOL    HW224744   1.041   6.326   0.954
 7949SOL     OW24745   4.897   4.532   4.393
 7949SOL    HW124746   4.960   4.496   4.463
 7949SOL    HW224747   4.812   4.479   4.395
 7950SOL     OW24748   5.946   5.072   4.788
 7950SOL    HW124749   5.911   5.164   4.806
 7950SOL    HW224750   5.924   5.012   4.865
 7951SOL     OW24751   1.729   4.206   1.086
 7951SOL    HW124752   1.739   4.262   1.168
 7951SOL    HW224753   1.773   4.117   1.100
 7952SOL     OW24754   0.647   3.446   6.573
 7952SOL    HW124755   0.714   3.390   6.525
 7952SOL    HW224756   0.592   3.387   6.633
 7953SOL     OW24757   1.985   2.760   3.171
 7953SOL    HW124758   1.910   2.804   3.220
 7953SOL    HW224759   1.991   2.664   3.198
 7954SOL     OW24760   4.699   4.034   5.323
 7954SOL    HW124761   4.742   4.052   5.411
 7954SOL    HW224762   4.602   4.057   5.327
 7955SOL     OW24763   1.299   6.354   6.432
 7955SOL    HW124764   1.241   6.436   6.432
 7955SOL    HW224765   1.267   6.291   6.361
 7956SOL     OW24766   3.362   5.740   2.680
 7956SOL    HW124767   3.305   5.749   2.762
 7956SOL    HW224768   3.369   5.643   2.655
 7957SOL     OW24769   1.427   1.537   1.255
 7957SOL    HW124770   1.459   1.443   1.256
 7957SOL    HW224771   1.482   1.591   1.319
 7958SOL     OW24772   3.465   4.998   4.308
 7958SOL    HW124773   3.455   5.015   4.406
 7958SOL    HW224774   3.420   4.911   4.285
 7959SOL     OW24775   4.205   5.426   1.061
 7959SOL    HW124776   4.283   5.364   1.072
 7959SOL    HW224777   4.142   5.390   0.993
 7960SOL     OW24778   3.865   1.782   0.686
 7960SOL    HW124779   3.922   1.786   0.768
 7960SOL    HW224780   3.807   1.700   0.689
 7961SOL     OW24781   0.732   6.886   1.151
 7961SOL    HW124782   0.789   6.968   1.143
 7961SOL    HW224783   0.675   6.877   1.070
 7962SOL     OW24784   1.961   7.020   0.554
 7962SOL    HW124785   1.976   6.966   0.471
 7962SOL    HW224786   2.046   0.045   0.580
 7963SOL     OW24787   6.935   0.928   3.915
 7963SOL    HW124788   6.948   0.901   4.011
 7963SOL    HW224789   6.852   0.886   3.880
 7964SOL     OW24790   0.345   4.916   3.614
 7964SOL    HW124791   0.259   4.950   3.575
 7964SOL    HW224792   0.330   4.890   3.709
 7965SOL     OW24793   3.624   3.274   6.907
 7965SOL    HW124794   3.650   3.288   6.811
 7965SOL    HW224795   3.625   3.176   6.927
 7966SOL     OW24796   0.839   3.511   5.404
 7966SOL    HW124797   0.882   3.480   5.489
 7966SOL    HW224798   0.810   3.606   5.414
 7967SOL     OW24799   2.624   6.072   4.023
 7967SOL    HW124800   2.631   6.036   4.117
 7967SOL    HW224801   2.715   6.074   3.982
 7968SOL     OW24802   2.616   2.361   3.063
 7968SOL    HW124803   2.575   2.362   2.972
 7968SOL    HW224804   2.712   2.332   3.056
 7969SOL     OW24805   4.476   0.017   1.693
 7969SOL    HW124806   4.457   6.961   1.753
 7969SOL    HW224807   4.401   0.028   1.628
 7970SOL     OW24808   0.823   3.075   3.143
 7970SOL    HW124809   0.739   3.040   3.103
 7970SOL    HW224810   0.808   3.093   3.241
 7971SOL     OW24811   4.721   1.585   0.857
 7971SOL    HW124812   4.695   1.489   0.857
 7971SOL    HW224813   4.816   1.594   0.887
 7972SOL     OW24814   1.666   3.612   1.638
 7972SOL    HW124815   1.688   3.596   1.542
 7972SOL    HW224816   1.712   3.695   1.669
 7973SOL     OW24817   4.901   4.229   3.275
 7973SOL    HW124818   4.946   4.146   3.241
 7973SOL    HW224819   4.855   4.209   3.361
 7974SOL     OW24820   5.830   0.969   5.329
 7974SOL    HW124821   5.747   0.914   5.316
 7974SOL    HW224822   5.807   1.066   5.319
 7975SOL     OW24823   5.781   0.649   2.946
 7975SOL    HW124824   5.825   0.730   2.908
 7975SOL    HW224825   5.754   0.666   3.041
 7976SOL     OW24826   0.672   0.801   6.545
 7976SOL    HW124827   0.606   0.726   6.544
 7976SOL    HW224828   0.674   0.845   6.455
 7977SOL     OW24829   4.993   5.324   1.396
 7977SOL    HW124830   4.964   5.288   1.484
 7977SOL    HW224831   5.093   5.326   1.391
 7978SOL     OW24832   5.461   3.328   6.241
 7978SOL    HW124833   5.374   3.319   6.289
 7978SOL    HW224834   5.447   3.312   6.143
 7979SOL     OW24835   3.552   0.362   5.056
 7979SOL    HW124836   3.600   0.282   5.020
 7979SOL    HW224837   3.522   0.344   5.149
 7980SOL     OW24838   2.721   5.534   6.767
 7980SOL    HW124839   2.764   5.611   6.720
 7980SOL    HW224840   2.722   5.551   6.866
 7981SOL     OW24841   0.419   5.420   2.009
 7981SOL    HW124842   0.380   5.419   2.101
 7981SOL    HW224843   0.518   5.438   2.016
 7982SOL     OW24844   0.746   1.655   0.637
 7982SOL    HW124845   0.754   1.754   0.621
 7982SOL    HW224846   0.800   1.605   0.570
 7983SOL     OW24847   5.730   1.368   2.547
 7983SOL    HW124848   5.812   1.389   2.493
 7983SOL    HW224849   5.652   1.419   2.511
 7984SOL     OW24850   1.822   2.050   1.637
 7984SOL    HW124851   1.778   1.987   1.701
 7984SOL    HW224852   1.897   2.003   1.591
 7985SOL     OW24853   2.418   6.567   4.077
 7985SOL    HW124854   2.499   6.537   4.027
 7985SOL    HW224855   2.377   6.488   4.124
 7986SOL     OW24856   3.007   0.527   6.609
 7986SOL    HW124857   2.998   0.623   6.636
 7986SOL    HW224858   2.931   0.503   6.548
 7987SOL     OW24859   1.079   3.299   0.048
 7987SOL    HW124860   1.033   3.248   0.121
 7987SOL    HW224861   1.019   3.306   6.990
 7988SOL     OW24862   1.595   2.005   3.992
 7988SOL    HW124863   1.538   2.053   4.059
 7988SOL    HW224864   1.624   2.069   3.921
 7989SOL     OW24865   3.415   2.638   5.516
 7989SOL    HW124866   3.379   2.631   5.423
 7989SOL    HW224867   3.339   2.631   5.581
 7990SOL     OW24868   6.731   3.581   3.504
 7990SOL    HW124869   6.750   3.499   3.558
 7990SOL    HW224870   6.753   3.564   3.408
 7991SOL     OW24871   6.736   0.735   4.181
 7991SOL    HW124872   6.748   0.638   4.201
 7991SOL    HW224873   6.655   0.769   4.229
 7992SOL     OW24874   1.331   6.643   1.123
 7992SOL    HW124875   1.400   6.684   1.064
 7992SOL    HW224876   1.324   6.695   1.208
 7993SOL     OW24877   1.317   5.937   6.510
 7993SOL    HW124878   1.353   5.849   6.542
 7993SOL    HW224879   1.370   6.011   6.551
 7994SOL     OW24880   4.929   0.204   2.767
 7994SOL    HW124881   4.939   0.113   2.806
 7994SOL    HW224882   4.970   0.272   2.828
 7995SOL     OW24883   4.367   5.110   3.622
 7995SOL    HW124884   4.300   5.051   3.576
 7995SOL    HW224885   4.403   5.062   3.702
 7996SOL     OW24886   2.650   0.222   4.667
 7996SOL    HW124887   2.576   0.229   4.600
 7996SOL    HW224888   2.738   0.216   4.619
 7997SOL     OW24889   0.166   1.075   0.979
 7997SOL    HW124890   0.136   0.992   1.026
 7997SOL    HW224891   0.248   1.054   0.925
 7998SOL     OW24892   3.314   5.239   1.202
 7998SOL    HW124893   3.409   5.208   1.192
 7998SOL    HW224894   3.291   5.247   1.299
 7999SOL     OW24895   1.437   6.881   6.125
 7999SOL    HW124896   1.534   6.874   6.102
 7999SOL    HW224897   1.408   6.798   6.173
 8000SOL     OW24898   5.556   6.996   0.337
 8000SOL    HW124899   5.633   0.007   0.281
 8000SOL    HW224900   5.591   6.939   0.412
 8001SOL     OW24901   3.406   5.457   0.989
 8001SOL    HW124902   3.374   5.365   1.011
 8001SOL    HW224903   3.345   5.524   1.031
 8002SOL     OW24904   0.717   2.497   5.908
 8002SOL    HW124905   0.648   2.433   5.941
 8002SOL    HW224906   0.771   2.453   5.836
 8003SOL     OW24907   2.856   4.746   2.570
 8003SOL    HW124908   2.875   4.759   2.473
 8003SOL    HW224909   2.763   4.708   2.580
 8004SOL     OW24910   1.890   3.698   3.630
 8004SOL    HW124911   1.949   3.709   3.710
 8004SOL    HW224912   1.940   3.724   3.547
 8005SOL     OW24913   3.351   1.015   2.824
 8005SOL    HW124914   3.318   1.020   2.730
 8005SOL    HW224915   3.405   0.931   2.835
 8006SOL     OW24916   2.418   6.979   6.715
 8006SOL    HW124917   2.498   6.972   6.656
 8006SOL    HW224918   2.371   0.044   6.698
 8007SOL     OW24919   0.359   0.574   4.017
 8007SOL    HW124920   0.442   0.525   3.989
 8007SOL    HW224921   0.385   0.655   4.071
 8008SOL     OW24922   4.410   6.421   6.121
 8008SOL    HW124923   4.484   6.389   6.179
 8008SOL    HW224924   4.342   6.348   6.110
 8009SOL     OW24925   5.950   0.829   2.831
 8009SOL    HW124926   5.945   0.827   2.732
 8009SOL    HW224927   6.045   0.832   2.860
 8010SOL     OW24928   1.122   1.143   0.537
 8010SOL    HW124929   1.033   1.107   0.509
 8010SOL    HW224930   1.173   1.169   0.455
 8011SOL     OW24931   3.446   2.749   1.169
 8011SOL    HW124932   3.439   2.721   1.265
 8011SOL    HW224933   3.490   2.677   1.116
 8012SOL     OW24934   2.110   5.363   1.630
 8012SOL    HW124935   2.154   5.442   1.673
 8012SOL    HW224936   2.062   5.309   1.699
 8013SOL     OW24937   1.320   4.427   3.550
 8013SOL    HW124938   1.380   4.436   3.471
 8013SOL    HW224939   1.317   4.332   3.580
 8014SOL     OW24940   0.774   6.246   5.188
 8014SOL    HW124941   0.798   6.214   5.280
 8014SOL    HW224942   0.685   6.292   5.191
 8015SOL     OW24943   3.015   1.405   0.158
 8015SOL    HW124944   3.014   1.306   0.171
 8015SOL    HW224945   3.109   1.436   0.142
 8016SOL     OW24946   4.990   6.920   6.790
 8016SOL    HW124947   4.982   6.823   6.813
 8016SOL    HW224948   5.044   6.966   6.860
 8017SOL     OW24949   6.703   6.547   0.237
 8017SOL    HW124950   6.608   6.564   0.263
 8017SOL    HW224951   6.764   6.597   0.298
 8018SOL     OW24952   3.416   2.387   6.150
 8018SOL    HW124953   3.412   2.449   6.071
 8018SOL    HW224954   3.406   2.293   6.118
 8019SOL     OW24955   2.397   3.749   6.544
 8019SOL    HW124956   2.443   3.661   6.533
 8019SOL    HW224957   2.398   3.799   6.457
 8020SOL     OW24958   6.289   6.135   1.269
 8020SOL    HW124959   6.275   6.090   1.182
 8020SOL    HW224960   6.290   6.067   1.342
 8021SOL     OW24961   1.290   1.882   1.720
 8021SOL    HW124962   1.208   1.852   1.670
 8021SOL    HW224963   1.300   1.981   1.709
 8022SOL     OW24964   4.169   6.964   2.681
 8022SOL    HW124965   4.093   6.908   2.648
 8022SOL    HW224966   4.221   6.999   2.603
 8023SOL     OW24967   5.704   5.130   3.526
 8023SOL    HW124968   5.622   5.180   3.553
 8023SOL    HW224969   5.748   5.178   3.449
 8024SOL     OW24970   2.733   4.919   0.290
 8024SOL    HW124971   2.692   4.832   0.319
 8024SOL    HW224972   2.827   4.902   0.258
 8025SOL     OW24973   2.289   6.344   6.191
 8025SOL    HW124974   2.192   6.319   6.192
 8025SOL    HW224975   2.334   6.307   6.272
 8026SOL     OW24976   0.886   4.690   6.461
 8026SOL    HW124977   0.956   4.647   6.517
 8026SOL    HW224978   0.799   4.643   6.474
 8027SOL     OW24979   3.991   1.895   5.568
 8027SOL    HW124980   3.959   1.800   5.574
 8027SOL    HW224981   4.068   1.900   5.505
 8028SOL     OW24982   2.882   5.036   4.750
 8028SOL    HW124983   2.975   5.034   4.713
 8028SOL    HW224984   2.849   4.942   4.762
 8029SOL     OW24985   4.756   3.117   0.452
 8029SOL    HW124986   4.728   3.200   0.499
 8029SOL    HW224987   4.764   3.135   0.354
 8030SOL     OW24988   4.435   4.174   0.165
 8030SOL    HW124989   4.492   4.191   0.246
 8030SOL    HW224990   4.346   4.140   0.194
 8031SOL     OW24991   4.915   6.283   2.945
 8031SOL    HW124992   4.819   6.267   2.919
 8031SOL    HW224993   4.974   6.259   2.868
 8032SOL     OW24994   5.247   4.240   6.059
 8032SOL    HW124995   5.256   4.169   6.128
 8032SOL    HW224996   5.221   4.200   5.972
 8033SOL     OW24997   5.061   3.687   6.669
 8033SOL    HW124998   4.987   3.740   6.627
 8033SOL    HW224999   5.100   3.625   6.601
 8034SOL     OW25000   6.465   1.054   5.196
 8034SOL    HW125001   6.369   1.063   5.223
 8034SOL    HW225002   6.493   0.958   5.205
 8035SOL     OW25003   5.345   1.405   4.562
 8035SOL    HW125004   5.349   1.504   4.572
 8035SOL    HW225005   5.360   1.362   4.651
 8036SOL     OW25006   0.554   4.234   2.815
 8036SOL    HW125007   0.461   4.252   2.783
 8036SOL    HW225008   0.571   4.136   2.815
 8037SOL     OW25009   2.302   2.958   1.689
 8037SOL    HW125010   2.277   3.053   1.710
 8037SOL    HW225011   2.318   2.908   1.775
 8038SOL     OW25012   4.499   0.923   3.209
 8038SOL    HW125013   4.407   0.898   3.176
 8038SOL    HW225014   4.516   1.019   3.189
 8039SOL     OW25015   0.956   1.067   4.175
 8039SOL    HW125016   0.983   0.990   4.233
 8039SOL    HW225017   0.975   1.046   4.080
 8040SOL     OW25018   1.598   6.346   0.483
 8040SOL    HW125019   1.523   6.304   0.432
 8040SOL    HW225020   1.567   6.368   0.576
 8041SOL     OW25021   2.721   1.558   2.116
 8041SOL    HW125022   2.756   1.521   2.030
 8041SOL    HW225023   2.665   1.639   2.097
 8042SOL     OW25024   3.724   2.966   3.822
 8042SOL    HW125025   3.798   2.999   3.880
 8042SOL    HW225026   3.763   2.923   3.740
 8043SOL     OW25027   3.788   0.301   1.743
 8043SOL    HW125028   3.708   0.245   1.719
 8043SOL    HW225029   3.834   0.332   1.659
 8044SOL     OW25030   3.855   3.225   0.553
 8044SOL    HW125031   3.909   3.160   0.606
 8044SOL    HW225032   3.916   3.284   0.500
 8045SOL     OW25033   5.481   0.547   1.185
 8045SOL    HW125034   5.581   0.549   1.189
 8045SOL    HW225035   5.449   0.620   1.124
 8046SOL     OW25036   6.767   5.438   0.571
 8046SOL    HW125037   6.693   5.484   0.521
 8046SOL    HW225038   6.851   5.441   0.516
 8047SOL     OW25039   4.012   5.146   4.522
 8047SOL    HW125040   3.954   5.221   4.554
 8047SOL    HW225041   4.074   5.179   4.451
 8048SOL     OW25042   5.683   0.674   6.084
 8048SOL    HW125043   5.728   0.759   6.111
 8048SOL    HW225044   5.718   0.598   6.139
 8049SOL     OW25045   1.544   0.105   0.912
 8049SOL    HW125046   1.583   0.198   0.908
 8049SOL    HW225047   1.514   0.079   0.820
 8050SOL     OW25048   1.339   3.597   2.377
 8050SOL    HW125049   1.415   3.550   2.332
 8050SOL    HW225050   1.318   3.551   2.463
 8051SOL     OW25051   4.798   5.826   3.035
 8051SOL    HW125052   4.888   5.850   3.072
 8051SOL    HW225053   4.728   5.842   3.105
 8052SOL     OW25054   4.495   1.633   2.465
 8052SOL    HW125055   4.549   1.581   2.398
 8052SOL    HW225056   4.435   1.697   2.416
 8053SOL     OW25057   3.217   4.017   3.422
 8053SOL    HW125058   3.161   3.990   3.343
 8053SOL    HW225059   3.274   3.940   3.450
 8054SOL     OW25060   5.222   0.168   4.561
 8054SOL    HW125061   5.264   0.109   4.630
 8054SOL    HW225062   5.147   0.220   4.602
 8055SOL     OW25063   0.008   0.450   5.990
 8055SOL    HW125064   0.077   0.377   5.992
 8055SOL    HW225065   6.964   0.437   6.064
 8056SOL     OW25066   4.347   1.819   4.367
 8056SOL    HW125067   4.300   1.772   4.292
 8056SOL    HW225068   4.280   1.867   4.424
 8057SOL     OW25069   3.181   2.060   2.896
 8057SOL    HW125070   3.192   2.140   2.838
 8057SOL    HW225071   3.084   2.035   2.902
 8058SOL     OW25072   4.555   0.858   2.491
 8058SOL    HW125073   4.545   0.830   2.586
 8058SOL    HW225074   4.645   0.831   2.457
 8059SOL     OW25075   4.509   2.579   4.686
 8059SOL    HW125076   4.590   2.522   4.672
 8059SOL    HW225077   4.429   2.521   4.702
 8060SOL     OW25078   0.469   2.410   4.453
 8060SOL    HW125079   0.382   2.440   4.493
 8060SOL    HW225080   0.524   2.490   4.429
 8061SOL     OW25081   6.662   0.209   1.855
 8061SOL    HW125082   6.578   0.221   1.801
 8061SOL    HW225083   6.699   0.118   1.837
 8062SOL     OW25084   2.837   5.216   4.318
 8062SOL    HW125085   2.836   5.156   4.398
 8062SOL    HW225086   2.798   5.305   4.342
 8063SOL     OW25087   0.787   2.641   0.688
 8063SOL    HW125088   0.856   2.582   0.646
 8063SOL    HW225089   0.781   2.621   0.785
 8064SOL     OW25090   0.057   5.238   0.959
 8064SOL    HW125091   6.982   5.218   0.981
 8064SOL    HW225092   0.061   5.321   0.903
 8065SOL     OW25093   3.877   5.991   4.504
 8065SOL    HW125094   3.937   5.919   4.469
 8065SOL    HW225095   3.930   6.055   4.558
 8066SOL     OW25096   0.736   2.081   6.164
 8066SOL    HW125097   0.680   2.037   6.094
 8066SOL    HW225098   0.813   2.127   6.120
 8067SOL     OW25099   4.942   3.211   1.656
 8067SOL    HW125100   4.872   3.143   1.634
 8067SOL    HW225101   4.933   3.289   1.595
 8068SOL     OW25102   5.875   4.574   0.275
 8068SOL    HW125103   5.847   4.653   0.220
 8068SOL    HW225104   5.971   4.553   0.256
 8069SOL     OW25105   2.093   5.745   1.249
 8069SOL    HW125106   2.022   5.776   1.312
 8069SOL    HW225107   2.059   5.750   1.155
 8070SOL     OW25108   2.855   2.585   0.098
 8070SOL    HW125109   2.820   2.678   0.095
 8070SOL    HW225110   2.950   2.585   0.129
 8071SOL     OW25111   2.745   6.225   5.039
 8071SOL    HW125112   2.777   6.311   5.000
 8071SOL    HW225113   2.721   6.162   4.965
 8072SOL     OW25114   3.575   0.928   6.764
 8072SOL    HW125115   3.629   0.859   6.812
 8072SOL    HW225116   3.563   0.901   6.669
 8073SOL     OW25117   4.220   5.409   5.891
 8073SOL    HW125118   4.291   5.345   5.860
 8073SOL    HW225119   4.258   5.472   5.958
 8074SOL     OW25120   3.067   2.684   0.376
 8074SOL    HW125121   2.977   2.726   0.379
 8074SOL    HW225122   3.116   2.705   0.461
 8075SOL     OW25123   6.594   1.180   0.937
 8075SOL    HW125124   6.575   1.270   0.976
 8075SOL    HW225125   6.589   1.185   0.837
 8076SOL     OW25126   5.176   2.162   5.392
 8076SOL    HW125127   5.085   2.119   5.394
 8076SOL    HW225128   5.232   2.119   5.321
 8077SOL     OW25129   1.331   5.365   2.043
 8077SOL    HW125130   1.244   5.383   2.089
 8077SOL    HW225131   1.329   5.273   2.003
 8078SOL     OW25132   5.697   0.950   0.627
 8078SOL    HW125133   5.676   1.003   0.710
 8078SOL    HW225134   5.634   0.976   0.554
 8079SOL     OW25135   5.156   1.597   3.539
 8079SOL    HW125136   5.248   1.589   3.502
 8079SOL    HW225137   5.104   1.515   3.517
 8080SOL     OW25138   0.080   3.601   0.399
 8080SOL    HW125139   0.040   3.521   0.444
 8080SOL    HW225140   0.009   3.670   0.384
 8081SOL     OW25141   4.912   6.917   4.430
 8081SOL    HW125142   4.993   6.896   4.376
 8081SOL    HW225143   4.917   6.868   4.518
 8082SOL     OW25144   6.080   0.446   1.863
 8082SOL    HW125145   5.991   0.434   1.908
 8082SOL    HW225146   6.149   0.392   1.911
 8083SOL     OW25147   5.272   3.571   2.736
 8083SOL    HW125148   5.339   3.587   2.664
 8083SOL    HW225149   5.246   3.474   2.736
 8084SOL     OW25150   5.122   6.743   0.280
 8084SOL    HW125151   5.083   6.684   0.351
 8084SOL    HW225152   5.196   6.695   0.234
 8085SOL     OW25153   5.963   0.220   2.739
 8085SOL    HW125154   5.891   0.205   2.671
 8085SOL    HW225155   6.031   0.285   2.702
 8086SOL     OW25156   4.587   1.177   4.044
 8086SOL    HW125157   4.628   1.246   3.985
 8086SOL    HW225158   4.648   1.099   4.052
 8087SOL     OW25159   2.655   1.133   0.740
 8087SOL    HW125160   2.564   1.169   0.758
 8087SOL    HW225161   2.716   1.207   0.712
 8088SOL     OW25162   5.644   2.241   1.231
 8088SOL    HW125163   5.703   2.311   1.191
 8088SOL    HW225164   5.701   2.172   1.277
 8089SOL     OW25165   4.960   2.691   0.417
 8089SOL    HW125166   4.912   2.745   0.487
 8089SOL    HW225167   4.905   2.610   0.395
 8090SOL     OW25168   4.010   2.584   6.762
 8090SOL    HW125169   4.073   2.512   6.731
 8090SOL    HW225170   4.049   2.629   6.843
 8091SOL     OW25171   2.437   3.926   6.323
 8091SOL    HW125172   2.433   4.009   6.379
 8091SOL    HW225173   2.522   3.926   6.270
 8092SOL     OW25174   0.858   2.417   4.744
 8092SOL    HW125175   0.812   2.427   4.832
 8092SOL    HW225176   0.955   2.437   4.754
 8093SOL     OW25177   4.822   5.482   1.711
 8093SOL    HW125178   4.773   5.556   1.760
 8093SOL    HW225179   4.802   5.488   1.614
 8094SOL     OW25180   1.423   4.074   4.627
 8094SOL    HW125181   1.505   4.083   4.683
 8094SOL    HW225182   1.357   4.015   4.674
 8095SOL     OW25183   5.898   3.979   4.209
 8095SOL    HW125184   5.811   4.029   4.208
 8095SOL    HW225185   5.897   3.910   4.136
 8096SOL     OW25186   2.910   5.585   3.721
 8096SOL    HW125187   2.932   5.488   3.714
 8096SOL    HW225188   2.848   5.610   3.647
 8097SOL     OW25189   5.243   6.851   3.299
 8097SOL    HW125190   5.219   6.946   3.319
 8097SOL    HW225191   5.199   6.791   3.366
 8098SOL     OW25192   2.077   6.686   3.776
 8098SOL    HW125193   2.171   6.711   3.800
 8098SOL    HW225194   2.014   6.755   3.810
 8099SOL     OW25195   5.356   6.961   4.084
 8099SOL    HW125196   5.391   7.004   4.167
 8099SOL    HW225197   5.370   0.001   4.006
 8100SOL     OW25198   7.005   0.042   6.896
 8100SOL    HW125199   0.083   0.038   6.882
 8100SOL    HW225200   6.966   6.971   6.885
 8101SOL     OW25201   1.998   0.381   3.605
 8101SOL    HW125202   2.031   0.457   3.549
 8101SOL    HW225203   2.003   0.296   3.552
 8102SOL     OW25204   0.944   4.923   4.390
 8102SOL    HW125205   0.860   4.893   4.435
 8102SOL    HW225206   1.015   4.853   4.400
 8103SOL     OW25207   4.412   0.951   0.781
 8103SOL    HW125208   4.502   0.995   0.773
 8103SOL    HW225209   4.388   0.910   0.693
 8104SOL     OW25210   2.315   6.649   6.013
 8104SOL    HW125211   2.269   6.561   5.999
 8104SOL    HW225212   2.413   6.635   6.019
 8105SOL     OW25213   1.875   2.209   3.246
 8105SOL    HW125214   1.971   2.199   3.220
 8105SOL    HW225215   1.817   2.209   3.165
 8106SOL     OW25216   2.900   5.732   3.145
 8106SOL    HW125217   2.866   5.649   3.190
 8106SOL    HW225218   2.999   5.728   3.137
 8107SOL     OW25219   1.131   5.603   4.924
 8107SOL    HW125220   1.069   5.526   4.912
 8107SOL    HW225221   1.091   5.686   4.885
 8108SOL     OW25222   5.868   3.028   4.987
 8108SOL    HW125223   5.906   3.118   5.009
 8108SOL    HW225224   5.880   2.967   5.065
 8109SOL     OW25225   0.952   3.215   4.048
 8109SOL    HW125226   0.912   3.306   4.057
 8109SOL    HW225227   0.910   3.153   4.115
 8110SOL     OW25228   3.756   6.335   0.683
 8110SOL    HW125229   3.779   6.431   0.698
 8110SOL    HW225230   3.656   6.325   0.687
 8111SOL     OW25231   4.312   1.104   5.117
 8111SOL    HW125232   4.367   1.185   5.097
 8111SOL    HW225233   4.220   1.132   5.144
 8112SOL     OW25234   1.778   1.329   4.328
 8112SOL    HW125235   1.816   1.418   4.354
 8112SOL    HW225236   1.840   1.256   4.357
 8113SOL     OW25237   2.976   3.232   0.512
 8113SOL    HW125238   2.922   3.241   0.429
 8113SOL    HW225239   2.937   3.161   0.570
 8114SOL     OW25240   2.293   3.439   1.603
 8114SOL    HW125241   2.350   3.460   1.683
 8114SOL    HW225242   2.338   3.472   1.520
 8115SOL     OW25243   4.046   0.753   1.825
 8115SOL    HW125244   3.967   0.723   1.770
 8115SOL    HW225245   4.017   0.826   1.887
 8116SOL     OW25246   5.047   0.119   5.104
 8116SOL    HW125247   5.090   0.138   5.192
 8116SOL    HW225248   4.960   0.167   5.098
 8117SOL     OW25249   2.455   1.063   4.273
 8117SOL    HW125250   2.508   1.147   4.263
 8117SOL    HW225251   2.511   0.993   4.317
 8118SOL     OW25252   6.599   3.008   5.750
 8118SOL    HW125253   6.639   3.078   5.809
 8118SOL    HW225254   6.666   2.935   5.733
 8119SOL     OW25255   6.357   6.043   5.076
 8119SOL    HW125256   6.286   6.108   5.053
 8119SOL    HW225257   6.410   6.020   4.994
 8120SOL     OW25258   3.272   4.760   0.003
 8120SOL    HW125259   3.293   4.842   6.970
 8120SOL    HW225260   3.223   4.694   6.966
 8121SOL     OW25261   6.922   5.418   2.374
 8121SOL    HW125262   6.881   5.462   2.294
 8121SOL    HW225263   7.002   5.470   2.403
 8122SOL     OW25264   1.032   5.886   3.057
 8122SOL    HW125265   0.938   5.919   3.072
 8122SOL    HW225266   1.078   5.878   3.145
 8123SOL     OW25267   0.191   0.192   6.623
 8123SOL    HW125268   0.228   0.132   6.694
 8123SOL    HW225269   0.181   0.284   6.658
 8124SOL     OW25270   0.148   6.424   1.076
 8124SOL    HW125271   0.212   6.431   1.153
 8124SOL    HW225272   0.121   6.516   1.048
 8125SOL     OW25273   0.829   6.863   3.397
 8125SOL    HW125274   0.743   6.820   3.368
 8125SOL    HW225275   0.835   6.955   3.358
 8126SOL     OW25276   6.401   3.999   2.076
 8126SOL    HW125277   6.425   3.902   2.072
 8126SOL    HW225278   6.356   4.025   1.991
 8127SOL     OW25279   2.687   5.978   0.606
 8127SOL    HW125280   2.676   5.962   0.704
 8127SOL    HW225281   2.765   5.926   0.571
 8128SOL     OW25282   2.630   3.150   0.860
 8128SOL    HW125283   2.625   3.112   0.952
 8128SOL    HW225284   2.553   3.117   0.806
 8129SOL     OW25285   3.951   0.954   5.370
 8129SOL    HW125286   3.962   0.891   5.293
 8129SOL    HW225287   4.041   0.976   5.408
 8130SOL     OW25288   0.369   4.837   6.381
 8130SOL    HW125289   0.343   4.931   6.403
 8130SOL    HW225290   0.288   4.783   6.361
 8131SOL     OW25291   3.186   0.730   0.644
 8131SOL    HW125292   3.151   0.661   0.708
 8131SOL    HW225293   3.237   0.800   0.695
 8132SOL     OW25294   5.872   6.403   6.968
 8132SOL    HW125295   5.918   6.431   0.031
 8132SOL    HW225296   5.792   6.461   6.952
 8133SOL     OW25297   3.486   4.961   1.935
 8133SOL    HW125298   3.543   4.879   1.931
 8133SOL    HW225299   3.502   5.017   1.853
 8134SOL     OW25300   0.752   1.474   4.454
 8134SOL    HW125301   0.754   1.388   4.403
 8134SOL    HW225302   0.780   1.549   4.394
 8135SOL     OW25303   2.297   5.658   1.430
 8135SOL    HW125304   2.273   5.641   1.525
 8135SOL    HW225305   2.219   5.637   1.371
 8136SOL     OW25306   4.790   4.560   2.673
 8136SOL    HW125307   4.690   4.549   2.669
 8136SOL    HW225308   4.814   4.618   2.751
 8137SOL     OW25309   2.475   1.587   4.314
 8137SOL    HW125310   2.417   1.516   4.273
 8137SOL    HW225311   2.462   1.673   4.265
 8138SOL     OW25312   5.489   2.080   0.662
 8138SOL    HW125313   5.487   1.997   0.717
 8138SOL    HW225314   5.539   2.063   0.577
 8139SOL     OW25315   1.869   2.410   3.534
 8139SOL    HW125316   1.802   2.482   3.549
 8139SOL    HW225317   1.822   2.323   3.518
 8140SOL     OW25318   3.870   6.825   0.528
 8140SOL    HW125319   3.937   6.750   0.528
 8140SOL    HW225320   3.791   6.799   0.474
 8141SOL     OW25321   4.294   6.776   5.709
 8141SOL    HW125322   4.339   6.687   5.705
 8141SOL    HW225323   4.334   6.830   5.783
 8142SOL     OW25324   1.530   5.012   0.294
 8142SOL    HW125325   1.621   4.978   0.319
 8142SOL    HW225326   1.539   5.087   0.228
 8143SOL     OW25327   5.798   5.071   0.710
 8143SOL    HW125328   5.817   5.142   0.643
 8143SOL    HW225329   5.706   5.034   0.694
 8144SOL     OW25330   0.602   5.672   5.997
 8144SOL    HW125331   0.691   5.716   6.006
 8144SOL    HW225332   0.531   5.734   6.032
 8145SOL     OW25333   5.487   5.587   0.717
 8145SOL    HW125334   5.448   5.513   0.771
 8145SOL    HW225335   5.431   5.602   0.635
 8146SOL     OW25336   5.744   0.433   5.363
 8146SOL    HW125337   5.797   0.515   5.385
 8146SOL    HW225338   5.661   0.431   5.419
 8147SOL     OW25339   6.283   0.644   0.916
 8147SOL    HW125340   6.288   0.600   1.005
 8147SOL    HW225341   6.373   0.680   0.890
 8148SOL     OW25342   4.882   5.109   0.165
 8148SOL    HW125343   4.974   5.145   0.144
 8148SOL    HW225344   4.822   5.184   0.192
 8149SOL     OW25345   1.526   6.798   3.093
 8149SOL    HW125346   1.561   6.842   3.175
 8149SOL    HW225347   1.562   6.845   3.012
 8150SOL     OW25348   0.999   3.902   0.778
 8150SOL    HW125349   1.078   3.953   0.813
 8150SOL    HW225350   1.017   3.804   0.785
 8151SOL     OW25351   5.517   5.274   3.644
 8151SOL    HW125352   5.443   5.341   3.633
 8151SOL    HW225353   5.524   5.249   3.740
 8152SOL     OW25354   6.294   3.206   3.228
 8152SOL    HW125355   6.346   3.179   3.146
 8152SOL    HW225356   6.347   3.273   3.280
 8153SOL     OW25357   1.098   1.346   3.648
 8153SOL    HW125358   1.066   1.274   3.586
 8153SOL    HW225359   1.105   1.433   3.597
 8154SOL     OW25360   3.735   6.747   2.990
 8154SOL    HW125361   3.735   6.754   3.090
 8154SOL    HW225362   3.822   6.708   2.960
 8155SOL     OW25363   1.544   3.927   2.049
 8155SOL    HW125364   1.457   3.915   2.001
 8155SOL    HW225365   1.540   3.879   2.137
 8156SOL     OW25366   4.636   6.503   0.574
 8156SOL    HW125367   4.629   6.576   0.642
 8156SOL    HW225368   4.629   6.414   0.619
 8157SOL     OW25369   6.498   4.767   6.283
 8157SOL    HW125370   6.466   4.856   6.251
 8157SOL    HW225371   6.423   4.718   6.327
 8158SOL     OW25372   5.341   4.208   0.073
 8158SOL    HW125373   5.426   4.199   0.021
 8158SOL    HW225374   5.308   4.118   0.098
 8159SOL     OW25375   3.235   5.665   4.004
 8159SOL    HW125376   3.217   5.760   4.029
 8159SOL    HW225377   3.240   5.610   4.087
 8160SOL     OW25378   4.939   0.018   3.349
 8160SOL    HW125379   4.841   0.034   3.361
 8160SOL    HW225380   4.956   6.941   3.335
 8161SOL     OW25381   5.548   3.723   6.112
 8161SOL    HW125382   5.575   3.631   6.083
 8161SOL    HW225383   5.555   3.730   6.211
 8162SOL     OW25384   6.841   5.999   6.546
 8162SOL    HW125385   6.749   6.031   6.524
 8162SOL    HW225386   6.846   5.977   6.644
 8163SOL     OW25387   2.177   4.360   5.445
 8163SOL    HW125388   2.203   4.264   5.443
 8163SOL    HW225389   2.257   4.417   5.425
 8164SOL     OW25390   4.689   1.024   0.729
 8164SOL    HW125391   4.753   0.951   0.708
 8164SOL    HW225392   4.711   1.105   0.674
 8165SOL     OW25393   6.504   3.939   5.908
 8165SOL    HW125394   6.473   4.034   5.918
 8165SOL    HW225395   6.438   3.890   5.850
 8166SOL     OW25396   1.530   0.451   3.157
 8166SOL    HW125397   1.537   0.547   3.132
 8166SOL    HW225398   1.614   0.422   3.202
 8167SOL     OW25399   0.132   0.799   3.389
 8167SOL    HW125400   0.223   0.838   3.374
 8167SOL    HW225401   0.113   0.796   3.487
 8168SOL     OW25402   2.617   0.751   1.329
 8168SOL    HW125403   2.593   0.845   1.302
 8168SOL    HW225404   2.707   0.728   1.290
 8169SOL     OW25405   4.916   2.055   0.451
 8169SOL    HW125406   4.945   2.146   0.478
 8169SOL    HW225407   4.995   2.000   0.427
 8170SOL     OW25408   0.469   4.741   1.769
 8170SOL    HW125409   0.554   4.754   1.718
 8170SOL    HW225410   0.471   4.797   1.852
 8171SOL     OW25411   2.188   1.753   6.532
 8171SOL    HW125412   2.230   1.665   6.553
 8171SOL    HW225413   2.253   1.827   6.549
 8172SOL     OW25414   6.768   1.963   1.933
 8172SOL    HW125415   6.856   2.011   1.926
 8172SOL    HW225416   6.695   2.029   1.949
 8173SOL     OW25417   5.685   2.462   2.426
 8173SOL    HW125418   5.620   2.455   2.351
 8173SOL    HW225419   5.710   2.370   2.458
 8174SOL     OW25420   0.381   6.951   2.510
 8174SOL    HW125421   0.401   0.028   2.504
 8174SOL    HW225422   0.336   6.921   2.426
 8175SOL     OW25423   0.106   2.866   4.945
 8175SOL    HW125424   0.042   2.942   4.938
 8175SOL    HW225425   0.179   2.890   5.009
 8176SOL     OW25426   2.453   4.504   1.074
 8176SOL    HW125427   2.491   4.580   1.127
 8176SOL    HW225428   2.432   4.428   1.136
 8177SOL     OW25429   4.861   0.791   3.549
 8177SOL    HW125430   4.924   0.868   3.561
 8177SOL    HW225431   4.900   0.709   3.591
 8178SOL     OW25432   2.930   0.012   0.754
 8178SOL    HW125433   2.934   6.997   0.847
 8178SOL    HW225434   2.856   6.988   0.704
 8179SOL     OW25435   5.332   1.165   5.071
 8179SOL    HW125436   5.351   1.070   5.098
 8179SOL    HW225437   5.363   1.227   5.142
 8180SOL     OW25438   6.309   1.166   5.986
 8180SOL    HW125439   6.303   1.089   6.050
 8180SOL    HW225440   6.226   1.221   5.993
 8181SOL     OW25441   1.444   1.559   0.751
 8181SOL    HW125442   1.401   1.551   0.841
 8181SOL    HW225443   1.517   1.628   0.754
 8182SOL     OW25444   2.927   3.316   5.678
 8182SOL    HW125445   2.953   3.235   5.732
 8182SOL    HW225446   3.008   3.349   5.629
 8183SOL     OW25447   6.751   2.464   4.554
 8183SOL    HW125448   6.720   2.374   4.525
 8183SOL    HW225449   6.801   2.508   4.479
 8184SOL     OW25450   0.432   0.122   0.545
 8184SOL    HW125451   0.334   0.137   0.537
 8184SOL    HW225452   0.449   0.042   0.603
 8185SOL     OW25453   1.790   0.311   0.145
 8185SOL    HW125454   1.828   0.344   0.058
 8185SOL    HW225455   1.797   0.384   0.214
 8186SOL     OW25456   2.697   4.648   5.841
 8186SOL    HW125457   2.598   4.654   5.856
 8186SOL    HW225458   2.744   4.695   5.916
 8187SOL     OW25459   1.840   1.361   5.194
 8187SOL    HW125460   1.904   1.321   5.128
 8187SOL    HW225461   1.845   1.310   5.280
 8188SOL     OW25462   5.052   3.277   3.655
 8188SOL    HW125463   5.006   3.268   3.567
 8188SOL    HW225464   4.987   3.261   3.729
 8189SOL     OW25465   5.514   5.424   2.998
 8189SOL    HW125466   5.479   5.499   2.941
 8189SOL    HW225467   5.508   5.338   2.947
 8190SOL     OW25468   4.832   3.819   3.946
 8190SOL    HW125469   4.824   3.831   4.045
 8190SOL    HW225470   4.913   3.868   3.912
 8191SOL     OW25471   3.797   5.592   2.264
 8191SOL    HW125472   3.747   5.591   2.351
 8191SOL    HW225473   3.767   5.671   2.210
 8192SOL     OW25474   2.107   5.204   1.393
 8192SOL    HW125475   2.073   5.262   1.467
 8192SOL    HW225476   2.033   5.184   1.330
 8193SOL     OW25477   6.102   5.285   5.462
 8193SOL    HW125478   6.072   5.194   5.489
 8193SOL    HW225479   6.199   5.283   5.438
 8194SOL     OW25480   5.196   0.645   1.272
 8194SOL    HW125481   5.187   0.638   1.371
 8194SOL    HW225482   5.113   0.609   1.228
 8195SOL     OW25483   0.352   6.773   3.181
 8195SOL    HW125484   0.261   6.735   3.195
 8195SOL    HW225485   0.351   6.872   3.199
 8196SOL     OW25486   3.940   6.257   6.457
 8196SOL    HW125487   3.964   6.336   6.514
 8196SOL    HW225488   3.924   6.287   6.364
 8197SOL     OW25489   3.419   0.970   0.247
 8197SOL    HW125490   3.480   0.997   0.173
 8197SOL    HW225491   3.470   0.916   0.315
 8198SOL     OW25492   3.290   6.132   2.491
 8198SOL    HW125493   3.355   6.059   2.510
 8198SOL    HW225494   3.238   6.154   2.574
 8199SOL     OW25495   5.942   2.733   6.066
 8199SOL    HW125496   5.995   2.725   5.982
 8199SOL    HW225497   5.862   2.674   6.062
 8200SOL     OW25498   5.857   4.744   1.651
 8200SOL    HW125499   5.921   4.812   1.616
 8200SOL    HW225500   5.765   4.764   1.618
 8201SOL     OW25501   5.796   1.225   4.897
 8201SOL    HW125502   5.842   1.267   4.819
 8201SOL    HW225503   5.754   1.296   4.953
 8202SOL     OW25504   0.521   5.381   3.782
 8202SOL    HW125505   0.570   5.371   3.695
 8202SOL    HW225506   0.442   5.321   3.782
 8203SOL     OW25507   3.057   2.367   6.740
 8203SOL    HW125508   3.145   2.319   6.739
 8203SOL    HW225509   3.032   2.389   6.835
 8204SOL     OW25510   3.629   4.647   6.923
 8204SOL    HW125511   3.692   4.576   6.953
 8204SOL    HW225512   3.535   4.614   6.931
 8205SOL     OW25513   0.417   4.699   0.019
 8205SOL    HW125514   0.365   4.776   7.004
 8205SOL    HW225515   0.357   4.621   0.035
 8206SOL     OW25516   4.981   1.627   6.574
 8206SOL    HW125517   5.062   1.571   6.560
 8206SOL    HW225518   5.006   1.710   6.623
 8207SOL     OW25519   3.002   3.280   4.422
 8207SOL    HW125520   3.045   3.346   4.360
 8207SOL    HW225521   3.011   3.188   4.385
 8208SOL     OW25522   1.030   0.498   1.401
 8208SOL    HW125523   1.044   0.470   1.495
 8208SOL    HW225524   0.949   0.557   1.395
 8209SOL     OW25525   0.226   1.649   5.230
 8209SOL    HW125526   0.262   1.686   5.144
 8209SOL    HW225527   0.248   1.552   5.237
 8210SOL     OW25528   2.198   1.471   0.364
 8210SOL    HW125529   2.228   1.453   0.270
 8210SOL    HW225530   2.243   1.407   0.426
 8211SOL     OW25531   3.891   4.026   1.749
 8211SOL    HW125532   3.924   4.010   1.842
 8211SOL    HW225533   3.852   4.117   1.743
 8212SOL     OW25534   2.201   2.385   2.276
 8212SOL    HW125535   2.258   2.392   2.358
 8212SOL    HW225536   2.157   2.296   2.273
 8213SOL     OW25537   6.734   4.155   1.225
 8213SOL    HW125538   6.661   4.103   1.269
 8213SOL    HW225539   6.778   4.215   1.292
 8214SOL     OW25540   5.876   5.762   3.811
 8214SOL    HW125541   5.949   5.730   3.751
 8214SOL    HW225542   5.804   5.692   3.817
 8215SOL     OW25543   2.952   5.477   6.093
 8215SOL    HW125544   3.046   5.451   6.114
 8215SOL    HW225545   2.949   5.521   6.003
 8216SOL     OW25546   5.152   5.290   4.055
 8216SOL    HW125547   5.236   5.328   4.016
 8216SOL    HW225548   5.174   5.210   4.111
 8217SOL     OW25549   1.343   4.366   0.262
 8217SOL    HW125550   1.296   4.360   0.350
 8217SOL    HW225551   1.440   4.384   0.277
 8218SOL     OW25552   0.420   6.808   6.370
 8218SOL    HW125553   0.424   6.764   6.281
 8218SOL    HW225554   0.385   6.901   6.361
 8219SOL     OW25555   4.652   2.377   0.774
 8219SOL    HW125556   4.582   2.329   0.828
 8219SOL    HW225557   4.642   2.352   0.678
 8220SOL     OW25558   3.423   3.014   3.469
 8220SOL    HW125559   3.474   3.062   3.541
 8220SOL    HW225560   3.325   3.028   3.482
 8221SOL     OW25561   5.545   6.659   3.546
 8221SOL    HW125562   5.624   6.627   3.599
 8221SOL    HW225563   5.474   6.689   3.608
 8222SOL     OW25564   5.814   1.299   1.451
 8222SOL    HW125565   5.821   1.380   1.509
 8222SOL    HW225566   5.787   1.326   1.358
 8223SOL     OW25567   0.889   4.914   5.580
 8223SOL    HW125568   0.820   4.986   5.590
 8223SOL    HW225569   0.896   4.863   5.666
 8224SOL     OW25570   6.207   0.921   2.635
 8224SOL    HW125571   6.225   0.938   2.538
 8224SOL    HW225572   6.187   0.824   2.649
 8225SOL     OW25573   3.285   1.494   0.727
 8225SOL    HW125574   3.324   1.475   0.636
 8225SOL    HW225575   3.358   1.526   0.787
 8226SOL     OW25576   3.945   0.208   0.917
 8226SOL    HW125577   3.909   0.195   0.825
 8226SOL    HW225578   4.045   0.213   0.914
 8227SOL     OW25579   6.723   1.629   2.840
 8227SOL    HW125580   6.815   1.597   2.863
 8227SOL    HW225581   6.690   1.583   2.758
 8228SOL     OW25582   6.776   2.086   5.820
 8228SOL    HW125583   6.770   2.097   5.919
 8228SOL    HW225584   6.814   1.996   5.799
 8229SOL     OW25585   4.547   2.740   0.768
 8229SOL    HW125586   4.546   2.731   0.868
 8229SOL    HW225587   4.500   2.661   0.728
 8230SOL     OW25588   4.169   0.264   5.480
 8230SOL    HW125589   4.242   0.204   5.514
 8230SOL    HW225590   4.109   0.212   5.419
 8231SOL     OW25591   3.152   4.497   0.789
 8231SOL    HW125592   3.170   4.408   0.830
 8231SOL    HW225593   3.076   4.542   0.837
 8232SOL     OW25594   5.064   1.367   1.815
 8232SOL    HW125595   5.148   1.418   1.799
 8232SOL    HW225596   5.013   1.358   1.729
 8233SOL     OW25597   1.490   5.559   6.307
 8233SOL    HW125598   1.499   5.491   6.381
 8233SOL    HW225599   1.578   5.567   6.260
 8234SOL     OW25600   2.594   4.156   6.709
 8234SOL    HW125601   2.598   4.190   6.803
 8234SOL    HW225602   2.576   4.057   6.710
 8235SOL     OW25603   0.539   3.167   0.075
 8235SOL    HW125604   0.517   3.134   0.167
 8235SOL    HW225605   0.455   3.181   0.023
 8236SOL     OW25606   0.777   4.791   0.774
 8236SOL    HW125607   0.832   4.789   0.857
 8236SOL    HW225608   0.692   4.842   0.791
 8237SOL     OW25609   3.910   6.759   4.182
 8237SOL    HW125610   3.905   6.817   4.101
 8237SOL    HW225611   3.980   6.689   4.169
 8238SOL     OW25612   0.545   5.287   6.106
 8238SOL    HW125613   0.625   5.261   6.159
 8238SOL    HW225614   0.553   5.251   6.013
 8239SOL     OW25615   6.415   1.565   5.884
 8239SOL    HW125616   6.395   1.489   5.822
 8239SOL    HW225617   6.513   1.584   5.882
 8240SOL     OW25618   3.632   4.122   2.554
 8240SOL    HW125619   3.538   4.098   2.578
 8240SOL    HW225620   3.686   4.133   2.637
 8241SOL     OW25621   3.912   0.078   5.952
 8241SOL    HW125622   3.991   0.017   5.955
 8241SOL    HW225623   3.929   0.159   6.008
 8242SOL     OW25624   0.483   4.914   5.505
 8242SOL    HW125625   0.465   4.867   5.419
 8242SOL    HW225626   0.398   4.950   5.543
 8243SOL     OW25627   0.449   2.453   0.302
 8243SOL    HW125628   0.542   2.457   0.338
 8243SOL    HW225629   0.448   2.491   0.209
 8244SOL     OW25630   0.620   0.772   4.696
 8244SOL    HW125631   0.714   0.750   4.668
 8244SOL    HW225632   0.568   0.688   4.708
 8245SOL     OW25633   4.227   1.848   2.568
 8245SOL    HW125634   4.213   1.752   2.546
 8245SOL    HW225635   4.320   1.861   2.603
 8246SOL     OW25636   1.009   2.950   5.786
 8246SOL    HW125637   1.033   3.044   5.762
 8246SOL    HW225638   0.985   2.899   5.703
 8247SOL     OW25639   1.945   0.547   2.453
 8247SOL    HW125640   1.897   0.623   2.409
 8247SOL    HW225641   2.017   0.514   2.392
 8248SOL     OW25642   6.246   5.584   4.935
 8248SOL    HW125643   6.215   5.496   4.900
 8248SOL    HW225644   6.296   5.570   5.021
 8249SOL     OW25645   1.795   2.837   5.689
 8249SOL    HW125646   1.750   2.861   5.776
 8249SOL    HW225647   1.786   2.738   5.674
 8250SOL     OW25648   3.306   3.932   2.066
 8250SOL    HW125649   3.311   3.912   2.164
 8250SOL    HW225650   3.305   3.846   2.015
 8251SOL     OW25651   5.262   3.618   4.349
 8251SOL    HW125652   5.341   3.558   4.365
 8251SOL    HW225653   5.227   3.650   4.437
 8252SOL     OW25654   2.874   1.636   4.861
 8252SOL    HW125655   2.812   1.626   4.784
 8252SOL    HW225656   2.895   1.733   4.874
 8253SOL     OW25657   4.021   4.810   5.633
 8253SOL    HW125658   3.999   4.892   5.687
 8253SOL    HW225659   3.981   4.819   5.542
 8254SOL     OW25660   4.504   4.447   5.351
 8254SOL    HW125661   4.470   4.359   5.321
 8254SOL    HW225662   4.602   4.440   5.372
 8255SOL     OW25663   2.195   0.189   5.375
 8255SOL    HW125664   2.187   0.186   5.275
 8255SOL    HW225665   2.285   0.224   5.400
 8256SOL     OW25666   6.892   6.676   2.401
 8256SOL    HW125667   6.865   6.751   2.341
 8256SOL    HW225668   6.873   6.589   2.356
 8257SOL     OW25669   5.302   4.069   2.966
 8257SOL    HW125670   5.270   3.977   2.944
 8257SOL    HW225671   5.302   4.082   3.065
 8258SOL     OW25672   5.704   1.847   0.864
 8258SOL    HW125673   5.794   1.882   0.837
 8258SOL    HW225674   5.711   1.751   0.891
 8259SOL     OW25675   3.814   1.588   4.113
 8259SOL    HW125676   3.813   1.661   4.045
 8259SOL    HW225677   3.756   1.512   4.082
 8260SOL     OW25678   2.594   6.578   1.259
 8260SOL    HW125679   2.597   6.659   1.318
 8260SOL    HW225680   2.512   6.582   1.202
 8261SOL     OW25681   6.327   6.881   2.212
 8261SOL    HW125682   6.377   6.854   2.294
 8261SOL    HW225683   6.295   6.800   2.164
 8262SOL     OW25684   0.661   3.374   0.526
 8262SOL    HW125685   0.631   3.285   0.563
 8262SOL    HW225686   0.580   3.428   0.503
 8263SOL     OW25687   0.696   2.622   6.355
 8263SOL    HW125688   0.680   2.666   6.267
 8263SOL    HW225689   0.677   2.687   6.429
 8264SOL     OW25690   2.411   6.474   2.099
 8264SOL    HW125691   2.461   6.423   2.029
 8264SOL    HW225692   2.377   6.411   2.168
 8265SOL     OW25693   6.718   0.551   1.139
 8265SOL    HW125694   6.651   0.489   1.098
 8265SOL    HW225695   6.810   0.524   1.113
 8266SOL     OW25696   2.458   1.294   3.706
 8266SOL    HW125697   2.489   1.333   3.619
 8266SOL    HW225698   2.484   1.355   3.781
 8267SOL     OW25699   1.954   2.895   1.135
 8267SOL    HW125700   1.974   2.856   1.046
 8267SOL    HW225701   2.036   2.940   1.171
 8268SOL     OW25702   1.744   6.444   5.905
 8268SOL    HW125703   1.782   6.459   5.996
 8268SOL    HW225704   1.687   6.523   5.880
 8269SOL     OW25705   4.394   1.257   2.554
 8269SOL    HW125706   4.459   1.235   2.627
 8269SOL    HW225707   4.423   1.213   2.469
 8270SOL     OW25708   2.832   6.506   4.945
 8270SOL    HW125709   2.798   6.576   5.008
 8270SOL    HW225710   2.922   6.533   4.910
 8271SOL     OW25711   0.396   0.282   3.295
 8271SOL    HW125712   0.488   0.300   3.260
 8271SOL    HW225713   0.383   0.332   3.381
 8272SOL     OW25714   5.892   2.062   2.357
 8272SOL    HW125715   5.961   2.111   2.304
 8272SOL    HW225716   5.832   2.127   2.403
 8273SOL     OW25717   2.494   1.224   6.783
 8273SOL    HW125718   2.506   1.321   6.801
 8273SOL    HW225719   2.580   1.185   6.751
 8274SOL     OW25720   5.217   4.704   4.508
 8274SOL    HW125721   5.198   4.764   4.431
 8274SOL    HW225722   5.301   4.732   4.554
 8275SOL     OW25723   6.044   1.162   5.730
 8275SOL    HW125724   6.030   1.230   5.658
 8275SOL    HW225725   6.043   1.206   5.819
 8276SOL     OW25726   0.612   2.676   3.335
 8276SOL    HW125727   0.573   2.715   3.251
 8276SOL    HW225728   0.712   2.688   3.333
 8277SOL     OW25729   0.266   6.038   6.197
 8277SOL    HW125730   0.238   6.128   6.233
 8277SOL    HW225731   0.197   5.970   6.222
 8278SOL     OW25732   3.141   1.487   5.969
 8278SOL    HW125733   3.106   1.564   5.916
 8278SOL    HW225734   3.241   1.487   5.967
 8279SOL     OW25735   1.406   6.403   4.585
 8279SOL    HW125736   1.484   6.461   4.607
 8279SOL    HW225737   1.436   6.327   4.527
 8280SOL     OW25738   2.016   3.387   0.454
 8280SOL    HW125739   1.955   3.466   0.447
 8280SOL    HW225740   2.073   3.395   0.536
 8281SOL     OW25741   3.057   4.246   1.785
 8281SOL    HW125742   3.043   4.185   1.863
 8281SOL    HW225743   3.005   4.330   1.798
 8282SOL     OW25744   5.114   3.343   0.016
 8282SOL    HW125745   5.130   3.416   0.082
 8282SOL    HW225746   5.186   3.274   0.026
 8283SOL     OW25747   1.953   5.338   5.789
 8283SOL    HW125748   1.868   5.382   5.816
 8283SOL    HW225749   1.934   5.267   5.721
 8284SOL     OW25750   0.732   3.722   1.124
 8284SOL    HW125751   0.784   3.773   1.192
 8284SOL    HW225752   0.792   3.654   1.081
 8285SOL     OW25753   3.207   4.042   5.005
 8285SOL    HW125754   3.244   3.956   4.971
 8285SOL    HW225755   3.118   4.025   5.049
 8286SOL     OW25756   5.908   1.935   6.159
 8286SOL    HW125757   5.900   1.949   6.060
 8286SOL    HW225758   5.821   1.959   6.203
 8287SOL     OW25759   1.494   5.693   4.274
 8287SOL    HW125760   1.555   5.616   4.261
 8287SOL    HW225761   1.412   5.681   4.218
 8288SOL     OW25762   3.047   2.109   1.955
 8288SOL    HW125763   3.146   2.117   1.967
 8288SOL    HW225764   3.003   2.191   1.993
 8289SOL     OW25765   0.810   6.084   0.522
 8289SOL    HW125766   0.825   5.986   0.537
 8289SOL    HW225767   0.774   6.098   0.430
 8290SOL     OW25768   5.517   1.603   1.360
 8290SOL    HW125769   5.486   1.670   1.293
 8290SOL    HW225770   5.465   1.614   1.445
 8291SOL     OW25771   4.910   6.162   4.754
 8291SOL    HW125772   4.871   6.210   4.675
 8291SOL    HW225773   4.903   6.219   4.835
 8292SOL     OW25774   2.701   6.774   6.751
 8292SOL    HW125775   2.663   6.764   6.659
 8292SOL    HW225776   2.773   6.706   6.766
 8293SOL     OW25777   2.743   5.398   0.745
 8293SOL    HW125778   2.700   5.487   0.731
 8293SOL    HW225779   2.816   5.407   0.813
 8294SOL     OW25780   5.607   3.125   5.373
 8294SOL    HW125781   5.516   3.087   5.386
 8294SOL    HW225782   5.620   3.204   5.434
 8295SOL     OW25783   5.129   5.637   2.091
 8295SOL    HW125784   5.221   5.647   2.130
 8295SOL    HW225785   5.132   5.653   1.993
 8296SOL     OW25786   1.525   4.473   6.848
 8296SOL    HW125787   1.567   4.513   6.767
 8296SOL    HW225788   1.557   4.522   6.930
 8297SOL     OW25789   0.188   2.985   2.557
 8297SOL    HW125790   0.277   3.006   2.597
 8297SOL    HW225791   0.201   2.943   2.467
 8298SOL     OW25792   6.141   1.335   1.747
 8298SOL    HW125793   6.116   1.386   1.664
 8298SOL    HW225794   6.233   1.363   1.776
 8299SOL     OW25795   6.566   2.256   2.319
 8299SOL    HW125796   6.643   2.212   2.365
 8299SOL    HW225797   6.492   2.270   2.385
 8300SOL     OW25798   0.498   5.685   4.711
 8300SOL    HW125799   0.441   5.730   4.643
 8300SOL    HW225800   0.487   5.730   4.800
 8301SOL     OW25801   3.542   1.765   1.198
 8301SOL    HW125802   3.563   1.794   1.291
 8301SOL    HW225803   3.456   1.714   1.198
 8302SOL     OW25804   5.634   0.122   6.790
 8302SOL    HW125805   5.610   0.100   6.695
 8302SOL    HW225806   5.716   0.071   6.816
 8303SOL     OW25807   6.365   1.109   3.593
 8303SOL    HW125808   6.280   1.153   3.565
 8303SOL    HW225809   6.408   1.065   3.514
 8304SOL     OW25810   7.000   3.149   1.068
 8304SOL    HW125811   0.051   3.158   0.999
 8304SOL    HW225812   6.920   3.202   1.040
 8305SOL     OW25813   4.673   4.975   3.997
 8305SOL    HW125814   4.623   5.017   4.073
 8305SOL    HW225815   4.761   5.021   3.986
 8306SOL     OW25816   5.901   1.867   5.831
 8306SOL    HW125817   5.803   1.880   5.846
 8306SOL    HW225818   5.924   1.889   5.736
 8307SOL     OW25819   3.614   5.623   1.880
 8307SOL    HW125820   3.543   5.644   1.814
 8307SOL    HW225821   3.640   5.527   1.873
 8308SOL     OW25822   3.310   5.357   1.769
 8308SOL    HW125823   3.408   5.374   1.785
 8308SOL    HW225824   3.295   5.259   1.758
 8309SOL     OW25825   6.519   5.210   3.601
 8309SOL    HW125826   6.436   5.263   3.618
 8309SOL    HW225827   6.570   5.199   3.686
 8310SOL     OW25828   0.033   5.497   0.798
 8310SOL    HW125829   0.087   5.565   0.748
 8310SOL    HW225830   7.012   5.540   0.877
 8311SOL     OW25831   0.833   1.698   4.632
 8311SOL    HW125832   0.863   1.772   4.572
 8311SOL    HW225833   0.762   1.645   4.585
 8312SOL     OW25834   5.143   0.300   6.972
 8312SOL    HW125835   5.175   0.381   7.021
 8312SOL    HW225836   5.219   0.235   6.962
 8313SOL     OW25837   5.548   6.934   0.622
 8313SOL    HW125838   5.631   6.947   0.677
 8313SOL    HW225839   5.498   7.020   0.616
 8314SOL     OW25840   5.298   0.487   0.185
 8314SOL    HW125841   5.343   0.520   0.268
 8314SOL    HW225842   5.199   0.496   0.195
 8315SOL     OW25843   4.249   3.197   1.422
 8315SOL    HW125844   4.301   3.120   1.461
 8315SOL    HW225845   4.297   3.232   1.342
 8316SOL     OW25846   1.566   2.179   1.229
 8316SOL    HW125847   1.502   2.154   1.302
 8316SOL    HW225848   1.659   2.184   1.266
 8317SOL     OW25849   1.833   2.928   2.272
 8317SOL    HW125850   1.772   2.850   2.257
 8317SOL    HW225851   1.897   2.907   2.346
 8318SOL     OW25852   4.493   1.604   5.260
 8318SOL    HW125853   4.558   1.671   5.297
 8318SOL    HW225854   4.476   1.625   5.163
 8319SOL     OW25855   1.936   1.715   0.234
 8319SOL    HW125856   1.891   1.716   0.324
 8319SOL    HW225857   2.012   1.780   0.234
 8320SOL     OW25858   3.207   3.483   2.236
 8320SOL    HW125859   3.198   3.416   2.310
 8320SOL    HW225860   3.122   3.487   2.185
 8321SOL     OW25861   6.873   0.190   6.257
 8321SOL    HW125862   6.824   0.255   6.199
 8321SOL    HW225863   6.883   0.228   6.349
 8322SOL     OW25864   6.209   6.972   1.045
 8322SOL    HW125865   6.271   7.010   1.113
 8322SOL    HW225866   6.185   0.021   0.978
 8323SOL     OW25867   4.984   5.362   2.226
 8323SOL    HW125868   4.905   5.352   2.167
 8323SOL    HW225869   4.976   5.446   2.280
 8324SOL     OW25870   5.456   6.446   1.249
 8324SOL    HW125871   5.369   6.475   1.208
 8324SOL    HW225872   5.531   6.494   1.202
 8325SOL     OW25873   2.911   3.866   5.612
 8325SOL    HW125874   2.919   3.827   5.704
 8325SOL    HW225875   2.913   3.966   5.619
 8326SOL     OW25876   5.269   3.528   5.432
 8326SOL    HW125877   5.300   3.451   5.488
 8326SOL    HW225878   5.185   3.503   5.385
 8327SOL     OW25879   6.187   1.333   6.199
 8327SOL    HW125880   6.264   1.396   6.206
 8327SOL    HW225881   6.190   1.267   6.273
 8328SOL     OW25882   2.704   6.173   5.884
 8328SOL    HW125883   2.643   6.249   5.904
 8328SOL    HW225884   2.678   6.093   5.938
 8329SOL     OW25885   1.469   3.388   5.828
 8329SOL    HW125886   1.478   3.305   5.774
 8329SOL    HW225887   1.446   3.364   5.923
 8330SOL     OW25888   2.505   1.482   6.856
 8330SOL    HW125889   2.436   1.511   6.922
 8330SOL    HW225890   2.594   1.477   6.900
 8331SOL     OW25891   2.997   0.856   1.072
 8331SOL    HW125892   2.940   0.912   1.011
 8331SOL    HW225893   3.087   0.844   1.030
 8332SOL     OW25894   4.598   5.215   2.304
 8332SOL    HW125895   4.508   5.235   2.265
 8332SOL    HW225896   4.596   5.233   2.403
 8333SOL     OW25897   0.418   6.467   6.305
 8333SOL    HW125898   0.333   6.455   6.253
 8333SOL    HW225899   0.398   6.515   6.391
 8334SOL     OW25900   3.943   0.984   3.750
 8334SOL    HW125901   3.934   1.058   3.816
 8334SOL    HW225902   4.010   0.917   3.784
 8335SOL     OW25903   5.429   6.790   0.154
 8335SOL    HW125904   5.449   6.845   0.236
 8335SOL    HW225905   5.397   6.700   0.182
 8336SOL     OW25906   6.857   4.724   3.202
 8336SOL    HW125907   6.879   4.695   3.109
 8336SOL    HW225908   6.891   4.817   3.217
 8337SOL     OW25909   2.288   6.345   2.564
 8337SOL    HW125910   2.337   6.387   2.641
 8337SOL    HW225911   2.289   6.246   2.573
 8338SOL     OW25912   4.017   5.133   1.960
 8338SOL    HW125913   4.017   5.204   2.031
 8338SOL    HW225914   4.005   5.044   2.003
 8339SOL     OW25915   6.055   0.547   1.395
 8339SOL    HW125916   6.112   0.551   1.313
 8339SOL    HW225917   5.973   0.602   1.382
 8340SOL     OW25918   4.630   3.096   1.186
 8340SOL    HW125919   4.696   3.074   1.115
 8340SOL    HW225920   4.578   3.178   1.160
 8341SOL     OW25921   2.979   6.335   0.263
 8341SOL    HW125922   2.993   6.284   0.348
 8341SOL    HW225923   2.893   6.307   0.221
 8342SOL     OW25924   4.066   6.009   1.088
 8342SOL    HW125925   4.120   6.089   1.062
 8342SOL    HW225926   4.007   5.982   1.012
 8343SOL     OW25927   1.707   5.657   5.540
 8343SOL    HW125928   1.647   5.662   5.619
 8343SOL    HW225929   1.653   5.646   5.457
 8344SOL     OW25930   4.554   6.153   4.373
 8344SOL    HW125931   4.592   6.238   4.337
 8344SOL    HW225932   4.536   6.164   4.471
 8345SOL     OW25933   4.500   1.532   2.713
 8345SOL    HW125934   4.502   1.546   2.614
 8345SOL    HW225935   4.512   1.435   2.734
 8346SOL     OW25936   2.990   5.130   0.734
 8346SOL    HW125937   2.927   5.180   0.675
 8346SOL    HW225938   3.069   5.188   0.754
 8347SOL     OW25939   3.338   5.483   4.229
 8347SOL    HW125940   3.363   5.575   4.258
 8347SOL    HW225941   3.272   5.445   4.293
 8348SOL     OW25942   2.515   0.404   2.049
 8348SOL    HW125943   2.416   0.411   2.034
 8348SOL    HW225944   2.548   0.318   2.010
 8349SOL     OW25945   5.816   6.322   1.849
 8349SOL    HW125946   5.797   6.242   1.793
 8349SOL    HW225947   5.745   6.391   1.835
 8350SOL     OW25948   3.746   6.879   5.791
 8350SOL    HW125949   3.677   6.944   5.759
 8350SOL    HW225950   3.832   6.927   5.807
 8351SOL     OW25951   5.068   5.464   4.233
 8351SOL    HW125952   4.974   5.495   4.219
 8351SOL    HW225953   5.096   5.405   4.158
 8352SOL     OW25954   0.843   0.201   3.332
 8352SOL    HW125955   0.821   0.297   3.316
 8352SOL    HW225956   0.761   0.145   3.325
 8353SOL     OW25957   6.783   3.267   1.668
 8353SOL    HW125958   6.843   3.187   1.665
 8353SOL    HW225959   6.738   3.278   1.579
 8354SOL     OW25960   4.127   6.909   5.944
 8354SOL    HW125961   4.181   6.898   6.027
 8354SOL    HW225962   4.151   6.835   5.880
 8355SOL     OW25963   2.585   0.716   5.931
 8355SOL    HW125964   2.601   0.664   6.015
 8355SOL    HW225965   2.573   0.813   5.953
 8356SOL     OW25966   0.774   6.098   0.989
 8356SOL    HW125967   0.715   6.101   1.069
 8356SOL    HW225968   0.854   6.042   1.008
 8357SOL     OW25969   4.337   6.817   4.530
 8357SOL    HW125970   4.363   6.891   4.468
 8357SOL    HW225971   4.341   6.850   4.624
 8358SOL     OW25972   1.197   4.591   5.323
 8358SOL    HW125973   1.214   4.532   5.244
 8358SOL    HW225974   1.279   4.596   5.380
 8359SOL     OW25975   2.976   0.696   5.118
 8359SOL    HW125976   2.937   0.641   5.191
 8359SOL    HW225977   2.973   0.793   5.145
 8360SOL     OW25978   3.871   6.186   0.958
 8360SOL    HW125979   3.839   6.127   1.032
 8360SOL    HW225980   3.860   6.282   0.985
 8361SOL     OW25981   2.984   0.632   2.394
 8361SOL    HW125982   3.080   0.603   2.396
 8361SOL    HW225983   2.974   0.708   2.330
 8362SOL     OW25984   4.415   2.046   0.533
 8362SOL    HW125985   4.444   1.951   0.545
 8362SOL    HW225986   4.477   2.107   0.582
 8363SOL     OW25987   6.800   2.736   6.507
 8363SOL    HW125988   6.709   2.700   6.486
 8363SOL    HW225989   6.825   2.711   6.601
 8364SOL     OW25990   1.540   2.632   2.984
 8364SOL    HW125991   1.593   2.600   3.062
 8364SOL    HW225992   1.443   2.634   3.008
 8365SOL     OW25993   1.808   4.012   1.800
 8365SOL    HW125994   1.843   4.034   1.891
 8365SOL    HW225995   1.883   3.984   1.741
 8366SOL     OW25996   2.172   6.079   2.036
 8366SOL    HW125997   2.135   5.998   2.081
 8366SOL    HW225998   2.120   6.160   2.064
 8367SOL     OW25999   3.884   6.072   4.050
 8367SOL    HW126000   3.942   6.123   4.113
 8367SOL    HW226001   3.937   6.002   4.004
 8368SOL     OW26002   2.135   5.838   6.131
 8368SOL    HW126003   2.066   5.784   6.083
 8368SOL    HW226004   2.096   5.875   6.216
 8369SOL     OW26005   1.485   6.571   6.574
 8369SOL    HW126006   1.524   6.528   6.493
 8369SOL    HW226007   1.553   6.572   6.647
 8370SOL     OW26008   2.752   1.754   5.784
 8370SOL    HW126009   2.675   1.758   5.720
 8370SOL    HW226010   2.745   1.672   5.840
 8371SOL     OW26011   1.908   4.280   0.816
 8371SOL    HW126012   1.976   4.294   0.888
 8371SOL    HW226013   1.907   4.184   0.788
 8372SOL     OW26014   0.893   5.504   2.316
 8372SOL    HW126015   0.796   5.493   2.337
 8372SOL    HW226016   0.946   5.504   2.401
 8373SOL     OW26017   1.676   0.120   3.658
 8373SOL    HW126018   1.616   0.182   3.609
 8373SOL    HW226019   1.633   0.029   3.663
 8374SOL     OW26020   0.403   0.463   5.195
 8374SOL    HW126021   0.502   0.476   5.203
 8374SOL    HW226022   0.384   0.372   5.158
 8375SOL     OW26023   3.595   6.623   4.926
 8375SOL    HW126024   3.624   6.688   4.856
 8375SOL    HW226025   3.500   6.642   4.952
 8376SOL     OW26026   1.381   0.895   4.062
 8376SOL    HW126027   1.379   0.816   4.123
 8376SOL    HW226028   1.349   0.976   4.112
 8377SOL     OW26029   4.570   5.966   1.027
 8377SOL    HW126030   4.600   5.978   1.122
 8377SOL    HW226031   4.641   6.001   0.966
 8378SOL     OW26032   4.511   5.218   2.597
 8378SOL    HW126033   4.484   5.276   2.673
 8378SOL    HW226034   4.497   5.122   2.622
 8379SOL     OW26035   5.659   2.633   1.319
 8379SOL    HW126036   5.642   2.691   1.398
 8379SOL    HW226037   5.647   2.686   1.235
 8380SOL     OW26038   0.004   0.572   2.190
 8380SOL    HW126039   6.948   0.583   2.253
 8380SOL    HW226040   0.031   0.662   2.155
 8381SOL     OW26041   0.222   3.040   5.220
 8381SOL    HW126042   0.153   3.107   5.248
 8381SOL    HW226043   0.289   3.084   5.160
 8382SOL     OW26044   2.680   1.058   3.236
 8382SOL    HW126045   2.590   1.016   3.246
 8382SOL    HW226046   2.695   1.081   3.140
 8383SOL     OW26047   2.339   6.935   5.961
 8383SOL    HW126048   2.315   6.849   6.005
 8383SOL    HW226049   2.391   6.917   5.878
 8384SOL     OW26050   6.536   0.720   0.866
 8384SOL    HW126051   6.556   0.634   0.819
 8384SOL    HW226052   6.599   0.790   0.833
 8385SOL     OW26053   6.191   1.555   1.268
 8385SOL    HW126054   6.285   1.523   1.283
 8385SOL    HW226055   6.184   1.651   1.297
 8386SOL     OW26056   1.513   5.479   2.233
 8386SOL    HW126057   1.502   5.392   2.280
 8386SOL    HW226058   1.465   5.476   2.145
 8387SOL     OW26059   1.653   1.344   2.706
 8387SOL    HW126060   1.578   1.287   2.673
 8387SOL    HW226061   1.627   1.441   2.700
 8388SOL     OW26062   2.583   6.189   0.396
 8388SOL    HW126063   2.612   6.153   0.485
 8388SOL    HW226064   2.663   6.215   0.342
 8389SOL     OW26065   0.163   3.249   2.917
 8389SOL    HW126066   0.206   3.316   2.977
 8389SOL    HW226067   0.205   3.159   2.932
 8390SOL     OW26068   4.304   1.125   6.551
 8390SOL    HW126069   4.290   1.144   6.454
 8390SOL    HW226070   4.394   1.159   6.579
 8391SOL     OW26071   6.507   4.849   0.912
 8391SOL    HW126072   6.432   4.901   0.871
 8391SOL    HW226073   6.511   4.758   0.870
 8392SOL     OW26074   6.171   3.740   4.717
 8392SOL    HW126075   6.081   3.777   4.742
 8392SOL    HW226076   6.211   3.694   4.796
 8393SOL     OW26077   0.286   0.041   3.209
 8393SOL    HW126078   0.276   0.117   3.273
 8393SOL    HW226079   0.368   0.056   3.152
 8394SOL     OW26080   6.082   2.289   1.257
 8394SOL    HW126081   6.175   2.269   1.226
 8394SOL    HW226082   6.020   2.217   1.227
 8395SOL     OW26083   2.901   7.006   5.408
 8395SOL    HW126084   2.899   0.015   5.313
 8395SOL    HW226085   2.981   6.948   5.423
 8396SOL     OW26086   4.788   5.171   2.860
 8396SOL    HW126087   4.787   5.241   2.932
 8396SOL    HW226088   4.822   5.212   2.775
 8397SOL     OW26089   1.546   0.656   2.711
 8397SOL    HW126090   1.523   0.697   2.799
 8397SOL    HW226091   1.646   0.655   2.700
 8398SOL     OW26092   4.341   1.520   6.434
 8398SOL    HW126093   4.368   1.602   6.385
 8398SOL    HW226094   4.330   1.444   6.369
 8399SOL     OW26095   5.787   6.698   6.822
 8399SOL    HW126096   5.884   6.719   6.827
 8399SOL    HW226097   5.742   6.725   6.907
 8400SOL     OW26098   1.784   1.008   4.585
 8400SOL    HW126099   1.846   1.062   4.529
 8400SOL    HW226100   1.739   1.067   4.652
 8401SOL     OW26101   2.126   1.108   5.529
 8401SOL    HW126102   2.064   1.173   5.573
 8401SOL    HW226103   2.138   1.133   5.433
 8402SOL     OW26104   4.651   1.998   5.899
 8402SOL    HW126105   4.645   1.967   5.994
 8402SOL    HW226106   4.722   1.946   5.852
 8403SOL     OW26107   0.177   3.320   4.592
 8403SOL    HW126108   0.123   3.387   4.643
 8403SOL    HW226109   0.164   3.229   4.630
 8404SOL     OW26110   3.766   6.781   6.215
 8404SOL    HW126111   3.751   6.879   6.203
 8404SOL    HW226112   3.706   6.730   6.154
 8405SOL     OW26113   1.636   1.329   5.862
 8405SOL    HW126114   1.602   1.386   5.788
 8405SOL    HW226115   1.567   1.263   5.888
 8406SOL     OW26116   4.387   0.919   0.367
 8406SOL    HW126117   4.474   0.969   0.370
 8406SOL    HW226118   4.397   0.838   0.309
 8407SOL     OW26119   3.340   6.498   2.929
 8407SOL    HW126120   3.245   6.513   2.957
 8407SOL    HW226121   3.357   6.400   2.920
 8408SOL     OW26122   5.691   4.021   1.218
 8408SOL    HW126123   5.628   4.099   1.213
 8408SOL    HW226124   5.718   4.006   1.313
 8409SOL     OW26125   5.269   1.761   2.724
 8409SOL    HW126126   5.281   1.759   2.625
 8409SOL    HW226127   5.226   1.676   2.754
 8410SOL     OW26128   5.660   0.515   1.537
 8410SOL    HW126129   5.739   0.465   1.571
 8410SOL    HW226130   5.640   0.591   1.600
 8411SOL     OW26131   0.831   5.435   0.179
 8411SOL    HW126132   0.784   5.377   0.112
 8411SOL    HW226133   0.917   5.468   0.140
 8412SOL     OW26134   3.614   2.117   1.549
 8412SOL    HW126135   3.542   2.138   1.483
 8412SOL    HW226136   3.696   2.169   1.526
 8413SOL     OW26137   3.963   5.624   6.825
 8413SOL    HW126138   3.945   5.688   6.900
 8413SOL    HW226139   3.891   5.635   6.756
 8414SOL     OW26140   3.858   6.355   3.992
 8414SOL    HW126141   3.828   6.392   3.904
 8414SOL    HW226142   3.832   6.259   3.998
 8415SOL     OW26143   0.234   6.065   3.918
 8415SOL    HW126144   0.301   6.057   3.844
 8415SOL    HW226145   0.264   6.012   3.997
 8416SOL     OW26146   6.299   3.371   2.863
 8416SOL    HW126147   6.345   3.446   2.910
 8416SOL    HW226148   6.346   3.285   2.882
 8417SOL     OW26149   1.094   4.133   5.515
 8417SOL    HW126150   1.070   4.135   5.612
 8417SOL    HW226151   1.079   4.041   5.479
 8418SOL     OW26152   5.634   5.393   1.062
 8418SOL    HW126153   5.693   5.335   1.006
 8418SOL    HW226154   5.616   5.348   1.150
 8419SOL     OW26155   5.601   0.080   1.362
 8419SOL    HW126156   5.600   0.006   1.295
 8419SOL    HW226157   5.517   0.134   1.354
 8420SOL     OW26158   4.564   6.807   0.501
 8420SOL    HW126159   4.588   6.809   0.404
 8420SOL    HW226160   4.466   6.826   0.512
 8421SOL     OW26161   3.211   5.809   6.841
 8421SOL    HW126162   3.266   5.734   6.877
 8421SOL    HW226163   3.180   5.867   6.916
 8422SOL     OW26164   4.316   1.498   2.070
 8422SOL    HW126165   4.328   1.400   2.056
 8422SOL    HW226166   4.342   1.521   2.164
 8423SOL     OW26167   3.035   5.113   6.193
 8423SOL    HW126168   2.981   5.194   6.173
 8423SOL    HW226169   2.992   5.033   6.152
 8424SOL     OW26170   2.182   1.891   2.506
 8424SOL    HW126171   2.151   1.874   2.600
 8424SOL    HW226172   2.214   1.806   2.465
 8425SOL     OW26173   4.217   4.614   6.257
 8425SOL    HW126174   4.195   4.528   6.211
 8425SOL    HW226175   4.152   4.685   6.230
 8426SOL     OW26176   3.707   3.169   3.231
 8426SOL    HW126177   3.705   3.080   3.276
 8426SOL    HW226178   3.634   3.173   3.162
 8427SOL     OW26179   3.744   4.055   4.140
 8427SOL    HW126180   3.718   4.110   4.061
 8427SOL    HW226181   3.681   4.074   4.215
 8428SOL     OW26182   0.604   6.093   1.344
 8428SOL    HW126183   0.636   6.003   1.374
 8428SOL    HW226184   0.675   6.161   1.363
 8429SOL     OW26185   1.380   6.022   4.529
 8429SOL    HW126186   1.383   5.924   4.548
 8429SOL    HW226187   1.286   6.054   4.535
 8430SOL     OW26188   3.802   5.619   3.395
 8430SOL    HW126189   3.868   5.649   3.326
 8430SOL    HW226190   3.827   5.528   3.428
 8431SOL     OW26191   3.627   3.760   1.318
 8431SOL    HW126192   3.648   3.816   1.398
 8431SOL    HW226193   3.675   3.672   1.325
 8432SOL     OW26194   5.720   6.401   6.037
 8432SOL    HW126195   5.753   6.439   5.951
 8432SOL    HW226196   5.620   6.408   6.040
 8433SOL     OW26197   4.875   2.544   0.731
 8433SOL    HW126198   4.793   2.491   0.752
 8433SOL    HW226199   4.849   2.634   0.697
 8434SOL     OW26200   3.016   0.073   4.732
 8434SOL    HW126201   3.006   0.153   4.791
 8434SOL    HW226202   3.109   0.071   4.694
 8435SOL     OW26203   6.274   0.873   1.237
 8435SOL    HW126204   6.186   0.905   1.273
 8435SOL    HW226205   6.278   0.894   1.139
 8436SOL     OW26206   3.057   6.531   3.049
 8436SOL    HW126207   2.981   6.560   2.992
 8436SOL    HW226208   3.029   6.531   3.145
 8437SOL     OW26209   2.242   1.399   4.266
 8437SOL    HW126210   2.257   1.305   4.298
 8437SOL    HW226211   2.158   1.402   4.211
 8438SOL     OW26212   2.104   4.657   2.841
 8438SOL    HW126213   2.048   4.656   2.924
 8438SOL    HW226214   2.195   4.691   2.864
 8439SOL     OW26215   6.066   5.223   2.869
 8439SOL    HW126216   6.059   5.310   2.918
 8439SOL    HW226217   6.135   5.166   2.914
 8440SOL     OW26218   2.320   1.848   3.549
 8440SOL    HW126219   2.341   1.865   3.646
 8440SOL    HW226220   2.392   1.887   3.492
 8441SOL     OW26221   5.694   6.769   0.043
 8441SOL    HW126222   5.736   6.748   0.131
 8441SOL    HW226223   5.595   6.776   0.055
 8442SOL     OW26224   3.724   2.294   5.252
 8442SOL    HW126225   3.750   2.237   5.174
 8442SOL    HW226226   3.792   2.284   5.325
 8443SOL     OW26227   2.446   4.727   3.496
 8443SOL    HW126228   2.469   4.630   3.488
 8443SOL    HW226229   2.363   4.738   3.551
 8444SOL     OW26230   2.856   6.198   4.575
 8444SOL    HW126231   2.813   6.278   4.616
 8444SOL    HW226232   2.786   6.130   4.555
 8445SOL     OW26233   3.354   6.953   1.282
 8445SOL    HW126234   3.423   6.941   1.210
 8445SOL    HW226235   3.288   6.878   1.277
 8446SOL     OW26236   5.124   5.607   6.802
 8446SOL    HW126237   5.036   5.637   6.840
 8446SOL    HW226238   5.113   5.591   6.704
 8447SOL     OW26239   4.995   1.858   2.312
 8447SOL    HW126240   4.997   1.905   2.401
 8447SOL    HW226241   5.037   1.916   2.243
 8448SOL     OW26242   4.366   5.801   4.201
 8448SOL    HW126243   4.314   5.780   4.118
 8448SOL    HW226244   4.364   5.723   4.263
 8449SOL     OW26245   0.019   3.061   3.497
 8449SOL    HW126246   7.014   3.063   3.593
 8449SOL    HW226247   0.114   3.033   3.489
 8450SOL     OW26248   0.743   0.028   0.772
 8450SOL    HW126249   0.710   0.114   0.735
 8450SOL    HW226250   0.842   0.020   0.757
 8451SOL     OW26251   3.702   1.596   0.194
 8451SOL    HW126252   3.676   1.501   0.177
 8451SOL    HW226253   3.793   1.600   0.234
 8452SOL     OW26254   6.231   1.995   3.076
 8452SOL    HW126255   6.329   2.012   3.064
 8452SOL    HW226256   6.211   1.899   3.055
 8453SOL     OW26257   0.574   4.493   6.911
 8453SOL    HW126258   0.596   4.429   6.985
 8453SOL    HW226259   0.533   4.575   6.950
 8454SOL     OW26260   6.848   6.334   1.468
 8454SOL    HW126261   6.929   6.311   1.415
 8454SOL    HW226262   6.874   6.388   1.548
 8455SOL     OW26263   6.543   1.668   1.803
 8455SOL    HW126264   6.600   1.708   1.732
 8455SOL    HW226265   6.601   1.625   1.872
 8456SOL     OW26266   3.905   5.960   3.671
 8456SOL    HW126267   3.971   5.962   3.596
 8456SOL    HW226268   3.877   6.054   3.693
 8457SOL     OW26269   7.003   6.747   4.797
 8457SOL    HW126270   6.984   6.743   4.699
 8457SOL    HW226271   0.018   6.838   4.820
 8458SOL     OW26272   3.170   0.389   0.306
 8458SOL    HW126273   3.146   0.449   0.230
 8458SOL    HW226274   3.110   0.408   0.384
 8459SOL     OW26275   2.837   5.489   2.038
 8459SOL    HW126276   2.896   5.570   2.033
 8459SOL    HW226277   2.757   5.509   2.093
 8460SOL     OW26278   4.042   4.313   5.305
 8460SOL    HW126279   4.092   4.381   5.251
 8460SOL    HW226280   4.107   4.248   5.345
 8461SOL     OW26281   1.285   4.298   4.936
 8461SOL    HW126282   1.384   4.311   4.950
 8461SOL    HW226283   1.267   4.279   4.840
 8462SOL     OW26284   2.537   2.466   6.352
 8462SOL    HW126285   2.527   2.565   6.362
 8462SOL    HW226286   2.490   2.436   6.269
 8463SOL     OW26287   0.316   0.312   1.358
 8463SOL    HW126288   0.298   0.254   1.278
 8463SOL    HW226289   0.260   0.395   1.352
 8464SOL     OW26290   5.692   4.007   3.940
 8464SOL    HW126291   5.766   4.067   3.907
 8464SOL    HW226292   5.732   3.923   3.976
 8465SOL     OW26293   1.005   3.157   0.340
 8465SOL    HW126294   1.008   3.113   0.431
 8465SOL    HW226295   0.986   3.087   0.271
 8466SOL     OW26296   0.718   6.801   4.306
 8466SOL    HW126297   0.631   6.752   4.307
 8466SOL    HW226298   0.707   6.887   4.255
 8467SOL     OW26299   3.248   6.853   0.088
 8467SOL    HW126300   3.239   6.943   0.045
 8467SOL    HW226301   3.157   6.814   0.103
 8468SOL     OW26302   4.231   1.527   6.763
 8468SOL    HW126303   4.277   1.526   6.675
 8468SOL    HW226304   4.246   1.615   6.808
 8469SOL     OW26305   3.437   1.893   6.661
 8469SOL    HW126306   3.514   1.937   6.706
 8469SOL    HW226307   3.430   1.798   6.692
 8470SOL     OW26308   0.748   3.557   6.924
 8470SOL    HW126309   0.693   3.615   6.863
 8470SOL    HW226310   0.755   3.601   7.014
 8471SOL     OW26311   3.130   1.006   3.512
 8471SOL    HW126312   3.160   1.072   3.581
 8471SOL    HW226313   3.196   1.003   3.437
 8472SOL     OW26314   0.150   0.654   4.897
 8472SOL    HW126315   0.195   0.613   4.818
 8472SOL    HW226316   0.141   0.752   4.883
 8473SOL     OW26317   6.426   5.436   6.457
 8473SOL    HW126318   6.462   5.367   6.519
 8473SOL    HW226319   6.327   5.441   6.465
 8474SOL     OW26320   3.028   3.079   2.562
 8474SOL    HW126321   2.977   3.131   2.631
 8474SOL    HW226322   3.101   3.028   2.606
 8475SOL     OW26323   0.668   2.257   3.089
 8475SOL    HW126324   0.641   2.192   3.160
 8475SOL    HW226325   0.728   2.211   3.023
 8476SOL     OW26326   6.644   1.641   1.095
 8476SOL    HW126327   6.643   1.691   1.009
 8476SOL    HW226328   6.737   1.642   1.133
 8477SOL     OW26329   4.398   6.841   2.113
 8477SOL    HW126330   4.486   6.852   2.160
 8477SOL    HW226331   4.414   6.818   2.017
 8478SOL     OW26332   1.077   0.483   6.317
 8478SOL    HW126333   1.060   0.398   6.266
 8478SOL    HW226334   1.015   0.554   6.286
 8479SOL     OW26335   6.439   2.540   1.379
 8479SOL    HW126336   6.369   2.578   1.320
 8479SOL    HW226337   6.404   2.533   1.472
 8480SOL     OW26338   4.434   1.409   0.221
 8480SOL    HW126339   4.486   1.397   0.305
 8480SOL    HW226340   4.482   1.472   0.160
 8481SOL     OW26341   5.057   2.258   3.947
 8481SOL    HW126342   5.030   2.165   3.973
 8481SOL    HW226343   4.984   2.300   3.893
 8482SOL     OW26344   4.372   6.593   2.852
 8482SOL    HW126345   4.399   6.613   2.758
 8482SOL    HW226346   4.379   6.676   2.907
 8483SOL     OW26347   3.991   6.005   2.197
 8483SOL    HW126348   3.935   6.068   2.144
 8483SOL    HW226349   4.088   6.026   2.183
 8484SOL     OW26350   0.826   5.641   2.823
 8484SOL    HW126351   0.871   5.559   2.787
 8484SOL    HW226352   0.802   5.701   2.747
 8485SOL     OW26353   2.872   2.999   0.067
 8485SOL    HW126354   2.935   3.038   0.001
 8485SOL    HW226355   2.923   2.952   0.139
 8486SOL     OW26356   4.628   1.146   3.090
 8486SOL    HW126357   4.699   1.099   3.037
 8486SOL    HW226358   4.542   1.143   3.040
 8487SOL     OW26359   5.556   1.260   6.412
 8487SOL    HW126360   5.494   1.188   6.442
 8487SOL    HW226361   5.650   1.236   6.437
 8488SOL     OW26362   5.473   4.778   5.513
 8488SOL    HW126363   5.524   4.735   5.438
 8488SOL    HW226364   5.514   4.752   5.600
 8489SOL     OW26365   5.952   0.976   0.534
 8489SOL    HW126366   6.012   0.900   0.561
 8489SOL    HW226367   5.860   0.959   0.568
 8490SOL     OW26368   4.120   6.557   4.599
 8490SOL    HW126369   4.146   6.463   4.621
 8490SOL    HW226370   4.169   6.587   4.517
 8491SOL     OW26371   2.399   7.003   0.679
 8491SOL    HW126372   2.331   6.942   0.719
 8491SOL    HW226373   2.480   7.007   0.738
 8492SOL     OW26374   4.465   4.338   6.570
 8492SOL    HW126375   4.488   4.276   6.495
 8492SOL    HW226376   4.533   4.411   6.575
 8493SOL     OW26377   2.951   2.317   6.354
 8493SOL    HW126378   3.022   2.387   6.344
 8493SOL    HW226379   2.994   2.229   6.374
 8494SOL     OW26380   2.801   4.370   0.992
 8494SOL    HW126381   2.708   4.340   1.013
 8494SOL    HW226382   2.862   4.347   1.068
 8495SOL     OW26383   6.343   4.219   1.153
 8495SOL    HW126384   6.284   4.172   1.088
 8495SOL    HW226385   6.401   4.153   1.200
 8496SOL     OW26386   0.796   1.617   1.914
 8496SOL    HW126387   0.822   1.691   1.852
 8496SOL    HW226388   0.739   1.551   1.865
 8497SOL     OW26389   6.583   1.303   3.697
 8497SOL    HW126390   6.646   1.286   3.774
 8497SOL    HW226391   6.588   1.227   3.633
 8498SOL     OW26392   0.333   6.157   2.788
 8498SOL    HW126393   0.317   6.066   2.827
 8498SOL    HW226394   0.361   6.220   2.860
 8499SOL     OW26395   2.784   5.260   6.713
 8499SOL    HW126396   2.784   5.351   6.752
 8499SOL    HW226397   2.852   5.255   6.640
 8500SOL     OW26398   2.207   6.942   5.446
 8500SOL    HW126399   2.189   0.018   5.432
 8500SOL    HW226400   2.155   6.909   5.525
 8501SOL     OW26401   0.327   2.180   6.652
 8501SOL    HW126402   0.280   2.261   6.618
 8501SOL    HW226403   0.265   2.101   6.650
 8502SOL     OW26404   1.331   4.562   1.634
 8502SOL    HW126405   1.429   4.577   1.625
 8502SOL    HW226406   1.313   4.504   1.714
 8503SOL     OW26407   1.338   6.864   3.497
 8503SOL    HW126408   1.247   6.878   3.535
 8503SOL    HW226409   1.331   6.842   3.400
 8504SOL     OW26410   2.480   5.434   3.150
 8504SOL    HW126411   2.434   5.414   3.236
 8504SOL    HW226412   2.416   5.475   3.086
 8505SOL     OW26413   4.766   4.080   3.817
 8505SOL    HW126414   4.848   4.129   3.848
 8505SOL    HW226415   4.755   3.997   3.872
 8506SOL     OW26416   6.489   1.178   0.017
 8506SOL    HW126417   6.584   1.191   7.008
 8506SOL    HW226418   6.440   1.265   0.012
 8507SOL     OW26419   3.709   0.863   5.382
 8507SOL    HW126420   3.704   0.764   5.396
 8507SOL    HW226421   3.805   0.890   5.375
 8508SOL     OW26422   6.499   2.388   4.767
 8508SOL    HW126423   6.584   2.379   4.715
 8508SOL    HW226424   6.521   2.389   4.865
 8509SOL     OW26425   4.915   1.946   3.515
 8509SOL    HW126426   4.875   1.955   3.424
 8509SOL    HW226427   4.856   1.888   3.571
 8510SOL     OW26428   5.242   4.239   3.544
 8510SOL    HW126429   5.193   4.154   3.524
 8510SOL    HW226430   5.310   4.257   3.473
 8511SOL     OW26431   6.045   4.086   1.910
 8511SOL    HW126432   6.050   4.096   2.010
 8511SOL    HW226433   6.031   4.176   1.869
 8512SOL     OW26434   3.448   1.996   1.090
 8512SOL    HW126435   3.397   1.963   1.010
 8512SOL    HW226436   3.528   1.939   1.105
 8513SOL     OW26437   4.827   4.083   1.636
 8513SOL    HW126438   4.786   4.120   1.720
 8513SOL    HW226439   4.891   4.009   1.660
 8514SOL     OW26440   3.208   2.121   3.898
 8514SOL    HW126441   3.123   2.172   3.885
 8514SOL    HW226442   3.187   2.034   3.942
 8515SOL     OW26443   5.611   1.273   6.992
 8515SOL    HW126444   5.706   1.263   0.001
 8515SOL    HW226445   5.559   1.192   7.020
 8516SOL     OW26446   6.421   1.421   1.676
 8516SOL    HW126447   6.476   1.499   1.705
 8516SOL    HW226448   6.345   1.453   1.620
 8517SOL     OW26449   1.597   3.107   6.692
 8517SOL    HW126450   1.565   3.177   6.628
 8517SOL    HW226451   1.572   3.016   6.658
 8518SOL     OW26452   4.847   4.454   6.443
 8518SOL    HW126453   4.779   4.518   6.479
 8518SOL    HW226454   4.894   4.409   6.519
 8519SOL     OW26455   1.291   3.976   1.590
 8519SOL    HW126456   1.277   4.072   1.614
 8519SOL    HW226457   1.361   3.937   1.650
 8520SOL     OW26458   3.582   3.432   0.094
 8520SOL    HW126459   3.597   3.530   0.081
 8520SOL    HW226460   3.614   3.382   0.014
 8521SOL     OW26461   2.474   4.920   5.654
 8521SOL    HW126462   2.435   4.988   5.592
 8521SOL    HW226463   2.571   4.909   5.636
 8522SOL     OW26464   1.501   5.927   0.896
 8522SOL    HW126465   1.558   5.934   0.978
 8522SOL    HW226466   1.443   6.008   0.889
 8523SOL     OW26467   1.973   6.461   6.803
 8523SOL    HW126468   2.052   6.489   6.748
 8523SOL    HW226469   1.992   6.477   6.900
 8524SOL     OW26470   0.531   3.110   5.933
 8524SOL    HW126471   0.603   3.111   5.863
 8524SOL    HW226472   0.537   3.025   5.987
 8525SOL     OW26473   6.115   4.435   1.921
 8525SOL    HW126474   6.033   4.398   1.878
 8525SOL    HW226475   6.109   4.423   2.020
 8526SOL     OW26476   4.021   6.435   6.938
 8526SOL    HW126477   3.999   6.348   6.982
 8526SOL    HW226478   4.120   6.450   6.942
 8527SOL     OW26479   2.543   1.034   6.435
 8527SOL    HW126480   2.536   0.957   6.499
 8527SOL    HW226481   2.472   1.026   6.365
 8528SOL     OW26482   3.832   1.309   6.936
 8528SOL    HW126483   3.932   1.314   6.927
 8528SOL    HW226484   3.794   1.268   6.854
 8529SOL     OW26485   1.158   6.948   0.941
 8529SOL    HW126486   1.193   6.976   1.030
 8529SOL    HW226487   1.162   6.848   0.934
 8530SOL     OW26488   3.426   4.307   5.644
 8530SOL    HW126489   3.438   4.370   5.568
 8530SOL    HW226490   3.344   4.253   5.630
 8531SOL     OW26491   6.606   4.689   2.302
 8531SOL    HW126492   6.515   4.698   2.263
 8531SOL    HW226493   6.606   4.724   2.396
 8532SOL     OW26494   4.099   4.850   4.868
 8532SOL    HW126495   4.176   4.787   4.858
 8532SOL    HW226496   4.056   4.865   4.779
 8533SOL     OW26497   1.790   0.031   0.122
 8533SOL    HW126498   1.766   0.117   0.167
 8533SOL    HW226499   1.709   6.994   0.114
 8534SOL     OW26500   6.422   2.635   4.080
 8534SOL    HW126501   6.419   2.546   4.035
 8534SOL    HW226502   6.336   2.685   4.062
 8535SOL     OW26503   6.109   0.853   3.309
 8535SOL    HW126504   6.195   0.880   3.266
 8535SOL    HW226505   6.109   0.755   3.325
 8536SOL     OW26506   6.935   2.491   4.761
 8536SOL    HW126507   6.857   2.491   4.698
 8536SOL    HW226508   7.015   2.531   4.715
 8537SOL     OW26509   5.357   0.729   3.179
 8537SOL    HW126510   5.291   0.751   3.250
 8537SOL    HW226511   5.410   0.810   3.156
 8538SOL     OW26512   0.667   0.957   7.019
 8538SOL    HW126513   0.641   0.973   6.924
 8538SOL    HW226514   0.752   0.905   0.001
 8539SOL     OW26515   5.531   0.939   3.125
 8539SOL    HW126516   5.597   0.865   3.138
 8539SOL    HW226517   5.532   0.968   3.030
 8540SOL     OW26518   5.003   0.453   6.003
 8540SOL    HW126519   5.087   0.476   5.954
 8540SOL    HW226520   4.962   0.537   6.039
 8541SOL     OW26521   2.700   1.430   4.438
 8541SOL    HW126522   2.682   1.333   4.426
 8541SOL    HW226523   2.615   1.482   4.428
 8542SOL     OW26524   4.056   4.590   0.131
 8542SOL    HW126525   4.112   4.649   0.073
 8542SOL    HW226526   3.959   4.601   0.107
 8543SOL     OW26527   2.827   0.921   0.832
 8543SOL    HW126528   2.754   0.987   0.809
 8543SOL    HW226529   2.912   0.949   0.788
 8544SOL     OW26530   5.623   2.808   4.106
 8544SOL    HW126531   5.543   2.771   4.154
 8544SOL    HW226532   5.683   2.852   4.172
 8545SOL     OW26533   4.872   0.073   5.554
 8545SOL    HW126534   4.957   0.044   5.598
 8545SOL    HW226535   4.827   7.015   5.512
 8546SOL     OW26536   6.498   2.012   3.945
 8546SOL    HW126537   6.471   2.081   3.878
 8546SOL    HW226538   6.509   1.923   3.899
 8547SOL     OW26539   1.714   6.783   5.978
 8547SOL    HW126540   1.722   6.757   6.074
 8547SOL    HW226541   1.642   6.728   5.935
 8548SOL     OW26542   6.088   2.217   5.636
 8548SOL    HW126543   6.082   2.157   5.715
 8548SOL    HW226544   6.006   2.207   5.580
 8549SOL     OW26545   1.597   2.960   3.961
 8549SOL    HW126546   1.535   2.981   3.885
 8549SOL    HW226547   1.691   2.974   3.933
 8550SOL     OW26548   1.903   4.362   0.094
 8550SOL    HW126549   1.845   4.443   0.088
 8550SOL    HW226550   1.877   4.309   0.175
 8551SOL     OW26551   3.312   4.025   6.653
 8551SOL    HW126552   3.266   3.990   6.735
 8551SOL    HW226553   3.367   3.952   6.612
 8552SOL     OW26554   2.378   0.289   4.061
 8552SOL    HW126555   2.397   0.359   3.992
 8552SOL    HW226556   2.306   0.321   4.122
 8553SOL     OW26557   4.488   4.657   0.203
 8553SOL    HW126558   4.466   4.601   0.123
 8553SOL    HW226559   4.449   4.615   0.285
 8554SOL     OW26560   0.938   5.075   0.466
 8554SOL    HW126561   0.867   5.028   0.518
 8554SOL    HW226562   0.985   5.141   0.526
 8555SOL     OW26563   2.041   1.397   2.367
 8555SOL    HW126564   2.044   1.485   2.320
 8555SOL    HW226565   1.947   1.376   2.392
 8556SOL     OW26566   1.083   6.563   5.400
 8556SOL    HW126567   1.117   6.494   5.463
 8556SOL    HW226568   1.151   6.581   5.329
 8557SOL     OW26569   5.824   0.503   3.295
 8557SOL    HW126570   5.745   0.492   3.234
 8557SOL    HW226571   5.870   0.415   3.304
 8558SOL     OW26572   3.003   5.043   3.112
 8558SOL    HW126573   3.065   4.965   3.112
 8558SOL    HW226574   2.964   5.055   3.021
 8559SOL     OW26575   6.956   0.586   2.581
 8559SOL    HW126576   6.980   0.567   2.676
 8559SOL    HW226577   0.019   0.599   2.528
 8560SOL     OW26578   6.551   6.058   2.583
 8560SOL    HW126579   6.577   6.043   2.488
 8560SOL    HW226580   6.612   6.124   2.625
 8561SOL     OW26581   3.160   0.679   1.682
 8561SOL    HW126582   3.067   0.644   1.691
 8561SOL    HW226583   3.214   0.650   1.761
 8562SOL     OW26584   3.111   5.708   5.452
 8562SOL    HW126585   3.174   5.785   5.453
 8562SOL    HW226586   3.109   5.665   5.543
 8563SOL     OW26587   2.429   4.192   6.497
 8563SOL    HW126588   2.499   4.191   6.568
 8563SOL    HW226589   2.340   4.170   6.537
 8564SOL     OW26590   3.170   1.320   4.139
 8564SOL    HW126591   3.179   1.373   4.054
 8564SOL    HW226592   3.222   1.235   4.130
 8565SOL     OW26593   4.425   5.273   1.100
 8565SOL    HW126594   4.515   5.284   1.058
 8565SOL    HW226595   4.378   5.195   1.058
 8566SOL     OW26596   1.654   0.785   1.442
 8566SOL    HW126597   1.620   0.807   1.350
 8566SOL    HW226598   1.617   0.850   1.508
 8567SOL     OW26599   0.113   2.147   2.351
 8567SOL    HW126600   0.156   2.058   2.367
 8567SOL    HW226601   0.148   2.187   2.267
 8568SOL     OW26602   5.632   1.226   6.148
 8568SOL    HW126603   5.590   1.239   6.238
 8568SOL    HW226604   5.593   1.144   6.105
 8569SOL     OW26605   4.951   1.388   5.704
 8569SOL    HW126606   4.896   1.466   5.732
 8569SOL    HW226607   4.917   1.305   5.747
 8570SOL     OW26608   1.273   2.862   5.237
 8570SOL    HW126609   1.174   2.872   5.225
 8570SOL    HW226610   1.294   2.844   5.333
 8571SOL     OW26611   1.398   5.393   5.605
 8571SOL    HW126612   1.392   5.485   5.644
 8571SOL    HW226613   1.308   5.350   5.607
 8572SOL     OW26614   3.229   5.208   6.915
 8572SOL    HW126615   3.174   5.238   6.993
 8572SOL    HW226616   3.190   5.244   6.831
 8573SOL     OW26617   3.537   6.413   5.915
 8573SOL    HW126618   3.535   6.397   6.013
 8573SOL    HW226619   3.444   6.407   5.878
 8574SOL     OW26620   6.564   5.697   5.518
 8574SOL    HW126621   6.643   5.727   5.465
 8574SOL    HW226622   6.594   5.662   5.607
 8575SOL     OW26623   2.790   2.434   5.194
 8575SOL    HW126624   2.745   2.521   5.174
 8575SOL    HW226625   2.880   2.452   5.234
 8576SOL     OW26626   1.825   5.756   7.010
 8576SOL    HW126627   1.745   5.776   6.953
 8576SOL    HW226628   1.864   5.668   6.984
 8577SOL     OW26629   6.990   6.049   4.015
 8577SOL    HW126630   6.933   6.116   3.967
 8577SOL    HW226631   0.043   6.019   3.955
 8578SOL     OW26632   5.594   1.480   4.937
 8578SOL    HW126633   5.507   1.431   4.928
 8578SOL    HW226634   5.614   1.528   4.852
 8579SOL     OW26635   1.357   0.166   2.778
 8579SOL    HW126636   1.426   0.142   2.710
 8579SOL    HW226637   1.398   0.225   2.847
 8580SOL     OW26638   2.883   6.339   2.788
 8580SOL    HW126639   2.973   6.311   2.757
 8580SOL    HW226640   2.865   6.298   2.878
 8581SOL     OW26641   3.162   3.305   1.941
 8581SOL    HW126642   3.090   3.247   1.981
 8581SOL    HW226643   3.121   3.388   1.903
 8582SOL     OW26644   4.534   4.501   2.656
 8582SOL    HW126645   4.509   4.489   2.560
 8582SOL    HW226646   4.486   4.434   2.711
 8583SOL     OW26647   5.307   0.650   4.629
 8583SOL    HW126648   5.391   0.647   4.684
 8583SOL    HW226649   5.306   0.735   4.576
 8584SOL     OW26650   0.663   3.755   5.872
 8584SOL    HW126651   0.604   3.820   5.922
 8584SOL    HW226652   0.614   3.722   5.792
 8585SOL     OW26653   0.529   6.041   6.172
 8585SOL    HW126654   0.561   5.960   6.222
 8585SOL    HW226655   0.431   6.034   6.157
 8586SOL     OW26656   2.822   0.199   3.382
 8586SOL    HW126657   2.858   0.137   3.312
 8586SOL    HW226658   2.740   0.159   3.423
 8587SOL     OW26659   2.078   0.199   3.021
 8587SOL    HW126660   2.113   0.177   2.930
 8587SOL    HW226661   2.116   0.135   3.088
 8588SOL     OW26662   2.490   0.537   0.110
 8588SOL    HW126663   2.560   0.607   0.103
 8588SOL    HW226664   2.532   0.450   0.135
 8589SOL     OW26665   5.157   2.696   4.812
 8589SOL    HW126666   5.229   2.668   4.749
 8589SOL    HW226667   5.097   2.619   4.831
 8590SOL     OW26668   0.217   6.352   3.995
 8590SOL    HW126669   0.198   6.384   3.903
 8590SOL    HW226670   0.224   6.252   3.995
 8591SOL     OW26671   6.914   4.735   6.620
 8591SOL    HW126672   6.920   4.686   6.534
 8591SOL    HW226673   6.863   4.679   6.686
 8592SOL     OW26674   7.016   3.099   6.677
 8592SOL    HW126675   0.086   3.060   6.691
 8592SOL    HW226676   7.007   3.182   6.731
 8593SOL     OW26677   2.634   0.141   1.611
 8593SOL    HW126678   2.618   0.198   1.692
 8593SOL    HW226679   2.627   0.045   1.636
 8594SOL     OW26680   3.579   2.849   5.345
 8594SOL    HW126681   3.523   2.775   5.383
 8594SOL    HW226682   3.638   2.811   5.273
 8595SOL     OW26683   1.722   2.442   2.775
 8595SOL    HW126684   1.652   2.417   2.709
 8595SOL    HW226685   1.687   2.515   2.835
 8596SOL     OW26686   6.269   5.317   3.666
 8596SOL    HW126687   6.262   5.406   3.712
 8596SOL    HW226688   6.231   5.246   3.726
 8597SOL     OW26689   4.714   0.924   0.978
 8597SOL    HW126690   4.690   0.976   0.896
 8597SOL    HW226691   4.641   0.933   1.045
 8598SOL     OW26692   6.813   6.599   0.915
 8598SOL    HW126693   6.747   6.524   0.909
 8598SOL    HW226694   6.821   6.628   1.010
 8599SOL     OW26695   1.082   2.546   4.277
 8599SOL    HW126696   1.166   2.524   4.327
 8599SOL    HW226697   1.006   2.494   4.315
 8600SOL     OW26698   4.815   5.121   5.968
 8600SOL    HW126699   4.726   5.164   5.949
 8600SOL    HW226700   4.864   5.109   5.882
 8601SOL     OW26701   0.776   0.573   4.887
 8601SOL    HW126702   0.725   0.639   4.942
 8601SOL    HW226703   0.780   0.485   4.935
 8602SOL     OW26704   3.310   5.533   3.285
 8602SOL    HW126705   3.307   5.546   3.384
 8602SOL    HW226706   3.349   5.443   3.264
 8603SOL     OW26707   3.737   5.346   0.785
 8603SOL    HW126708   3.689   5.433   0.788
 8603SOL    HW226709   3.739   5.312   0.691
 8604SOL     OW26710   0.931   3.166   3.603
 8604SOL    HW126711   0.910   3.131   3.694
 8604SOL    HW226712   0.932   3.266   3.605
 8605SOL     OW26713   3.097   5.335   4.793
 8605SOL    HW126714   3.058   5.426   4.803
 8605SOL    HW226715   3.145   5.329   4.705
 8606SOL     OW26716   1.423   3.333   6.267
 8606SOL    HW126717   1.383   3.416   6.226
 8606SOL    HW226718   1.464   3.277   6.195
 8607SOL     OW26719   3.327   5.904   1.080
 8607SOL    HW126720   3.346   5.806   1.071
 8607SOL    HW226721   3.400   5.957   1.037
 8608SOL     OW26722   4.617   4.957   2.849
 8608SOL    HW126723   4.663   5.043   2.829
 8608SOL    HW226724   4.577   4.961   2.941
 8609SOL     OW26725   5.732   0.829   3.646
 8609SOL    HW126726   5.783   0.744   3.635
 8609SOL    HW226727   5.731   0.855   3.743
 8610SOL     OW26728   1.828   2.075   2.518
 8610SOL    HW126729   1.917   2.045   2.482
 8610SOL    HW226730   1.824   2.056   2.616
 8611SOL     OW26731   2.280   1.975   4.487
 8611SOL    HW126732   2.215   1.916   4.537
 8611SOL    HW226733   2.313   2.047   4.548
 8612SOL     OW26734   3.503   3.243   0.760
 8612SOL    HW126735   3.409   3.275   0.766
 8612SOL    HW226736   3.544   3.242   0.851
 8613SOL     OW26737   2.442   1.817   0.920
 8613SOL    HW126738   2.466   1.878   0.844
 8613SOL    HW226739   2.525   1.794   0.971
 8614SOL     OW26740   1.090   3.631   2.297
 8614SOL    HW126741   1.086   3.542   2.251
 8614SOL    HW226742   1.185   3.655   2.314
 8615SOL     OW26743   5.362   1.946   5.532
 8615SOL    HW126744   5.301   2.024   5.546
 8615SOL    HW226745   5.341   1.875   5.599
 8616SOL     OW26746   3.080   4.808   1.657
 8616SOL    HW126747   3.058   4.806   1.559
 8616SOL    HW226748   3.002   4.772   1.709
 8617SOL     OW26749   6.762   0.896   6.209
 8617SOL    HW126750   6.704   0.944   6.143
 8617SOL    HW226751   6.705   0.844   6.272
 8618SOL     OW26752   6.184   6.041   1.015
 8618SOL    HW126753   6.121   5.970   0.984
 8618SOL    HW226754   6.142   6.131   1.003
 8619SOL     OW26755   3.997   4.761   2.272
 8619SOL    HW126756   3.908   4.754   2.318
 8619SOL    HW226757   3.983   4.775   2.174
 8620SOL     OW26758   0.636   0.316   3.561
 8620SOL    HW126759   0.588   0.345   3.644
 8620SOL    HW226760   0.672   0.224   3.573
 8621SOL     OW26761   6.312   1.490   2.755
 8621SOL    HW126762   6.216   1.515   2.748
 8621SOL    HW226763   6.332   1.456   2.847
 8622SOL     OW26764   4.925   2.946   0.106
 8622SOL    HW126765   4.858   2.931   0.033
 8622SOL    HW226766   4.965   2.858   0.133
 8623SOL     OW26767   0.642   3.994   3.304
 8623SOL    HW126768   0.576   4.065   3.327
 8623SOL    HW226769   0.734   4.034   3.301
 8624SOL     OW26770   0.971   3.944   4.769
 8624SOL    HW126771   0.935   3.852   4.752
 8624SOL    HW226772   0.932   4.008   4.703
 8625SOL     OW26773   4.585   6.930   5.572
 8625SOL    HW126774   4.570   6.952   5.668
 8625SOL    HW226775   4.649   6.853   5.565
 8626SOL     OW26776   3.821   2.850   5.191
 8626SOL    HW126777   3.863   2.884   5.276
 8626SOL    HW226778   3.844   2.753   5.180
 8627SOL     OW26779   0.631   1.202   3.215
 8627SOL    HW126780   0.544   1.221   3.260
 8627SOL    HW226781   0.689   1.148   3.277
 8628SOL     OW26782   6.110   6.774   1.781
 8628SOL    HW126783   6.147   6.717   1.708
 8628SOL    HW226784   6.014   6.797   1.761
 8629SOL     OW26785   1.197   5.148   5.435
 8629SOL    HW126786   1.208   5.064   5.488
 8629SOL    HW226787   1.127   5.135   5.365
 8630SOL     OW26788   4.990   4.543   3.276
 8630SOL    HW126789   4.958   4.583   3.362
 8630SOL    HW226790   4.947   4.453   3.263
 8631SOL     OW26791   2.290   5.676   5.828
 8631SOL    HW126792   2.261   5.707   5.737
 8631SOL    HW226793   2.218   5.619   5.869
 8632SOL     OW26794   3.483   6.215   3.946
 8632SOL    HW126795   3.532   6.157   4.011
 8632SOL    HW226796   3.499   6.183   3.853
 8633SOL     OW26797   5.869   1.806   4.870
 8633SOL    HW126798   5.937   1.864   4.914
 8633SOL    HW226799   5.910   1.718   4.847
 8634SOL     OW26800   5.493   3.309   0.108
 8634SOL    HW126801   5.418   3.257   0.149
 8634SOL    HW226802   5.571   3.312   0.171
 8635SOL     OW26803   5.895   4.353   6.282
 8635SOL    HW126804   5.913   4.451   6.293
 8635SOL    HW226805   5.856   4.336   6.192
 8636SOL     OW26806   5.221   6.071   0.688
 8636SOL    HW126807   5.177   5.985   0.714
 8636SOL    HW226808   5.298   6.089   0.749
 8637SOL     OW26809   2.036   1.086   6.949
 8637SOL    HW126810   1.944   1.053   6.974
 8637SOL    HW226811   2.045   1.182   6.975
 8638SOL     OW26812   2.996   3.098   6.841
 8638SOL    HW126813   3.080   3.134   6.879
 8638SOL    HW226814   3.013   3.062   6.749
 8639SOL     OW26815   5.485   2.241   1.903
 8639SOL    HW126816   5.543   2.285   1.971
 8639SOL    HW226817   5.425   2.309   1.861
 8640SOL     OW26818   4.578   3.990   0.598
 8640SOL    HW126819   4.588   3.942   0.511
 8640SOL    HW226820   4.535   3.930   0.666
 8641SOL     OW26821   5.989   5.014   3.920
 8641SOL    HW126822   5.961   4.918   3.927
 8641SOL    HW226823   5.934   5.069   3.983
 8642SOL     OW26824   2.665   0.614   3.005
 8642SOL    HW126825   2.590   0.575   3.058
 8642SOL    HW226826   2.727   0.663   3.066
 8643SOL     OW26827   3.313   0.817   6.505
 8643SOL    HW126828   3.252   0.809   6.426
 8643SOL    HW226829   3.354   0.908   6.507
 8644SOL     OW26830   4.729   2.352   5.462
 8644SOL    HW126831   4.706   2.254   5.467
 8644SOL    HW226832   4.648   2.404   5.434
 8645SOL     OW26833   4.334   4.416   1.037
 8645SOL    HW126834   4.240   4.440   1.061
 8645SOL    HW226835   4.395   4.491   1.061
 8646SOL     OW26836   6.335   0.967   1.809
 8646SOL    HW126837   6.283   0.919   1.739
 8646SOL    HW226838   6.273   1.019   1.867
 8647SOL     OW26839   2.358   5.152   5.595
 8647SOL    HW126840   2.310   5.209   5.528
 8647SOL    HW226841   2.421   5.209   5.648
 8648SOL     OW26842   6.514   0.849   3.696
 8648SOL    HW126843   6.466   0.933   3.720
 8648SOL    HW226844   6.448   0.781   3.663
 8649SOL     OW26845   5.483   4.396   5.988
 8649SOL    HW126846   5.438   4.469   5.937
 8649SOL    HW226847   5.415   4.332   6.024
 8650SOL     OW26848   1.980   4.451   6.346
 8650SOL    HW126849   2.059   4.417   6.295
 8650SOL    HW226850   1.919   4.501   6.285
 8651SOL     OW26851   3.720   0.820   0.722
 8651SOL    HW126852   3.680   0.787   0.808
 8651SOL    HW226853   3.816   0.792   0.716
 8652SOL     OW26854   1.916   3.689   3.937
 8652SOL    HW126855   1.896   3.591   3.934
 8652SOL    HW226856   2.015   3.703   3.932
 8653SOL     OW26857   6.311   1.273   6.444
 8653SOL    HW126858   6.396   1.325   6.433
 8653SOL    HW226859   6.301   1.247   6.540
 8654SOL     OW26860   0.836   5.148   1.323
 8654SOL    HW126861   0.865   5.178   1.232
 8654SOL    HW226862   0.758   5.086   1.314
 8655SOL     OW26863   6.291   1.435   4.091
 8655SOL    HW126864   6.302   1.494   4.011
 8655SOL    HW226865   6.375   1.439   4.146
 8656SOL     OW26866   6.407   0.994   0.537
 8656SOL    HW126867   6.368   0.947   0.457
 8656SOL    HW226868   6.351   1.074   0.559
 8657SOL     OW26869   5.259   4.657   0.497
 8657SOL    HW126870   5.194   4.622   0.430
 8657SOL    HW226871   5.273   4.755   0.482
 8658SOL     OW26872   3.943   6.639   0.239
 8658SOL    HW126873   3.883   6.701   0.189
 8658SOL    HW226874   3.967   6.561   0.180
 8659SOL     OW26875   4.609   1.638   3.310
 8659SOL    HW126876   4.660   1.672   3.230
 8659SOL    HW226877   4.669   1.634   3.389
 8660SOL     OW26878   5.499   3.527   0.645
 8660SOL    HW126879   5.579   3.470   0.628
 8660SOL    HW226880   5.422   3.470   0.673
 8661SOL     OW26881   5.803   4.129   0.979
 8661SOL    HW126882   5.759   4.063   1.041
 8661SOL    HW226883   5.823   4.083   0.892
 8662SOL     OW26884   4.368   6.025   0.747
 8662SOL    HW126885   4.344   5.961   0.819
 8662SOL    HW226886   4.429   5.980   0.681
 8663SOL     OW26887   2.830   5.693   1.448
 8663SOL    HW126888   2.813   5.644   1.534
 8663SOL    HW226889   2.920   5.737   1.452
 8664SOL     OW26890   3.019   6.290   1.499
 8664SOL    HW126891   3.100   6.328   1.456
 8664SOL    HW226892   2.937   6.326   1.455
 8665SOL     OW26893   5.837   6.241   5.034
 8665SOL    HW126894   5.798   6.303   5.102
 8665SOL    HW226895   5.784   6.157   5.032
 8666SOL     OW26896   4.890   1.534   3.925
 8666SOL    HW126897   4.866   1.539   4.022
 8666SOL    HW226898   4.827   1.471   3.879
 8667SOL     OW26899   5.033   2.315   3.149
 8667SOL    HW126900   4.959   2.297   3.084
 8667SOL    HW226901   5.006   2.389   3.211
 8668SOL     OW26902   5.574   4.115   3.106
 8668SOL    HW126903   5.575   4.093   3.203
 8668SOL    HW226904   5.668   4.117   3.071
 8669SOL     OW26905   2.358   6.212   0.239
 8669SOL    HW126906   2.423   6.219   0.314
 8669SOL    HW226907   2.370   6.124   0.193
 8670SOL     OW26908   3.392   4.701   5.270
 8670SOL    HW126909   3.429   4.609   5.283
 8670SOL    HW226910   3.292   4.696   5.268
 8671SOL     OW26911   5.573   1.864   3.325
 8671SOL    HW126912   5.607   1.957   3.312
 8671SOL    HW226913   5.564   1.845   3.422
 8672SOL     OW26914   2.029   4.909   3.846
 8672SOL    HW126915   2.061   5.001   3.870
 8672SOL    HW226916   1.982   4.869   3.925
 8673SOL     OW26917   6.474   2.742   0.497
 8673SOL    HW126918   6.439   2.709   0.585
 8673SOL    HW226919   6.547   2.681   0.466
 8674SOL     OW26920   5.285   5.441   3.582
 8674SOL    HW126921   5.261   5.376   3.510
 8674SOL    HW226922   5.206   5.456   3.641
 8675SOL     OW26923   3.323   2.116   4.381
 8675SOL    HW126924   3.226   2.097   4.368
 8675SOL    HW226925   3.340   2.146   4.475
 8676SOL     OW26926   4.059   0.667   2.434
 8676SOL    HW126927   4.147   0.630   2.465
 8676SOL    HW226928   4.002   0.686   2.513
 8677SOL     OW26929   2.509   5.723   5.370
 8677SOL    HW126930   2.449   5.662   5.421
 8677SOL    HW226931   2.517   5.691   5.276
 8678SOL     OW26932   6.568   0.212   0.944
 8678SOL    HW126933   6.521   0.253   1.022
 8678SOL    HW226934   6.663   0.243   0.942
 8679SOL     OW26935   0.023   2.482   3.268
 8679SOL    HW126936   0.012   2.385   3.291
 8679SOL    HW226937   6.975   2.536   3.317
 8680SOL     OW26938   0.974   3.723   1.301
 8680SOL    HW126939   1.025   3.675   1.230
 8680SOL    HW226940   1.038   3.758   1.370
 8681SOL     OW26941   4.721   5.449   0.044
 8681SOL    HW126942   4.716   5.495   0.133
 8681SOL    HW226943   4.629   5.442   0.005
 8682SOL     OW26944   5.414   6.902   1.021
 8682SOL    HW126945   5.358   6.957   0.959
 8682SOL    HW226946   5.386   6.920   1.115
 8683SOL     OW26947   2.163   2.468   2.737
 8683SOL    HW126948   2.245   2.523   2.717
 8683SOL    HW226949   2.087   2.500   2.680
 8684SOL     OW26950   0.608   2.681   5.085
 8684SOL    HW126951   0.648   2.758   5.035
 8684SOL    HW226952   0.508   2.690   5.085
 8685SOL     OW26953   0.601   1.968   5.916
 8685SOL    HW126954   0.550   1.949   5.832
 8685SOL    HW226955   0.693   1.930   5.909
 8686SOL     OW26956   6.935   0.995   1.482
 8686SOL    HW126957   6.846   1.040   1.486
 8686SOL    HW226958   7.007   1.064   1.497
 8687SOL     OW26959   4.440   5.096   2.022
 8687SOL    HW126960   4.475   5.101   1.928
 8687SOL    HW226961   4.407   5.185   2.050
 8688SOL     OW26962   3.130   5.955   0.045
 8688SOL    HW126963   3.166   6.044   0.074
 8688SOL    HW226964   3.061   5.924   0.110
 8689SOL     OW26965   3.577   3.829   1.769
 8689SOL    HW126966   3.601   3.853   1.863
 8689SOL    HW226967   3.491   3.777   1.769
 8690SOL     OW26968   1.464   3.073   3.056
 8690SOL    HW126969   1.407   3.054   3.136
 8690SOL    HW226970   1.523   2.995   3.037
 8691SOL     OW26971   3.443   2.038   6.408
 8691SOL    HW126972   3.494   1.996   6.333
 8691SOL    HW226973   3.468   1.992   6.494
 8692SOL     OW26974   1.603   1.390   4.136
 8692SOL    HW126975   1.580   1.312   4.078
 8692SOL    HW226976   1.657   1.358   4.214
 8693SOL     OW26977   6.914   1.166   6.745
 8693SOL    HW126978   6.873   1.214   6.822
 8693SOL    HW226979   6.967   1.088   6.778
 8694SOL     OW26980   4.571   1.244   4.971
 8694SOL    HW126981   4.506   1.257   4.896
 8694SOL    HW226982   4.540   1.295   5.051
 8695SOL     OW26983   3.809   2.619   6.103
 8695SOL    HW126984   3.788   2.536   6.051
 8695SOL    HW226985   3.732   2.642   6.162
 8696SOL     OW26986   2.199   5.589   0.251
 8696SOL    HW126987   2.263   5.540   0.192
 8696SOL    HW226988   2.174   5.676   0.209
 8697SOL     OW26989   6.854   2.713   0.483
 8697SOL    HW126990   6.791   2.638   0.462
 8697SOL    HW226991   6.805   2.800   0.482
 8698SOL     OW26992   5.660   5.904   4.863
 8698SOL    HW126993   5.754   5.885   4.892
 8698SOL    HW226994   5.621   5.822   4.821
 8699SOL     OW26995   2.712   2.424   5.701
 8699SOL    HW126996   2.751   2.504   5.655
 8699SOL    HW226997   2.778   2.389   5.768
 8700SOL     OW26998   0.986   0.913   4.385
 8700SOL    HW126999   0.887   0.905   4.401
 8700SOL    HW227000   1.027   0.822   4.382
 8701SOL     OW27001   0.988   0.871   0.535
 8701SOL    HW127002   0.910   0.810   0.520
 8701SOL    HW227003   1.020   0.862   0.629
 8702SOL     OW27004   4.739   4.724   1.184
 8702SOL    HW127005   4.641   4.706   1.192
 8702SOL    HW227006   4.760   4.754   1.091
 8703SOL     OW27007   3.296   5.135   0.460
 8703SOL    HW127008   3.245   5.080   0.394
 8703SOL    HW227009   3.232   5.184   0.520
 8704SOL     OW27010   0.140   3.660   3.202
 8704SOL    HW127011   0.058   3.608   3.180
 8704SOL    HW227012   0.133   3.752   3.163
 8705SOL     OW27013   5.059   0.767   6.385
 8705SOL    HW127014   5.082   0.692   6.447
 8705SOL    HW227015   5.085   0.854   6.428
 8706SOL     OW27016   4.305   2.275   6.481
 8706SOL    HW127017   4.360   2.273   6.397
 8706SOL    HW227018   4.220   2.224   6.467
 8707SOL     OW27019   6.985   2.711   0.121
 8707SOL    HW127020   6.947   2.626   0.157
 8707SOL    HW227021   0.027   2.690   0.046
 8708SOL     OW27022   5.013   2.450   2.307
 8708SOL    HW127023   5.091   2.410   2.258
 8708SOL    HW227024   5.025   2.435   2.405
 8709SOL     OW27025   6.884   5.822   0.297
 8709SOL    HW127026   6.953   5.783   0.235
 8709SOL    HW227027   6.824   5.883   0.245
 8710SOL     OW27028   2.103   3.037   4.114
 8710SOL    HW127029   2.035   2.988   4.170
 8710SOL    HW227030   2.102   3.134   4.138
 8711SOL     OW27031   1.486   6.353   2.972
 8711SOL    HW127032   1.413   6.290   2.943
 8711SOL    HW227033   1.445   6.436   3.009
 8712SOL     OW27034   4.075   2.167   5.078
 8712SOL    HW127035   4.119   2.254   5.057
 8712SOL    HW227036   4.113   2.095   5.019
 8713SOL     OW27037   0.632   3.319   4.010
 8713SOL    HW127038   0.574   3.332   4.090
 8713SOL    HW227039   0.593   3.369   3.932
 8714SOL     OW27040   0.950   1.161   5.938
 8714SOL    HW127041   0.856   1.145   5.968
 8714SOL    HW227042   0.992   1.073   5.914
 8715SOL     OW27043   4.158   0.370   1.327
 8715SOL    HW127044   4.177   0.413   1.414
 8715SOL    HW227045   4.221   0.293   1.312
 8716SOL     OW27046   0.507   0.225   1.067
 8716SOL    HW127047   0.481   0.322   1.074
 8716SOL    HW227048   0.580   0.206   1.133
 8717SOL     OW27049   3.524   3.673   3.713
 8717SOL    HW127050   3.484   3.585   3.740
 8717SOL    HW227051   3.456   3.725   3.660
 8718SOL     OW27052   0.944   3.655   4.734
 8718SOL    HW127053   1.021   3.642   4.672
 8718SOL    HW227054   0.918   3.567   4.775
 8719SOL     OW27055   3.042   0.541   6.304
 8719SOL    HW127056   2.969   0.602   6.274
 8719SOL    HW227057   3.007   0.448   6.312
 8720SOL     OW27058   6.245   4.984   5.736
 8720SOL    HW127059   6.255   5.051   5.663
 8720SOL    HW227060   6.154   4.994   5.777
 8721SOL     OW27061   0.274   2.430   2.244
 8721SOL    HW127062   0.205   2.500   2.262
 8721SOL    HW227063   0.337   2.462   2.173
 8722SOL     OW27064   4.199   1.344   0.104
 8722SOL    HW127065   4.174   1.252   0.134
 8722SOL    HW227066   4.289   1.367   0.140
 8723SOL     OW27067   4.700   5.285   1.026
 8723SOL    HW127068   4.704   5.198   0.977
 8723SOL    HW227069   4.792   5.324   1.033
 8724SOL     OW27070   5.172   0.335   5.710
 8724SOL    HW127071   5.251   0.368   5.762
 8724SOL    HW227072   5.147   0.244   5.743
 8725SOL     OW27073   1.706   6.960   6.739
 8725SOL    HW127074   1.624   6.923   6.697
 8725SOL    HW227075   1.728   0.027   6.697
 8726SOL     OW27076   6.587   0.385   2.061
 8726SOL    HW127077   6.615   0.338   1.978
 8726SOL    HW227078   6.603   0.326   2.140
 8727SOL     OW27079   0.109   6.300   2.436
 8727SOL    HW127080   0.105   6.393   2.472
 8727SOL    HW227081   0.200   6.262   2.452
 8728SOL     OW27082   5.030   0.214   3.554
 8728SOL    HW127083   5.088   0.273   3.498
 8728SOL    HW227084   4.988   0.144   3.496
 8729SOL     OW27085   4.317   5.990   4.484
 8729SOL    HW127086   4.252   6.060   4.512
 8729SOL    HW227087   4.347   6.008   4.390
 8730SOL     OW27088   6.352   4.109   2.345
 8730SOL    HW127089   6.351   4.083   2.249
 8730SOL    HW227090   6.427   4.061   2.392
 8731SOL     OW27091   2.581   2.361   2.754
 8731SOL    HW127092   2.521   2.441   2.759
 8731SOL    HW227093   2.642   2.370   2.674
 8732SOL     OW27094   5.559   4.569   1.762
 8732SOL    HW127095   5.542   4.645   1.699
 8732SOL    HW227096   5.473   4.521   1.781
 8733SOL     OW27097   1.682   5.758   1.092
 8733SOL    HW127098   1.778   5.762   1.064
 8733SOL    HW227099   1.675   5.712   1.181
 8734SOL     OW27100   1.804   4.907   2.429
 8734SOL    HW127101   1.828   4.914   2.332
 8734SOL    HW227102   1.750   4.986   2.456
 8735SOL     OW27103   0.957   2.463   0.574
 8735SOL    HW127104   1.055   2.481   0.569
 8735SOL    HW227105   0.941   2.364   0.576
 8736SOL     OW27106   1.266   6.201   6.222
 8736SOL    HW127107   1.332   6.150   6.166
 8736SOL    HW227108   1.176   6.160   6.213
 8737SOL     OW27109   2.038   6.713   6.157
 8737SOL    HW127110   2.080   6.736   6.245
 8737SOL    HW227111   2.101   6.735   6.083
 8738SOL     OW27112   2.240   5.472   4.412
 8738SOL    HW127113   2.255   5.388   4.360
 8738SOL    HW227114   2.299   5.473   4.492
 8739SOL     OW27115   5.849   5.367   5.848
 8739SOL    HW127116   5.854   5.464   5.875
 8739SOL    HW227117   5.942   5.332   5.832
 8740SOL     OW27118   5.105   1.087   5.275
 8740SOL    HW127119   5.114   0.997   5.232
 8740SOL    HW227120   5.170   1.150   5.234
 8741SOL     OW27121   2.825   1.431   1.848
 8741SOL    HW127122   2.882   1.509   1.820
 8741SOL    HW227123   2.791   1.385   1.767
 8742SOL     OW27124   6.006   6.235   0.980
 8742SOL    HW127125   6.012   6.334   0.996
 8742SOL    HW227126   5.942   6.218   0.904
 8743SOL     OW27127   1.745   0.563   2.085
 8743SOL    HW127128   1.646   0.564   2.068
 8743SOL    HW227129   1.790   0.626   2.022
 8744SOL     OW27130   3.278   2.774   6.537
 8744SOL    HW127131   3.230   2.699   6.492
 8744SOL    HW227132   3.365   2.740   6.574
 8745SOL     OW27133   5.926   3.015   6.101
 8745SOL    HW127134   5.898   2.921   6.082
 8745SOL    HW227135   6.019   3.030   6.065
 8746SOL     OW27136   5.486   3.823   4.888
 8746SOL    HW127137   5.483   3.731   4.926
 8746SOL    HW227138   5.394   3.851   4.860
 8747SOL     OW27139   0.980   2.750   2.354
 8747SOL    HW127140   0.911   2.712   2.415
 8747SOL    HW227141   0.935   2.810   2.287
 8748SOL     OW27142   6.774   1.701   4.799
 8748SOL    HW127143   6.872   1.683   4.812
 8748SOL    HW227144   6.742   1.761   4.872
 8749SOL     OW27145   2.589   0.514   6.121
 8749SOL    HW127146   2.557   0.463   6.201
 8749SOL    HW227147   2.613   0.451   6.048
 8750SOL     OW27148   3.602   3.331   5.462
 8750SOL    HW127149   3.600   3.431   5.462
 8750SOL    HW227150   3.673   3.299   5.525
 8751SOL     OW27151   6.194   1.123   2.813
 8751SOL    HW127152   6.120   1.190   2.820
 8751SOL    HW227153   6.187   1.075   2.725
 8752SOL     OW27154   2.728   3.902   0.500
 8752SOL    HW127155   2.812   3.956   0.502
 8752SOL    HW227156   2.660   3.946   0.559
 8753SOL     OW27157   4.386   2.191   5.657
 8753SOL    HW127158   4.320   2.147   5.719
 8753SOL    HW227159   4.412   2.280   5.694
 8754SOL     OW27160   1.456   3.382   5.393
 8754SOL    HW127161   1.398   3.420   5.465
 8754SOL    HW227162   1.460   3.283   5.401
 8755SOL     OW27163   2.782   0.287   0.561
 8755SOL    HW127164   2.714   0.347   0.520
 8755SOL    HW227165   2.782   0.199   0.515
 8756SOL     OW27166   1.788   2.942   3.230
 8756SOL    HW127167   1.747   2.914   3.144
 8756SOL    HW227168   1.800   3.042   3.231
 8757SOL     OW27169   4.201   6.194   5.857
 8757SOL    HW127170   4.204   6.285   5.817
 8757SOL    HW227171   4.281   6.141   5.828
 8758SOL     OW27172   4.914   6.594   2.669
 8758SOL    HW127173   4.928   6.601   2.767
 8758SOL    HW227174   4.835   6.649   2.643
 8759SOL     OW27175   4.504   2.066   0.046
 8759SOL    HW127176   4.507   1.980   0.096
 8759SOL    HW227177   4.450   2.133   0.098
 8760SOL     OW27178   1.346   1.270   4.930
 8760SOL    HW127179   1.292   1.350   4.953
 8760SOL    HW227180   1.443   1.289   4.948
 8761SOL     OW27181   5.775   2.436   2.968
 8761SOL    HW127182   5.805   2.531   2.954
 8761SOL    HW227183   5.676   2.431   2.954
 8762SOL     OW27184   1.013   4.446   2.398
 8762SOL    HW127185   1.049   4.460   2.306
 8762SOL    HW227186   0.991   4.350   2.411
 8763SOL     OW27187   6.464   6.158   5.763
 8763SOL    HW127188   6.468   6.258   5.763
 8763SOL    HW227189   6.372   6.128   5.740
 8764SOL     OW27190   5.118   1.185   4.896
 8764SOL    HW127191   5.205   1.176   4.945
 8764SOL    HW227192   5.059   1.249   4.946
 8765SOL     OW27193   5.685   0.333   5.098
 8765SOL    HW127194   5.596   0.366   5.068
 8765SOL    HW227195   5.716   0.387   5.176
 8766SOL     OW27196   4.492   4.504   3.974
 8766SOL    HW127197   4.560   4.535   4.041
 8766SOL    HW227198   4.404   4.547   3.995
 8767SOL     OW27199   4.503   6.629   3.137
 8767SOL    HW127200   4.551   6.595   3.056
 8767SOL    HW227201   4.535   6.721   3.159
 8768SOL     OW27202   1.360   2.867   0.340
 8768SOL    HW127203   1.422   2.789   0.338
 8768SOL    HW227204   1.267   2.836   0.320
 8769SOL     OW27205   0.722   0.346   4.073
 8769SOL    HW127206   0.726   0.403   4.155
 8769SOL    HW227207   0.806   0.292   4.065
 8770SOL     OW27208   5.157   4.134   2.173
 8770SOL    HW127209   5.119   4.043   2.158
 8770SOL    HW227210   5.121   4.172   2.258
 8771SOL     OW27211   1.154   0.387   6.608
 8771SOL    HW127212   1.060   0.375   6.576
 8771SOL    HW227213   1.173   0.320   6.680
 8772SOL     OW27214   4.665   6.811   0.244
 8772SOL    HW127215   4.580   6.771   0.210
 8772SOL    HW227216   4.742   6.755   0.214
 8773SOL     OW27217   4.519   2.559   3.542
 8773SOL    HW127218   4.507   2.584   3.638
 8773SOL    HW227219   4.436   2.514   3.510
 8774SOL     OW27220   1.663   1.448   6.557
 8774SOL    HW127221   1.636   1.378   6.622
 8774SOL    HW227222   1.628   1.537   6.586
 8775SOL     OW27223   6.303   6.736   5.909
 8775SOL    HW127224   6.392   6.782   5.923
 8775SOL    HW227225   6.296   6.707   5.813
 8776SOL     OW27226   3.850   3.578   6.144
 8776SOL    HW127227   3.949   3.590   6.146
 8776SOL    HW227228   3.819   3.546   6.234
 8777SOL     OW27229   6.956   3.866   1.728
 8777SOL    HW127230   6.901   3.940   1.691
 8777SOL    HW227231   6.991   3.892   1.818
 8778SOL     OW27232   6.669   2.823   4.734
 8778SOL    HW127233   6.719   2.765   4.798
 8778SOL    HW227234   6.586   2.777   4.704
 8779SOL     OW27235   2.938   5.361   2.431
 8779SOL    HW127236   2.921   5.370   2.529
 8779SOL    HW227237   2.972   5.269   2.411
 8780SOL     OW27238   0.795   6.049   3.031
 8780SOL    HW127239   0.781   6.138   3.075
 8780SOL    HW227240   0.727   5.984   3.064
 8781SOL     OW27241   6.005   1.542   3.209
 8781SOL    HW127242   6.012   1.444   3.229
 8781SOL    HW227243   5.994   1.593   3.295
 8782SOL     OW27244   4.932   6.640   1.967
 8782SOL    HW127245   4.926   6.719   2.028
 8782SOL    HW227246   5.004   6.656   1.899
 8783SOL     OW27247   6.552   4.022   3.681
 8783SOL    HW127248   6.604   3.939   3.660
 8783SOL    HW227249   6.496   4.006   3.762
 8784SOL     OW27250   5.716   4.460   6.540
 8784SOL    HW127251   5.621   4.430   6.546
 8784SOL    HW227252   5.767   4.423   6.618
 8785SOL     OW27253   6.418   3.638   6.790
 8785SOL    HW127254   6.471   3.678   6.714
 8785SOL    HW227255   6.339   3.696   6.809
 8786SOL     OW27256   1.987   6.921   0.283
 8786SOL    HW127257   1.905   6.968   0.251
 8786SOL    HW227258   1.979   6.823   0.265
 8787SOL     OW27259   3.063   2.639   1.729
 8787SOL    HW127260   3.160   2.619   1.720
 8787SOL    HW227261   3.018   2.565   1.780
 8788SOL     OW27262   0.520   2.294   5.952
 8788SOL    HW127263   0.589   2.266   5.885
 8788SOL    HW227264   0.433   2.310   5.904
 8789SOL     OW27265   6.190   6.981   5.534
 8789SOL    HW127266   6.120   6.978   5.604
 8789SOL    HW227267   6.154   6.942   5.449
 8790SOL     OW27268   0.346   0.787   6.974
 8790SOL    HW127269   0.362   0.695   6.937
 8790SOL    HW227270   0.310   0.845   6.901
 8791SOL     OW27271   5.672   0.129   5.445
 8791SOL    HW127272   5.692   0.157   5.351
 8791SOL    HW227273   5.708   0.037   5.461
 8792SOL     OW27274   3.346   6.586   3.361
 8792SOL    HW127275   3.254   6.614   3.334
 8792SOL    HW227276   3.411   6.658   3.336
 8793SOL     OW27277   1.863   4.915   3.377
 8793SOL    HW127278   1.830   5.010   3.383
 8793SOL    HW227279   1.787   4.856   3.350
 8794SOL     OW27280   4.248   6.492   1.805
 8794SOL    HW127281   4.253   6.396   1.834
 8794SOL    HW227282   4.218   6.548   1.882
 8795SOL     OW27283   1.260   5.995   5.436
 8795SOL    HW127284   1.203   6.076   5.428
 8795SOL    HW227285   1.355   6.018   5.416
 8796SOL     OW27286   4.056   2.154   4.423
 8796SOL    HW127287   4.005   2.070   4.406
 8796SOL    HW227288   4.033   2.189   4.514
 8797SOL     OW27289   0.583   6.827   5.845
 8797SOL    HW127290   0.640   6.832   5.926
 8797SOL    HW227291   0.539   6.737   5.840
 8798SOL     OW27292   5.167   5.740   5.899
 8798SOL    HW127293   5.189   5.661   5.841
 8798SOL    HW227294   5.113   5.806   5.847
 8799SOL     OW27295   2.288   4.759   3.962
 8799SOL    HW127296   2.288   4.851   4.002
 8799SOL    HW227297   2.381   4.722   3.963
 8800SOL     OW27298   5.940   3.971   5.540
 8800SOL    HW127299   5.906   3.891   5.588
 8800SOL    HW227300   5.919   3.963   5.443
 8801SOL     OW27301   0.499   2.018   4.931
 8801SOL    HW127302   0.518   1.978   4.842
 8801SOL    HW227303   0.579   2.008   4.990
 8802SOL     OW27304   2.039   6.787   0.730
 8802SOL    HW127305   1.956   6.827   0.691
 8802SOL    HW227306   2.091   6.742   0.657
 8803SOL     OW27307   6.919   5.279   6.364
 8803SOL    HW127308   6.934   5.255   6.459
 8803SOL    HW227309   6.974   5.359   6.340
 8804SOL     OW27310   3.184   0.013   2.065
 8804SOL    HW127311   3.156   7.003   2.156
 8804SOL    HW227312   3.107   0.059   2.021
 8805SOL     OW27313   2.782   6.872   4.155
 8805SOL    HW127314   2.831   6.785   4.156
 8805SOL    HW227315   2.846   6.947   4.175
 8806SOL     OW27316   2.542   5.070   2.369
 8806SOL    HW127317   2.633   5.087   2.406
 8806SOL    HW227318   2.549   5.046   2.272
 8807SOL     OW27319   5.219   6.959   0.024
 8807SOL    HW127320   5.270   6.882   0.061
 8807SOL    HW227321   5.278   7.012   6.985
 8808SOL     OW27322   5.672   2.379   6.817
 8808SOL    HW127323   5.667   2.466   6.767
 8808SOL    HW227324   5.581   2.355   6.850
 8809SOL     OW27325   4.217   5.696   3.982
 8809SOL    HW127326   4.161   5.613   3.991
 8809SOL    HW227327   4.310   5.671   3.956
 8810SOL     OW27328   4.927   0.873   5.955
 8810SOL    HW127329   4.904   0.788   6.005
 8810SOL    HW227330   4.925   0.950   6.019
 8811SOL     OW27331   2.744   1.596   3.852
 8811SOL    HW127332   2.659   1.571   3.897
 8811SOL    HW227333   2.816   1.609   3.922
 8812SOL     OW27334   1.930   0.262   0.856
 8812SOL    HW127335   1.958   0.266   0.951
 8812SOL    HW227336   1.989   0.321   0.801
 8813SOL     OW27337   1.337   4.774   1.964
 8813SOL    HW127338   1.280   4.818   1.895
 8813SOL    HW227339   1.297   4.789   2.055
 8814SOL     OW27340   5.681   6.852   1.106
 8814SOL    HW127341   5.596   6.877   1.060
 8814SOL    HW227342   5.757   6.902   1.066
 8815SOL     OW27343   6.860   6.650   0.405
 8815SOL    HW127344   6.822   6.601   0.483
 8815SOL    HW227345   6.959   6.639   0.404
 8816SOL     OW27346   1.254   0.395   0.202
 8816SOL    HW127347   1.335   0.350   0.239
 8816SOL    HW227348   1.278   0.446   0.120
 8817SOL     OW27349   0.915   5.942   4.597
 8817SOL    HW127350   0.858   5.861   4.587
 8817SOL    HW227351   0.895   6.007   4.524
 8818SOL     OW27352   0.496   3.887   4.718
 8818SOL    HW127353   0.546   3.972   4.730
 8818SOL    HW227354   0.405   3.906   4.682
 8819SOL     OW27355   5.350   4.928   4.954
 8819SOL    HW127356   5.264   4.884   4.980
 8819SOL    HW227357   5.424   4.893   5.010
 8820SOL     OW27358   1.790   0.669   5.095
 8820SOL    HW127359   1.755   0.584   5.136
 8820SOL    HW227360   1.808   0.736   5.166
 8821SOL     OW27361   3.187   6.229   0.128
 8821SOL    HW127362   3.240   6.307   0.095
 8821SOL    HW227363   3.097   6.260   0.159
 8822SOL     OW27364   0.628   0.131   4.746
 8822SOL    HW127365   0.572   0.058   4.786
 8822SOL    HW227366   0.709   0.091   4.702
 8823SOL     OW27367   2.299   0.747   1.040
 8823SOL    HW127368   2.316   0.834   0.993
 8823SOL    HW227369   2.386   0.701   1.057
 8824SOL     OW27370   0.571   3.223   0.884
 8824SOL    HW127371   0.576   3.138   0.935
 8824SOL    HW227372   0.647   3.229   0.820
 8825SOL     OW27373   2.150   0.473   2.673
 8825SOL    HW127374   2.145   0.378   2.644
 8825SOL    HW227375   2.071   0.523   2.637
 8826SOL     OW27376   6.633   3.558   1.181
 8826SOL    HW127377   6.694   3.618   1.129
 8826SOL    HW227378   6.608   3.603   1.267
 8827SOL     OW27379   3.638   1.335   3.137
 8827SOL    HW127380   3.596   1.351   3.048
 8827SOL    HW227381   3.721   1.390   3.145
 8828SOL     OW27382   4.617   5.342   5.814
 8828SOL    HW127383   4.596   5.379   5.724
 8828SOL    HW227384   4.699   5.386   5.851
 8829SOL     OW27385   6.190   2.527   0.642
 8829SOL    HW127386   6.128   2.553   0.715
 8829SOL    HW227387   6.150   2.453   0.588
 8830SOL     OW27388   1.158   1.836   2.446
 8830SOL    HW127389   1.222   1.914   2.444
 8830SOL    HW227390   1.193   1.767   2.510
 8831SOL     OW27391   4.815   1.824   4.149
 8831SOL    HW127392   4.765   1.884   4.211
 8831SOL    HW227393   4.783   1.730   4.160
 8832SOL     OW27394   0.066   5.426   3.246
 8832SOL    HW127395   6.993   5.399   3.269
 8832SOL    HW227396   0.067   5.465   3.154
 8833SOL     OW27397   2.245   5.822   5.578
 8833SOL    HW127398   2.293   5.739   5.551
 8833SOL    HW227399   2.205   5.866   5.497
 8834SOL     OW27400   5.154   3.354   4.668
 8834SOL    HW127401   5.073   3.383   4.617
 8834SOL    HW227402   5.127   3.293   4.742
 8835SOL     OW27403   5.530   1.014   6.032
 8835SOL    HW127404   5.536   0.981   5.938
 8835SOL    HW227405   5.436   1.006   6.065
 8836SOL     OW27406   4.814   2.873   6.661
 8836SOL    HW127407   4.719   2.880   6.631
 8836SOL    HW227408   4.841   2.776   6.662
 8837SOL     OW27409   0.054   5.708   3.351
 8837SOL    HW127410   0.087   5.622   3.312
 8837SOL    HW227411   0.002   5.689   3.435
 8838SOL     OW27412   2.528   5.250   2.745
 8838SOL    HW127413   2.617   5.293   2.728
 8838SOL    HW227414   2.474   5.250   2.661
 8839SOL     OW27415   5.176   5.065   3.571
 8839SOL    HW127416   5.161   4.990   3.507
 8839SOL    HW227417   5.095   5.078   3.628
 8840SOL     OW27418   6.572   1.900   2.350
 8840SOL    HW127419   6.643   1.952   2.301
 8840SOL    HW227420   6.566   1.933   2.444
 8841SOL     OW27421   0.609   1.049   5.194
 8841SOL    HW127422   0.560   0.989   5.257
 8841SOL    HW227423   0.681   1.098   5.243
 8842SOL     OW27424   3.388   3.135   2.333
 8842SOL    HW127425   3.467   3.188   2.301
 8842SOL    HW227426   3.419   3.046   2.366
 8843SOL     OW27427   1.789   3.127   5.795
 8843SOL    HW127428   1.763   3.042   5.842
 8843SOL    HW227429   1.773   3.205   5.855
 8844SOL     OW27430   6.683   2.613   6.937
 8844SOL    HW127431   6.726   2.602   0.006
 8844SOL    HW227432   6.595   2.566   6.937
 8845SOL     OW27433   3.456   3.685   0.024
 8845SOL    HW127434   3.520   3.760   0.004
 8845SOL    HW227435   3.400   3.710   0.103
 8846SOL     OW27436   3.192   5.896   3.507
 8846SOL    HW127437   3.287   5.871   3.488
 8846SOL    HW227438   3.161   5.847   3.588
 8847SOL     OW27439   2.807   1.255   3.806
 8847SOL    HW127440   2.773   1.341   3.769
 8847SOL    HW227441   2.793   1.182   3.739
 8848SOL     OW27442   2.136   0.992   1.385
 8848SOL    HW127443   2.148   0.893   1.384
 8848SOL    HW227444   2.053   1.015   1.436
 8849SOL     OW27445   3.189   6.450   3.556
 8849SOL    HW127446   3.256   6.503   3.504
 8849SOL    HW227447   3.175   6.493   3.645
 8850SOL     OW27448   1.162   2.246   6.976
 8850SOL    HW127449   1.166   2.346   6.971
 8850SOL    HW227450   1.135   2.210   6.887
 8851SOL     OW27451   1.326   4.179   3.634
 8851SOL    HW127452   1.231   4.149   3.634
 8851SOL    HW227453   1.385   4.103   3.663
 8852SOL     OW27454   0.154   2.794   5.323
 8852SOL    HW127455   0.202   2.767   5.407
 8852SOL    HW227456   0.178   2.889   5.301
 8853SOL     OW27457   3.264   1.037   1.299
 8853SOL    HW127458   3.232   0.943   1.306
 8853SOL    HW227459   3.340   1.052   1.362
 8854SOL     OW27460   2.462   2.518   5.790
 8854SOL    HW127461   2.557   2.517   5.761
 8854SOL    HW227462   2.428   2.612   5.788
 8855SOL     OW27463   6.508   5.153   1.430
 8855SOL    HW127464   6.459   5.100   1.500
 8855SOL    HW227465   6.572   5.093   1.382
 8856SOL     OW27466   0.950   6.294   6.263
 8856SOL    HW127467   1.002   6.338   6.191
 8856SOL    HW227468   0.852   6.304   6.244
 8857SOL     OW27469   6.932   2.107   4.504
 8857SOL    HW127470   6.849   2.161   4.514
 8857SOL    HW227471   7.009   2.168   4.485
 8858SOL     OW27472   0.000   4.134   4.588
 8858SOL    HW127473   6.963   4.178   4.520
 8858SOL    HW227474   0.091   4.176   4.586
 8859SOL     OW27475   1.403   1.580   3.562
 8859SOL    HW127476   1.355   1.659   3.600
 8859SOL    HW227477   1.497   1.579   3.597
 8860SOL     OW27478   6.679   2.262   1.662
 8860SOL    HW127479   6.688   2.347   1.609
 8860SOL    HW227480   6.697   2.280   1.758
 8861SOL     OW27481   4.095   1.152   5.890
 8861SOL    HW127482   4.128   1.064   5.855
 8861SOL    HW227483   4.171   1.203   5.929
 8862SOL     OW27484   5.532   6.910   3.722
 8862SOL    HW127485   5.557   6.998   3.679
 8862SOL    HW227486   5.615   6.858   3.742
 8863SOL     OW27487   2.752   4.673   3.365
 8863SOL    HW127488   2.741   4.767   3.331
 8863SOL    HW227489   2.837   4.666   3.417
 8864SOL     OW27490   3.194   5.065   6.414
 8864SOL    HW127491   3.164   5.069   6.319
 8864SOL    HW227492   3.260   5.138   6.432
 8865SOL     OW27493   3.113   0.719   4.666
 8865SOL    HW127494   3.171   0.790   4.626
 8865SOL    HW227495   3.140   0.629   4.629
 8866SOL     OW27496   5.624   0.406   3.128
 8866SOL    HW127497   5.588   0.373   3.215
 8866SOL    HW227498   5.674   0.333   3.082
 8867SOL     OW27499   5.869   4.479   3.386
 8867SOL    HW127500   5.896   4.389   3.420
 8867SOL    HW227501   5.808   4.522   3.452
 8868SOL     OW27502   0.225   3.285   1.257
 8868SOL    HW127503   0.256   3.235   1.176
 8868SOL    HW227504   0.125   3.284   1.260
 8869SOL     OW27505   3.596   5.988   5.365
 8869SOL    HW127506   3.528   5.971   5.294
 8869SOL    HW227507   3.665   6.052   5.330
 8870SOL     OW27508   2.639   6.550   1.581
 8870SOL    HW127509   2.728   6.574   1.541
 8870SOL    HW227510   2.646   6.461   1.625
 8871SOL     OW27511   1.760   0.672   3.915
 8871SOL    HW127512   1.709   0.756   3.897
 8871SOL    HW227513   1.707   0.593   3.883
 8872SOL     OW27514   1.771   4.874   5.568
 8872SOL    HW127515   1.735   4.876   5.475
 8872SOL    HW227516   1.809   4.783   5.587
 8873SOL     OW27517   1.290   0.292   2.149
 8873SOL    HW127518   1.302   0.245   2.061
 8873SOL    HW227519   1.350   0.252   2.217
 8874SOL     OW27520   2.314   5.561   2.511
 8874SOL    HW127521   2.280   5.653   2.533
 8874SOL    HW227522   2.269   5.494   2.570
 8875SOL     OW27523   6.913   3.903   4.525
 8875SOL    HW127524   6.971   3.980   4.552
 8875SOL    HW227525   6.970   3.827   4.495
 8876SOL     OW27526   2.132   0.186   5.746
 8876SOL    HW127527   2.209   0.240   5.713
 8876SOL    HW227528   2.071   0.165   5.670
 8877SOL     OW27529   2.315   2.006   4.223
 8877SOL    HW127530   2.368   1.935   4.177
 8877SOL    HW227531   2.304   1.982   4.319
 8878SOL     OW27532   4.726   5.025   0.882
 8878SOL    HW127533   4.811   4.989   0.922
 8878SOL    HW227534   4.651   4.961   0.899
 8879SOL     OW27535   4.440   4.468   2.401
 8879SOL    HW127536   4.515   4.470   2.335
 8879SOL    HW227537   4.358   4.507   2.360
 8880SOL     OW27538   4.678   6.418   5.177
 8880SOL    HW127539   4.669   6.460   5.087
 8880SOL    HW227540   4.714   6.325   5.167
 8881SOL     OW27541   5.296   6.048   3.898
 8881SOL    HW127542   5.364   6.059   3.970
 8881SOL    HW227543   5.205   6.038   3.939
 8882SOL     OW27544   5.036   1.229   1.532
 8882SOL    HW127545   5.134   1.228   1.512
 8882SOL    HW227546   4.994   1.146   1.494
 8883SOL     OW27547   2.008   6.320   6.207
 8883SOL    HW127548   1.957   6.240   6.176
 8883SOL    HW227549   1.954   6.402   6.188
 8884SOL     OW27550   6.136   3.115   5.744
 8884SOL    HW127551   6.219   3.064   5.721
 8884SOL    HW227552   6.056   3.056   5.733
 8885SOL     OW27553   5.232   4.447   0.699
 8885SOL    HW127554   5.259   4.462   0.604
 8885SOL    HW227555   5.310   4.465   0.759
 8886SOL     OW27556   2.847   6.122   5.258
 8886SOL    HW127557   2.827   6.167   5.171
 8886SOL    HW227558   2.833   6.187   5.333
 8887SOL     OW27559   4.080   1.130   1.112
 8887SOL    HW127560   4.035   1.117   1.024
 8887SOL    HW227561   4.022   1.092   1.185
 8888SOL     OW27562   1.733   1.430   5.546
 8888SOL    HW127563   1.798   1.504   5.528
 8888SOL    HW227564   1.675   1.416   5.466
 8889SOL     OW27565   6.674   6.811   0.030
 8889SOL    HW127566   6.746   6.838   0.093
 8889SOL    HW227567   6.623   6.892   0.000
 8890SOL     OW27568   0.182   5.723   5.476
 8890SOL    HW127569   0.126   5.781   5.416
 8890SOL    HW227570   0.250   5.674   5.421
 8891SOL     OW27571   3.640   3.871   6.985
 8891SOL    HW127572   3.664   3.935   6.913
 8891SOL    HW227573   3.679   3.902   0.051
 8892SOL     OW27574   3.805   4.846   3.035
 8892SOL    HW127575   3.835   4.903   2.959
 8892SOL    HW227576   3.879   4.835   3.100
 8893SOL     OW27577   1.130   5.122   4.283
 8893SOL    HW127578   1.132   5.134   4.382
 8893SOL    HW227579   1.079   5.039   4.261
 8894SOL     OW27580   3.206   1.839   6.487
 8894SOL    HW127581   3.127   1.888   6.451
 8894SOL    HW227582   3.290   1.886   6.459
 8895SOL     OW27583   6.965   2.154   1.934
 8895SOL    HW127584   6.948   2.208   2.017
 8895SOL    HW227585   0.032   2.182   1.894
 8896SOL     OW27586   2.212   3.197   4.886
 8896SOL    HW127587   2.280   3.130   4.914
 8896SOL    HW227588   2.189   3.256   4.963
 8897SOL     OW27589   2.630   2.342   3.630
 8897SOL    HW127590   2.643   2.339   3.531
 8897SOL    HW227591   2.537   2.373   3.651
 8898SOL     OW27592   4.992   3.650   2.669
 8898SOL    HW127593   4.940   3.695   2.597
 8898SOL    HW227594   5.085   3.633   2.638
 8899SOL     OW27595   1.237   4.339   0.841
 8899SOL    HW127596   1.314   4.391   0.807
 8899SOL    HW227597   1.239   4.338   0.941
 8900SOL     OW27598   5.098   3.253   3.239
 8900SOL    HW127599   5.172   3.237   3.304
 8900SOL    HW227600   5.135   3.294   3.155
 8901SOL     OW27601   0.896   1.436   5.085
 8901SOL    HW127602   0.912   1.488   5.002
 8901SOL    HW227603   0.853   1.349   5.062
 8902SOL     OW27604   0.678   5.520   0.378
 8902SOL    HW127605   0.617   5.542   0.301
 8902SOL    HW227606   0.765   5.486   0.343
 8903SOL     OW27607   0.767   1.708   4.312
 8903SOL    HW127608   0.725   1.798   4.303
 8903SOL    HW227609   0.848   1.703   4.254
 8904SOL     OW27610   0.857   0.641   4.588
 8904SOL    HW127611   0.942   0.665   4.541
 8904SOL    HW227612   0.876   0.571   4.656
 8905SOL     OW27613   2.183   3.312   3.133
 8905SOL    HW127614   2.204   3.305   3.230
 8905SOL    HW227615   2.175   3.220   3.094
 8906SOL     OW27616   0.607   6.051   0.758
 8906SOL    HW127617   0.653   5.987   0.820
 8906SOL    HW227618   0.669   6.126   0.736
 8907SOL     OW27619   3.448   2.825   5.864
 8907SOL    HW127620   3.468   2.835   5.962
 8907SOL    HW227621   3.357   2.862   5.846
 8908SOL     OW27622   1.734   5.759   0.249
 8908SOL    HW127623   1.779   5.769   0.160
 8908SOL    HW227624   1.720   5.849   0.289
 8909SOL     OW27625   2.466   1.637   5.717
 8909SOL    HW127626   2.379   1.624   5.671
 8909SOL    HW227627   2.538   1.585   5.669
 8910SOL     OW27628   1.027   3.487   5.651
 8910SOL    HW127629   1.124   3.511   5.640
 8910SOL    HW227630   0.984   3.552   5.714
 8911SOL     OW27631   4.998   3.091   4.406
 8911SOL    HW127632   5.046   3.150   4.341
 8911SOL    HW227633   4.903   3.119   4.413
 8912SOL     OW27634   2.889   3.985   0.117
 8912SOL    HW127635   2.916   3.901   0.163
 8912SOL    HW227636   2.824   3.964   0.044
 8913SOL     OW27637   4.049   5.372   6.749
 8913SOL    HW127638   4.009   5.464   6.758
 8913SOL    HW227639   3.983   5.311   6.705
 8914SOL     OW27640   4.789   0.287   4.650
 8914SOL    HW127641   4.804   0.236   4.565
 8914SOL    HW227642   4.695   0.321   4.652
 8915SOL     OW27643   1.591   2.099   3.692
 8915SOL    HW127644   1.619   2.145   3.608
 8915SOL    HW227645   1.499   2.129   3.717
 8916SOL     OW27646   6.391   3.159   0.811
 8916SOL    HW127647   6.371   3.191   0.719
 8916SOL    HW227648   6.320   3.094   0.839
 8917SOL     OW27649   5.675   2.874   0.334
 8917SOL    HW127650   5.677   2.888   0.235
 8917SOL    HW227651   5.690   2.777   0.354
 8918SOL     OW27652   0.386   4.623   0.757
 8918SOL    HW127653   0.475   4.578   0.763
 8918SOL    HW227654   0.358   4.654   0.848
 8919SOL     OW27655   4.823   3.963   6.972
 8919SOL    HW127656   4.911   3.956   6.927
 8919SOL    HW227657   4.836   3.991   0.046
 8920SOL     OW27658   0.028   1.780   6.959
 8920SOL    HW127659   6.992   1.845   6.910
 8920SOL    HW227660   0.124   1.795   6.935
 8921SOL     OW27661   1.766   3.154   1.725
 8921SOL    HW127662   1.816   3.071   1.703
 8921SOL    HW227663   1.830   3.225   1.755
 8922SOL     OW27664   4.023   5.049   2.343
 8922SOL    HW127665   4.030   4.949   2.334
 8922SOL    HW227666   3.929   5.074   2.368
 8923SOL     OW27667   1.655   1.856   6.431
 8923SOL    HW127668   1.608   1.792   6.370
 8923SOL    HW227669   1.640   1.949   6.400
 8924SOL     OW27670   4.659   5.620   5.129
 8924SOL    HW127671   4.706   5.708   5.135
 8924SOL    HW227672   4.562   5.632   5.149
 8925SOL     OW27673   0.859   0.775   3.240
 8925SOL    HW127674   0.893   0.691   3.198
 8925SOL    HW227675   0.921   0.851   3.219
 8926SOL     OW27676   6.360   3.082   6.334
 8926SOL    HW127677   6.413   3.075   6.418
 8926SOL    HW227678   6.290   3.011   6.332
 8927SOL     OW27679   0.227   0.928   4.889
 8927SOL    HW127680   0.269   0.914   4.800
 8927SOL    HW227681   0.174   1.013   4.889
 8928SOL     OW27682   1.411   0.312   6.087
 8928SOL    HW127683   1.505   0.316   6.122
 8928SOL    HW227684   1.373   0.404   6.084
 8929SOL     OW27685   6.019   2.368   4.779
 8929SOL    HW127686   6.046   2.277   4.750
 8929SOL    HW227687   6.094   2.412   4.828
 8930SOL     OW27688   1.252   2.657   4.596
 8930SOL    HW127689   1.343   2.690   4.621
 8930SOL    HW227690   1.260   2.572   4.545
 8931SOL     OW27691   3.147   3.758   1.100
 8931SOL    HW127692   3.114   3.803   1.182
 8931SOL    HW227693   3.075   3.759   1.030
 8932SOL     OW27694   6.082   2.202   1.895
 8932SOL    HW127695   6.172   2.186   1.936
 8932SOL    HW227696   6.094   2.251   1.808
 8933SOL     OW27697   2.844   3.027   6.120
 8933SOL    HW127698   2.765   3.070   6.163
 8933SOL    HW227699   2.836   3.036   6.020
 8934SOL     OW27700   2.361   5.526   4.659
 8934SOL    HW127701   2.372   5.606   4.718
 8934SOL    HW227702   2.369   5.443   4.714
 8935SOL     OW27703   0.653   4.651   0.181
 8935SOL    HW127704   0.634   4.658   0.279
 8935SOL    HW227705   0.570   4.675   0.130
 8936SOL     OW27706   1.083   4.420   2.127
 8936SOL    HW127707   1.157   4.367   2.169
 8936SOL    HW227708   1.120   4.475   2.053
 8937SOL     OW27709   0.716   0.275   5.595
 8937SOL    HW127710   0.769   0.195   5.624
 8937SOL    HW227711   0.619   0.257   5.609
 8938SOL     OW27712   0.807   6.300   0.680
 8938SOL    HW127713   0.874   6.280   0.752
 8938SOL    HW227714   0.813   6.231   0.608
 8939SOL     OW27715   5.135   3.249   4.213
 8939SOL    HW127716   5.140   3.182   4.139
 8939SOL    HW227717   5.228   3.279   4.237
 8940SOL     OW27718   0.294   1.407   2.447
 8940SOL    HW127719   0.389   1.429   2.425
 8940SOL    HW227720   0.234   1.446   2.377
 8941SOL     OW27721   6.433   2.721   6.007
 8941SOL    HW127722   6.433   2.821   6.013
 8941SOL    HW227723   6.415   2.694   5.912
 8942SOL     OW27724   6.532   4.837   4.987
 8942SOL    HW127725   6.480   4.781   4.923
 8942SOL    HW227726   6.494   4.930   4.989
 8943SOL     OW27727   3.480   5.215   6.145
 8943SOL    HW127728   3.548   5.170   6.203
 8943SOL    HW227729   3.429   5.147   6.094
 8944SOL     OW27730   5.229   4.709   5.427
 8944SOL    HW127731   5.176   4.778   5.477
 8944SOL    HW227732   5.326   4.730   5.435
 8945SOL     OW27733   1.184   0.823   2.941
 8945SOL    HW127734   1.147   0.841   2.850
 8945SOL    HW227735   1.276   0.785   2.933
 8946SOL     OW27736   3.255   1.362   5.164
 8946SOL    HW127737   3.286   1.376   5.258
 8946SOL    HW227738   3.334   1.349   5.105
 8947SOL     OW27739   2.356   3.437   5.570
 8947SOL    HW127740   2.328   3.351   5.527
 8947SOL    HW227741   2.421   3.484   5.511
 8948SOL     OW27742   6.388   6.562   4.775
 8948SOL    HW127743   6.396   6.527   4.681
 8948SOL    HW227744   6.463   6.527   4.830
 8949SOL     OW27745   2.590   6.991   0.856
 8949SOL    HW127746   2.639   6.904   0.845
 8949SOL    HW227747   2.539   6.991   0.942
 8950SOL     OW27748   4.727   4.340   5.729
 8950SOL    HW127749   4.802   4.385   5.680
 8950SOL    HW227750   4.703   4.393   5.810
 8951SOL     OW27751   1.276   2.373   5.412
 8951SOL    HW127752   1.209   2.446   5.425
 8951SOL    HW227753   1.235   2.285   5.431
 8952SOL     OW27754   1.460   6.729   2.588
 8952SOL    HW127755   1.544   6.773   2.619
 8952SOL    HW227756   1.391   6.732   2.661
 8953SOL     OW27757   1.397   4.149   6.488
 8953SOL    HW127758   1.456   4.092   6.544
 8953SOL    HW227759   1.421   4.245   6.500
 8954SOL     OW27760   0.925   0.119   5.093
 8954SOL    HW127761   0.893   0.110   5.187
 8954SOL    HW227762   1.008   0.065   5.080
 8955SOL     OW27763   0.121   5.175   2.565
 8955SOL    HW127764   0.122   5.198   2.468
 8955SOL    HW227765   0.211   5.194   2.605
 8956SOL     OW27766   1.117   1.357   6.551
 8956SOL    HW127767   1.199   1.379   6.497
 8956SOL    HW227768   1.125   1.400   6.641
 8957SOL     OW27769   2.719   4.468   1.585
 8957SOL    HW127770   2.629   4.459   1.628
 8957SOL    HW227771   2.786   4.497   1.653
 8958SOL     OW27772   0.405   1.436   5.171
 8958SOL    HW127773   0.476   1.381   5.216
 8958SOL    HW227774   0.344   1.377   5.119
 8959SOL     OW27775   1.383   4.230   1.595
 8959SOL    HW127776   1.402   4.207   1.500
 8959SOL    HW227777   1.468   4.247   1.643
 8960SOL     OW27778   4.675   4.583   3.040
 8960SOL    HW127779   4.722   4.495   3.033
 8960SOL    HW227780   4.709   4.645   2.970
 8961SOL     OW27781   2.578   1.180   4.563
 8961SOL    HW127782   2.637   1.241   4.616
 8961SOL    HW227783   2.488   1.174   4.606
 8962SOL     OW27784   5.703   6.247   2.278
 8962SOL    HW127785   5.722   6.245   2.376
 8962SOL    HW227786   5.761   6.314   2.233
 8963SOL     OW27787   4.105   6.165   4.189
 8963SOL    HW127788   4.172   6.094   4.164
 8963SOL    HW227789   4.111   6.240   4.124
 8964SOL     OW27790   4.846   3.152   3.191
 8964SOL    HW127791   4.936   3.195   3.198
 8964SOL    HW227792   4.799   3.185   3.109
 8965SOL     OW27793   2.254   5.045   0.676
 8965SOL    HW127794   2.335   4.987   0.683
 8965SOL    HW227795   2.264   5.123   0.738
 8966SOL     OW27796   6.857   4.056   6.897
 8966SOL    HW127797   6.780   4.116   6.873
 8966SOL    HW227798   6.939   4.112   6.907
 8967SOL     OW27799   3.919   6.970   1.924
 8967SOL    HW127800   3.992   7.016   1.873
 8967SOL    HW227801   3.832   7.016   1.908
 8968SOL     OW27802   5.170   4.896   3.166
 8968SOL    HW127803   5.164   4.981   3.114
 8968SOL    HW227804   5.129   4.822   3.112
 8969SOL     OW27805   6.978   1.249   4.724
 8969SOL    HW127806   6.891   1.228   4.678
 8969SOL    HW227807   0.032   1.212   4.670
 8970SOL     OW27808   2.288   3.213   0.584
 8970SOL    HW127809   2.207   3.166   0.621
 8970SOL    HW227810   2.275   3.230   0.486
 8971SOL     OW27811   5.113   5.428   1.911
 8971SOL    HW127812   5.177   5.359   1.946
 8971SOL    HW227813   5.064   5.469   1.987
 8972SOL     OW27814   5.381   4.588   6.222
 8972SOL    HW127815   5.391   4.563   6.126
 8972SOL    HW227816   5.303   4.540   6.262
 8973SOL     OW27817   1.044   3.018   2.474
 8973SOL    HW127818   1.132   3.045   2.512
 8973SOL    HW227819   1.059   2.962   2.392
 8974SOL     OW27820   1.124   4.399   5.570
 8974SOL    HW127821   1.071   4.316   5.555
 8974SOL    HW227822   1.149   4.439   5.482
 8975SOL     OW27823   1.660   6.986   5.820
 8975SOL    HW127824   1.669   6.896   5.862
 8975SOL    HW227825   1.743   0.019   5.837
 8976SOL     OW27826   6.980   4.715   4.950
 8976SOL    HW127827   0.038   4.776   4.950
 8976SOL    HW227828   6.965   4.678   5.042
 8977SOL     OW27829   5.593   2.612   0.088
 8977SOL    HW127830   5.648   2.643   0.010
 8977SOL    HW227831   5.650   2.556   0.148
 8978SOL     OW27832   5.976   0.331   5.002
 8978SOL    HW127833   5.879   0.351   5.020
 8978SOL    HW227834   5.984   0.276   4.919
 8979SOL     OW27835   1.249   3.647   4.339
 8979SOL    HW127836   1.294   3.620   4.425
 8979SOL    HW227837   1.315   3.641   4.264
 8980SOL     OW27838   2.902   3.039   5.810
 8980SOL    HW127839   2.803   3.034   5.802
 8980SOL    HW227840   2.941   2.947   5.799
 8981SOL     OW27841   4.514   1.990   5.527
 8981SOL    HW127842   4.503   1.908   5.582
 8981SOL    HW227843   4.480   2.069   5.577
 8982SOL     OW27844   0.786   2.170   1.213
 8982SOL    HW127845   0.739   2.254   1.240
 8982SOL    HW227846   0.729   2.118   1.149
 8983SOL     OW27847   1.827   6.142   0.088
 8983SOL    HW127848   1.921   6.111   0.102
 8983SOL    HW227849   1.814   6.167   7.013
 8984SOL     OW27850   0.174   0.475   4.485
 8984SOL    HW127851   0.252   0.482   4.423
 8984SOL    HW227852   0.119   0.395   4.460
 8985SOL     OW27853   2.528   2.666   0.916
 8985SOL    HW127854   2.598   2.723   0.872
 8985SOL    HW227855   2.530   2.575   0.876
 8986SOL     OW27856   5.118   5.298   2.492
 8986SOL    HW127857   5.092   5.292   2.395
 8986SOL    HW227858   5.039   5.274   2.549
 8987SOL     OW27859   4.428   6.959   1.383
 8987SOL    HW127860   4.464   6.889   1.445
 8987SOL    HW227861   4.390   6.915   1.301
 8988SOL     OW27862   1.410   3.750   5.552
 8988SOL    HW127863   1.508   3.745   5.533
 8988SOL    HW227864   1.396   3.804   5.635
 8989SOL     OW27865   5.071   3.912   1.345
 8989SOL    HW127866   5.170   3.895   1.348
 8989SOL    HW227867   5.040   3.911   1.250
 8990SOL     OW27868   1.937   6.188   3.413
 8990SOL    HW127869   1.912   6.218   3.505
 8990SOL    HW227870   1.855   6.175   3.358
 8991SOL     OW27871   1.324   1.998   6.437
 8991SOL    HW127872   1.422   2.018   6.433
 8991SOL    HW227873   1.309   1.915   6.491
 8992SOL     OW27874   5.562   1.371   0.237
 8992SOL    HW127875   5.470   1.406   0.255
 8992SOL    HW227876   5.580   1.371   0.139
 8993SOL     OW27877   5.017   2.365   2.620
 8993SOL    HW127878   4.922   2.340   2.605
 8993SOL    HW227879   5.022   2.447   2.677
 8994SOL     OW27880   0.942   4.594   4.743
 8994SOL    HW127881   1.010   4.646   4.796
 8994SOL    HW227882   0.986   4.555   4.662
 8995SOL     OW27883   0.982   2.977   0.115
 8995SOL    HW127884   0.912   3.040   0.081
 8995SOL    HW227885   1.014   2.919   0.041
 8996SOL     OW27886   5.867   5.277   0.524
 8996SOL    HW127887   5.858   5.353   0.587
 8996SOL    HW227888   5.855   5.310   0.430
 8997SOL     OW27889   4.888   1.187   5.862
 8997SOL    HW127890   4.945   1.155   5.937
 8997SOL    HW227891   4.792   1.180   5.888
 8998SOL     OW27892   6.464   3.873   4.595
 8998SOL    HW127893   6.518   3.956   4.609
 8998SOL    HW227894   6.369   3.891   4.619
 8999SOL     OW27895   4.762   6.216   6.705
 8999SOL    HW127896   4.715   6.294   6.665
 8999SOL    HW227897   4.824   6.247   6.777
 9000SOL     OW27898   1.601   4.106   0.861
 9000SOL    HW127899   1.645   4.165   0.928
 9000SOL    HW227900   1.616   4.010   0.885
 9001SOL     OW27901   1.315   5.619   2.386
 9001SOL    HW127902   1.265   5.694   2.342
 9001SOL    HW227903   1.390   5.590   2.326
 9002SOL     OW27904   0.226   4.851   4.949
 9002SOL    HW127905   0.252   4.757   4.928
 9002SOL    HW227906   0.308   4.909   4.950
 9003SOL     OW27907   5.191   3.307   1.711
 9003SOL    HW127908   5.249   3.235   1.750
 9003SOL    HW227909   5.115   3.265   1.661
 9004SOL     OW27910   3.931   6.677   1.478
 9004SOL    HW127911   3.984   6.742   1.533
 9004SOL    HW227912   3.952   6.690   1.381
 9005SOL     OW27913   5.397   2.636   4.203
 9005SOL    HW127914   5.350   2.613   4.288
 9005SOL    HW227915   5.481   2.581   4.195
 9006SOL     OW27916   2.803   6.414   1.319
 9006SOL    HW127917   2.801   6.334   1.258
 9006SOL    HW227918   2.719   6.467   1.307
 9007SOL     OW27919   3.445   0.849   4.102
 9007SOL    HW127920   3.472   0.860   4.006
 9007SOL    HW227921   3.360   0.797   4.107
 9008SOL     OW27922   1.363   5.943   3.635
 9008SOL    HW127923   1.287   6.004   3.655
 9008SOL    HW227924   1.329   5.858   3.596
 9009SOL     OW27925   3.311   6.885   0.649
 9009SOL    HW127926   3.325   6.887   0.550
 9009SOL    HW227927   3.336   6.973   0.688
 9010SOL     OW27928   1.453   6.558   3.795
 9010SOL    HW127929   1.437   6.650   3.831
 9010SOL    HW227930   1.481   6.565   3.699
 9011SOL     OW27931   5.671   2.015   2.104
 9011SOL    HW127932   5.754   1.966   2.128
 9011SOL    HW227933   5.687   2.114   2.110
 9012SOL     OW27934   1.909   3.974   0.798
 9012SOL    HW127935   1.830   3.930   0.755
 9012SOL    HW227936   1.900   3.971   0.897
 9013SOL     OW27937   7.018   6.554   5.110
 9013SOL    HW127938   6.987   6.613   5.035
 9013SOL    HW227939   0.092   6.578   5.134
 9014SOL     OW27940   6.008   1.925   0.247
 9014SOL    HW127941   5.945   1.847   0.238
 9014SOL    HW227942   5.971   2.004   0.198
 9015SOL     OW27943   4.648   1.437   1.996
 9015SOL    HW127944   4.605   1.399   1.914
 9015SOL    HW227945   4.743   1.462   1.974
 9016SOL     OW27946   0.458   6.742   6.638
 9016SOL    HW127947   0.473   6.796   6.556
 9016SOL    HW227948   0.509   6.781   6.714
 9017SOL     OW27949   4.206   1.987   3.409
 9017SOL    HW127950   4.240   2.061   3.467
 9017SOL    HW227951   4.266   1.907   3.419
 9018SOL     OW27952   3.969   2.235   6.854
 9018SOL    HW127953   4.065   2.209   6.847
 9018SOL    HW227954   3.960   2.333   6.839
 9019SOL     OW27955   1.471   6.580   2.115
 9019SOL    HW127956   1.459   6.509   2.185
 9019SOL    HW227957   1.381   6.610   2.082
 9020SOL     OW27958   0.163   3.840   1.507
 9020SOL    HW127959   0.071   3.845   1.545
 9020SOL    HW227960   0.213   3.923   1.529
 9021SOL     OW27961   6.413   0.155   3.307
 9021SOL    HW127962   6.386   0.063   3.280
 9021SOL    HW227963   6.480   0.149   3.381
 9022SOL     OW27964   3.160   2.056   6.951
 9022SOL    HW127965   3.125   1.980   6.895
 9022SOL    HW227966   3.246   2.029   6.994
 9023SOL     OW27967   3.513   3.047   2.646
 9023SOL    HW127968   3.519   2.973   2.714
 9023SOL    HW227969   3.493   3.133   2.693
 9024SOL     OW27970   0.783   4.585   4.966
 9024SOL    HW127971   0.817   4.611   4.875
 9024SOL    HW227972   0.859   4.553   5.022
 9025SOL     OW27973   0.605   5.219   0.355
 9025SOL    HW127974   0.704   5.204   0.348
 9025SOL    HW227975   0.561   5.184   0.272
 9026SOL     OW27976   4.139   2.802   0.910
 9026SOL    HW127977   4.172   2.841   0.824
 9026SOL    HW227978   4.105   2.709   0.893
 9027SOL     OW27979   1.308   2.438   3.584
 9027SOL    HW127980   1.331   2.481   3.497
 9027SOL    HW227981   1.327   2.502   3.659
 9028SOL     OW27982   2.944   3.655   5.441
 9028SOL    HW127983   2.979   3.685   5.352
 9028SOL    HW227984   2.921   3.734   5.497
 9029SOL     OW27985   4.012   6.195   4.966
 9029SOL    HW127986   4.039   6.139   5.045
 9029SOL    HW227987   4.086   6.258   4.944
 9030SOL     OW27988   2.568   1.807   3.429
 9030SOL    HW127989   2.617   1.748   3.494
 9030SOL    HW227990   2.634   1.847   3.366
 9031SOL     OW27991   4.305   5.608   4.394
 9031SOL    HW127992   4.264   5.661   4.468
 9031SOL    HW227993   4.233   5.557   4.346
 9032SOL     OW27994   3.882   3.639   0.546
 9032SOL    HW127995   3.830   3.558   0.575
 9032SOL    HW227996   3.950   3.662   0.615
 9033SOL     OW27997   0.505   3.825   3.151
 9033SOL    HW127998   0.561   3.893   3.198
 9033SOL    HW227999   0.482   3.751   3.214
 9034SOL     OW28000   3.239   0.122   5.397
 9034SOL    HW128001   3.315   0.187   5.407
 9034SOL    HW228002   3.266   0.034   5.434
 9035SOL     OW28003   1.885   5.062   6.477
 9035SOL    HW128004   1.942   5.012   6.411
 9035SOL    HW228005   1.791   5.029   6.470
 9036SOL     OW28006   1.518   1.583   5.596
 9036SOL    HW128007   1.477   1.631   5.518
 9036SOL    HW228008   1.599   1.534   5.566
 9037SOL     OW28009   1.452   3.937   4.964
 9037SOL    HW128010   1.510   3.939   5.045
 9037SOL    HW228011   1.504   3.969   4.885
 9038SOL     OW28012   3.998   0.271   6.112
 9038SOL    HW128013   3.986   0.299   6.207
 9038SOL    HW228014   4.053   0.340   6.064
 9039SOL     OW28015   2.842   5.829   5.231
 9039SOL    HW128016   2.930   5.823   5.279
 9039SOL    HW228017   2.802   5.920   5.248
 9040SOL     OW28018   3.350   1.932   2.592
 9040SOL    HW128019   3.268   1.987   2.612
 9040SOL    HW228020   3.419   1.991   2.550
 9041SOL     OW28021   1.151   2.191   1.558
 9041SOL    HW128022   1.088   2.178   1.635
 9041SOL    HW228023   1.107   2.161   1.473
 9042SOL     OW28024   3.574   0.522   4.440
 9042SOL    HW128025   3.599   0.437   4.392
 9042SOL    HW228026   3.630   0.532   4.522
 9043SOL     OW28027   1.429   0.896   6.996
 9043SOL    HW128028   1.444   0.832   0.050
 9043SOL    HW228029   1.410   0.846   6.911
 9044SOL     OW28030   6.301   0.593   0.442
 9044SOL    HW128031   6.315   0.690   0.420
 9044SOL    HW228032   6.385   0.542   0.427
 9045SOL     OW28033   2.497   1.300   2.462
 9045SOL    HW128034   2.454   1.278   2.374
 9045SOL    HW228035   2.539   1.391   2.457
 9046SOL     OW28036   3.340   3.616   3.097
 9046SOL    HW128037   3.280   3.594   3.173
 9046SOL    HW228038   3.427   3.567   3.106
 9047SOL     OW28039   1.891   3.427   5.747
 9047SOL    HW128040   1.864   3.412   5.653
 9047SOL    HW228041   1.986   3.399   5.759
 9048SOL     OW28042   5.120   3.134   6.250
 9048SOL    HW128043   5.145   3.148   6.154
 9048SOL    HW228044   5.132   3.219   6.300
 9049SOL     OW28045   3.555   0.069   5.723
 9049SOL    HW128046   3.624   0.119   5.671
 9049SOL    HW228047   3.521   0.126   5.797
 9050SOL     OW28048   0.183   3.235   0.872
 9050SOL    HW128049   0.254   3.188   0.924
 9050SOL    HW228050   0.208   3.331   0.861
 9051SOL     OW28051   4.021   6.836   0.862
 9051SOL    HW128052   4.117   6.855   0.845
 9051SOL    HW228053   3.978   6.802   0.778
 9052SOL     OW28054   2.614   2.441   4.274
 9052SOL    HW128055   2.565   2.362   4.238
 9052SOL    HW228056   2.597   2.520   4.214
 9053SOL     OW28057   2.102   0.812   2.620
 9053SOL    HW128058   2.127   0.777   2.710
 9053SOL    HW228059   2.003   0.810   2.610
 9054SOL     OW28060   2.882   5.890   3.450
 9054SOL    HW128061   2.968   5.899   3.500
 9054SOL    HW228062   2.900   5.887   3.352
 9055SOL     OW28063   5.916   2.678   4.305
 9055SOL    HW128064   5.837   2.652   4.361
 9055SOL    HW228065   5.991   2.706   4.365
 9056SOL     OW28066   0.547   1.415   2.315
 9056SOL    HW128067   0.530   1.433   2.218
 9056SOL    HW228068   0.626   1.468   2.346
 9057SOL     OW28069   4.980   4.130   6.633
 9057SOL    HW128070   4.973   4.219   6.678
 9057SOL    HW228071   4.890   4.101   6.601
 9058SOL     OW28072   1.802   1.658   1.736
 9058SOL    HW128073   1.895   1.659   1.699
 9058SOL    HW228074   1.789   1.737   1.796
 9059SOL     OW28075   1.118   2.112   4.219
 9059SOL    HW128076   1.097   2.199   4.263
 9059SOL    HW228077   1.042   2.048   4.233
 9060SOL     OW28078   6.032   2.536   3.611
 9060SOL    HW128079   6.000   2.543   3.705
 9060SOL    HW228080   5.975   2.471   3.561
 9061SOL     OW28081   1.982   5.186   1.810
 9061SOL    HW128082   1.890   5.163   1.840
 9061SOL    HW228083   2.047   5.121   1.848
 9062SOL     OW28084   1.646   5.989   1.974
 9062SOL    HW128085   1.732   5.962   1.931
 9062SOL    HW228086   1.659   5.996   2.073
 9063SOL     OW28087   2.965   0.048   3.175
 9063SOL    HW128088   3.047   7.021   3.204
 9063SOL    HW228089   2.983   0.096   3.089
 9064SOL     OW28090   6.586   2.707   5.612
 9064SOL    HW128091   6.671   2.753   5.635
 9064SOL    HW228092   6.602   2.640   5.540
 9065SOL     OW28093   3.474   0.335   5.313
 9065SOL    HW128094   3.423   0.421   5.314
 9065SOL    HW228095   3.560   0.346   5.363
 9066SOL     OW28096   4.524   6.247   0.642
 9066SOL    HW128097   4.450   6.227   0.706
 9066SOL    HW228098   4.486   6.265   0.551
 9067SOL     OW28099   0.431   0.493   4.341
 9067SOL    HW128100   0.433   0.397   4.312
 9067SOL    HW228101   0.487   0.548   4.280
 9068SOL     OW28102   2.633   6.851   4.721
 9068SOL    HW128103   2.675   6.794   4.651
 9068SOL    HW228104   2.545   6.886   4.688
 9069SOL     OW28105   1.746   3.365   1.296
 9069SOL    HW128106   1.650   3.381   1.273
 9069SOL    HW228107   1.753   3.286   1.356
 9070SOL     OW28108   1.354   3.471   4.805
 9070SOL    HW128109   1.254   3.468   4.816
 9070SOL    HW228110   1.392   3.379   4.814
 9071SOL     OW28111   6.013   6.697   1.425
 9071SOL    HW128112   6.020   6.612   1.373
 9071SOL    HW228113   5.918   6.712   1.452
 9072SOL     OW28114   6.752   1.996   1.546
 9072SOL    HW128115   6.774   2.082   1.592
 9072SOL    HW228116   6.682   2.013   1.477
 9073SOL     OW28117   3.123   6.841   2.721
 9073SOL    HW128118   3.180   6.906   2.771
 9073SOL    HW228119   3.166   6.819   2.634
 9074SOL     OW28120   1.626   1.705   2.240
 9074SOL    HW128121   1.536   1.691   2.199
 9074SOL    HW228122   1.628   1.795   2.284
 9075SOL     OW28123   0.596   1.285   1.907
 9075SOL    HW128124   0.631   1.224   1.836
 9075SOL    HW228125   0.660   1.284   1.985
 9076SOL     OW28126   6.741   2.541   5.839
 9076SOL    HW128127   6.798   2.613   5.879
 9076SOL    HW228128   6.675   2.582   5.776
 9077SOL     OW28129   4.509   0.465   7.008
 9077SOL    HW128130   4.607   0.447   7.016
 9077SOL    HW228131   4.459   0.379   7.009
 9078SOL     OW28132   4.044   3.432   6.456
 9078SOL    HW128133   4.055   3.360   6.388
 9078SOL    HW228134   4.099   3.410   6.537
 9079SOL     OW28135   3.458   0.010   4.464
 9079SOL    HW128136   3.386   0.019   4.395
 9079SOL    HW228137   3.512   6.949   4.445
 9080SOL     OW28138   4.548   2.846   6.550
 9080SOL    HW128139   4.500   2.779   6.606
 9080SOL    HW228140   4.551   2.815   6.455
 9081SOL     OW28141   3.969   0.247   2.167
 9081SOL    HW128142   3.969   0.346   2.184
 9081SOL    HW228143   4.029   0.202   2.233
 9082SOL     OW28144   2.312   0.585   5.175
 9082SOL    HW128145   2.341   0.605   5.269
 9082SOL    HW228146   2.302   0.670   5.124
 9083SOL     OW28147   3.362   5.258   6.425
 9083SOL    HW128148   3.354   5.345   6.475
 9083SOL    HW228149   3.406   5.275   6.337
 9084SOL     OW28150   3.407   4.045   3.958
 9084SOL    HW128151   3.368   4.076   3.872
 9084SOL    HW228152   3.335   4.008   4.016
 9085SOL     OW28153   2.260   0.459   1.886
 9085SOL    HW128154   2.224   0.411   1.807
 9085SOL    HW228155   2.237   0.408   1.969
 9086SOL     OW28156   0.888   4.601   0.035
 9086SOL    HW128157   0.882   4.611   6.957
 9086SOL    HW228158   0.798   4.614   0.076
 9087SOL     OW28159   4.303   2.172   1.333
 9087SOL    HW128160   4.247   2.102   1.288
 9087SOL    HW228161   4.244   2.245   1.368
 9088SOL     OW28162   6.974   0.019   1.194
 9088SOL    HW128163   6.885   0.064   1.199
 9088SOL    HW228164   0.001   0.030   1.282
 9089SOL     OW28165   5.321   5.895   6.067
 9089SOL    HW128166   5.269   5.840   6.002
 9089SOL    HW228167   5.260   5.935   6.134
 9090SOL     OW28168   6.784   1.126   4.541
 9090SOL    HW128169   6.789   1.115   4.442
 9090SOL    HW228170   6.822   1.045   4.585
 9091SOL     OW28171   2.804   4.218   0.201
 9091SOL    HW128172   2.870   4.278   0.247
 9091SOL    HW228173   2.847   4.131   0.180
 9092SOL     OW28174   6.341   1.036   6.791
 9092SOL    HW128175   6.293   0.953   6.764
 9092SOL    HW228176   6.280   1.115   6.781
 9093SOL     OW28177   0.707   5.909   5.732
 9093SOL    HW128178   0.731   5.818   5.766
 9093SOL    HW228179   0.630   5.902   5.669
 9094SOL     OW28180   6.438   4.764   2.844
 9094SOL    HW128181   6.415   4.682   2.897
 9094SOL    HW228182   6.532   4.790   2.863
 9095SOL     OW28183   4.837   4.784   6.005
 9095SOL    HW128184   4.854   4.876   6.041
 9095SOL    HW228185   4.739   4.765   6.007
 9096SOL     OW28186   6.482   5.307   2.545
 9096SOL    HW128187   6.428   5.390   2.558
 9096SOL    HW228188   6.439   5.249   2.476
 9097SOL     OW28189   1.803   1.486   0.576
 9097SOL    HW128190   1.864   1.408   0.594
 9097SOL    HW228191   1.856   1.561   0.535
 9098SOL     OW28192   3.122   2.161   4.786
 9098SOL    HW128193   3.026   2.172   4.763
 9098SOL    HW228194   3.141   2.207   4.873
 9099SOL     OW28195   3.319   3.210   6.237
 9099SOL    HW128196   3.287   3.248   6.150
 9099SOL    HW228197   3.387   3.271   6.277
 9100SOL     OW28198   0.264   3.310   3.513
 9100SOL    HW128199   0.169   3.339   3.507
 9100SOL    HW228200   0.301   3.296   3.421
 9101SOL     OW28201   2.673   2.395   1.795
 9101SOL    HW128202   2.765   2.410   1.832
 9101SOL    HW228203   2.636   2.482   1.762
 9102SOL     OW28204   3.553   6.507   2.027
 9102SOL    HW128205   3.563   6.575   1.954
 9102SOL    HW228206   3.627   6.518   2.094
 9103SOL     OW28207   5.645   1.938   6.274
 9103SOL    HW128208   5.609   1.949   6.366
 9103SOL    HW228209   5.574   1.960   6.207
 9104SOL     OW28210   6.809   6.690   1.433
 9104SOL    HW128211   6.773   6.687   1.526
 9104SOL    HW228212   6.907   6.709   1.436
 9105SOL     OW28213   0.634   0.734   5.868
 9105SOL    HW128214   0.602   0.775   5.783
 9105SOL    HW228215   0.677   0.805   5.925
 9106SOL     OW28216   5.811   3.261   1.225
 9106SOL    HW128217   5.743   3.287   1.294
 9106SOL    HW228218   5.862   3.342   1.196
 9107SOL     OW28219   2.298   0.756   6.277
 9107SOL    HW128220   2.357   0.702   6.336
 9107SOL    HW228221   2.343   0.844   6.256
 9108SOL     OW28222   4.768   4.456   5.334
 9108SOL    HW128223   4.761   4.382   5.266
 9108SOL    HW228224   4.804   4.538   5.289
 9109SOL     OW28225   5.291   3.817   2.856
 9109SOL    HW128226   5.237   3.874   2.794
 9109SOL    HW228227   5.285   3.722   2.826
 9110SOL     OW28228   1.750   5.269   4.401
 9110SOL    HW128229   1.682   5.204   4.369
 9110SOL    HW228230   1.730   5.360   4.364
 9111SOL     OW28231   4.247   3.150   6.966
 9111SOL    HW128232   4.256   3.196   0.033
 9111SOL    HW228233   4.329   3.168   6.911
 9112SOL     OW28234   1.841   5.456   2.580
 9112SOL    HW128235   1.907   5.382   2.569
 9112SOL    HW228236   1.883   5.531   2.631
 9113SOL     OW28237   5.176   2.749   2.854
 9113SOL    HW128238   5.271   2.717   2.858
 9113SOL    HW228239   5.124   2.690   2.793
 9114SOL     OW28240   6.982   5.174   3.501
 9114SOL    HW128241   6.905   5.127   3.545
 9114SOL    HW228242   6.948   5.249   3.444
 9115SOL     OW28243   5.822   5.646   5.273
 9115SOL    HW128244   5.778   5.619   5.187
 9115SOL    HW228245   5.901   5.587   5.290
 9116SOL     OW28246   0.499   6.727   2.941
 9116SOL    HW128247   0.473   6.668   2.865
 9116SOL    HW228248   0.448   6.701   3.023
 9117SOL     OW28249   3.671   2.659   6.346
 9117SOL    HW128250   3.759   2.681   6.389
 9117SOL    HW228251   3.606   2.632   6.416
 9118SOL     OW28252   6.386   3.396   0.586
 9118SOL    HW128253   6.330   3.446   0.652
 9118SOL    HW228254   6.334   3.381   0.502
 9119SOL     OW28255   3.865   1.189   1.737
 9119SOL    HW128256   3.782   1.242   1.753
 9119SOL    HW228257   3.939   1.225   1.795
 9120SOL     OW28258   0.064   2.188   5.809
 9120SOL    HW128259   7.018   2.244   5.859
 9120SOL    HW228260   0.052   2.092   5.835
 9121SOL     OW28261   3.503   5.961   4.844
 9121SOL    HW128262   3.569   6.019   4.892
 9121SOL    HW228263   3.546   5.874   4.820
 9122SOL     OW28264   2.346   4.390   2.382
 9122SOL    HW128265   2.419   4.374   2.449
 9122SOL    HW228266   2.373   4.351   2.294
 9123SOL     OW28267   1.803   0.735   4.533
 9123SOL    HW128268   1.801   0.738   4.433
 9123SOL    HW228269   1.782   0.826   4.569
 9124SOL     OW28270   3.610   5.245   1.489
 9124SOL    HW128271   3.548   5.168   1.501
 9124SOL    HW228272   3.705   5.214   1.500
 9125SOL     OW28273   4.056   4.162   1.168
 9125SOL    HW128274   4.021   4.153   1.261
 9125SOL    HW228275   3.981   4.153   1.103
 9126SOL     OW28276   4.356   3.812   1.280
 9126SOL    HW128277   4.400   3.902   1.279
 9126SOL    HW228278   4.420   3.744   1.315
 9127SOL     OW28279   6.630   2.510   5.423
 9127SOL    HW128280   6.555   2.476   5.367
 9127SOL    HW228281   6.653   2.441   5.492
 9128SOL     OW28282   5.752   2.574   5.376
 9128SOL    HW128283   5.693   2.502   5.341
 9128SOL    HW228284   5.770   2.640   5.304
 9129SOL     OW28285   6.376   1.695   0.241
 9129SOL    HW128286   6.308   1.623   0.253
 9129SOL    HW228287   6.439   1.696   0.319
 9130SOL     OW28288   0.949   4.430   5.951
 9130SOL    HW128289   0.886   4.470   6.017
 9130SOL    HW228290   1.043   4.437   5.985
 9131SOL     OW28291   5.109   3.474   6.488
 9131SOL    HW128292   5.207   3.480   6.467
 9131SOL    HW228293   5.057   3.472   6.402
 9132SOL     OW28294   0.996   4.533   4.492
 9132SOL    HW128295   0.962   4.486   4.411
 9132SOL    HW228296   1.053   4.611   4.464
 9133SOL     OW28297   3.282   0.813   1.005
 9133SOL    HW128298   3.292   0.872   0.924
 9133SOL    HW228299   3.338   0.849   1.079
 9134SOL     OW28300   4.575   5.384   1.564
 9134SOL    HW128301   4.534   5.410   1.651
 9134SOL    HW228302   4.554   5.288   1.544
 9135SOL     OW28303   1.007   6.811   1.956
 9135SOL    HW128304   0.944   6.870   2.007
 9135SOL    HW228305   0.957   6.731   1.921
 9136SOL     OW28306   4.558   5.833   5.654
 9136SOL    HW128307   4.510   5.781   5.725
 9136SOL    HW228308   4.651   5.798   5.645
 9137SOL     OW28309   4.159   0.543   6.858
 9137SOL    HW128310   4.204   0.465   6.815
 9137SOL    HW228311   4.172   0.539   6.957
 9138SOL     OW28312   1.532   4.009   6.705
 9138SOL    HW128313   1.569   3.923   6.738
 9138SOL    HW228314   1.449   4.032   6.756
 9139SOL     OW28315   1.127   1.499   2.058
 9139SOL    HW128316   1.139   1.402   2.079
 9139SOL    HW228317   1.176   1.521   1.974
 9140SOL     OW28318   0.843   4.950   2.624
 9140SOL    HW128319   0.857   4.989   2.715
 9140SOL    HW228320   0.799   4.861   2.633
 9141SOL     OW28321   0.056   6.116   6.399
 9141SOL    HW128322   0.024   6.186   6.336
 9141SOL    HW228323   6.998   6.065   6.436
 9142SOL     OW28324   0.378   2.982   1.873
 9142SOL    HW128325   0.310   3.051   1.849
 9142SOL    HW228326   0.384   2.974   1.973
 9143SOL     OW28327   0.112   4.135   1.585
 9143SOL    HW128328   0.072   4.162   1.672
 9143SOL    HW228329   0.211   4.150   1.588
 9144SOL     OW28330   3.655   4.931   4.678
 9144SOL    HW128331   3.604   4.872   4.741
 9144SOL    HW228332   3.705   5.001   4.730
 9145SOL     OW28333   1.573   6.292   6.780
 9145SOL    HW128334   1.557   6.370   6.841
 9145SOL    HW228335   1.669   6.264   6.786
 9146SOL     OW28336   4.877   3.304   2.966
 9146SOL    HW128337   4.875   3.376   3.036
 9146SOL    HW228338   4.896   3.345   2.877
 9147SOL     OW28339   6.817   0.705   4.845
 9147SOL    HW128340   6.718   0.708   4.828
 9147SOL    HW228341   6.864   0.765   4.780
 9148SOL     OW28342   5.562   6.826   1.673
 9148SOL    HW128343   5.586   6.888   1.748
 9148SOL    HW228344   5.636   6.826   1.605
 9149SOL     OW28345   5.561   3.357   1.973
 9149SOL    HW128346   5.512   3.358   2.060
 9149SOL    HW228347   5.514   3.297   1.908
 9150SOL     OW28348   3.460   4.281   0.648
 9150SOL    HW128349   3.478   4.246   0.556
 9150SOL    HW228350   3.385   4.347   0.645
 9151SOL     OW28351   2.175   3.780   3.857
 9151SOL    HW128352   2.180   3.876   3.832
 9151SOL    HW228353   2.242   3.760   3.928
 9152SOL     OW28354   1.899   4.312   4.335
 9152SOL    HW128355   1.891   4.341   4.240
 9152SOL    HW228356   1.821   4.254   4.358
 9153SOL     OW28357   0.280   3.059   6.682
 9153SOL    HW128358   0.294   3.122   6.605
 9153SOL    HW228359   0.369   3.035   6.722
 9154SOL     OW28360   5.024   4.240   3.779
 9154SOL    HW128361   4.973   4.201   3.702
 9154SOL    HW228362   5.116   4.264   3.749
 9155SOL     OW28363   2.392   4.415   2.886
 9155SOL    HW128364   2.391   4.515   2.896
 9155SOL    HW228365   2.444   4.391   2.804
 9156SOL     OW28366   6.568   2.883   1.301
 9156SOL    HW128367   6.476   2.863   1.266
 9156SOL    HW228368   6.592   2.977   1.277
 9157SOL     OW28369   2.954   4.193   6.887
 9157SOL    HW128370   2.873   4.138   6.905
 9157SOL    HW228371   2.952   4.226   6.793
 9158SOL     OW28372   6.826   4.483   4.176
 9158SOL    HW128373   6.854   4.527   4.262
 9158SOL    HW228374   6.745   4.426   4.193
 9159SOL     OW28375   1.726   0.366   3.323
 9159SOL    HW128376   1.710   0.408   3.413
 9159SOL    HW228377   1.717   0.267   3.330
 9160SOL     OW28378   0.372   5.275   5.671
 9160SOL    HW128379   0.449   5.285   5.609
 9160SOL    HW228380   0.365   5.356   5.729
 9161SOL     OW28381   6.139   5.088   3.213
 9161SOL    HW128382   6.189   5.151   3.155
 9161SOL    HW228383   6.083   5.028   3.156
 9162SOL     OW28384   3.693   0.494   3.047
 9162SOL    HW128385   3.725   0.584   3.077
 9162SOL    HW228386   3.697   0.489   2.947
 9163SOL     OW28387   6.900   3.398   2.290
 9163SOL    HW128388   6.965   3.333   2.329
 9163SOL    HW228389   6.949   3.464   2.233
 9164SOL     OW28390   1.740   1.086   6.760
 9164SOL    HW128391   1.784   1.050   6.842
 9164SOL    HW228392   1.771   1.035   6.680
 9165SOL     OW28393   4.801   2.034   5.587
 9165SOL    HW128394   4.823   1.972   5.663
 9165SOL    HW228395   4.704   2.027   5.564
 9166SOL     OW28396   4.043   5.106   1.006
 9166SOL    HW128397   3.989   5.022   0.997
 9166SOL    HW228398   3.997   5.180   0.958
 9167SOL     OW28399   1.230   2.604   6.082
 9167SOL    HW128400   1.327   2.601   6.102
 9167SOL    HW228401   1.205   2.696   6.050
 9168SOL     OW28402   6.763   5.617   6.250
 9168SOL    HW128403   6.696   5.545   6.232
 9168SOL    HW228404   6.739   5.699   6.198
 9169SOL     OW28405   6.648   5.811   6.067
 9169SOL    HW128406   6.554   5.776   6.064
 9169SOL    HW228407   6.647   5.910   6.062
 9170SOL     OW28408   1.813   1.523   6.149
 9170SOL    HW128409   1.802   1.611   6.103
 9170SOL    HW228410   1.889   1.473   6.108
 9171SOL     OW28411   2.574   5.624   0.708
 9171SOL    HW128412   2.518   5.651   0.630
 9171SOL    HW228413   2.620   5.704   0.746
 9172SOL     OW28414   4.340   2.129   4.695
 9172SOL    HW128415   4.400   2.163   4.623
 9172SOL    HW228416   4.311   2.035   4.673
 9173SOL     OW28417   6.161   2.702   4.794
 9173SOL    HW128418   6.196   2.739   4.880
 9173SOL    HW228419   6.104   2.771   4.748
 9174SOL     OW28420   1.029   5.911   6.973
 9174SOL    HW128421   0.952   5.970   6.998
 9174SOL    HW228422   1.004   5.857   6.893
 9175SOL     OW28423   1.335   6.689   0.174
 9175SOL    HW128424   1.259   6.716   0.234
 9175SOL    HW228425   1.387   6.770   0.148
 9176SOL     OW28426   2.644   6.896   1.643
 9176SOL    HW128427   2.615   6.852   1.558
 9176SOL    HW228428   2.709   6.837   1.691
 9177SOL     OW28429   1.601   2.417   3.795
 9177SOL    HW128430   1.528   2.353   3.819
 9177SOL    HW228431   1.689   2.382   3.828
 9178SOL     OW28432   2.608   5.271   6.176
 9178SOL    HW128433   2.592   5.306   6.268
 9178SOL    HW228434   2.598   5.171   6.175
 9179SOL     OW28435   2.396   5.947   4.923
 9179SOL    HW128436   2.409   6.034   4.970
 9179SOL    HW228437   2.338   5.888   4.980
 9180SOL     OW28438   6.711   2.468   4.029
 9180SOL    HW128439   6.666   2.493   4.115
 9180SOL    HW228440   6.740   2.373   4.033
 9181SOL     OW28441   4.825   2.481   3.261
 9181SOL    HW128442   4.890   2.495   3.336
 9181SOL    HW228443   4.751   2.548   3.269
 9182SOL     OW28444   3.188   1.126   3.032
 9182SOL    HW128445   3.143   1.201   2.984
 9182SOL    HW228446   3.271   1.101   2.983
 9183SOL     OW28447   4.592   3.891   6.154
 9183SOL    HW128448   4.684   3.857   6.137
 9183SOL    HW228449   4.549   3.835   6.226
 9184SOL     OW28450   3.608   2.038   0.801
 9184SOL    HW128451   3.673   2.010   0.872
 9184SOL    HW228452   3.646   2.016   0.711
 9185SOL     OW28453   0.828   6.706   6.306
 9185SOL    HW128454   0.819   6.673   6.400
 9185SOL    HW228455   0.916   6.675   6.268
 9186SOL     OW28456   4.372   0.602   5.547
 9186SOL    HW128457   4.389   0.697   5.520
 9186SOL    HW228458   4.458   0.560   5.576
 9187SOL     OW28459   4.817   2.176   6.557
 9187SOL    HW128460   4.745   2.194   6.490
 9187SOL    HW228461   4.778   2.179   6.649
 9188SOL     OW28462   1.884   0.552   1.499
 9188SOL    HW128463   1.903   0.560   1.597
 9188SOL    HW228464   1.866   0.643   1.461
 9189SOL     OW28465   3.196   0.714   4.121
 9189SOL    HW128466   3.128   0.752   4.058
 9189SOL    HW228467   3.152   0.698   4.210
 9190SOL     OW28468   6.324   3.581   5.180
 9190SOL    HW128469   6.311   3.501   5.237
 9190SOL    HW228470   6.421   3.607   5.180
 9191SOL     OW28471   4.999   6.651   6.900
 9191SOL    HW128472   5.064   6.582   6.867
 9191SOL    HW228473   4.963   6.623   6.989
 9192SOL     OW28474   6.252   4.016   6.425
 9192SOL    HW128475   6.351   4.029   6.417
 9192SOL    HW228476   6.206   4.060   6.347
 9193SOL     OW28477   3.169   3.582   3.933
 9193SOL    HW128478   3.157   3.679   3.951
 9193SOL    HW228479   3.082   3.542   3.904
 9194SOL     OW28480   3.761   5.785   2.045
 9194SOL    HW128481   3.702   5.857   2.081
 9194SOL    HW228482   3.712   5.734   1.974
 9195SOL     OW28483   2.212   2.676   3.441
 9195SOL    HW128484   2.200   2.578   3.451
 9195SOL    HW228485   2.187   2.703   3.348
 9196SOL     OW28486   5.456   0.193   3.967
 9196SOL    HW128487   5.457   0.158   3.874
 9196SOL    HW228488   5.535   0.159   4.017
 9197SOL     OW28489   3.440   3.833   1.126
 9197SOL    HW128490   3.365   3.767   1.122
 9197SOL    HW228491   3.517   3.791   1.174
 9198SOL     OW28492   5.533   4.118   6.201
 9198SOL    HW128493   5.606   4.141   6.137
 9198SOL    HW228494   5.571   4.110   6.294
 9199SOL     OW28495   0.852   3.360   5.978
 9199SOL    HW128496   0.897   3.437   6.024
 9199SOL    HW228497   0.765   3.390   5.940
 9200SOL     OW28498   1.628   5.891   6.805
 9200SOL    HW128499   1.628   5.799   6.764
 9200SOL    HW228500   1.628   5.959   6.732
 9201SOL     OW28501   0.735   3.796   1.450
 9201SOL    HW128502   0.718   3.776   1.547
 9201SOL    HW228503   0.810   3.739   1.417
 9202SOL     OW28504   1.984   5.636   4.313
 9202SOL    HW128505   1.985   5.733   4.290
 9202SOL    HW228506   2.077   5.600   4.311
 9203SOL     OW28507   5.101   2.360   6.267
 9203SOL    HW128508   5.191   2.332   6.299
 9203SOL    HW228509   5.080   2.451   6.302
 9204SOL     OW28510   5.485   3.853   3.496
 9204SOL    HW128511   5.532   3.846   3.584
 9204SOL    HW228512   5.404   3.795   3.496
 9205SOL     OW28513   5.456   3.324   2.287
 9205SOL    HW128514   5.361   3.292   2.286
 9205SOL    HW228515   5.515   3.252   2.324
 9206SOL     OW28516   3.279   0.118   4.678
 9206SOL    HW128517   3.323   0.103   4.589
 9206SOL    HW228518   3.326   0.065   4.748
 9207SOL     OW28519   3.726   6.343   5.724
 9207SOL    HW128520   3.661   6.359   5.798
 9207SOL    HW228521   3.800   6.285   5.758
 9208SOL     OW28522   5.206   3.675   2.153
 9208SOL    HW128523   5.107   3.677   2.136
 9208SOL    HW228524   5.254   3.648   2.069
 9209SOL     OW28525   3.718   0.649   2.160
 9209SOL    HW128526   3.738   0.729   2.104
 9209SOL    HW228527   3.666   0.583   2.106
 9210SOL     OW28528   1.656   0.552   1.071
 9210SOL    HW128529   1.577   0.535   1.129
 9210SOL    HW228530   1.739   0.522   1.117
 9211SOL     OW28531   5.013   2.195   6.065
 9211SOL    HW128532   4.972   2.125   6.123
 9211SOL    HW228533   5.051   2.268   6.121
 9212SOL     OW28534   4.751   4.089   4.952
 9212SOL    HW128535   4.738   4.165   5.015
 9212SOL    HW228536   4.723   4.004   4.996
 9213SOL     OW28537   5.434   6.529   4.288
 9213SOL    HW128538   5.487   6.542   4.372
 9213SOL    HW228539   5.337   6.523   4.310
 9214SOL     OW28540   0.935   2.725   5.283
 9214SOL    HW128541   0.958   2.734   5.186
 9214SOL    HW228542   0.847   2.678   5.292
 9215SOL     OW28543   0.543   4.068   2.558
 9215SOL    HW128544   0.599   4.038   2.482
 9215SOL    HW228545   0.487   3.992   2.591
 9216SOL     OW28546   2.520   6.760   4.949
 9216SOL    HW128547   2.443   6.705   4.916
 9216SOL    HW228548   2.582   6.778   4.873
 9217SOL     OW28549   5.277   1.522   6.565
 9217SOL    HW128550   5.259   1.430   6.600
 9217SOL    HW228551   5.318   1.515   6.473
 9218SOL     OW28552   3.872   0.762   6.858
 9218SOL    HW128553   3.784   0.717   6.874
 9218SOL    HW228554   3.946   0.700   6.883
 9219SOL     OW28555   4.145   3.079   5.441
 9219SOL    HW128556   4.146   3.116   5.534
 9219SOL    HW228557   4.051   3.053   5.417
 9220SOL     OW28558   2.362   6.021   2.295
 9220SOL    HW128559   2.327   6.018   2.388
 9220SOL    HW228560   2.312   5.956   2.238
 9221SOL     OW28561   2.383   0.583   5.816
 9221SOL    HW128562   2.456   0.627   5.869
 9221SOL    HW228563   2.303   0.643   5.814
 9222SOL     OW28564   2.437   4.425   4.509
 9222SOL    HW128565   2.398   4.339   4.475
 9222SOL    HW228566   2.413   4.436   4.606
 9223SOL     OW28567   0.741   2.764   3.773
 9223SOL    HW128568   0.820   2.704   3.762
 9223SOL    HW228569   0.768   2.859   3.756
 9224SOL     OW28570   1.832   3.105   3.602
 9224SOL    HW128571   1.771   3.182   3.625
 9224SOL    HW228572   1.858   3.058   3.686
 9225SOL     OW28573   3.840   7.000   6.495
 9225SOL    HW128574   3.891   7.020   6.579
 9225SOL    HW228575   3.783   6.919   6.509
 9226SOL     OW28576   1.195   0.180   1.608
 9226SOL    HW128577   1.261   0.236   1.558
 9226SOL    HW228578   1.153   0.114   1.546
 9227SOL     OW28579   2.032   4.701   1.477
 9227SOL    HW128580   1.974   4.782   1.488
 9227SOL    HW228581   2.126   4.730   1.456
 9228SOL     OW28582   2.049   2.683   6.176
 9228SOL    HW128583   2.146   2.661   6.174
 9228SOL    HW228584   2.035   2.774   6.136
 9229SOL     OW28585   1.461   5.075   6.715
 9229SOL    HW128586   1.444   4.998   6.777
 9229SOL    HW228587   1.386   5.140   6.722
 9230SOL     OW28588   4.883   2.688   3.774
 9230SOL    HW128589   4.975   2.719   3.748
 9230SOL    HW228590   4.883   2.663   3.870
 9231SOL     OW28591   0.959   4.806   5.836
 9231SOL    HW128592   1.053   4.773   5.839
 9231SOL    HW228593   0.897   4.730   5.854
 9232SOL     OW28594   1.875   5.109   1.249
 9232SOL    HW128595   1.819   5.192   1.242
 9232SOL    HW228596   1.854   5.048   1.173
 9233SOL     OW28597   1.066   6.625   0.782
 9233SOL    HW128598   1.143   6.582   0.828
 9233SOL    HW228599   1.000   6.657   0.851
 9234SOL     OW28600   2.245   5.474   0.474
 9234SOL    HW128601   2.290   5.545   0.528
 9234SOL    HW228602   2.226   5.508   0.382
 9235SOL     OW28603   2.772   2.171   3.373
 9235SOL    HW128604   2.712   2.128   3.306
 9235SOL    HW228605   2.749   2.268   3.382
 9236SOL     OW28606   2.256   3.377   6.409
 9236SOL    HW128607   2.304   3.457   6.373
 9236SOL    HW228608   2.322   3.303   6.423
 9237SOL     OW28609   0.357   5.880   2.881
 9237SOL    HW128610   0.432   5.858   2.942
 9237SOL    HW228611   0.354   5.813   2.806
 9238SOL     OW28612   2.928   2.421   5.876
 9238SOL    HW128613   2.899   2.366   5.955
 9238SOL    HW228614   3.021   2.454   5.890
 9239SOL     OW28615   6.726   4.312   6.007
 9239SOL    HW128616   6.669   4.357   6.076
 9239SOL    HW228617   6.746   4.218   6.036
 9240SOL     OW28618   5.167   3.273   2.779
 9240SOL    HW128619   5.070   3.274   2.754
 9240SOL    HW228620   5.210   3.191   2.740
 9241SOL     OW28621   6.772   5.910   0.539
 9241SOL    HW128622   6.773   5.837   0.608
 9241SOL    HW228623   6.822   5.880   0.458
 9242SOL     OW28624   2.096   2.416   1.709
 9242SOL    HW128625   2.102   2.456   1.800
 9242SOL    HW228626   2.177   2.440   1.656
 9243SOL     OW28627   0.987   0.852   1.994
 9243SOL    HW128628   0.940   0.765   2.008
 9243SOL    HW228629   0.924   0.927   2.009
 9244SOL     OW28630   2.516   6.360   6.050
 9244SOL    HW128631   2.537   6.453   6.020
 9244SOL    HW228632   2.437   6.361   6.111
 9245SOL     OW28633   0.562   4.232   3.602
 9245SOL    HW128634   0.474   4.229   3.651
 9245SOL    HW228635   0.547   4.208   3.506
 9246SOL     OW28636   5.935   0.089   4.325
 9246SOL    HW128637   5.981   0.006   4.295
 9246SOL    HW228638   6.003   0.156   4.355
 9247SOL     OW28639   4.034   5.521   2.981
 9247SOL    HW128640   4.004   5.429   2.957
 9247SOL    HW228641   3.985   5.588   2.925
 9248SOL     OW28642   2.793   2.019   5.538
 9248SOL    HW128643   2.759   1.925   5.541
 9248SOL    HW228644   2.864   2.031   5.607
 9249SOL     OW28645   4.060   4.893   1.304
 9249SOL    HW128646   3.988   4.901   1.373
 9249SOL    HW228647   4.100   4.983   1.288
 9250SOL     OW28648   6.908   3.557   3.945
 9250SOL    HW128649   6.823   3.593   3.984
 9250SOL    HW228650   6.961   3.511   4.016
 9251SOL     OW28651   4.199   2.132   2.010
 9251SOL    HW128652   4.106   2.159   2.034
 9251SOL    HW228653   4.263   2.169   2.077
 9252SOL     OW28654   5.335   0.708   4.930
 9252SOL    HW128655   5.356   0.802   4.901
 9252SOL    HW228656   5.275   0.711   5.010
 9253SOL     OW28657   5.010   5.169   5.733
 9253SOL    HW128658   5.075   5.213   5.795
 9253SOL    HW228659   4.979   5.235   5.665
 9254SOL     OW28660   5.153   4.981   2.533
 9254SOL    HW128661   5.222   5.050   2.509
 9254SOL    HW228662   5.198   4.902   2.574
 9255SOL     OW28663   5.748   3.325   6.686
 9255SOL    HW128664   5.700   3.342   6.772
 9255SOL    HW228665   5.682   3.294   6.617
 9256SOL     OW28666   2.106   6.858   1.573
 9256SOL    HW128667   2.111   6.901   1.663
 9256SOL    HW228668   2.179   6.892   1.514
 9257SOL     OW28669   6.115   5.964   3.038
 9257SOL    HW128670   6.133   6.038   2.974
 9257SOL    HW228671   6.080   6.001   3.124
 9258SOL     OW28672   3.647   3.514   0.684
 9258SOL    HW128673   3.633   3.612   0.669
 9258SOL    HW228674   3.635   3.492   0.781
 9259SOL     OW28675   1.889   1.274   0.112
 9259SOL    HW128676   1.940   1.320   0.040
 9259SOL    HW228677   1.796   1.256   0.081
 9260SOL     OW28678   0.052   2.515   6.244
 9260SOL    HW128679   0.027   2.423   6.273
 9260SOL    HW228680   0.050   2.576   6.324
 9261SOL     OW28681   4.829   1.053   6.399
 9261SOL    HW128682   4.847   1.008   6.487
 9261SOL    HW228683   4.737   1.030   6.369
 9262SOL     OW28684   1.290   6.838   5.291
 9262SOL    HW128685   1.290   6.740   5.268
 9262SOL    HW228686   1.385   6.870   5.299
 9263SOL     OW28687   3.458   5.323   3.219
 9263SOL    HW128688   3.392   5.267   3.168
 9263SOL    HW228689   3.547   5.277   3.217
 9264SOL     OW28690   4.634   3.204   6.995
 9264SOL    HW128691   4.660   3.117   6.951
 9264SOL    HW228692   4.636   3.277   6.927
 9265SOL     OW28693   3.938   1.993   6.749
 9265SOL    HW128694   3.956   2.090   6.768
 9265SOL    HW228695   4.024   1.943   6.751
 9266SOL     OW28696   6.996   5.427   1.446
 9266SOL    HW128697   0.061   5.430   1.397
 9266SOL    HW228698   7.014   5.423   1.545
 9267SOL     OW28699   1.047   1.876   4.354
 9267SOL    HW128700   1.009   1.829   4.275
 9267SOL    HW228701   0.979   1.879   4.427
 9268SOL     OW28702   1.126   6.566   2.508
 9268SOL    HW128703   1.040   6.615   2.502
 9268SOL    HW228704   1.145   6.521   2.420
 9269SOL     OW28705   4.192   0.378   6.537
 9269SOL    HW128706   4.094   0.392   6.525
 9269SOL    HW228707   4.241   0.462   6.517
 9270SOL     OW28708   3.665   0.583   5.397
 9270SOL    HW128709   3.707   0.495   5.377
 9270SOL    HW228710   3.593   0.602   5.330
 9271SOL     OW28711   0.217   0.181   1.147
 9271SOL    HW128712   0.131   0.129   1.144
 9271SOL    HW228713   0.264   0.174   1.060
 9272SOL     OW28714   0.812   6.636   6.566
 9272SOL    HW128715   0.755   6.577   6.622
 9272SOL    HW228716   0.811   6.729   6.603
 9273SOL     OW28717   5.266   5.903   3.014
 9273SOL    HW128718   5.364   5.887   3.029
 9273SOL    HW228719   5.255   5.971   2.942
 9274SOL     OW28720   6.565   2.106   0.268
 9274SOL    HW128721   6.567   2.021   0.216
 9274SOL    HW228722   6.523   2.091   0.357
 9275SOL     OW28723   0.129   6.569   6.979
 9275SOL    HW128724   0.211   6.622   7.001
 9275SOL    HW228725   0.108   6.507   0.033
 9276SOL     OW28726   2.601   5.046   6.693
 9276SOL    HW128727   2.669   5.120   6.692
 9276SOL    HW228728   2.579   5.023   6.787
 9277SOL     OW28729   4.079   5.210   3.008
 9277SOL    HW128730   3.989   5.185   3.043
 9277SOL    HW228731   4.104   5.149   2.932
 9278SOL     OW28732   1.199   0.839   5.369
 9278SOL    HW128733   1.224   0.751   5.408
 9278SOL    HW228734   1.190   0.829   5.270
 9279SOL     OW28735   3.439   6.603   1.586
 9279SOL    HW128736   3.524   6.610   1.535
 9279SOL    HW228737   3.451   6.541   1.664
 9280SOL     OW28738   2.201   1.623   2.559
 9280SOL    HW128739   2.277   1.660   2.612
 9280SOL    HW228740   2.236   1.568   2.483
 9281SOL     OW28741   3.486   3.862   6.520
 9281SOL    HW128742   3.553   3.841   6.592
 9281SOL    HW228743   3.513   3.815   6.436
 9282SOL     OW28744   4.553   1.034   4.501
 9282SOL    HW128745   4.558   0.970   4.424
 9282SOL    HW228746   4.577   0.987   4.586
 9283SOL     OW28747   5.449   0.506   5.371
 9283SOL    HW128748   5.376   0.449   5.332
 9283SOL    HW228749   5.408   0.583   5.420
 9284SOL     OW28750   2.775   3.455   5.333
 9284SOL    HW128751   2.854   3.501   5.374
 9284SOL    HW228752   2.788   3.356   5.340
 9285SOL     OW28753   5.062   2.906   0.792
 9285SOL    HW128754   5.122   2.866   0.860
 9285SOL    HW228755   5.017   2.987   0.830
 9286SOL     OW28756   4.617   5.586   0.268
 9286SOL    HW128757   4.637   5.548   0.358
 9286SOL    HW228758   4.638   5.684   0.269
 9287SOL     OW28759   3.113   4.642   5.582
 9287SOL    HW128760   3.094   4.737   5.608
 9287SOL    HW228761   3.096   4.631   5.484
 9288SOL     OW28762   4.575   2.080   3.368
 9288SOL    HW128763   4.670   2.051   3.357
 9288SOL    HW228764   4.573   2.169   3.414
 9289SOL     OW28765   4.445   0.713   6.836
 9289SOL    HW128766   4.438   0.628   6.887
 9289SOL    HW228767   4.419   0.789   6.895
 9290SOL     OW28768   6.228   0.788   4.391
 9290SOL    HW128769   6.200   0.723   4.460
 9290SOL    HW228770   6.204   0.881   4.420
 9291SOL     OW28771   1.496   6.362   6.138
 9291SOL    HW128772   1.568   6.293   6.144
 9291SOL    HW228773   1.439   6.358   6.221
 9292SOL     OW28774   1.556   1.117   6.546
 9292SOL    HW128775   1.548   1.124   6.646
 9292SOL    HW228776   1.563   1.021   6.520
 9293SOL     OW28777   4.883   3.196   6.624
 9293SOL    HW128778   4.938   3.129   6.575
 9293SOL    HW228779   4.786   3.177   6.611
 9294SOL     OW28780   4.988   0.771   6.758
 9294SOL    HW128781   5.073   0.741   6.801
 9294SOL    HW228782   4.936   0.827   6.822
 9295SOL     OW28783   6.678   0.828   5.241
 9295SOL    HW128784   6.602   0.775   5.277
 9295SOL    HW228785   6.753   0.766   5.217
 9296SOL     OW28786   1.973   4.977   0.667
 9296SOL    HW128787   1.959   4.902   0.603
 9296SOL    HW228788   2.071   4.995   0.676
 9297SOL     OW28789   0.471   6.490   3.380
 9297SOL    HW128790   0.383   6.509   3.337
 9297SOL    HW228791   0.530   6.571   3.372
 9298SOL     OW28792   1.328   6.656   6.281
 9298SOL    HW128793   1.284   6.739   6.316
 9298SOL    HW228794   1.344   6.592   6.355
 9299SOL     OW28795   0.818   1.244   3.888
 9299SOL    HW128796   0.861   1.319   3.938
 9299SOL    HW228797   0.862   1.234   3.798
 9300SOL     OW28798   0.566   5.347   5.084
 9300SOL    HW128799   0.644   5.410   5.083
 9300SOL    HW228800   0.499   5.376   5.016
 9301SOL     OW28801   6.848   4.372   5.124
 9301SOL    HW128802   6.810   4.329   5.042
 9301SOL    HW228803   6.781   4.368   5.198
 9302SOL     OW28804   2.147   3.140   4.535
 9302SOL    HW128805   2.175   3.231   4.506
 9302SOL    HW228806   2.147   3.078   4.456
 9303SOL     OW28807   2.832   4.721   0.505
 9303SOL    HW128808   2.807   4.630   0.471
 9303SOL    HW228809   2.757   4.759   0.558
 9304SOL     OW28810   4.293   5.376   0.749
 9304SOL    HW128811   4.232   5.372   0.669
 9304SOL    HW228812   4.337   5.466   0.752
 9305SOL     OW28813   3.653   1.263   0.426
 9305SOL    HW128814   3.735   1.224   0.466
 9305SOL    HW228815   3.676   1.311   0.341
 9306SOL     OW28816   0.463   3.815   5.388
 9306SOL    HW128817   0.410   3.763   5.321
 9306SOL    HW228818   0.427   3.909   5.393
 9307SOL     OW28819   1.247   4.077   0.712
 9307SOL    HW128820   1.265   4.147   0.781
 9307SOL    HW228821   1.267   3.987   0.751
 9308SOL     OW28822   1.017   4.562   1.814
 9308SOL    HW128823   1.008   4.662   1.808
 9308SOL    HW228824   1.039   4.526   1.723
 9309SOL     OW28825   4.214   6.451   5.769
 9309SOL    HW128826   4.305   6.446   5.728
 9309SOL    HW228827   4.206   6.534   5.824
 9310SOL     OW28828   5.539   6.041   5.999
 9310SOL    HW128829   5.516   6.125   5.949
 9310SOL    HW228830   5.456   5.985   6.009
 9311SOL     OW28831   5.115   4.523   1.298
 9311SOL    HW128832   5.115   4.427   1.323
 9311SOL    HW228833   5.126   4.532   1.199
 9312SOL     OW28834   1.797   2.009   0.886
 9312SOL    HW128835   1.743   1.963   0.957
 9312SOL    HW228836   1.749   2.004   0.799
 9313SOL     OW28837   0.917   0.709   1.681
 9313SOL    HW128838   0.936   0.612   1.690
 9313SOL    HW228839   0.829   0.730   1.724
 9314SOL     OW28840   5.975   3.449   1.132
 9314SOL    HW128841   5.934   3.515   1.068
 9314SOL    HW228842   6.004   3.368   1.081
 9315SOL     OW28843   6.114   0.554   6.314
 9315SOL    HW128844   6.137   0.639   6.268
 9315SOL    HW228845   6.014   0.540   6.313
 9316SOL     OW28846   5.908   0.144   5.198
 9316SOL    HW128847   5.866   0.099   5.120
 9316SOL    HW228848   5.958   0.225   5.168
 9317SOL     OW28849   3.897   5.296   3.488
 9317SOL    HW128850   3.990   5.311   3.455
 9317SOL    HW228851   3.900   5.269   3.585
 9318SOL     OW28852   4.510   6.443   0.175
 9318SOL    HW128853   4.481   6.462   0.269
 9318SOL    HW228854   4.462   6.361   0.142
 9319SOL     OW28855   2.338   2.793   0.660
 9319SOL    HW128856   2.384   2.733   0.595
 9319SOL    HW228857   2.333   2.748   0.749
 9320SOL     OW28858   4.710   0.537   6.299
 9320SOL    HW128859   4.769   0.461   6.273
 9320SOL    HW228860   4.635   0.503   6.356
 9321SOL     OW28861   0.956   1.881   5.239
 9321SOL    HW128862   0.898   1.850   5.164
 9321SOL    HW228863   0.901   1.886   5.323
 9322SOL     OW28864   6.744   4.805   6.158
 9322SOL    HW128865   6.658   4.831   6.202
 9322SOL    HW228866   6.727   4.728   6.095
 9323SOL     OW28867   2.451   1.770   4.591
 9323SOL    HW128868   2.454   1.799   4.687
 9323SOL    HW228869   2.442   1.851   4.532
 9324SOL     OW28870   2.152   3.876   1.821
 9324SOL    HW128871   2.171   3.873   1.723
 9324SOL    HW228872   2.107   3.792   1.850
 9325SOL     OW28873   0.823   6.309   1.463
 9325SOL    HW128874   0.766   6.382   1.425
 9325SOL    HW228875   0.917   6.320   1.429
 9326SOL     OW28876   3.362   5.599   6.934
 9326SOL    HW128877   3.375   5.505   6.903
 9326SOL    HW228878   3.447   5.650   6.925
 9327SOL     OW28879   4.471   0.380   2.917
 9327SOL    HW128880   4.455   0.282   2.930
 9327SOL    HW228881   4.543   0.410   2.979
 9328SOL     OW28882   2.240   6.742   4.796
 9328SOL    HW128883   2.280   6.771   4.709
 9328SOL    HW228884   2.179   6.664   4.780
 9329SOL     OW28885   6.817   5.721   0.756
 9329SOL    HW128886   6.726   5.691   0.784
 9329SOL    HW228887   6.877   5.641   0.748
 9330SOL     OW28888   0.497   0.108   6.418
 9330SOL    HW128889   0.536   0.121   6.326
 9330SOL    HW228890   0.398   0.122   6.414
 9331SOL     OW28891   1.886   2.550   5.961
 9331SOL    HW128892   1.940   2.604   6.025
 9331SOL    HW228893   1.801   2.598   5.940
 9332SOL     OW28894   4.038   5.426   0.603
 9332SOL    HW128895   4.000   5.426   0.511
 9332SOL    HW228896   4.027   5.517   0.643
 9333SOL     OW28897   4.088   5.922   0.239
 9333SOL    HW128898   4.140   5.863   0.178
 9333SOL    HW228899   3.993   5.926   0.208
 9334SOL     OW28900   5.061   0.707   4.382
 9334SOL    HW128901   5.011   0.626   4.414
 9334SOL    HW228902   5.135   0.728   4.446
 9335SOL     OW28903   1.921   2.336   0.374
 9335SOL    HW128904   1.877   2.417   0.414
 9335SOL    HW228905   1.901   2.332   0.277
 9336SOL     OW28906   5.545   0.149   4.662
 9336SOL    HW128907   5.631   0.107   4.633
 9336SOL    HW228908   5.477   0.077   4.681
 9337SOL     OW28909   5.111   0.570   6.545
 9337SOL    HW128910   5.061   0.522   6.617
 9337SOL    HW228911   5.148   0.503   6.480
 9338SOL     OW28912   6.810   6.084   0.870
 9338SOL    HW128913   6.849   6.169   0.834
 9338SOL    HW228914   6.733   6.056   0.814
 9339SOL     OW28915   5.773   5.529   0.720
 9339SOL    HW128916   5.793   5.621   0.686
 9339SOL    HW228917   5.677   5.508   0.703
 9340SOL     OW28918   4.182   4.736   2.954
 9340SOL    HW128919   4.123   4.753   3.033
 9340SOL    HW228920   4.212   4.824   2.915
 9341SOL     OW28921   6.665   4.234   6.859
 9341SOL    HW128922   6.622   4.323   6.844
 9341SOL    HW228923   6.659   4.180   6.776
 9342SOL     OW28924   2.893   0.248   4.521
 9342SOL    HW128925   2.944   0.177   4.571
 9342SOL    HW228926   2.881   0.219   4.426
 9343SOL     OW28927   4.884   3.381   1.909
 9343SOL    HW128928   4.788   3.409   1.902
 9343SOL    HW228929   4.914   3.342   1.823
 9344SOL     OW28930   5.017   5.558   6.539
 9344SOL    HW128931   4.938   5.618   6.552
 9344SOL    HW228932   5.058   5.576   6.449
 9345SOL     OW28933   6.349   4.832   0.376
 9345SOL    HW128934   6.250   4.840   0.384
 9345SOL    HW228935   6.380   4.882   0.295
 9346SOL     OW28936   4.833   6.332   2.640
 9346SOL    HW128937   4.856   6.424   2.672
 9346SOL    HW228938   4.734   6.320   2.641
 9347SOL     OW28939   3.576   5.994   0.934
 9347SOL    HW128940   3.595   5.917   0.874
 9347SOL    HW228941   3.654   6.009   0.995
 9348SOL     OW28942   2.935   5.026   2.835
 9348SOL    HW128943   2.915   5.114   2.793
 9348SOL    HW228944   2.851   4.972   2.843
 9349SOL     OW28945   6.074   5.924   2.218
 9349SOL    HW128946   6.076   5.908   2.317
 9349SOL    HW228947   6.144   5.993   2.194
 9350SOL     OW28948   0.421   1.488   4.206
 9350SOL    HW128949   0.343   1.550   4.210
 9350SOL    HW228950   0.480   1.514   4.129
 9351SOL     OW28951   2.629   0.193   6.195
 9351SOL    HW128952   2.593   0.100   6.192
 9351SOL    HW228953   2.677   0.212   6.109
 9352SOL     OW28954   2.405   3.124   5.865
 9352SOL    HW128955   2.331   3.135   5.931
 9352SOL    HW228956   2.460   3.207   5.862
 9353SOL     OW28957   1.679   4.324   1.963
 9353SOL    HW128958   1.705   4.230   1.985
 9353SOL    HW228959   1.631   4.326   1.876
 9354SOL     OW28960   6.086   1.554   0.992
 9354SOL    HW128961   6.141   1.479   0.958
 9354SOL    HW228962   6.128   1.592   1.075
 9355SOL     OW28963   6.458   1.174   4.371
 9355SOL    HW128964   6.520   1.241   4.411
 9355SOL    HW228965   6.491   1.147   4.281
 9356SOL     OW28966   4.734   5.365   2.114
 9356SOL    HW128967   4.687   5.318   2.188
 9356SOL    HW228968   4.747   5.301   2.037
 9357SOL     OW28969   2.216   3.849   0.011
 9357SOL    HW128970   2.242   3.759   0.045
 9357SOL    HW228971   2.119   3.850   7.008
 9358SOL     OW28972   6.017   3.444   1.812
 9358SOL    HW128973   6.031   3.534   1.770
 9358SOL    HW228974   6.099   3.418   1.862
 9359SOL     OW28975   0.192   3.867   5.709
 9359SOL    HW128976   0.097   3.853   5.734
 9359SOL    HW228977   0.242   3.781   5.721
 9360SOL     OW28978   1.018   6.897   5.732
 9360SOL    HW128979   1.102   6.915   5.682
 9360SOL    HW228980   0.984   6.806   5.708
 9361SOL     OW28981   2.600   6.313   3.635
 9361SOL    HW128982   2.621   6.230   3.583
 9361SOL    HW228983   2.665   6.385   3.610
 9362SOL     OW28984   1.800   1.565   2.096
 9362SOL    HW128985   1.750   1.632   2.151
 9362SOL    HW228986   1.756   1.556   2.007
 9363SOL     OW28987   4.432   4.814   2.028
 9363SOL    HW128988   4.382   4.794   2.112
 9363SOL    HW228989   4.458   4.910   2.026
 9364SOL     OW28990   4.112   3.420   6.058
 9364SOL    HW128991   4.144   3.421   5.963
 9364SOL    HW228992   4.181   3.462   6.117
 9365SOL     OW28993   2.399   1.751   5.262
 9365SOL    HW128994   2.442   1.841   5.266
 9365SOL    HW228995   2.340   1.745   5.182
 9366SOL     OW28996   3.164   1.562   6.913
 9366SOL    HW128997   3.082   1.615   6.935
 9366SOL    HW228998   3.218   1.550   6.996
 9367SOL     OW28999   6.895   5.671   3.561
 9367SOL    HW129000   6.878   5.769   3.555
 9367SOL    HW229001   6.839   5.631   3.633
 9368SOL     OW29002   3.251   1.773   3.435
 9368SOL    HW129003   3.260   1.851   3.496
 9368SOL    HW229004   3.208   1.802   3.350
 9369SOL     OW29005   0.574   0.503   5.997
 9369SOL    HW129006   0.588   0.590   5.950
 9369SOL    HW229007   0.657   0.447   5.987
 9370SOL     OW29008   4.810   0.701   2.672
 9370SOL    HW129009   4.781   0.613   2.634
 9370SOL    HW229010   4.881   0.740   2.614
 9371SOL     OW29011   1.852   4.680   0.567
 9371SOL    HW129012   1.942   4.693   0.527
 9371SOL    HW229013   1.835   4.582   0.580
 9372SOL     OW29014   5.318   5.593   3.147
 9372SOL    HW129015   5.363   5.668   3.099
 9372SOL    HW229016   5.365   5.507   3.127
 9373SOL     OW29017   4.896   2.268   2.908
 9373SOL    HW129018   4.969   2.216   2.863
 9373SOL    HW229019   4.899   2.362   2.876
 9374SOL     OW29020   6.403   3.085   0.324
 9374SOL    HW129021   6.487   3.132   0.349
 9374SOL    HW229022   6.412   3.046   0.232
 9375SOL     OW29023   7.017   2.150   2.931
 9375SOL    HW129024   0.006   2.084   3.006
 9375SOL    HW229025   7.014   2.102   2.844
 9376SOL     OW29026   2.459   3.779   1.262
 9376SOL    HW129027   2.379   3.766   1.203
 9376SOL    HW229028   2.540   3.743   1.216
 9377SOL     OW29029   1.615   5.930   3.751
 9377SOL    HW129030   1.600   5.989   3.829
 9377SOL    HW229031   1.528   5.913   3.704
 9378SOL     OW29032   0.683   0.488   5.232
 9378SOL    HW129033   0.760   0.543   5.199
 9378SOL    HW229034   0.684   0.485   5.332
 9379SOL     OW29035   4.486   5.115   5.453
 9379SOL    HW129036   4.488   5.150   5.359
 9379SOL    HW229037   4.400   5.066   5.468
 9380SOL     OW29038   5.740   4.429   4.846
 9380SOL    HW129039   5.836   4.440   4.874
 9380SOL    HW229040   5.735   4.363   4.771
 9381SOL     OW29041   2.502   3.392   5.799
 9381SOL    HW129042   2.420   3.417   5.748
 9381SOL    HW229043   2.583   3.405   5.742
 9382SOL     OW29044   3.488   1.516   3.680
 9382SOL    HW129045   3.507   1.566   3.596
 9382SOL    HW229046   3.392   1.526   3.705
 9383SOL     OW29047   2.220   6.030   4.383
 9383SOL    HW129048   2.126   6.051   4.354
 9383SOL    HW229049   2.234   6.063   4.476
 9384SOL     OW29050   3.076   5.796   1.504
 9384SOL    HW129051   3.113   5.711   1.466
 9384SOL    HW229052   3.138   5.830   1.575
 9385SOL     OW29053   4.353   1.140   2.984
 9385SOL    HW129054   4.324   1.157   3.079
 9385SOL    HW229055   4.284   1.084   2.938
 9386SOL     OW29056   2.054   6.423   4.942
 9386SOL    HW129057   2.021   6.474   4.863
 9386SOL    HW229058   2.154   6.422   4.943
 9387SOL     OW29059   2.808   1.092   6.676
 9387SOL    HW129060   2.849   1.160   6.615
 9387SOL    HW229061   2.775   1.014   6.622
 9388SOL     OW29062   2.421   5.601   2.764
 9388SOL    HW129063   2.365   5.521   2.743
 9388SOL    HW229064   2.494   5.610   2.697
 9389SOL     OW29065   1.880   6.814   4.982
 9389SOL    HW129066   1.900   6.742   5.049
 9389SOL    HW229067   1.965   6.857   4.953
 9390SOL     OW29068   3.627   5.263   5.241
 9390SOL    HW129069   3.640   5.354   5.202
 9390SOL    HW229070   3.640   5.194   5.170
 9391SOL     OW29071   2.362   0.928   5.088
 9391SOL    HW129072   2.350   0.921   4.989
 9391SOL    HW229073   2.344   1.021   5.117
 9392SOL     OW29074   7.015   0.417   5.398
 9392SOL    HW129075   7.017   0.363   5.482
 9392SOL    HW229076   0.059   0.492   5.404
 9393SOL     OW29077   2.842   0.566   5.308
 9393SOL    HW129078   2.757   0.527   5.344
 9393SOL    HW229079   2.909   0.493   5.296
 9394SOL     OW29080   0.130   1.492   2.248
 9394SOL    HW129081   0.165   1.529   2.162
 9394SOL    HW229082   0.039   1.530   2.267
 9395SOL     OW29083   2.503   1.870   0.011
 9395SOL    HW129084   2.508   1.912   0.102
 9395SOL    HW229085   2.516   1.940   6.963
 9396SOL     OW29086   1.159   5.523   3.672
 9396SOL    HW129087   1.201   5.567   3.593
 9396SOL    HW229088   1.093   5.586   3.714
 9397SOL     OW29089   3.143   0.081   0.229
 9397SOL    HW129090   3.177   0.172   0.252
 9397SOL    HW229091   3.206   0.012   0.265
 9398SOL     OW29092   0.914   0.177   5.356
 9398SOL    HW129093   0.947   0.083   5.366
 9398SOL    HW229094   0.849   0.197   5.429
 9399SOL     OW29095   0.244   1.781   6.451
 9399SOL    HW129096   0.221   1.846   6.522
 9399SOL    HW229097   0.339   1.795   6.422
 9400SOL     OW29098   4.224   2.522   1.694
 9400SOL    HW129099   4.133   2.482   1.700
 9400SOL    HW229100   4.274   2.503   1.779
 9401SOL     OW29101   4.668   0.085   3.376
 9401SOL    HW129102   4.598   0.024   3.412
 9401SOL    HW229103   4.644   0.180   3.397
 9402SOL     OW29104   1.142   4.945   3.719
 9402SOL    HW129105   1.204   4.892   3.777
 9402SOL    HW229106   1.089   5.008   3.776
 9403SOL     OW29107   5.813   1.163   3.063
 9403SOL    HW129108   5.726   1.197   3.028
 9403SOL    HW229109   5.811   1.164   3.163
 9404SOL     OW29110   0.589   3.280   6.228
 9404SOL    HW129111   0.568   3.360   6.173
 9404SOL    HW229112   0.682   3.249   6.209
 9405SOL     OW29113   0.374   5.854   2.186
 9405SOL    HW129114   0.309   5.779   2.171
 9405SOL    HW229115   0.346   5.933   2.132
 9406SOL     OW29116   6.907   2.951   6.409
 9406SOL    HW129117   6.869   2.875   6.463
 9406SOL    HW229118   6.948   3.018   6.471
 9407SOL     OW29119   2.775   5.258   3.016
 9407SOL    HW129120   2.726   5.340   2.988
 9407SOL    HW229121   2.711   5.182   3.025
 9408SOL     OW29122   4.031   1.700   6.203
 9408SOL    HW129123   3.965   1.720   6.131
 9408SOL    HW229124   4.080   1.783   6.229
 9409SOL     OW29125   5.850   4.628   6.321
 9409SOL    HW129126   5.813   4.569   6.393
 9409SOL    HW229127   5.781   4.696   6.295
 9410SOL     OW29128   2.712   6.305   1.697
 9410SOL    HW129129   2.713   6.212   1.661
 9410SOL    HW229130   2.804   6.332   1.724
 9411SOL     OW29131   4.334   3.734   1.721
 9411SOL    HW129132   4.276   3.814   1.736
 9411SOL    HW229133   4.279   3.660   1.682
 9412SOL     OW29134   0.104   3.002   1.565
 9412SOL    HW129135   0.033   2.979   1.631
 9412SOL    HW229136   0.147   3.089   1.589
 9413SOL     OW29137   3.417   6.039   4.572
 9413SOL    HW129138   3.435   6.002   4.663
 9413SOL    HW229139   3.499   6.029   4.515
 9414SOL     OW29140   2.966   0.769   3.916
 9414SOL    HW129141   2.953   0.678   3.955
 9414SOL    HW229142   3.001   0.761   3.823
 9415SOL     OW29143   2.916   6.982   1.847
 9415SOL    HW129144   2.902   0.026   1.772
 9415SOL    HW229145   2.917   6.889   1.811
 9416SOL     OW29146   0.978   1.689   0.947
 9416SOL    HW129147   0.902   1.753   0.959
 9416SOL    HW229148   1.063   1.730   0.979
 9417SOL     OW29149   3.778   6.564   5.522
 9417SOL    HW129150   3.748   6.647   5.569
 9417SOL    HW229151   3.761   6.485   5.580
 9418SOL     OW29152   3.246   5.934   1.689
 9418SOL    HW129153   3.332   5.898   1.653
 9418SOL    HW229154   3.247   6.034   1.686
 9419SOL     OW29155   3.188   4.998   5.829
 9419SOL    HW129156   3.127   4.963   5.757
 9419SOL    HW229157   3.154   5.087   5.859
 9420SOL     OW29158   0.676   2.435   4.947
 9420SOL    HW129159   0.703   2.517   4.996
 9420SOL    HW229160   0.577   2.437   4.931
 9421SOL     OW29161   1.814   6.175   4.839
 9421SOL    HW129162   1.775   6.111   4.773
 9421SOL    HW229163   1.903   6.207   4.805
 9422SOL     OW29164   4.916   6.538   3.074
 9422SOL    HW129165   4.931   6.448   3.032
 9422SOL    HW229166   4.939   6.534   3.171
 9423SOL     OW29167   4.378   0.616   3.261
 9423SOL    HW129168   4.447   0.565   3.312
 9423SOL    HW229169   4.421   0.692   3.212
 9424SOL     OW29170   4.895   1.013   4.928
 9424SOL    HW129171   4.960   1.081   4.895
 9424SOL    HW229172   4.940   0.951   4.992
 9425SOL     OW29173   6.526   3.444   6.530
 9425SOL    HW129174   6.523   3.542   6.553
 9425SOL    HW229175   6.468   3.427   6.450
 9426SOL     OW29176   2.740   2.203   6.708
 9426SOL    HW129177   2.732   2.276   6.640
 9426SOL    HW229178   2.823   2.151   6.691
 9427SOL     OW29179   2.600   5.421   4.471
 9427SOL    HW129180   2.690   5.432   4.513
 9427SOL    HW229181   2.597   5.473   4.386
 9428SOL     OW29182   5.328   0.359   1.026
 9428SOL    HW129183   5.344   0.428   1.096
 9428SOL    HW229184   5.379   0.385   0.943
 9429SOL     OW29185   1.854   3.707   2.303
 9429SOL    HW129186   1.920   3.640   2.269
 9429SOL    HW229187   1.871   3.795   2.259
 9430SOL     OW29188   0.086   4.462   1.882
 9430SOL    HW129189   0.084   4.534   1.951
 9430SOL    HW229190   0.179   4.425   1.874
 9431SOL     OW29191   5.688   3.771   1.088
 9431SOL    HW129192   5.661   3.698   1.151
 9431SOL    HW229193   5.702   3.856   1.140
 9432SOL     OW29194   5.229   1.143   3.022
 9432SOL    HW129195   5.294   1.104   2.956
 9432SOL    HW229196   5.257   1.118   3.115
 9433SOL     OW29197   3.897   4.855   3.446
 9433SOL    HW129198   3.823   4.875   3.510
 9433SOL    HW229199   3.958   4.934   3.439
 9434SOL     OW29200   5.205   5.260   3.392
 9434SOL    HW129201   5.206   5.202   3.473
 9434SOL    HW229202   5.284   5.240   3.335
 9435SOL     OW29203   0.418   2.193   4.670
 9435SOL    HW129204   0.458   2.275   4.629
 9435SOL    HW229205   0.396   2.210   4.766
 9436SOL     OW29206   1.049   3.470   1.930
 9436SOL    HW129207   1.040   3.425   2.019
 9436SOL    HW229208   1.121   3.424   1.877
 9437SOL     OW29209   2.428   6.352   3.317
 9437SOL    HW129210   2.345   6.334   3.369
 9437SOL    HW229211   2.495   6.280   3.335
 9438SOL     OW29212   0.358   6.644   1.813
 9438SOL    HW129213   0.389   6.738   1.795
 9438SOL    HW229214   0.259   6.641   1.809
 9439SOL     OW29215   0.668   2.482   1.670
 9439SOL    HW129216   0.714   2.507   1.755
 9439SOL    HW229217   0.589   2.541   1.655
 9440SOL     OW29218   4.088   5.440   3.986
 9440SOL    HW129219   4.152   5.378   3.939
 9440SOL    HW229220   4.034   5.488   3.918
 9441SOL     OW29221   1.587   3.547   4.927
 9441SOL    HW129222   1.505   3.515   4.881
 9441SOL    HW229223   1.667   3.527   4.870
 9442SOL     OW29224   4.463   3.230   0.186
 9442SOL    HW129225   4.508   3.211   0.099
 9442SOL    HW229226   4.433   3.326   0.188
 9443SOL     OW29227   2.339   5.057   1.351
 9443SOL    HW129228   2.384   5.119   1.288
 9443SOL    HW229229   2.253   5.097   1.382
 9444SOL     OW29230   1.281   3.999   6.863
 9444SOL    HW129231   1.300   4.070   6.931
 9444SOL    HW229232   1.183   3.997   6.843
 9445SOL     OW29233   5.691   3.691   2.790
 9445SOL    HW129234   5.637   3.766   2.829
 9445SOL    HW229235   5.691   3.699   2.690
 9446SOL     OW29236   6.582   6.500   4.390
 9446SOL    HW129237   6.526   6.420   4.413
 9446SOL    HW229238   6.602   6.499   4.292
 9447SOL     OW29239   6.066   3.381   3.763
 9447SOL    HW129240   6.034   3.465   3.808
 9447SOL    HW229241   6.087   3.312   3.833
 9448SOL     OW29242   6.790   6.668   6.296
 9448SOL    HW129243   6.787   6.767   6.309
 9448SOL    HW229244   6.791   6.622   6.385
 9449SOL     OW29245   0.159   6.048   6.931
 9449SOL    HW129246   0.187   6.144   6.934
 9449SOL    HW229247   0.067   6.040   6.968
 9450SOL     OW29248   3.120   5.526   5.096
 9450SOL    HW129249   3.178   5.449   5.121
 9450SOL    HW229250   3.032   5.517   5.142
 9451SOL     OW29251   3.856   6.489   6.246
 9451SOL    HW129252   3.946   6.530   6.263
 9451SOL    HW229253   3.789   6.562   6.235
 9452SOL     OW29254   1.576   3.850   0.643
 9452SOL    HW129255   1.512   3.910   0.690
 9452SOL    HW229256   1.576   3.870   0.545
 9453SOL     OW29257   2.352   5.404   3.388
 9453SOL    HW129258   2.393   5.380   3.476
 9453SOL    HW229259   2.323   5.500   3.391
 9454SOL     OW29260   2.116   3.414   6.861
 9454SOL    HW129261   2.157   3.501   6.833
 9454SOL    HW229262   2.072   3.371   6.782
 9455SOL     OW29263   3.995   1.775   2.843
 9455SOL    HW129264   3.924   1.835   2.879
 9455SOL    HW229265   4.083   1.799   2.885
 9456SOL     OW29266   0.896   3.632   0.748
 9456SOL    HW129267   0.910   3.579   0.665
 9456SOL    HW229268   0.804   3.672   0.747
 9457SOL     OW29269   2.378   4.171   5.375
 9457SOL    HW129270   2.431   4.249   5.339
 9457SOL    HW229271   2.389   4.093   5.314
 9458SOL     OW29272   1.153   3.041   6.882
 9458SOL    HW129273   1.144   3.064   6.979
 9458SOL    HW229274   1.211   3.108   6.837
 9459SOL     OW29275   5.430   4.741   2.290
 9459SOL    HW129276   5.365   4.709   2.221
 9459SOL    HW229277   5.522   4.711   2.266
 9460SOL     OW29278   0.202   2.577   3.887
 9460SOL    HW129279   0.274   2.560   3.954
 9460SOL    HW229280   0.200   2.674   3.864
 9461SOL     OW29281   6.649   1.707   2.550
 9461SOL    HW129282   6.668   1.719   2.452
 9461SOL    HW229283   6.551   1.696   2.564
 9462SOL     OW29284   2.153   3.784   2.822
 9462SOL    HW129285   2.151   3.686   2.799
 9462SOL    HW229286   2.245   3.809   2.850
 9463SOL     OW29287   0.388   0.721   1.630
 9463SOL    HW129288   0.299   0.679   1.647
 9463SOL    HW229289   0.460   0.653   1.644
 9464SOL     OW29290   5.912   6.949   0.957
 9464SOL    HW129291   5.997   6.960   1.009
 9464SOL    HW229292   5.933   6.908   0.868
 9465SOL     OW29293   1.040   5.947   3.459
 9465SOL    HW129294   0.979   6.026   3.460
 9465SOL    HW229295   0.989   5.866   3.431
 9466SOL     OW29296   4.279   4.739   5.440
 9466SOL    HW129297   4.300   4.790   5.523
 9466SOL    HW229298   4.184   4.706   5.444
 9467SOL     OW29299   1.166   2.501   1.411
 9467SOL    HW129300   1.140   2.405   1.400
 9467SOL    HW229301   1.103   2.559   1.360
 9468SOL     OW29302   6.344   2.278   6.264
 9468SOL    HW129303   6.262   2.241   6.308
 9468SOL    HW229304   6.318   2.334   6.185
 9469SOL     OW29305   5.731   6.200   1.606
 9469SOL    HW129306   5.687   6.275   1.556
 9469SOL    HW229307   5.823   6.186   1.570
 9470SOL     OW29308   4.746   4.104   5.586
 9470SOL    HW129309   4.767   4.048   5.666
 9470SOL    HW229310   4.697   4.187   5.615
 9471SOL     OW29311   6.358   1.536   4.715
 9471SOL    HW129312   6.285   1.526   4.647
 9471SOL    HW229313   6.329   1.600   4.786
 9472SOL     OW29314   6.127   3.287   4.636
 9472SOL    HW129315   6.178   3.333   4.563
 9472SOL    HW229316   6.038   3.259   4.601
 9473SOL     OW29317   2.772   5.406   5.492
 9473SOL    HW129318   2.786   5.501   5.521
 9473SOL    HW229319   2.785   5.399   5.393
 9474SOL     OW29320   6.639   3.314   0.491
 9474SOL    HW129321   6.555   3.352   0.530
 9474SOL    HW229322   6.640   3.332   0.393
 9475SOL     OW29323   2.915   3.747   0.225
 9475SOL    HW129324   2.932   3.691   0.306
 9475SOL    HW229325   2.925   3.691   0.143
 9476SOL     OW29326   3.133   3.192   5.392
 9476SOL    HW129327   3.192   3.256   5.342
 9476SOL    HW229328   3.175   3.168   5.479
 9477SOL     OW29329   0.102   3.686   2.424
 9477SOL    HW129330   0.136   3.766   2.473
 9477SOL    HW229331   0.004   3.677   2.439
 9478SOL     OW29332   5.357   2.957   6.112
 9478SOL    HW129333   5.453   2.969   6.087
 9478SOL    HW229334   5.338   3.005   6.197
 9479SOL     OW29335   4.544   6.422   6.927
 9479SOL    HW129336   4.627   6.450   6.880
 9479SOL    HW229337   4.556   6.435   0.005
 9480SOL     OW29338   4.728   3.693   0.638
 9480SOL    HW129339   4.738   3.647   0.727
 9480SOL    HW229340   4.708   3.790   0.653
 9481SOL     OW29341   5.797   3.550   1.923
 9481SOL    HW129342   5.728   3.479   1.936
 9481SOL    HW229343   5.881   3.508   1.886
 9482SOL     OW29344   6.727   0.432   3.245
 9482SOL    HW129345   6.808   0.459   3.297
 9482SOL    HW229346   6.683   0.513   3.207
 9483SOL     OW29347   1.089   1.549   1.483
 9483SOL    HW129348   1.154   1.609   1.436
 9483SOL    HW229349   1.004   1.545   1.432
 9484SOL     OW29350   4.289   1.208   3.256
 9484SOL    HW129351   4.362   1.276   3.250
 9484SOL    HW229352   4.316   1.136   3.320
 9485SOL     OW29353   0.826   0.477   2.235
 9485SOL    HW129354   0.768   0.398   2.251
 9485SOL    HW229355   0.914   0.446   2.199
 9486SOL     OW29356   2.467   5.391   1.622
 9486SOL    HW129357   2.416   5.306   1.631
 9486SOL    HW229358   2.525   5.404   1.703
 9487SOL     OW29359   2.939   3.528   3.164
 9487SOL    HW129360   2.903   3.552   3.073
 9487SOL    HW229361   2.950   3.611   3.218
 9488SOL     OW29362   1.551   6.240   1.014
 9488SOL    HW129363   1.574   6.244   0.917
 9488SOL    HW229364   1.626   6.199   1.065
 9489SOL     OW29365   4.120   3.850   1.401
 9489SOL    HW129366   4.217   3.831   1.384
 9489SOL    HW229367   4.070   3.844   1.314
 9490SOL     OW29368   6.573   5.590   0.869
 9490SOL    HW129369   6.543   5.596   0.965
 9490SOL    HW229370   6.586   5.494   0.845
 9491SOL     OW29371   6.707   4.130   3.970
 9491SOL    HW129372   6.684   4.195   3.897
 9491SOL    HW229373   6.625   4.109   4.023
 9492SOL     OW29374   3.655   2.902   3.086
 9492SOL    HW129375   3.568   2.950   3.098
 9492SOL    HW229376   3.706   2.902   3.172
 9493SOL     OW29377   3.610   5.609   3.845
 9493SOL    HW129378   3.673   5.649   3.778
 9493SOL    HW229379   3.637   5.515   3.864
 9494SOL     OW29380   4.458   4.671   1.178
 9494SOL    HW129381   4.375   4.721   1.151
 9494SOL    HW229382   4.455   4.653   1.276
 9495SOL     OW29383   6.253   1.845   4.038
 9495SOL    HW129384   6.190   1.827   3.963
 9495SOL    HW229385   6.340   1.799   4.021
 9496SOL     OW29386   5.685   4.803   0.952
 9496SOL    HW129387   5.754   4.783   0.882
 9496SOL    HW229388   5.648   4.716   0.987
 9497SOL     OW29389   6.523   5.182   6.592
 9497SOL    HW129390   6.553   5.124   6.516
 9497SOL    HW229391   6.430   5.156   6.619
 9498SOL     OW29392   5.257   0.109   4.939
 9498SOL    HW129393   5.196   0.125   5.017
 9498SOL    HW229394   5.329   0.046   4.965
 9499SOL     OW29395   2.385   5.215   6.567
 9499SOL    HW129396   2.427   5.147   6.627
 9499SOL    HW229397   2.295   5.240   6.603
 9500SOL     OW29398   4.822   0.038   1.390
 9500SOL    HW129399   4.776   0.119   1.354
 9500SOL    HW229400   4.756   7.003   1.441
 9501SOL     OW29401   2.777   1.340   4.710
 9501SOL    HW129402   2.849   1.318   4.644
 9501SOL    HW229403   2.773   1.439   4.722
 9502SOL     OW29404   0.287   2.216   4.941
 9502SOL    HW129405   0.188   2.232   4.946
 9502SOL    HW229406   0.306   2.122   4.971
 9503SOL     OW29407   0.748   1.375   0.793
 9503SOL    HW129408   0.692   1.419   0.864
 9503SOL    HW229409   0.783   1.444   0.730
 9504SOL     OW29410   6.789   1.961   0.833
 9504SOL    HW129411   6.768   1.992   0.740
 9504SOL    HW229412   6.838   2.033   0.882
 9505SOL     OW29413   5.382   4.696   3.546
 9505SOL    HW129414   5.377   4.795   3.560
 9505SOL    HW229415   5.296   4.663   3.508
 9506SOL     OW29416   0.153   2.827   6.651
 9506SOL    HW129417   0.188   2.920   6.666
 9506SOL    HW229418   0.130   2.786   6.740
 9507SOL     OW29419   1.004   1.404   3.309
 9507SOL    HW129420   0.924   1.395   3.250
 9507SOL    HW229421   1.078   1.347   3.273
 9508SOL     OW29422   6.508   3.699   0.901
 9508SOL    HW129423   6.561   3.615   0.888
 9508SOL    HW229424   6.454   3.691   0.985
 9509SOL     OW29425   0.900   0.625   5.154
 9509SOL    HW129426   0.850   0.683   5.091
 9509SOL    HW229427   0.951   0.681   5.219
 9510SOL     OW29428   1.223   3.965   2.392
 9510SOL    HW129429   1.146   4.020   2.359
 9510SOL    HW229430   1.197   3.917   2.475
 9511SOL     OW29431   0.515   1.314   6.944
 9511SOL    HW129432   0.500   1.393   7.003
 9511SOL    HW229433   0.467   1.234   6.982
 9512SOL     OW29434   5.838   1.504   1.631
 9512SOL    HW129435   5.795   1.590   1.604
 9512SOL    HW229436   5.850   1.502   1.730
 9513SOL     OW29437   1.825   3.199   5.526
 9513SOL    HW129438   1.786   3.277   5.477
 9513SOL    HW229439   1.796   3.200   5.621
 9514SOL     OW29440   2.163   4.177   6.983
 9514SOL    HW129441   2.155   4.097   6.923
 9514SOL    HW229442   2.197   4.254   6.930
 9515SOL     OW29443   1.360   5.690   0.849
 9515SOL    HW129444   1.355   5.696   0.749
 9515SOL    HW229445   1.397   5.775   0.885
 9516SOL     OW29446   5.702   3.315   5.103
 9516SOL    HW129447   5.768   3.260   5.155
 9516SOL    HW229448   5.749   3.392   5.060
 9517SOL     OW29449   1.044   4.370   0.650
 9517SOL    HW129450   1.080   4.427   0.576
 9517SOL    HW229451   1.108   4.372   0.727
 9518SOL     OW29452   1.370   2.132   0.157
 9518SOL    HW129453   1.307   2.143   0.080
 9518SOL    HW229454   1.435   2.207   0.159
 9519SOL     OW29455   3.530   4.105   4.295
 9519SOL    HW129456   3.478   4.053   4.363
 9519SOL    HW229457   3.469   4.167   4.246
 9520SOL     OW29458   0.654   1.475   3.349
 9520SOL    HW129459   0.676   1.491   3.446
 9520SOL    HW229460   0.566   1.430   3.342
 9521SOL     OW29461   3.703   4.378   1.238
 9521SOL    HW129462   3.695   4.281   1.215
 9521SOL    HW229463   3.685   4.433   1.157
 9522SOL     OW29464   4.147   5.321   1.772
 9522SOL    HW129465   4.240   5.356   1.773
 9522SOL    HW229466   4.131   5.269   1.857
 9523SOL     OW29467   2.467   5.210   4.571
 9523SOL    HW129468   2.532   5.286   4.577
 9523SOL    HW229469   2.454   5.185   4.475
 9524SOL     OW29470   2.482   3.034   0.640
 9524SOL    HW129471   2.429   3.117   0.620
 9524SOL    HW229472   2.420   2.956   0.648
 9525SOL     OW29473   2.604   2.175   5.664
 9525SOL    HW129474   2.668   2.126   5.605
 9525SOL    HW229475   2.644   2.262   5.693
 9526SOL     OW29476   5.929   4.437   0.913
 9526SOL    HW129477   6.019   4.392   0.915
 9526SOL    HW229478   5.936   4.528   0.955
 9527SOL     OW29479   1.106   0.384   4.314
 9527SOL    HW129480   1.069   0.471   4.280
 9527SOL    HW229481   1.204   0.380   4.295
 9528SOL     OW29482   0.052   1.538   0.943
 9528SOL    HW129483   0.125   1.531   0.875
 9528SOL    HW229484   6.997   1.590   0.904
 9529SOL     OW29485   6.219   3.294   6.168
 9529SOL    HW129486   6.221   3.299   6.068
 9529SOL    HW229487   6.248   3.203   6.197
 9530SOL     OW29488   1.871   3.231   3.210
 9530SOL    HW129489   1.797   3.299   3.212
 9530SOL    HW229490   1.877   3.192   3.118
 9531SOL     OW29491   4.993   4.293   2.325
 9531SOL    HW129492   4.997   4.370   2.389
 9531SOL    HW229493   4.912   4.303   2.267
 9532SOL     OW29494   0.405   5.856   0.980
 9532SOL    HW129495   0.311   5.846   0.949
 9532SOL    HW229496   0.421   5.952   1.007
 9533SOL     OW29497   0.290   5.966   4.803
 9533SOL    HW129498   0.332   6.047   4.845
 9533SOL    HW229499   0.327   5.954   4.710
 9534SOL     OW29500   6.688   4.191   4.964
 9534SOL    HW129501   6.726   4.232   4.880
 9534SOL    HW229502   6.691   4.092   4.957
 9535SOL     OW29503   1.762   0.733   5.750
 9535SOL    HW129504   1.833   0.711   5.817
 9535SOL    HW229505   1.772   0.829   5.722
 9536SOL     OW29506   3.239   4.208   5.225
 9536SOL    HW129507   3.223   4.182   5.130
 9536SOL    HW229508   3.157   4.251   5.262
 9537SOL     OW29509   2.626   7.015   4.352
 9537SOL    HW129510   2.619   6.946   4.280
 9537SOL    HW229511   2.699   6.989   4.416
 9538SOL     OW29512   5.550   0.696   3.998
 9538SOL    HW129513   5.538   0.604   4.034
 9538SOL    HW229514   5.527   0.696   3.900
 9539SOL     OW29515   3.449   3.797   4.172
 9539SOL    HW129516   3.528   3.838   4.218
 9539SOL    HW229517   3.457   3.697   4.175
 9540SOL     OW29518   5.999   4.879   4.261
 9540SOL    HW129519   6.041   4.815   4.196
 9540SOL    HW229520   5.925   4.929   4.215
 9541SOL     OW29521   3.196   0.056   6.119
 9541SOL    HW129522   3.118   0.067   6.181
 9541SOL    HW229523   3.230   0.146   6.091
 9542SOL     OW29524   4.799   4.333   5.077
 9542SOL    HW129525   4.741   4.353   4.998
 9542SOL    HW229526   4.895   4.340   5.051
 9543SOL     OW29527   3.682   0.612   5.683
 9543SOL    HW129528   3.670   0.633   5.586
 9543SOL    HW229529   3.733   0.686   5.727
 9544SOL     OW29530   6.519   2.401   3.543
 9544SOL    HW129531   6.545   2.330   3.478
 9544SOL    HW229532   6.437   2.372   3.593
 9545SOL     OW29533   5.776   5.954   4.017
 9545SOL    HW129534   5.761   5.875   3.957
 9545SOL    HW229535   5.822   6.027   3.965
 9546SOL     OW29536   4.116   2.046   5.763
 9546SOL    HW129537   4.053   2.002   5.698
 9546SOL    HW229538   4.112   2.145   5.750
 9547SOL     OW29539   2.580   4.830   4.475
 9547SOL    HW129540   2.652   4.823   4.544
 9547SOL    HW229541   2.607   4.777   4.395
 9548SOL     OW29542   5.984   4.541   5.480
 9548SOL    HW129543   5.944   4.597   5.408
 9548SOL    HW229544   6.084   4.549   5.477
 9549SOL     OW29545   3.043   2.362   1.357
 9549SOL    HW129546   3.137   2.348   1.388
 9549SOL    HW229547   2.982   2.363   1.437
 9550SOL     OW29548   0.181   1.109   0.565
 9550SOL    HW129549   0.161   1.206   0.566
 9550SOL    HW229550   0.280   1.095   0.552
 9551SOL     OW29551   5.815   2.367   6.164
 9551SOL    HW129552   5.818   2.327   6.256
 9551SOL    HW229553   5.771   2.457   6.169
 9552SOL     OW29554   1.710   6.512   4.580
 9552SOL    HW129555   1.754   6.508   4.669
 9552SOL    HW229556   1.681   6.606   4.561
 9553SOL     OW29557   6.062   2.088   6.839
 9553SOL    HW129558   5.999   2.164   6.858
 9553SOL    HW229559   6.060   2.068   6.741
 9554SOL     OW29560   2.652   7.011   2.204
 9554SOL    HW129561   2.682   6.922   2.169
 9554SOL    HW229562   2.715   0.020   2.276
 9555SOL     OW29563   1.172   0.957   2.659
 9555SOL    HW129564   1.229   1.004   2.727
 9555SOL    HW229565   1.221   0.877   2.624
 9556SOL     OW29566   2.122   4.175   1.462
 9556SOL    HW129567   2.050   4.106   1.464
 9556SOL    HW229568   2.168   4.173   1.373
 9557SOL     OW29569   6.647   5.941   2.331
 9557SOL    HW129570   6.672   5.883   2.409
 9557SOL    HW229571   6.729   5.961   2.276
 9558SOL     OW29572   5.956   6.304   5.624
 9558SOL    HW129573   5.896   6.225   5.610
 9558SOL    HW229574   5.952   6.363   5.543
 9559SOL     OW29575   0.264   4.753   0.975
 9559SOL    HW129576   0.254   4.849   0.950
 9559SOL    HW229577   0.294   4.746   1.070
 9560SOL     OW29578   2.289   1.561   3.438
 9560SOL    HW129579   2.308   1.641   3.495
 9560SOL    HW229580   2.372   1.506   3.429
 9561SOL     OW29581   2.101   0.298   0.538
 9561SOL    HW129582   2.090   0.261   0.445
 9561SOL    HW229583   2.075   0.394   0.539
 9562SOL     OW29584   2.646   0.528   5.519
 9562SOL    HW129585   2.642   0.616   5.566
 9562SOL    HW229586   2.693   0.462   5.577
 9563SOL     OW29587   6.914   6.267   0.687
 9563SOL    HW129588   7.007   6.294   0.712
 9563SOL    HW229589   6.916   6.220   0.599
 9564SOL     OW29590   2.791   0.704   0.352
 9564SOL    HW129591   2.766   0.608   0.342
 9564SOL    HW229592   2.720   0.751   0.404
 9565SOL     OW29593   3.804   0.793   4.773
 9565SOL    HW129594   3.821   0.837   4.861
 9565SOL    HW229595   3.795   0.863   4.702
 9566SOL     OW29596   2.592   4.920   7.018
 9566SOL    HW129597   2.654   4.894   0.070
 9566SOL    HW229598   2.564   5.015   0.009
 9567SOL     OW29599   5.159   5.244   0.737
 9567SOL    HW129600   5.125   5.271   0.647
 9567SOL    HW229601   5.246   5.195   0.727
 9568SOL     OW29602   4.495   2.692   6.306
 9568SOL    HW129603   4.480   2.736   6.217
 9568SOL    HW229604   4.415   2.638   6.331
 9569SOL     OW29605   6.971   1.254   2.334
 9569SOL    HW129606   6.884   1.215   2.362
 9569SOL    HW229607   7.016   1.295   2.414
 9570SOL     OW29608   0.788   3.333   1.876
 9570SOL    HW129609   0.757   3.373   1.790
 9570SOL    HW229610   0.874   3.374   1.903
 9571SOL     OW29611   3.565   4.094   6.167
 9571SOL    HW129612   3.474   4.057   6.182
 9571SOL    HW229613   3.568   4.188   6.201
 9572SOL     OW29614   2.185   4.972   1.881
 9572SOL    HW129615   2.247   5.024   1.823
 9572SOL    HW229616   2.235   4.930   1.956
 9573SOL     OW29617   0.757   2.962   6.434
 9573SOL    HW129618   0.697   3.033   6.397
 9573SOL    HW229619   0.840   3.005   6.470
 9574SOL     OW29620   4.004   3.655   3.223
 9574SOL    HW129621   4.010   3.723   3.296
 9574SOL    HW229622   3.908   3.632   3.206
 9575SOL     OW29623   0.584   0.879   1.235
 9575SOL    HW129624   0.637   0.956   1.269
 9575SOL    HW229625   0.598   0.869   1.136
 9576SOL     OW29626   1.985   0.769   1.654
 9576SOL    HW129627   2.085   0.765   1.663
 9576SOL    HW229628   1.957   0.864   1.638
 9577SOL     OW29629   1.196   0.670   6.462
 9577SOL    HW129630   1.168   0.582   6.426
 9577SOL    HW229631   1.281   0.698   6.418
 9578SOL     OW29632   0.558   3.591   3.345
 9578SOL    HW129633   0.462   3.585   3.372
 9578SOL    HW229634   0.608   3.513   3.383
 9579SOL     OW29635   1.579   4.947   2.841
 9579SOL    HW129636   1.535   5.018   2.786
 9579SOL    HW229637   1.678   4.960   2.839
 9580SOL     OW29638   4.709   4.017   0.835
 9580SOL    HW129639   4.669   4.090   0.890
 9580SOL    HW229640   4.688   4.034   0.738
 9581SOL     OW29641   0.062   5.334   5.654
 9581SOL    HW129642   0.127   5.338   5.578
 9581SOL    HW229643   0.105   5.287   5.731
 9582SOL     OW29644   4.860   5.084   6.231
 9582SOL    HW129645   4.848   5.119   6.138
 9582SOL    HW229646   4.811   4.998   6.241
 9583SOL     OW29647   3.670   4.096   1.352
 9583SOL    HW129648   3.623   4.092   1.440
 9583SOL    HW229649   3.614   4.051   1.282
 9584SOL     OW29650   0.186   5.548   6.957
 9584SOL    HW129651   0.180   5.647   6.972
 9584SOL    HW229652   0.231   5.530   6.870
 9585SOL     OW29653   6.974   0.392   4.910
 9585SOL    HW129654   6.962   0.331   4.987
 9585SOL    HW229655   6.991   0.485   4.943
 9586SOL     OW29656   5.717   5.030   1.825
 9586SOL    HW129657   5.751   4.957   1.884
 9586SOL    HW229658   5.748   5.014   1.731
 9587SOL     OW29659   0.677   0.733   1.808
 9587SOL    HW129660   0.613   0.659   1.786
 9587SOL    HW229661   0.738   0.704   1.882
 9588SOL     OW29662   6.482   1.344   1.353
 9588SOL    HW129663   6.572   1.302   1.357
 9588SOL    HW229664   6.412   1.272   1.352
 9589SOL     OW29665   2.131   4.995   6.807
 9589SOL    HW129666   2.204   4.946   6.760
 9589SOL    HW229667   2.151   5.000   6.905
 9590SOL     OW29668   6.570   3.189   2.006
 9590SOL    HW129669   6.635   3.236   2.066
 9590SOL    HW229670   6.493   3.156   2.060
 9591SOL     OW29671   3.009   6.342   5.858
 9591SOL    HW129672   3.015   6.283   5.777
 9591SOL    HW229673   2.968   6.430   5.833
 9592SOL     OW29674   3.914   4.224   0.932
 9592SOL    HW129675   3.940   4.191   0.841
 9592SOL    HW229676   3.884   4.319   0.925
 9593SOL     OW29677   0.045   0.674   5.661
 9593SOL    HW129678   0.123   0.736   5.652
 9593SOL    HW229679   7.004   0.709   5.731
 9594SOL     OW29680   1.633   5.590   2.480
 9594SOL    HW129681   1.695   5.517   2.510
 9594SOL    HW229682   1.587   5.562   2.396
 9595SOL     OW29683   0.487   4.334   5.286
 9595SOL    HW129684   0.550   4.308   5.213
 9595SOL    HW229685   0.539   4.373   5.362
 9596SOL     OW29686   7.020   5.539   6.252
 9596SOL    HW129687   0.057   5.594   6.312
 9596SOL    HW229688   6.924   5.565   6.264
 9597SOL     OW29689   0.570   4.126   1.679
 9597SOL    HW129690   0.578   4.098   1.774
 9597SOL    HW229691   0.657   4.112   1.632
 9598SOL     OW29692   1.414   3.616   4.113
 9598SOL    HW129693   1.459   3.703   4.095
 9598SOL    HW229694   1.428   3.554   4.036
 9599SOL     OW29695   4.171   0.220   4.483
 9599SOL    HW129696   4.121   0.282   4.543
 9599SOL    HW229697   4.147   0.125   4.505
 9600SOL     OW29698   2.144   6.856   6.370
 9600SOL    HW129699   2.083   6.935   6.365
 9600SOL    HW229700   2.188   6.852   6.459
 9601SOL     OW29701   5.353   3.954   1.182
 9601SOL    HW129702   5.302   3.951   1.096
 9601SOL    HW229703   5.428   4.019   1.174
 9602SOL     OW29704   6.698   5.162   6.264
 9602SOL    HW129705   6.661   5.093   6.326
 9602SOL    HW229706   6.772   5.212   6.309
 9603SOL     OW29707   3.884   1.575   3.829
 9603SOL    HW129708   3.810   1.516   3.860
 9603SOL    HW229709   3.866   1.605   3.735
 9604SOL     OW29710   3.935   6.961   7.003
 9604SOL    HW129711   3.933   6.877   6.949
 9604SOL    HW229712   3.967   0.016   6.946
 9605SOL     OW29713   0.610   5.286   3.501
 9605SOL    HW129714   0.532   5.223   3.500
 9605SOL    HW229715   0.689   5.242   3.459
 9606SOL     OW29716   1.693   6.515   6.378
 9606SOL    HW129717   1.653   6.426   6.400
 9606SOL    HW229718   1.771   6.533   6.437
 9607SOL     OW29719   2.030   1.785   6.969
 9607SOL    HW129720   1.945   1.781   6.916
 9607SOL    HW229721   2.014   1.747   0.039
 9608SOL     OW29722   6.579   5.633   2.486
 9608SOL    HW129723   6.506   5.606   2.423
 9608SOL    HW229724   6.610   5.552   2.537
 9609SOL     OW29725   2.134   4.141   6.304
 9609SOL    HW129726   2.043   4.182   6.314
 9609SOL    HW229727   2.164   4.104   6.391
 9610SOL     OW29728   1.530   5.136   4.325
 9610SOL    HW129729   1.490   5.163   4.412
 9610SOL    HW229730   1.500   5.199   4.253
 9611SOL     OW29731   0.492   6.460   6.876
 9611SOL    HW129732   0.444   6.432   6.959
 9611SOL    HW229733   0.576   6.406   6.867
 9612SOL     OW29734   0.583   4.042   2.019
 9612SOL    HW129735   0.592   4.128   2.069
 9612SOL    HW229736   0.486   4.025   2.000
 9613SOL     OW29737   4.924   6.487   3.388
 9613SOL    HW129738   4.846   6.425   3.381
 9613SOL    HW229739   5.008   6.433   3.396
 9614SOL     OW29740   3.217   2.295   0.585
 9614SOL    HW129741   3.279   2.222   0.556
 9614SOL    HW229742   3.127   2.281   0.543
 9615SOL     OW29743   1.004   0.058   0.754
 9615SOL    HW129744   1.071   0.025   0.820
 9615SOL    HW229745   1.020   0.155   0.736
 9616SOL     OW29746   4.557   3.639   1.398
 9616SOL    HW129747   4.646   3.602   1.371
 9616SOL    HW229748   4.520   3.586   1.474
 9617SOL     OW29749   2.187   2.919   3.242
 9617SOL    HW129750   2.206   2.929   3.340
 9617SOL    HW229751   2.102   2.868   3.230
 9618SOL     OW29752   3.847   6.453   5.237
 9618SOL    HW129753   3.919   6.385   5.247
 9618SOL    HW229754   3.832   6.498   5.325
 9619SOL     OW29755   1.100   6.749   0.316
 9619SOL    HW129756   1.022   6.766   0.257
 9619SOL    HW229757   1.076   6.770   0.411
 9620SOL     OW29758   4.346   2.461   6.967
 9620SOL    HW129759   4.308   2.479   0.037
 9620SOL    HW229760   4.445   2.476   6.969
 9621SOL     OW29761   0.634   1.054   2.254
 9621SOL    HW129762   0.545   1.024   2.218
 9621SOL    HW229763   0.659   0.997   2.332
 9622SOL     OW29764   6.720   0.688   0.378
 9622SOL    HW129765   6.686   0.611   0.432
 9622SOL    HW229766   6.743   0.657   0.286
 9623SOL     OW29767   3.132   4.797   6.209
 9623SOL    HW129768   3.105   4.795   6.305
 9623SOL    HW229769   3.214   4.853   6.198
 9624SOL     OW29770   6.743   4.481   2.450
 9624SOL    HW129771   6.842   4.475   2.462
 9624SOL    HW229772   6.722   4.555   2.386
 9625SOL     OW29773   5.051   5.820   0.344
 9625SOL    HW129774   5.124   5.871   0.389
 9625SOL    HW229775   5.060   5.723   0.366
 9626SOL     OW29776   3.052   6.187   6.866
 9626SOL    HW129777   3.121   6.151   6.804
 9626SOL    HW229778   3.067   6.151   6.958
 9627SOL     OW29779   6.973   4.968   3.263
 9627SOL    HW129780   0.032   5.028   3.254
 9627SOL    HW229781   6.890   5.020   3.245
 9628SOL     OW29782   5.503   5.246   6.531
 9628SOL    HW129783   5.533   5.248   6.436
 9628SOL    HW229784   5.520   5.156   6.571
 9629SOL     OW29785   0.412   6.375   2.968
 9629SOL    HW129786   0.478   6.416   2.906
 9629SOL    HW229787   0.457   6.347   3.052
 9630SOL     OW29788   6.630   6.085   5.517
 9630SOL    HW129789   6.696   6.023   5.559
 9630SOL    HW229790   6.569   6.122   5.588
 9631SOL     OW29791   6.024   0.356   0.189
 9631SOL    HW129792   6.022   0.283   0.121
 9631SOL    HW229793   5.980   0.437   0.153
 9632SOL     OW29794   2.602   5.568   2.530
 9632SOL    HW129795   2.645   5.493   2.580
 9632SOL    HW229796   2.512   5.539   2.496
 9633SOL     OW29797   5.023   4.763   0.053
 9633SOL    HW129798   5.119   4.734   0.057
 9633SOL    HW229799   4.990   4.782   0.145
 9634SOL     OW29800   1.137   6.970   4.314
 9634SOL    HW129801   1.192   6.942   4.392
 9634SOL    HW229802   1.046   6.997   4.345
 9635SOL     OW29803   1.289   4.475   5.785
 9635SOL    HW129804   1.242   4.412   5.722
 9635SOL    HW229805   1.293   4.434   5.876
 9636SOL     OW29806   3.997   1.978   6.154
 9636SOL    HW129807   3.992   2.054   6.089
 9636SOL    HW229808   3.924   1.988   6.221
 9637SOL     OW29809   2.575   1.796   6.667
 9637SOL    HW129810   2.536   1.706   6.650
 9637SOL    HW229811   2.507   1.867   6.644
 9638SOL     OW29812   6.895   3.426   0.114
 9638SOL    HW129813   6.822   3.399   0.177
 9638SOL    HW229814   6.927   3.517   0.138
 9639SOL     OW29815   3.713   1.800   2.050
 9639SOL    HW129816   3.746   1.884   2.007
 9639SOL    HW229817   3.617   1.812   2.076
 9640SOL     OW29818   3.335   1.818   2.874
 9640SOL    HW129819   3.297   1.905   2.903
 9640SOL    HW229820   3.393   1.831   2.793
 9641SOL     OW29821   5.174   6.236   1.014
 9641SOL    HW129822   5.264   6.225   0.972
 9641SOL    HW229823   5.175   6.316   1.074
 9642SOL     OW29824   2.889   5.914   4.778
 9642SOL    HW129825   2.988   5.920   4.766
 9642SOL    HW229826   2.844   5.927   4.689
 9643SOL     OW29827   6.262   4.511   4.031
 9643SOL    HW129828   6.352   4.471   4.051
 9643SOL    HW229829   6.248   4.591   4.090
 9644SOL     OW29830   1.082   5.106   4.561
 9644SOL    HW129831   1.046   5.115   4.654
 9644SOL    HW229832   1.049   5.020   4.521
 9645SOL     OW29833   3.768   4.962   3.686
 9645SOL    HW129834   3.779   5.060   3.699
 9645SOL    HW229835   3.671   4.938   3.692
 9646SOL     OW29836   2.797   4.917   1.994
 9646SOL    HW129837   2.801   4.826   2.036
 9646SOL    HW229838   2.880   4.968   2.017
 9647SOL     OW29839   6.869   5.649   1.346
 9647SOL    HW129840   6.784   5.647   1.398
 9647SOL    HW229841   6.930   5.576   1.377
 9648SOL     OW29842   3.880   2.099   0.057
 9648SOL    HW129843   3.908   2.006   0.030
 9648SOL    HW229844   3.891   2.161   7.001
 9649SOL     OW29845   2.822   5.574   0.013
 9649SOL    HW129846   2.885   5.558   0.089
 9649SOL    HW229847   2.868   5.628   6.963
 9650SOL     OW29848   4.922   4.621   3.515
 9650SOL    HW129849   4.833   4.622   3.471
 9650SOL    HW229850   4.918   4.671   3.601
 9651SOL     OW29851   6.598   0.969   6.744
 9651SOL    HW129852   6.505   0.995   6.770
 9651SOL    HW229853   6.625   1.021   6.663
 9652SOL     OW29854   2.177   4.417   0.539
 9652SOL    HW129855   2.145   4.463   0.622
 9652SOL    HW229856   2.124   4.449   0.461
 9653SOL     OW29857   4.378   5.676   5.126
 9653SOL    HW129858   4.283   5.671   5.158
 9653SOL    HW229859   4.384   5.742   5.051
 9654SOL     OW29860   3.604   3.225   2.186
 9654SOL    HW129861   3.701   3.203   2.182
 9654SOL    HW229862   3.580   3.285   2.110
 9655SOL     OW29863   0.093   1.084   0.198
 9655SOL    HW129864   0.027   1.075   0.272
 9655SOL    HW229865   0.108   1.180   0.177
 9656SOL     OW29866   3.984   2.297   1.063
 9656SOL    HW129867   4.015   2.203   1.048
 9656SOL    HW229868   3.929   2.301   1.146
 9657SOL     OW29869   6.200   1.718   3.054
 9657SOL    HW129870   6.127   1.672   3.103
 9657SOL    HW229871   6.286   1.670   3.068
 9658SOL     OW29872   5.997   1.352   2.701
 9658SOL    HW129873   6.020   1.403   2.784
 9658SOL    HW229874   5.898   1.342   2.694
 9659SOL     OW29875   6.873   3.864   0.640
 9659SOL    HW129876   6.909   3.850   0.548
 9659SOL    HW229877   6.773   3.865   0.636
 9660SOL     OW29878   6.775   6.129   1.844
 9660SOL    HW129879   6.842   6.108   1.773
 9660SOL    HW229880   6.817   6.117   1.934
 9661SOL     OW29881   3.172   6.243   1.989
 9661SOL    HW129882   3.198   6.175   2.057
 9661SOL    HW229883   3.170   6.334   2.032
 9662SOL     OW29884   4.850   2.668   4.994
 9662SOL    HW129885   4.920   2.738   5.010
 9662SOL    HW229886   4.760   2.707   5.014
 9663SOL     OW29887   0.529   6.188   4.033
 9663SOL    HW129888   0.525   6.204   4.132
 9663SOL    HW229889   0.477   6.105   4.011
 9664SOL     OW29890   5.609   6.302   4.233
 9664SOL    HW129891   5.688   6.361   4.221
 9664SOL    HW229892   5.525   6.357   4.236
 9665SOL     OW29893   5.060   6.373   0.140
 9665SOL    HW129894   5.117   6.447   0.176
 9665SOL    HW229895   5.027   6.317   0.215
 9666SOL     OW29896   5.824   3.869   1.417
 9666SOL    HW129897   5.793   3.785   1.373
 9666SOL    HW229898   5.924   3.870   1.422
 9667SOL     OW29899   3.873   3.095   5.346
 9667SOL    HW129900   3.911   3.097   5.253
 9667SOL    HW229901   3.784   3.140   5.347
 9668SOL     OW29902   6.893   1.013   5.738
 9668SOL    HW129903   6.920   0.927   5.696
 9668SOL    HW229904   6.862   1.077   5.667
 9669SOL     OW29905   1.667   0.401   1.830
 9669SOL    HW129906   1.623   0.446   1.752
 9669SOL    HW229907   1.722   0.468   1.880
 9670SOL     OW29908   6.113   4.665   6.314
 9670SOL    HW129909   6.015   4.646   6.320
 9670SOL    HW229910   6.131   4.757   6.347
 9671SOL     OW29911   6.022   5.061   6.681
 9671SOL    HW129912   5.959   5.080   6.606
 9671SOL    HW229913   6.091   5.133   6.687
 9672SOL     OW29914   1.538   5.969   4.213
 9672SOL    HW129915   1.568   6.034   4.282
 9672SOL    HW229916   1.566   5.877   4.240
 9673SOL     OW29917   5.277   3.901   0.423
 9673SOL    HW129918   5.326   3.988   0.408
 9673SOL    HW229919   5.340   3.825   0.407
 9674SOL     OW29920   2.690   5.893   3.083
 9674SOL    HW129921   2.670   5.850   2.995
 9674SOL    HW229922   2.766   5.845   3.127
 9675SOL     OW29923   5.949   2.186   0.454
 9675SOL    HW129924   5.923   2.109   0.512
 9675SOL    HW229925   5.932   2.163   0.358
 9676SOL     OW29926   0.918   3.682   5.845
 9676SOL    HW129927   0.823   3.707   5.859
 9676SOL    HW229928   0.973   3.765   5.833
 9677SOL     OW29929   1.402   5.223   5.002
 9677SOL    HW129930   1.483   5.165   4.993
 9677SOL    HW229931   1.383   5.238   5.099
 9678SOL     OW29932   3.178   3.616   3.405
 9678SOL    HW129933   3.088   3.643   3.370
 9678SOL    HW229934   3.180   3.517   3.417
 9679SOL     OW29935   2.412   0.936   2.212
 9679SOL    HW129936   2.442   0.988   2.133
 9679SOL    HW229937   2.392   0.842   2.184
 9680SOL     OW29938   5.258   0.925   3.374
 9680SOL    HW129939   5.228   1.002   3.431
 9680SOL    HW229940   5.345   0.890   3.408
 9681SOL     OW29941   2.969   1.137   0.256
 9681SOL    HW129942   3.026   1.072   0.205
 9681SOL    HW229943   2.992   1.131   0.354
 9682SOL     OW29944   5.163   4.825   4.284
 9682SOL    HW129945   5.065   4.807   4.271
 9682SOL    HW229946   5.208   4.827   4.195
 9683SOL     OW29947   2.383   5.416   0.848
 9683SOL    HW129948   2.450   5.342   0.842
 9683SOL    HW229949   2.423   5.499   0.809
 9684SOL     OW29950   0.550   2.980   5.381
 9684SOL    HW129951   0.597   2.893   5.368
 9684SOL    HW229952   0.458   2.964   5.416
 9685SOL     OW29953   2.381   4.216   1.332
 9685SOL    HW129954   2.393   4.148   1.404
 9685SOL    HW229955   2.362   4.169   1.245
 9686SOL     OW29956   6.724   1.669   6.939
 9686SOL    HW129957   6.639   1.637   6.895
 9686SOL    HW229958   6.775   1.727   6.875
 9687SOL     OW29959   1.837   0.730   4.272
 9687SOL    HW129960   1.914   0.666   4.268
 9687SOL    HW229961   1.843   0.794   4.196
 9688SOL     OW29962   0.401   2.345   2.467
 9688SOL    HW129963   0.320   2.339   2.525
 9688SOL    HW229964   0.378   2.393   2.382
 9689SOL     OW29965   1.485   6.017   6.990
 9689SOL    HW129966   1.410   5.955   7.012
 9689SOL    HW229967   1.547   5.974   6.925
 9690SOL     OW29968   6.033   6.005   6.785
 9690SOL    HW129969   6.085   5.945   6.724
 9690SOL    HW229970   6.095   6.074   6.824
 9691SOL     OW29971   2.611   5.109   1.483
 9691SOL    HW129972   2.655   5.080   1.568
 9691SOL    HW229973   2.515   5.083   1.483
 9692SOL     OW29974   3.676   5.543   3.025
 9692SOL    HW129975   3.637   5.579   3.110
 9692SOL    HW229976   3.703   5.619   2.966
 9693SOL     OW29977   6.114   5.274   1.499
 9693SOL    HW129978   6.145   5.312   1.412
 9693SOL    HW229979   6.169   5.312   1.573
 9694SOL     OW29980   2.176   0.871   0.204
 9694SOL    HW129981   2.238   0.910   0.135
 9694SOL    HW229982   2.099   0.933   0.217
 9695SOL     OW29983   0.162   3.892   2.183
 9695SOL    HW129984   0.251   3.847   2.180
 9695SOL    HW229985   0.102   3.846   2.249
 9696SOL     OW29986   5.258   3.500   0.825
 9696SOL    HW129987   5.161   3.476   0.837
 9696SOL    HW229988   5.307   3.485   0.910
 9697SOL     OW29989   0.535   6.221   6.406
 9697SOL    HW129990   0.517   6.314   6.373
 9697SOL    HW229991   0.498   6.156   6.340
 9698SOL     OW29992   4.502   1.439   5.848
 9698SOL    HW129993   4.565   1.361   5.854
 9698SOL    HW229994   4.436   1.423   5.775
 9699SOL     OW29995   0.160   5.094   6.546
 9699SOL    HW129996   0.229   5.151   6.590
 9699SOL    HW229997   0.069   5.130   6.567
 9700SOL     OW29998   4.524   5.004   5.042
 9700SOL    HW129999   4.486   4.976   4.954
 9700SOL    HW230000   4.470   4.964   5.116
 9701SOL     OW30001   3.995   4.998   5.098
 9701SOL    HW130002   4.010   4.948   5.012
 9701SOL    HW230003   3.906   5.044   5.095
 9702SOL     OW30004   4.832   0.229   6.861
 9702SOL    HW130005   4.745   0.192   6.831
 9702SOL    HW230006   4.906   0.166   6.838
 9703SOL     OW30007   4.249   4.649   3.989
 9703SOL    HW130008   4.254   4.684   4.082
 9703SOL    HW230009   4.167   4.683   3.944
 9704SOL     OW30010   3.098   0.882   3.065
 9704SOL    HW130011   3.129   0.975   3.046
 9704SOL    HW230012   3.031   0.884   3.139
 9705SOL     OW30013   6.028   4.746   6.015
 9705SOL    HW130014   6.085   4.710   6.089
 9705SOL    HW230015   5.996   4.671   5.958
 9706SOL     OW30016   0.586   3.020   1.062
 9706SOL    HW130017   0.585   3.090   1.133
 9706SOL    HW230018   0.554   2.933   1.101
 9707SOL     OW30019   6.453   4.705   1.590
 9707SOL    HW130020   6.498   4.618   1.609
 9707SOL    HW230021   6.383   4.693   1.520
 9708SOL     OW30022   1.326   2.075   2.427
 9708SOL    HW130023   1.348   2.135   2.504
 9708SOL    HW230024   1.305   2.131   2.347
 9709SOL     OW30025   5.717   6.118   3.058
 9709SOL    HW130026   5.724   6.095   3.155
 9709SOL    HW230027   5.665   6.203   3.048
 9710SOL     OW30028   0.068   1.532   1.944
 9710SOL    HW130029   7.007   1.588   1.951
 9710SOL    HW230030   0.046   1.448   1.894
 9711SOL     OW30031   2.226   4.416   6.230
 9711SOL    HW130032   2.260   4.414   6.136
 9711SOL    HW230033   2.255   4.333   6.277
 9712SOL     OW30034   6.345   4.525   6.353
 9712SOL    HW130035   6.317   4.501   6.446
 9712SOL    HW230036   6.265   4.552   6.300
 9713SOL     OW30037   1.444   4.751   3.481
 9713SOL    HW130038   1.414   4.841   3.513
 9713SOL    HW230039   1.366   4.689   3.479
 9714SOL     OW30040   3.030   0.844   0.423
 9714SOL    HW130041   2.943   0.797   0.413
 9714SOL    HW230042   3.089   0.794   0.487
 9715SOL     OW30043   5.272   4.058   6.262
 9715SOL    HW130044   5.369   4.081   6.266
 9715SOL    HW230045   5.251   3.986   6.328
 9716SOL     OW30046   3.944   3.253   0.016
 9716SOL    HW130047   3.948   3.174   6.975
 9716SOL    HW230048   3.899   3.329   6.990
 9717SOL     OW30049   5.427   6.045   6.327
 9717SOL    HW130050   5.407   6.110   6.254
 9717SOL    HW230051   5.507   6.076   6.379
 9718SOL     OW30052   5.234   2.621   0.693
 9718SOL    HW130053   5.217   2.715   0.723
 9718SOL    HW230054   5.273   2.568   0.768
 9719SOL     OW30055   6.847   1.818   6.378
 9719SOL    HW130056   6.926   1.878   6.365
 9719SOL    HW230057   6.877   1.731   6.417
 9720SOL     OW30058   0.128   5.478   2.188
 9720SOL    HW130059   0.044   5.445   2.145
 9720SOL    HW230060   0.113   5.569   2.226
 9721SOL     OW30061   0.120   2.314   1.609
 9721SOL    HW130062   0.067   2.382   1.659
 9721SOL    HW230063   0.150   2.242   1.672
 9722SOL     OW30064   6.763   0.480   4.275
 9722SOL    HW130065   6.671   0.472   4.237
 9722SOL    HW230066   6.778   0.410   4.344
 9723SOL     OW30067   2.155   6.047   3.129
 9723SOL    HW130068   2.241   6.064   3.178
 9723SOL    HW230069   2.125   6.131   3.085
 9724SOL     OW30070   1.640   3.964   0.414
 9724SOL    HW130071   1.677   3.991   0.325
 9724SOL    HW230072   1.605   4.044   0.461
 9725SOL     OW30073   3.423   4.546   6.416
 9725SOL    HW130074   3.328   4.573   6.432
 9725SOL    HW230075   3.480   4.628   6.405
 9726SOL     OW30076   5.176   0.280   4.016
 9726SOL    HW130077   5.270   0.247   4.010
 9726SOL    HW230078   5.164   0.334   4.099
 9727SOL     OW30079   0.532   3.655   5.640
 9727SOL    HW130080   0.506   3.710   5.561
 9727SOL    HW230081   0.466   3.581   5.653
 9728SOL     OW30082   0.462   0.579   6.242
 9728SOL    HW130083   0.505   0.532   6.165
 9728SOL    HW230084   0.410   0.657   6.208
 9729SOL     OW30085   0.816   4.379   3.281
 9729SOL    HW130086   0.797   4.451   3.348
 9729SOL    HW230087   0.914   4.367   3.271
 9730SOL     OW30088   0.871   3.410   3.349
 9730SOL    HW130089   0.888   3.437   3.444
 9730SOL    HW230090   0.953   3.366   3.312
 9731SOL     OW30091   4.301   4.103   1.100
 9731SOL    HW130092   4.207   4.124   1.127
 9731SOL    HW230093   4.362   4.115   1.178
 9732SOL     OW30094   6.088   5.643   2.798
 9732SOL    HW130095   6.165   5.659   2.860
 9732SOL    HW230096   6.057   5.729   2.760
 9733SOL     OW30097   5.801   5.178   0.954
 9733SOL    HW130098   5.819   5.125   0.871
 9733SOL    HW230099   5.886   5.191   1.004
 9734SOL     OW30100   6.327   1.257   2.198
 9734SOL    HW130101   6.422   1.280   2.221
 9734SOL    HW230102   6.267   1.333   2.225
 9735SOL     OW30103   2.589   4.615   3.138
 9735SOL    HW130104   2.524   4.686   3.164
 9735SOL    HW230105   2.660   4.607   3.208
 9736SOL     OW30106   6.128   1.955   6.582
 9736SOL    HW130107   6.093   1.862   6.593
 9736SOL    HW230108   6.228   1.954   6.595
 9737SOL     OW30109   5.996   2.949   4.337
 9737SOL    HW130110   5.915   2.998   4.369
 9737SOL    HW230111   5.968   2.860   4.300
 9738SOL     OW30112   1.768   6.766   1.311
 9738SOL    HW130113   1.685   6.749   1.258
 9738SOL    HW230114   1.811   6.851   1.279
 9739SOL     OW30115   5.883   4.887   2.237
 9739SOL    HW130116   5.889   4.966   2.299
 9739SOL    HW230117   5.935   4.811   2.275
 9740SOL     OW30118   6.522   2.300   2.694
 9740SOL    HW130119   6.549   2.280   2.788
 9740SOL    HW230120   6.506   2.398   2.683
 9741SOL     OW30121   5.028   1.869   3.106
 9741SOL    HW130122   5.027   1.867   3.006
 9741SOL    HW230123   5.116   1.836   3.139
 9742SOL     OW30124   3.944   0.011   1.349
 9742SOL    HW130125   3.976   0.021   1.254
 9742SOL    HW230126   4.009   6.976   1.400
 9743SOL     OW30127   0.838   1.946   4.501
 9743SOL    HW130128   0.788   1.972   4.418
 9743SOL    HW230129   0.842   2.024   4.563
 9744SOL     OW30130   0.336   0.611   3.110
 9744SOL    HW130131   0.413   0.555   3.079
 9744SOL    HW230132   0.325   0.602   3.209
 9745SOL     OW30133   6.418   2.653   6.347
 9745SOL    HW130134   6.475   2.626   6.269
 9745SOL    HW230135   6.475   2.697   6.417
 9746SOL     OW30136   6.645   0.852   5.816
 9746SOL    HW130137   6.685   0.840   5.725
 9746SOL    HW230138   6.588   0.934   5.818
 9747SOL     OW30139   2.133   0.410   1.091
 9747SOL    HW130140   2.110   0.477   1.021
 9747SOL    HW230141   2.231   0.415   1.111
 9748SOL     OW30142   0.584   1.745   3.470
 9748SOL    HW130143   0.539   1.759   3.382
 9748SOL    HW230144   0.681   1.727   3.456
 9749SOL     OW30145   1.799   1.624   5.068
 9749SOL    HW130146   1.766   1.591   4.979
 9749SOL    HW230147   1.810   1.546   5.130
 9750SOL     OW30148   5.647   4.583   3.550
 9750SOL    HW130149   5.695   4.665   3.520
 9750SOL    HW230150   5.552   4.605   3.571
 9751SOL     OW30151   1.314   0.926   0.393
 9751SOL    HW130152   1.295   0.934   0.491
 9751SOL    HW230153   1.230   0.899   0.345
 9752SOL     OW30154   5.227   1.845   6.139
 9752SOL    HW130155   5.301   1.777   6.144
 9752SOL    HW230156   5.152   1.808   6.084
 9753SOL     OW30157   6.167   6.130   5.788
 9753SOL    HW130158   6.115   6.138   5.873
 9753SOL    HW230159   6.128   6.192   5.720
 9754SOL     OW30160   0.969   1.592   6.440
 9754SOL    HW130161   0.887   1.596   6.497
 9754SOL    HW230162   0.992   1.497   6.422
 9755SOL     OW30163   4.185   4.030   5.353
 9755SOL    HW130164   4.136   4.006   5.437
 9755SOL    HW230165   4.232   3.949   5.318
 9756SOL     OW30166   5.877   3.281   0.493
 9756SOL    HW130167   5.870   3.239   0.403
 9756SOL    HW230168   5.877   3.210   0.564
 9757SOL     OW30169   5.581   3.583   3.400
 9757SOL    HW130170   5.653   3.641   3.362
 9757SOL    HW230171   5.561   3.508   3.338
 9758SOL     OW30172   2.505   7.007   6.973
 9758SOL    HW130173   2.487   6.993   6.876
 9758SOL    HW230174   2.574   0.057   6.985
 9759SOL     OW30175   2.168   6.816   6.672
 9759SOL    HW130176   2.081   6.823   6.720
 9759SOL    HW230177   2.240   6.859   6.727
 9760SOL     OW30178   4.760   3.196   5.334
 9760SOL    HW130179   4.760   3.296   5.334
 9760SOL    HW230180   4.799   3.163   5.248
 9761SOL     OW30181   6.160   0.598   2.303
 9761SOL    HW130182   6.114   0.510   2.307
 9761SOL    HW230183   6.095   0.671   2.326
 9762SOL     OW30184   3.448   1.848   4.484
 9762SOL    HW130185   3.359   1.824   4.523
 9762SOL    HW230186   3.454   1.947   4.472
 9763SOL     OW30187   5.103   2.132   1.887
 9763SOL    HW130188   5.096   2.111   1.789
 9763SOL    HW230189   5.096   2.231   1.900
 9764SOL     OW30190   0.611   2.774   2.846
 9764SOL    HW130191   0.575   2.856   2.891
 9764SOL    HW230192   0.700   2.795   2.805
 9765SOL     OW30193   6.767   1.256   3.052
 9765SOL    HW130194   6.841   1.207   3.098
 9765SOL    HW230195   6.740   1.335   3.107
 9766SOL     OW30196   2.622   0.621   3.423
 9766SOL    HW130197   2.561   0.683   3.474
 9766SOL    HW230198   2.575   0.535   3.405
 9767SOL     OW30199   5.244   1.709   5.617
 9767SOL    HW130200   5.263   1.634   5.554
 9767SOL    HW230201   5.187   1.675   5.692
 9768SOL     OW30202   5.215   1.724   2.455
 9768SOL    HW130203   5.282   1.684   2.393
 9768SOL    HW230204   5.139   1.761   2.402
 9769SOL     OW30205   2.448   0.543   2.645
 9769SOL    HW130206   2.410   0.543   2.553
 9769SOL    HW230207   2.421   0.459   2.692
 9770SOL     OW30208   5.477   0.287   0.036
 9770SOL    HW130209   5.460   0.232   6.975
 9770SOL    HW230210   5.439   0.241   0.116
 9771SOL     OW30211   2.726   5.744   1.224
 9771SOL    HW130212   2.642   5.693   1.209
 9771SOL    HW230213   2.751   5.740   1.320
 9772SOL     OW30214   1.318   6.164   2.890
 9772SOL    HW130215   1.345   6.098   2.820
 9772SOL    HW230216   1.231   6.206   2.865
 9773SOL     OW30217   5.328   6.684   4.068
 9773SOL    HW130218   5.347   6.782   4.065
 9773SOL    HW230219   5.369   6.645   4.151
 9774SOL     OW30220   6.371   4.973   1.577
 9774SOL    HW130221   6.322   4.995   1.662
 9774SOL    HW230222   6.401   4.877   1.580
 9775SOL     OW30223   2.519   1.058   3.826
 9775SOL    HW130224   2.601   1.016   3.786
 9775SOL    HW230225   2.492   1.137   3.770
 9776SOL     OW30226   0.586   5.251   4.471
 9776SOL    HW130227   0.547   5.337   4.437
 9776SOL    HW230228   0.682   5.247   4.446
 9777SOL     OW30229   5.188   4.405   6.260
 9777SOL    HW130230   5.200   4.337   6.187
 9777SOL    HW230231   5.117   4.470   6.233
 9778SOL     OW30232   0.877   0.697   3.534
 9778SOL    HW130233   0.869   0.729   3.439
 9778SOL    HW230234   0.896   0.775   3.593
 9779SOL     OW30235   2.023   0.661   4.933
 9779SOL    HW130236   2.099   0.598   4.947
 9779SOL    HW230237   1.950   0.641   4.997
 9780SOL     OW30238   2.290   1.531   0.676
 9780SOL    HW130239   2.387   1.508   0.686
 9780SOL    HW230240   2.237   1.448   0.665
 9781SOL     OW30241   1.516   3.933   4.400
 9781SOL    HW130242   1.606   3.910   4.436
 9781SOL    HW230243   1.463   3.981   4.471
 9782SOL     OW30244   6.651   0.582   1.915
 9782SOL    HW130245   6.629   0.541   2.003
 9782SOL    HW230246   6.747   0.564   1.893
 9783SOL     OW30247   5.182   2.156   3.330
 9783SOL    HW130248   5.111   2.181   3.265
 9783SOL    HW230249   5.223   2.069   3.302
 9784SOL     OW30250   3.816   1.624   4.418
 9784SOL    HW130251   3.768   1.632   4.331
 9784SOL    HW230252   3.899   1.570   4.406
 9785SOL     OW30253   6.499   3.940   5.587
 9785SOL    HW130254   6.455   3.867   5.639
 9785SOL    HW230255   6.598   3.928   5.588
 9786SOL     OW30256   2.343   4.552   6.483
 9786SOL    HW130257   2.401   4.508   6.553
 9786SOL    HW230258   2.264   4.494   6.465
 9787SOL     OW30259   4.430   3.465   1.596
 9787SOL    HW130260   4.331   3.475   1.580
 9787SOL    HW230261   4.446   3.393   1.663
 9788SOL     OW30262   0.359   0.274   3.760
 9788SOL    HW130263   0.295   0.336   3.715
 9788SOL    HW230264   0.418   0.327   3.823
 9789SOL     OW30265   1.298   5.441   0.176
 9789SOL    HW130266   1.378   5.463   0.232
 9789SOL    HW230267   1.231   5.393   0.233
 9790SOL     OW30268   5.668   3.829   5.588
 9790SOL    HW130269   5.605   3.907   5.593
 9790SOL    HW230270   5.700   3.806   5.680
 9791SOL     OW30271   0.157   1.673   2.945
 9791SOL    HW130272   0.073   1.618   2.945
 9791SOL    HW230273   0.234   1.617   2.914
 9792SOL     OW30274   5.491   5.456   2.089
 9792SOL    HW130275   5.470   5.549   2.119
 9792SOL    HW230276   5.415   5.421   2.035
 9793SOL     OW30277   5.438   4.996   3.628
 9793SOL    HW130278   5.368   5.008   3.558
 9793SOL    HW230279   5.473   5.086   3.655
 9794SOL     OW30280   6.396   4.596   6.803
 9794SOL    HW130281   6.487   4.579   6.765
 9794SOL    HW230282   6.329   4.540   6.754
 9795SOL     OW30283   1.693   2.275   4.287
 9795SOL    HW130284   1.782   2.230   4.285
 9795SOL    HW230285   1.627   2.215   4.334
 9796SOL     OW30286   4.041   2.662   1.340
 9796SOL    HW130287   3.950   2.648   1.302
 9796SOL    HW230288   4.109   2.661   1.266
 9797SOL     OW30289   3.428   5.358   6.864
 9797SOL    HW130290   3.361   5.290   6.896
 9797SOL    HW230291   3.516   5.313   6.848
 9798SOL     OW30292   2.856   0.267   1.088
 9798SOL    HW130293   2.776   0.275   1.029
 9798SOL    HW230294   2.858   0.344   1.152
 9799SOL     OW30295   3.364   3.782   3.518
 9799SOL    HW130296   3.449   3.777   3.465
 9799SOL    HW230297   3.302   3.709   3.487
 9800SOL     OW30298   3.408   6.206   5.054
 9800SOL    HW130299   3.457   6.292   5.036
 9800SOL    HW230300   3.430   6.174   5.146
 9801SOL     OW30301   4.730   4.377   0.619
 9801SOL    HW130302   4.733   4.349   0.523
 9801SOL    HW230303   4.823   4.395   0.652
 9802SOL     OW30304   0.804   2.617   1.884
 9802SOL    HW130305   0.902   2.634   1.874
 9802SOL    HW230306   0.754   2.703   1.879
 9803SOL     OW30307   6.103   1.608   0.492
 9803SOL    HW130308   6.012   1.598   0.532
 9803SOL    HW230309   6.169   1.552   0.544
 9804SOL     OW30310   0.988   6.467   2.960
 9804SOL    HW130311   1.000   6.372   2.931
 9804SOL    HW230312   0.937   6.517   2.890
 9805SOL     OW30313   0.785   5.805   5.311
 9805SOL    HW130314   0.708   5.753   5.348
 9805SOL    HW230315   0.850   5.825   5.384
 9806SOL     OW30316   1.461   1.887   0.225
 9806SOL    HW130317   1.444   1.984   0.204
 9806SOL    HW230318   1.543   1.857   0.177
 9807SOL     OW30319   1.860   3.099   0.117
 9807SOL    HW130320   1.863   3.184   0.170
 9807SOL    HW230321   1.792   3.108   0.044
 9808SOL     OW30322   5.973   1.361   5.566
 9808SOL    HW130323   6.030   1.428   5.613
 9808SOL    HW230324   5.926   1.405   5.489
 9809SOL     OW30325   0.993   1.921   6.702
 9809SOL    HW130326   1.062   1.874   6.647
 9809SOL    HW230327   0.950   1.857   6.765
 9810SOL     OW30328   2.504   2.587   4.041
 9810SOL    HW130329   2.406   2.573   4.054
 9810SOL    HW230330   2.519   2.666   3.981
 9811SOL     OW30331   5.637   5.585   4.018
 9811SOL    HW130332   5.686   5.561   4.101
 9811SOL    HW230333   5.622   5.684   4.016
 9812SOL     OW30334   2.981   2.374   5.611
 9812SOL    HW130335   2.954   2.401   5.704
 9812SOL    HW230336   3.020   2.282   5.613
 9813SOL     OW30337   6.142   0.637   6.893
 9813SOL    HW130338   6.122   0.637   6.795
 9813SOL    HW230339   6.070   0.588   6.942
 9814SOL     OW30340   0.390   1.088   6.999
 9814SOL    HW130341   0.350   1.052   0.062
 9814SOL    HW230342   0.482   1.049   6.986
 9815SOL     OW30343   6.117   3.710   2.558
 9815SOL    HW130344   6.082   3.678   2.646
 9815SOL    HW230345   6.216   3.696   2.555
 9816SOL     OW30346   0.257   1.775   6.088
 9816SOL    HW130347   0.200   1.711   6.140
 9816SOL    HW230348   0.323   1.819   6.149
 9817SOL     OW30349   2.705   5.819   2.494
 9817SOL    HW130350   2.800   5.790   2.484
 9817SOL    HW230351   2.647   5.738   2.506
 9818SOL     OW30352   1.565   1.111   4.379
 9818SOL    HW130353   1.635   1.114   4.308
 9818SOL    HW230354   1.595   1.051   4.453
 9819SOL     OW30355   4.824   3.053   4.682
 9819SOL    HW130356   4.898   3.076   4.746
 9819SOL    HW230357   4.742   3.028   4.734
 9820SOL     OW30358   3.750   3.230   6.272
 9820SOL    HW130359   3.732   3.131   6.274
 9820SOL    HW230360   3.668   3.279   6.300
 9821SOL     OW30361   4.820   0.849   0.542
 9821SOL    HW130362   4.874   0.924   0.578
 9821SOL    HW230363   4.809   0.779   0.613
 9822SOL     OW30364   2.713   5.271   3.642
 9822SOL    HW130365   2.688   5.243   3.549
 9822SOL    HW230366   2.636   5.256   3.703
 9823SOL     OW30367   2.399   7.003   1.814
 9823SOL    HW130368   2.377   0.036   1.732
 9823SOL    HW230369   2.379   6.907   1.796
 9824SOL     OW30370   2.037   5.529   4.612
 9824SOL    HW130371   2.077   5.488   4.694
 9824SOL    HW230372   2.108   5.539   4.543
 9825SOL     OW30373   5.589   6.635   4.920
 9825SOL    HW130374   5.599   6.536   4.918
 9825SOL    HW230375   5.518   6.661   4.986
 9826SOL     OW30376   3.600   6.271   5.457
 9826SOL    HW130377   3.633   6.286   5.550
 9826SOL    HW230378   3.672   6.226   5.403
 9827SOL     OW30379   2.061   3.754   3.426
 9827SOL    HW130380   2.065   3.654   3.414
 9827SOL    HW230381   2.082   3.799   3.339
 9828SOL     OW30382   3.095   2.051   5.154
 9828SOL    HW130383   3.020   2.089   5.208
 9828SOL    HW230384   3.142   2.124   5.104
 9829SOL     OW30385   4.280   5.692   6.200
 9829SOL    HW130386   4.226   5.645   6.270
 9829SOL    HW230387   4.239   5.780   6.180
 9830SOL     OW30388   4.780   1.975   1.646
 9830SOL    HW130389   4.812   1.980   1.551
 9830SOL    HW230390   4.688   1.937   1.647
 9831SOL     OW30391   1.024   4.903   2.349
 9831SOL    HW130392   0.988   4.958   2.274
 9831SOL    HW230393   0.958   4.902   2.425
 9832SOL     OW30394   4.522   5.617   2.238
 9832SOL    HW130395   4.484   5.575   2.320
 9832SOL    HW230396   4.563   5.546   2.180
 9833SOL     OW30397   3.334   3.264   3.269
 9833SOL    HW130398   3.358   3.167   3.264
 9833SOL    HW230399   3.235   3.275   3.260
 9834SOL     OW30400   2.060   4.677   5.405
 9834SOL    HW130401   2.045   4.676   5.504
 9834SOL    HW230402   1.972   4.685   5.358
 9835SOL     OW30403   3.721   3.191   4.304
 9835SOL    HW130404   3.640   3.243   4.277
 9835SOL    HW230405   3.749   3.218   4.396
 9836SOL     OW30406   0.776   4.208   4.162
 9836SOL    HW130407   0.700   4.211   4.096
 9836SOL    HW230408   0.744   4.169   4.248
 9837SOL     OW30409   5.359   0.719   2.356
 9837SOL    HW130410   5.377   0.740   2.260
 9837SOL    HW230411   5.271   0.672   2.364
 9838SOL     OW30412   1.880   6.463   0.770
 9838SOL    HW130413   1.925   6.458   0.859
 9838SOL    HW230414   1.802   6.401   0.768
 9839SOL     OW30415   4.691   6.548   2.921
 9839SOL    HW130416   4.654   6.456   2.929
 9839SOL    HW230417   4.772   6.557   2.979
 9840SOL     OW30418   4.794   1.778   0.465
 9840SOL    HW130419   4.730   1.774   0.541
 9840SOL    HW230420   4.850   1.860   0.473
 9841SOL     OW30421   1.661   4.618   3.640
 9841SOL    HW130422   1.729   4.689   3.618
 9841SOL    HW230423   1.573   4.643   3.599
 9842SOL     OW30424   3.222   3.154   0.752
 9842SOL    HW130425   3.182   3.064   0.736
 9842SOL    HW230426   3.213   3.177   0.850
 9843SOL     OW30427   0.021   6.938   1.822
 9843SOL    HW130428   0.088   7.010   1.844
 9843SOL    HW230429   6.970   6.976   1.765
 9844SOL     OW30430   5.946   1.197   4.335
 9844SOL    HW130431   6.033   1.228   4.298
 9844SOL    HW230432   5.933   1.100   4.313
 9845SOL     OW30433   1.572   2.423   2.559
 9845SOL    HW130434   1.627   2.494   2.515
 9845SOL    HW230435   1.476   2.435   2.535
 9846SOL     OW30436   4.400   1.685   1.091
 9846SOL    HW130437   4.490   1.728   1.097
 9846SOL    HW230438   4.345   1.732   1.022
 9847SOL     OW30439   3.896   3.247   2.504
 9847SOL    HW130440   3.822   3.304   2.467
 9847SOL    HW230441   3.978   3.303   2.516
 9848SOL     OW30442   4.032   4.787   6.160
 9848SOL    HW130443   4.079   4.783   6.072
 9848SOL    HW230444   3.950   4.729   6.157
 9849SOL     OW30445   0.907   6.976   6.458
 9849SOL    HW130446   0.826   6.993   6.514
 9849SOL    HW230447   0.888   6.901   6.395
 9850SOL     OW30448   0.094   0.757   3.664
 9850SOL    HW130449   0.089   0.854   3.690
 9850SOL    HW230450   0.080   0.701   3.745
 9851SOL     OW30451   2.253   6.521   4.489
 9851SOL    HW130452   2.288   6.430   4.470
 9851SOL    HW230453   2.215   6.524   4.582
 9852SOL     OW30454   1.604   1.832   5.407
 9852SOL    HW130455   1.666   1.910   5.412
 9852SOL    HW230456   1.631   1.773   5.331
 9853SOL     OW30457   6.276   3.372   5.353
 9853SOL    HW130458   6.329   3.413   5.428
 9853SOL    HW230459   6.179   3.393   5.365
 9854SOL     OW30460   0.577   5.068   4.698
 9854SOL    HW130461   0.650   5.077   4.765
 9854SOL    HW230462   0.577   5.147   4.636
 9855SOL     OW30463   1.436   3.502   0.868
 9855SOL    HW130464   1.431   3.446   0.785
 9855SOL    HW230465   1.525   3.488   0.912
 9856SOL     OW30466   5.516   4.634   4.168
 9856SOL    HW130467   5.526   4.681   4.256
 9856SOL    HW230468   5.568   4.548   4.170
 9857SOL     OW30469   5.632   2.906   2.802
 9857SOL    HW130470   5.607   2.998   2.772
 9857SOL    HW230471   5.615   2.841   2.727
 9858SOL     OW30472   0.653   6.756   1.518
 9858SOL    HW130473   0.722   6.774   1.447
 9858SOL    HW230474   0.694   6.773   1.608
 9859SOL     OW30475   6.579   4.679   4.283
 9859SOL    HW130476   6.574   4.666   4.184
 9859SOL    HW230477   6.530   4.606   4.330
 9860SOL     OW30478   1.575   2.339   4.794
 9860SOL    HW130479   1.509   2.266   4.813
 9860SOL    HW230480   1.666   2.310   4.824
 9861SOL     OW30481   2.831   0.476   3.553
 9861SOL    HW130482   2.773   0.551   3.520
 9861SOL    HW230483   2.879   0.435   3.476
 9862SOL     OW30484   2.543   3.430   0.909
 9862SOL    HW130485   2.596   3.513   0.893
 9862SOL    HW230486   2.588   3.352   0.865
 9863SOL     OW30487   3.222   5.616   1.106
 9863SOL    HW130488   3.232   5.574   1.197
 9863SOL    HW230489   3.137   5.583   1.064
 9864SOL     OW30490   3.387   0.593   5.322
 9864SOL    HW130491   3.354   0.597   5.228
 9864SOL    HW230492   3.334   0.656   5.379
 9865SOL     OW30493   0.873   6.497   4.774
 9865SOL    HW130494   0.825   6.413   4.751
 9865SOL    HW230495   0.968   6.492   4.740
 9866SOL     OW30496   6.000   4.214   4.611
 9866SOL    HW130497   6.055   4.288   4.572
 9866SOL    HW230498   5.905   4.246   4.622
 9867SOL     OW30499   6.258   2.522   2.511
 9867SOL    HW130500   6.290   2.427   2.512
 9867SOL    HW230501   6.236   2.550   2.604
 9868SOL     OW30502   0.409   3.449   4.576
 9868SOL    HW130503   0.336   3.381   4.583
 9868SOL    HW230504   0.484   3.423   4.639
 9869SOL     OW30505   0.668   2.917   0.812
 9869SOL    HW130506   0.643   2.926   0.908
 9869SOL    HW230507   0.764   2.889   0.804
 9870SOL     OW30508   4.037   0.525   2.900
 9870SOL    HW130509   4.073   0.532   2.993
 9870SOL    HW230510   3.983   0.606   2.879
 9871SOL     OW30511   6.736   3.104   5.514
 9871SOL    HW130512   6.681   3.088   5.595
 9871SOL    HW230513   6.741   3.203   5.496
 9872SOL     OW30514   2.769   5.138   4.961
 9872SOL    HW130515   2.697   5.083   5.003
 9872SOL    HW230516   2.798   5.096   4.875
 9873SOL     OW30517   2.425   2.400   6.115
 9873SOL    HW130518   2.461   2.309   6.095
 9873SOL    HW230519   2.439   2.459   6.035
 9874SOL     OW30520   0.214   3.284   5.504
 9874SOL    HW130521   0.132   3.280   5.447
 9874SOL    HW230522   0.215   3.206   5.567
 9875SOL     OW30523   6.903   5.860   2.677
 9875SOL    HW130524   6.989   5.818   2.704
 9875SOL    HW230525   6.922   5.940   2.619
 9876SOL     OW30526   5.249   0.931   3.730
 9876SOL    HW130527   5.173   0.915   3.793
 9876SOL    HW230528   5.259   1.029   3.714
 9877SOL     OW30529   6.796   4.569   4.440
 9877SOL    HW130530   6.768   4.566   4.536
 9877SOL    HW230531   6.721   4.606   4.384
 9878SOL     OW30532   2.385   3.604   6.076
 9878SOL    HW130533   2.332   3.643   6.151
 9878SOL    HW230534   2.333   3.610   5.991
 9879SOL     OW30535   6.945   4.643   5.197
 9879SOL    HW130536   6.906   4.551   5.204
 9879SOL    HW230537   6.957   4.680   5.289
 9880SOL     OW30538   2.225   0.183   0.730
 9880SOL    HW130539   2.188   0.226   0.648
 9880SOL    HW230540   2.299   0.121   0.705
 9881SOL     OW30541   6.640   1.390   4.455
 9881SOL    HW130542   6.696   1.308   4.441
 9881SOL    HW230543   6.645   1.417   4.551
 9882SOL     OW30544   3.484   3.688   5.222
 9882SOL    HW130545   3.508   3.680   5.318
 9882SOL    HW230546   3.438   3.605   5.191
 9883SOL     OW30547   1.558   5.747   1.708
 9883SOL    HW130548   1.656   5.729   1.696
 9883SOL    HW230549   1.513   5.665   1.742
 9884SOL     OW30550   3.603   2.315   0.633
 9884SOL    HW130551   3.531   2.267   0.583
 9884SOL    HW230552   3.620   2.269   0.720
 9885SOL     OW30553   0.660   3.049   4.047
 9885SOL    HW130554   0.684   3.145   4.040
 9885SOL    HW230555   0.580   3.038   4.106
 9886SOL     OW30556   6.477   6.567   1.641
 9886SOL    HW130557   6.489   6.494   1.574
 9886SOL    HW230558   6.381   6.594   1.644
 9887SOL     OW30559   3.412   0.251   0.511
 9887SOL    HW130560   3.350   0.317   0.469
 9887SOL    HW230561   3.360   0.190   0.571
 9888SOL     OW30562   5.714   6.071   3.321
 9888SOL    HW130563   5.686   6.152   3.373
 9888SOL    HW230564   5.680   5.989   3.366
 9889SOL     OW30565   1.358   5.416   2.623
 9889SOL    HW130566   1.341   5.492   2.560
 9889SOL    HW230567   1.340   5.445   2.717
 9890SOL     OW30568   6.550   2.987   0.927
 9890SOL    HW130569   6.538   2.909   0.865
 9890SOL    HW230570   6.514   3.069   0.885
 9891SOL     OW30571   5.572   4.732   1.564
 9891SOL    HW130572   5.550   4.827   1.584
 9891SOL    HW230573   5.583   4.720   1.465
 9892SOL     OW30574   2.509   5.189   3.859
 9892SOL    HW130575   2.466   5.112   3.813
 9892SOL    HW230576   2.498   5.180   3.958
 9893SOL     OW30577   6.512   6.544   2.740
 9893SOL    HW130578   6.466   6.631   2.756
 9893SOL    HW230579   6.544   6.540   2.645
 9894SOL     OW30580   2.938   1.220   6.437
 9894SOL    HW130581   2.884   1.304   6.432
 9894SOL    HW230582   2.892   1.148   6.386
 9895SOL     OW30583   6.415   2.136   5.674
 9895SOL    HW130584   6.340   2.086   5.717
 9895SOL    HW230585   6.436   2.217   5.728
 9896SOL     OW30586   4.968   2.311   0.576
 9896SOL    HW130587   4.937   2.400   0.609
 9896SOL    HW230588   5.053   2.285   0.623
 9897SOL     OW30589   5.069   1.163   2.231
 9897SOL    HW130590   5.123   1.237   2.190
 9897SOL    HW230591   5.126   1.115   2.298
 9898SOL     OW30592   0.778   5.519   5.014
 9898SOL    HW130593   0.773   5.618   4.997
 9898SOL    HW230594   0.837   5.477   4.946
 9899SOL     OW30595   6.252   4.527   2.391
 9899SOL    HW130596   6.335   4.488   2.432
 9899SOL    HW230597   6.270   4.620   2.360
 9900SOL     OW30598   2.105   1.856   2.769
 9900SOL    HW130599   2.028   1.792   2.762
 9900SOL    HW230600   2.113   1.888   2.864
 9901SOL     OW30601   1.527   2.643   0.329
 9901SOL    HW130602   1.515   2.617   0.233
 9901SOL    HW230603   1.519   2.562   0.387
 9902SOL     OW30604   3.322   2.986   1.232
 9902SOL    HW130605   3.379   3.068   1.231
 9902SOL    HW230606   3.375   2.908   1.202
 9903SOL     OW30607   4.293   0.475   2.449
 9903SOL    HW130608   4.253   0.390   2.483
 9903SOL    HW230609   4.355   0.512   2.519
 9904SOL     OW30610   6.869   3.605   6.702
 9904SOL    HW130611   6.797   3.566   6.759
 9904SOL    HW230612   6.954   3.611   6.755
 9905SOL     OW30613   2.326   6.477   0.372
 9905SOL    HW130614   2.319   6.439   0.280
 9905SOL    HW230615   2.420   6.508   0.388
 9906SOL     OW30616   1.609   3.206   0.372
 9906SOL    HW130617   1.670   3.279   0.342
 9906SOL    HW230618   1.560   3.169   0.294
 9907SOL     OW30619   2.621   0.033   3.463
 9907SOL    HW130620   2.554   0.052   3.535
 9907SOL    HW230621   2.606   6.963   3.426
 9908SOL     OW30622   0.687   3.426   5.678
 9908SOL    HW130623   0.708   3.415   5.581
 9908SOL    HW230624   0.651   3.517   5.695
 9909SOL     OW30625   3.279   0.390   3.089
 9909SOL    HW130626   3.196   0.447   3.089
 9909SOL    HW230627   3.354   0.441   3.129
 9910SOL     OW30628   0.472   4.946   1.986
 9910SOL    HW130629   0.376   4.969   2.000
 9910SOL    HW230630   0.517   4.936   2.074
 9911SOL     OW30631   4.691   5.369   3.243
 9911SOL    HW130632   4.636   5.327   3.170
 9911SOL    HW230633   4.763   5.305   3.271
 9912SOL     OW30634   4.373   0.911   2.288
 9912SOL    HW130635   4.424   0.876   2.367
 9912SOL    HW230636   4.392   0.853   2.208
 9913SOL     OW30637   6.365   3.075   2.185
 9913SOL    HW130638   6.297   3.139   2.221
 9913SOL    HW230639   6.322   2.985   2.172
 9914SOL     OW30640   1.023   0.645   5.969
 9914SOL    HW130641   0.982   0.676   6.055
 9914SOL    HW230642   0.986   0.555   5.946
 9915SOL     OW30643   4.894   3.366   4.151
 9915SOL    HW130644   4.985   3.336   4.177
 9915SOL    HW230645   4.901   3.434   4.077
 9916SOL     OW30646   2.949   2.235   3.829
 9916SOL    HW130647   2.917   2.184   3.748
 9916SOL    HW230648   2.876   2.294   3.861
 9917SOL     OW30649   3.098   3.066   4.190
 9917SOL    HW130650   3.195   3.046   4.203
 9917SOL    HW230651   3.043   2.985   4.210
 9918SOL     OW30652   1.212   1.544   0.571
 9918SOL    HW130653   1.298   1.540   0.622
 9918SOL    HW230654   1.138   1.507   0.627
 9919SOL     OW30655   2.278   5.279   2.273
 9919SOL    HW130656   2.212   5.208   2.296
 9919SOL    HW230657   2.347   5.242   2.210
 9920SOL     OW30658   3.316   1.044   3.315
 9920SOL    HW130659   3.375   1.116   3.351
 9920SOL    HW230660   3.274   1.074   3.229
 9921SOL     OW30661   5.845   5.989   4.276
 9921SOL    HW130662   5.824   5.972   4.180
 9921SOL    HW230663   5.760   6.002   4.327
 9922SOL     OW30664   4.512   4.263   0.731
 9922SOL    HW130665   4.504   4.189   0.665
 9922SOL    HW230666   4.588   4.323   0.705
 9923SOL     OW30667   6.837   3.141   0.584
 9923SOL    HW130668   6.775   3.211   0.550
 9923SOL    HW230669   6.932   3.172   0.574
 9924SOL     OW30670   5.462   2.125   2.469
 9924SOL    HW130671   5.557   2.156   2.469
 9924SOL    HW230672   5.447   2.068   2.549
 9925SOL     OW30673   2.126   4.001   5.263
 9925SOL    HW130674   2.192   3.994   5.188
 9925SOL    HW230675   2.089   4.094   5.266
 9926SOL     OW30676   3.290   2.318   1.431
 9926SOL    HW130677   3.320   2.335   1.525
 9926SOL    HW230678   3.335   2.236   1.396
 9927SOL     OW30679   0.731   2.416   1.341
 9927SOL    HW130680   0.665   2.414   1.415
 9927SOL    HW230681   0.755   2.511   1.320
 9928SOL     OW30682   6.360   4.705   2.183
 9928SOL    HW130683   6.388   4.653   2.103
 9928SOL    HW230684   6.274   4.752   2.164
 9929SOL     OW30685   2.702   4.258   5.341
 9929SOL    HW130686   2.664   4.165   5.339
 9929SOL    HW230687   2.632   4.324   5.315
 9930SOL     OW30688   6.878   0.134   5.766
 9930SOL    HW130689   6.878   0.069   5.690
 9930SOL    HW230690   6.919   0.220   5.736
 9931SOL     OW30691   0.422   5.436   4.880
 9931SOL    HW130692   0.441   5.500   4.805
 9931SOL    HW230693   0.351   5.372   4.852
 9932SOL     OW30694   2.103   2.170   0.482
 9932SOL    HW130695   2.022   2.205   0.436
 9932SOL    HW230696   2.076   2.102   0.550
 9933SOL     OW30697   1.922   0.994   4.129
 9933SOL    HW130698   1.930   1.057   4.051
 9933SOL    HW230699   1.994   0.924   4.121
 9934SOL     OW30700   5.977   1.961   0.603
 9934SOL    HW130701   5.904   1.912   0.555
 9934SOL    HW230702   6.060   1.904   0.604
 9935SOL     OW30703   2.682   1.683   0.604
 9935SOL    HW130704   2.772   1.673   0.562
 9935SOL    HW230705   2.629   1.750   0.552
 9936SOL     OW30706   5.776   4.878   5.555
 9936SOL    HW130707   5.781   4.837   5.646
 9936SOL    HW230708   5.770   4.806   5.486
 9937SOL     OW30709   1.447   0.799   2.945
 9937SOL    HW130710   1.527   0.758   2.988
 9937SOL    HW230711   1.465   0.895   2.925
 9938SOL     OW30712   5.610   0.460   3.668
 9938SOL    HW130713   5.536   0.522   3.696
 9938SOL    HW230714   5.678   0.510   3.615
 9939SOL     OW30715   2.060   2.682   0.937
 9939SOL    HW130716   2.127   2.627   0.887
 9939SOL    HW230717   1.980   2.626   0.958
 9940SOL     OW30718   0.170   0.449   3.652
 9940SOL    HW130719   0.145   0.544   3.672
 9940SOL    HW230720   0.088   0.398   3.624
 9941SOL     OW30721   3.211   5.409   6.142
 9941SOL    HW130722   3.288   5.348   6.123
 9941SOL    HW230723   3.231   5.463   6.224
 9942SOL     OW30724   4.519   4.786   2.645
 9942SOL    HW130725   4.562   4.844   2.714
 9942SOL    HW230726   4.528   4.690   2.671
 9943SOL     OW30727   0.397   4.516   5.942
 9943SOL    HW130728   0.488   4.532   5.981
 9943SOL    HW230729   0.327   4.557   6.001
 9944SOL     OW30730   0.090   5.848   6.125
 9944SOL    HW130731   0.073   5.787   6.202
 9944SOL    HW230732   0.027   5.826   6.050
 9945SOL     OW30733   5.524   3.798   6.712
 9945SOL    HW130734   5.511   3.720   6.650
 9945SOL    HW230735   5.436   3.845   6.725
 9946SOL     OW30736   6.258   0.355   3.554
 9946SOL    HW130737   6.217   0.370   3.465
 9946SOL    HW230738   6.229   0.266   3.590
 9947SOL     OW30739   1.687   1.784   4.167
 9947SOL    HW130740   1.620   1.728   4.117
 9947SOL    HW230741   1.684   1.877   4.133
 9948SOL     OW30742   6.776   5.739   5.362
 9948SOL    HW130743   6.796   5.835   5.383
 9948SOL    HW230744   6.844   5.704   5.297
 9949SOL     OW30745   0.105   4.915   3.997
 9949SOL    HW130746   0.062   4.870   4.075
 9949SOL    HW230747   0.113   5.013   4.016
 9950SOL     OW30748   6.589   5.178   5.953
 9950SOL    HW130749   6.542   5.091   5.946
 9950SOL    HW230750   6.677   5.165   6.000
 9951SOL     OW30751   1.548   2.144   2.637
 9951SOL    HW130752   1.555   2.235   2.595
 9951SOL    HW230753   1.630   2.125   2.691
 9952SOL     OW30754   1.400   3.685   1.397
 9952SOL    HW130755   1.470   3.742   1.439
 9952SOL    HW230756   1.321   3.677   1.458
 9953SOL     OW30757   5.639   2.150   3.232
 9953SOL    HW130758   5.729   2.174   3.196
 9953SOL    HW230759   5.617   2.209   3.309
 9954SOL     OW30760   1.636   1.069   5.046
 9954SOL    HW130761   1.565   0.999   5.052
 9954SOL    HW230762   1.713   1.034   4.993
 9955SOL     OW30763   4.805   3.647   6.859
 9955SOL    HW130764   4.853   3.709   6.797
 9955SOL    HW230765   4.847   3.556   6.854
 9956SOL     OW30766   0.112   4.128   2.375
 9956SOL    HW130767   0.109   4.049   2.436
 9956SOL    HW230768   0.194   4.181   2.393
 9957SOL     OW30769   5.366   6.900   1.302
 9957SOL    HW130770   5.312   6.828   1.346
 9957SOL    HW230771   5.341   6.989   1.342
 9958SOL     OW30772   3.090   5.849   5.802
 9958SOL    HW130773   3.041   5.929   5.836
 9958SOL    HW230774   3.037   5.767   5.824
 9959SOL     OW30775   4.241   3.168   1.767
 9959SOL    HW130776   4.214   3.173   1.671
 9959SOL    HW230777   4.338   3.145   1.774
 9960SOL     OW30778   0.230   6.499   1.359
 9960SOL    HW130779   0.249   6.459   1.449
 9960SOL    HW230780   0.311   6.493   1.301
 9961SOL     OW30781   2.232   4.217   2.699
 9961SOL    HW130782   2.170   4.139   2.707
 9961SOL    HW230783   2.275   4.235   2.787
 9962SOL     OW30784   3.671   0.888   1.964
 9962SOL    HW130785   3.770   0.896   1.954
 9962SOL    HW230786   3.641   0.945   2.040
 9963SOL     OW30787   2.508   3.448   6.774
 9963SOL    HW130788   2.434   3.511   6.793
 9963SOL    HW230789   2.572   3.489   6.709
 9964SOL     OW30790   3.346   4.975   5.617
 9964SOL    HW130791   3.299   4.989   5.704
 9964SOL    HW230792   3.442   4.954   5.633
 9965SOL     OW30793   3.403   5.548   4.614
 9965SOL    HW130794   3.439   5.605   4.688
 9965SOL    HW230795   3.310   5.518   4.637
 9966SOL     OW30796   2.693   5.386   2.250
 9966SOL    HW130797   2.632   5.462   2.272
 9966SOL    HW230798   2.765   5.380   2.319
 9967SOL     OW30799   6.265   5.292   3.070
 9967SOL    HW130800   6.298   5.354   3.142
 9967SOL    HW230801   6.309   5.316   2.983
 9968SOL     OW30802   3.932   5.461   0.057
 9968SOL    HW130803   3.833   5.448   0.063
 9968SOL    HW230804   3.957   5.477   6.983
 9969SOL     OW30805   1.530   3.086   4.542
 9969SOL    HW130806   1.569   3.141   4.615
 9969SOL    HW230807   1.511   3.144   4.463
 9970SOL     OW30808   6.363   5.312   1.215
 9970SOL    HW130809   6.349   5.234   1.155
 9970SOL    HW230810   6.385   5.279   1.307
 9971SOL     OW30811   2.291   2.434   1.247
 9971SOL    HW130812   2.335   2.520   1.272
 9971SOL    HW230813   2.193   2.441   1.265
 9972SOL     OW30814   2.731   3.948   0.939
 9972SOL    HW130815   2.776   3.953   1.028
 9972SOL    HW230816   2.637   3.915   0.950
 9973SOL     OW30817   4.241   2.317   4.305
 9973SOL    HW130818   4.287   2.381   4.366
 9973SOL    HW230819   4.181   2.257   4.358
 9974SOL     OW30820   0.543   2.582   2.676
 9974SOL    HW130821   0.453   2.539   2.685
 9974SOL    HW230822   0.556   2.647   2.751
 9975SOL     OW30823   0.390   5.432   6.283
 9975SOL    HW130824   0.305   5.465   6.243
 9975SOL    HW230825   0.449   5.393   6.212
 9976SOL     OW30826   0.974   5.081   5.323
 9976SOL    HW130827   0.927   5.024   5.390
 9976SOL    HW230828   0.939   5.175   5.329
 9977SOL     OW30829   5.370   4.572   5.768
 9977SOL    HW130830   5.291   4.621   5.805
 9977SOL    HW230831   5.338   4.498   5.709
 9978SOL     OW30832   6.913   1.659   5.067
 9978SOL    HW130833   6.874   1.750   5.082
 9978SOL    HW230834   6.884   1.598   5.141
 9979SOL     OW30835   6.590   4.076   6.627
 9979SOL    HW130836   6.602   4.081   6.528
 9979SOL    HW230837   6.499   4.039   6.648
 9980SOL     OW30838   1.782   0.223   0.630
 9980SOL    HW130839   1.842   0.157   0.586
 9980SOL    HW230840   1.823   0.255   0.715
 9981SOL     OW30841   2.575   1.991   0.272
 9981SOL    HW130842   2.671   2.000   0.243
 9981SOL    HW230843   2.540   2.081   0.297
 9982SOL     OW30844   1.044   1.308   4.281
 9982SOL    HW130845   1.131   1.293   4.328
 9982SOL    HW230846   1.016   1.224   4.234
 9983SOL     OW30847   0.257   1.149   1.805
 9983SOL    HW130848   0.258   1.178   1.900
 9983SOL    HW230849   0.322   1.075   1.792
 9984SOL     OW30850   0.883   6.134   0.036
 9984SOL    HW130851   0.850   6.228   0.026
 9984SOL    HW230852   0.927   6.124   0.125
 9985SOL     OW30853   2.790   6.163   1.245
 9985SOL    HW130854   2.837   6.115   1.319
 9985SOL    HW230855   2.691   6.156   1.259
 9986SOL     OW30856   5.563   5.030   1.068
 9986SOL    HW130857   5.588   4.947   1.019
 9986SOL    HW230858   5.606   5.109   1.023
 9987SOL     OW30859   6.376   2.719   2.408
 9987SOL    HW130860   6.335   2.647   2.465
 9987SOL    HW230861   6.464   2.747   2.446
 9988SOL     OW30862   6.794   5.269   4.463
 9988SOL    HW130863   6.780   5.223   4.551
 9988SOL    HW230864   6.820   5.202   4.394
 9989SOL     OW30865   6.136   4.289   2.411
 9989SOL    HW130866   6.171   4.383   2.416
 9989SOL    HW230867   6.211   4.225   2.429
 9990SOL     OW30868   2.519   0.105   3.156
 9990SOL    HW130869   2.567   0.153   3.082
 9990SOL    HW230870   2.585   0.057   3.213
 9991SOL     OW30871   2.152   3.500   3.693
 9991SOL    HW130872   2.171   3.446   3.775
 9991SOL    HW230873   2.196   3.590   3.702
 9992SOL     OW30874   3.568   3.832   0.869
 9992SOL    HW130875   3.542   3.763   0.801
 9992SOL    HW230876   3.514   3.819   0.952
 9993SOL     OW30877   3.849   6.907   3.639
 9993SOL    HW130878   3.934   6.944   3.600
 9993SOL    HW230879   3.832   6.816   3.603
 9994SOL     OW30880   6.909   4.118   2.245
 9994SOL    HW130881   6.995   4.135   2.293
 9994SOL    HW230882   6.872   4.205   2.211
 9995SOL     OW30883   3.333   1.164   3.597
 9995SOL    HW130884   3.382   1.237   3.548
 9995SOL    HW230885   3.317   1.193   3.691
 9996SOL     OW30886   2.610   3.612   1.698
 9996SOL    HW130887   2.568   3.538   1.750
 9996SOL    HW230888   2.706   3.591   1.681
 9997SOL     OW30889   5.363   1.120   2.049
 9997SOL    HW130890   5.338   1.212   2.079
 9997SOL    HW230891   5.460   1.104   2.069
 9998SOL     OW30892   5.753   3.790   2.054
 9998SOL    HW130893   5.659   3.790   2.088
 9998SOL    HW230894   5.769   3.707   2.000
 9999SOL     OW30895   0.191   5.838   5.191
 9999SOL    HW130896   0.269   5.884   5.233
 9999SOL    HW230897   0.221   5.752   5.150
10000SOL     OW30898   5.589   2.211   0.104
10000SOL    HW130899   5.537   2.260   0.174
10000SOL    HW230900   5.532   2.198   0.023
10001SOL     OW30901   3.573   0.687   1.311
10001SOL    HW130902   3.588   0.668   1.408
10001SOL    HW230903   3.661   0.689   1.263
10002SOL     OW30904   2.017   1.170   1.836
10002SOL    HW130905   1.949   1.115   1.884
10002SOL    HW230906   2.090   1.111   1.802
10003SOL     OW30907   2.941   2.158   2.241
10003SOL    HW130908   2.867   2.176   2.306
10003SOL    HW230909   2.925   2.209   2.157
10004SOL     OW30910   5.447   2.892   5.108
10004SOL    HW130911   5.405   2.835   5.179
10004SOL    HW230912   5.546   2.875   5.107
10005SOL     OW30913   3.743   5.489   2.512
10005SOL    HW130914   3.833   5.503   2.554
10005SOL    HW230915   3.676   5.468   2.584
10006SOL     OW30916   6.228   0.361   5.089
10006SOL    HW130917   6.282   0.279   5.071
10006SOL    HW230918   6.140   0.354   5.042
10007SOL     OW30919   0.901   3.023   3.871
10007SOL    HW130920   0.926   3.104   3.923
10007SOL    HW230921   0.827   2.974   3.918
10008SOL     OW30922   4.875   1.103   3.856
10008SOL    HW130923   4.809   1.041   3.814
10008SOL    HW230924   4.865   1.100   3.956
10009SOL     OW30925   1.542   4.151   1.373
10009SOL    HW130926   1.502   4.113   1.290
10009SOL    HW230927   1.615   4.214   1.348
10010SOL     OW30928   2.760   6.207   0.119
10010SOL    HW130929   2.755   6.116   0.079
10010SOL    HW230930   2.686   6.263   0.082
10011SOL     OW30931   0.569   4.057   6.423
10011SOL    HW130932   0.545   3.977   6.369
10011SOL    HW230933   0.486   4.096   6.464
10012SOL     OW30934   5.340   0.369   2.038
10012SOL    HW130935   5.281   0.300   2.079
10012SOL    HW230936   5.412   0.394   2.103
10013SOL     OW30937   2.016   2.273   4.097
10013SOL    HW130938   2.029   2.305   4.191
10013SOL    HW230939   1.982   2.179   4.098
10014SOL     OW30940   1.136   1.121   1.249
10014SOL    HW130941   1.139   1.192   1.178
10014SOL    HW230942   1.165   1.161   1.336
10015SOL     OW30943   4.011   5.195   0.325
10015SOL    HW130944   3.958   5.139   0.260
10015SOL    HW230945   4.078   5.249   0.274
10016SOL     OW30946   1.545   0.671   4.973
10016SOL    HW130947   1.503   0.755   5.007
10016SOL    HW230948   1.631   0.655   5.022
10017SOL     OW30949   1.953   1.753   3.255
10017SOL    HW130950   1.980   1.814   3.329
10017SOL    HW230951   2.028   1.690   3.234
10018SOL     OW30952   6.542   4.711   5.452
10018SOL    HW130953   6.614   4.745   5.391
10018SOL    HW230954   6.454   4.750   5.425
10019SOL     OW30955   0.795   1.905   3.068
10019SOL    HW130956   0.790   1.905   2.968
10019SOL    HW230957   0.889   1.925   3.096
10020SOL     OW30958   0.488   0.533   1.235
10020SOL    HW130959   0.537   0.615   1.268
10020SOL    HW230960   0.473   0.471   1.312
10021SOL     OW30961   0.839   2.392   2.445
10021SOL    HW130962   0.877   2.343   2.366
10021SOL    HW230963   0.909   2.399   2.516
10022SOL     OW30964   3.630   6.919   0.774
10022SOL    HW130965   3.693   6.862   0.721
10022SOL    HW230966   3.599   6.996   0.718
10023SOL     OW30967   2.005   5.203   4.274
10023SOL    HW130968   1.918   5.251   4.279
10023SOL    HW230969   2.006   5.144   4.194
10024SOL     OW30970   2.143   5.677   1.971
10024SOL    HW130971   2.092   5.624   2.038
10024SOL    HW230972   2.229   5.630   1.949
10025SOL     OW30973   1.671   2.711   2.262
10025SOL    HW130974   1.614   2.771   2.206
10025SOL    HW230975   1.644   2.616   2.248
10026SOL     OW30976   4.857   0.218   3.095
10026SOL    HW130977   4.953   0.220   3.069
10026SOL    HW230978   4.848   0.237   3.193
10027SOL     OW30979   0.704   2.610   5.339
10027SOL    HW130980   0.682   2.518   5.371
10027SOL    HW230981   0.657   2.627   5.252
10028SOL     OW30982   2.042   1.638   2.211
10028SOL    HW130983   2.119   1.586   2.173
10028SOL    HW230984   1.957   1.609   2.168
10029SOL     OW30985   1.647   2.189   3.436
10029SOL    HW130986   1.721   2.202   3.370
10029SOL    HW230987   1.567   2.153   3.388
10030SOL     OW30988   3.201   0.174   5.119
10030SOL    HW130989   3.227   0.181   5.216
10030SOL    HW230990   3.252   0.099   5.076
10031SOL     OW30991   5.417   4.800   4.646
10031SOL    HW130992   5.365   4.729   4.692
10031SOL    HW230993   5.425   4.880   4.705
10032SOL     OW30994   4.256   0.462   5.268
10032SOL    HW130995   4.194   0.413   5.207
10032SOL    HW230996   4.246   0.428   5.361
10033SOL     OW30997   4.536   2.577   3.834
10033SOL    HW130998   4.619   2.529   3.862
10033SOL    HW230999   4.522   2.657   3.893
10034SOL     OW31000   3.081   0.397   3.810
10034SOL    HW131001   3.180   0.400   3.794
10034SOL    HW231002   3.033   0.419   3.725
10035SOL     OW31003   6.646   4.743   1.182
10035SOL    HW131004   6.686   4.815   1.238
10035SOL    HW231005   6.645   4.772   1.086
10036SOL     OW31006   6.814   0.294   0.340
10036SOL    HW131007   6.797   0.370   0.278
10036SOL    HW231008   6.871   0.325   0.416
10037SOL     OW31009   5.796   0.825   0.239
10037SOL    HW131010   5.882   0.814   0.288
10037SOL    HW231011   5.732   0.754   0.267
10038SOL     OW31012   4.334   0.149   6.497
10038SOL    HW131013   4.329   0.111   6.590
10038SOL    HW231014   4.312   0.246   6.499
10039SOL     OW31015   4.614   6.622   5.412
10039SOL    HW131016   4.647   6.547   5.354
10039SOL    HW231017   4.531   6.661   5.372
10040SOL     OW31018   4.443   5.506   6.090
10040SOL    HW131019   4.417   5.424   6.141
10040SOL    HW231020   4.396   5.585   6.128
10041SOL     OW31021   4.602   5.994   6.641
10041SOL    HW131022   4.655   6.077   6.658
10041SOL    HW231023   4.569   5.994   6.546
10042SOL     OW31024   1.439   2.111   4.832
10042SOL    HW131025   1.370   2.103   4.904
10042SOL    HW231026   1.528   2.085   4.869
10043SOL     OW31027   0.509   2.172   4.317
10043SOL    HW131028   0.495   2.250   4.378
10043SOL    HW231029   0.433   2.107   4.328
10044SOL     OW31030   2.970   1.600   4.432
10044SOL    HW131031   2.910   1.655   4.374
10044SOL    HW231032   3.063   1.635   4.428
10045SOL     OW31033   5.063   6.725   3.929
10045SOL    HW131034   5.077   6.659   3.855
10045SOL    HW231035   5.147   6.733   3.983
10046SOL     OW31036   1.731   3.808   1.228
10046SOL    HW131037   1.750   3.722   1.274
10046SOL    HW231038   1.692   3.873   1.293
10047SOL     OW31039   6.436   3.245   5.206
10047SOL    HW131040   6.474   3.324   5.159
10047SOL    HW231041   6.357   3.273   5.261
10048SOL     OW31042   5.618   1.709   2.589
10048SOL    HW131043   5.711   1.737   2.566
10048SOL    HW231044   5.601   1.723   2.686
10049SOL     OW31045   0.687   0.045   6.589
10049SOL    HW131046   0.621   0.063   6.517
10049SOL    HW231047   0.659   0.093   6.673
10050SOL     OW31048   6.523   2.629   4.880
10050SOL    HW131049   6.623   2.618   4.879
10050SOL    HW231050   6.482   2.569   4.811
10051SOL     OW31051   6.228   2.455   4.911
10051SOL    HW131052   6.208   2.552   4.896
10051SOL    HW231053   6.327   2.440   4.903
10052SOL     OW31054   2.876   2.204   2.738
10052SOL    HW131055   2.830   2.275   2.685
10052SOL    HW231056   2.963   2.181   2.694
10053SOL     OW31057   3.189   5.763   1.919
10053SOL    HW131058   3.216   5.828   1.848
10053SOL    HW231059   3.255   5.767   1.994
10054SOL     OW31060   5.045   4.847   6.356
10054SOL    HW131061   4.948   4.822   6.353
10054SOL    HW231062   5.064   4.895   6.441
10055SOL     OW31063   6.316   2.171   4.920
10055SOL    HW131064   6.284   2.121   4.840
10055SOL    HW231065   6.263   2.255   4.931
10056SOL     OW31066   5.748   4.536   1.968
10056SOL    HW131067   5.698   4.575   1.890
10056SOL    HW231068   5.684   4.501   2.035
10057SOL     OW31069   3.912   1.895   4.396
10057SOL    HW131070   3.839   1.835   4.429
10057SOL    HW231071   3.916   1.890   4.296
10058SOL     OW31072   0.547   3.826   4.428
10058SOL    HW131073   0.643   3.799   4.436
10058SOL    HW231074   0.504   3.824   4.518
10059SOL     OW31075   5.058   6.844   1.065
10059SOL    HW131076   5.113   6.926   1.052
10059SOL    HW231077   5.098   6.768   1.013
10060SOL     OW31078   1.596   1.654   1.463
10060SOL    HW131079   1.672   1.644   1.399
10060SOL    HW231080   1.626   1.632   1.555
10061SOL     OW31081   4.808   1.521   4.507
10061SOL    HW131082   4.832   1.435   4.553
10061SOL    HW231083   4.890   1.577   4.497
10062SOL     OW31084   6.753   0.230   4.485
10062SOL    HW131085   6.661   0.230   4.444
10062SOL    HW231086   6.747   0.198   4.580
10063SOL     OW31087   1.999   1.439   4.128
10063SOL    HW131088   1.954   1.510   4.181
10063SOL    HW231089   1.950   1.353   4.140
10064SOL     OW31090   4.886   6.627   0.130
10064SOL    HW131091   4.873   6.570   0.212
10064SOL    HW231092   4.956   6.696   0.149
10065SOL     OW31093   1.901   6.948   2.317
10065SOL    HW131094   1.913   6.850   2.332
10065SOL    HW231095   1.876   6.965   2.222
10066SOL     OW31096   1.307   2.628   3.793
10066SOL    HW131097   1.255   2.600   3.873
10066SOL    HW231098   1.402   2.644   3.819
10067SOL     OW31099   6.544   4.322   4.602
10067SOL    HW131100   6.577   4.291   4.513
10067SOL    HW231101   6.535   4.243   4.663
10068SOL     OW31102   0.227   3.414   3.103
10068SOL    HW131103   0.224   3.513   3.116
10068SOL    HW231104   0.148   3.373   3.148
10069SOL     OW31105   2.079   5.260   3.207
10069SOL    HW131106   1.996   5.223   3.165
10069SOL    HW231107   2.061   5.289   3.301
10070SOL     OW31108   6.516   0.043   5.271
10070SOL    HW131109   6.425   0.000   5.270
10070SOL    HW231110   6.586   6.994   5.276
10071SOL     OW31111   6.170   6.005   3.744
10071SOL    HW131112   6.201   5.961   3.660
10071SOL    HW231113   6.219   5.966   3.822
10072SOL     OW31114   0.011   6.250   4.209
10072SOL    HW131115   0.096   6.289   4.172
10072SOL    HW231116   6.990   6.190   4.141
10073SOL     OW31117   5.744   4.355   5.232
10073SOL    HW131118   5.773   4.302   5.152
10073SOL    HW231119   5.786   4.318   5.314
10074SOL     OW31120   1.534   0.738   5.416
10074SOL    HW131121   1.599   0.802   5.377
10074SOL    HW231122   1.496   0.777   5.500
10075SOL     OW31123   1.823   2.806   2.766
10075SOL    HW131124   1.921   2.818   2.785
10075SOL    HW231125   1.808   2.716   2.726
10076SOL     OW31126   6.974   0.157   3.821
10076SOL    HW131127   7.002   0.249   3.848
10076SOL    HW231128   6.937   0.108   3.901
10077SOL     OW31129   3.972   3.011   6.598
10077SOL    HW131130   3.976   2.913   6.578
10077SOL    HW231131   3.885   3.048   6.567
10078SOL     OW31132   0.541   5.029   3.875
10078SOL    HW131133   0.471   4.963   3.902
10078SOL    HW231134   0.497   5.110   3.837
10079SOL     OW31135   6.925   3.969   2.792
10079SOL    HW131136   6.864   4.036   2.833
10079SOL    HW231137   6.878   3.881   2.782
10080SOL     OW31138   4.374   1.340   5.632
10080SOL    HW131139   4.405   1.259   5.582
10080SOL    HW231140   4.359   1.415   5.568
10081SOL     OW31141   0.247   0.281   0.761
10081SOL    HW131142   0.319   0.216   0.787
10081SOL    HW231143   0.181   0.236   0.702
10082SOL     OW31144   0.074   4.710   1.516
10082SOL    HW131145   7.015   4.717   1.575
10082SOL    HW231146   0.052   4.749   1.426
10083SOL     OW31147   4.752   1.279   3.396
10083SOL    HW131148   4.812   1.208   3.358
10083SOL    HW231149   4.801   1.366   3.397
10084SOL     OW31150   2.113   0.495   5.361
10084SOL    HW131151   2.161   0.513   5.275
10084SOL    HW231152   2.083   0.582   5.400
10085SOL     OW31153   1.914   5.642   1.833
10085SOL    HW131154   1.974   5.589   1.892
10085SOL    HW231155   1.914   5.737   1.862
10086SOL     OW31156   4.331   5.340   2.113
10086SOL    HW131157   4.339   5.416   2.049
10086SOL    HW231158   4.241   5.343   2.156
10087SOL     OW31159   0.027   0.186   4.197
10087SOL    HW131160   7.016   0.092   4.192
10087SOL    HW231161   6.975   0.248   4.167
10088SOL     OW31162   6.435   0.262   1.187
10088SOL    HW131163   6.387   0.188   1.233
10088SOL    HW231164   6.431   0.345   1.244
10089SOL     OW31165   2.947   1.928   2.386
10089SOL    HW131166   2.947   2.009   2.327
10089SOL    HW231167   2.972   1.847   2.333
10090SOL     OW31168   1.167   4.805   1.602
10090SOL    HW131169   1.069   4.786   1.597
10090SOL    HW231170   1.217   4.718   1.610
10091SOL     OW31171   0.508   3.807   6.321
10091SOL    HW131172   0.592   3.755   6.340
10091SOL    HW231173   0.430   3.744   6.321
10092SOL     OW31174   2.079   2.775   5.325
10092SOL    HW131175   2.028   2.843   5.378
10092SOL    HW231176   2.156   2.819   5.279
10093SOL     OW31177   6.811   3.507   5.260
10093SOL    HW131178   6.902   3.493   5.221
10093SOL    HW231179   6.788   3.431   5.321
10094SOL     OW31180   2.626   5.634   2.180
10094SOL    HW131181   2.632   5.729   2.209
10094SOL    HW231182   2.533   5.600   2.198
10095SOL     OW31183   6.062   1.900   5.345
10095SOL    HW131184   5.977   1.899   5.398
10095SOL    HW231185   6.071   1.814   5.294
10096SOL     OW31186   4.290   4.950   2.611
10096SOL    HW131187   4.211   4.890   2.597
10096SOL    HW231188   4.370   4.894   2.632
10097SOL     OW31189   1.170   1.067   0.076
10097SOL    HW131190   1.265   1.040   0.061
10097SOL    HW231191   1.128   1.004   0.142
10098SOL     OW31192   2.688   0.643   4.754
10098SOL    HW131193   2.671   0.565   4.815
10098SOL    HW231194   2.766   0.695   4.788
10099SOL     OW31195   0.266   5.044   0.894
10099SOL    HW131196   0.193   5.097   0.938
10099SOL    HW231197   0.350   5.098   0.893
10100SOL     OW31198   4.972   0.107   4.794
10100SOL    HW131199   5.032   0.142   4.867
10100SOL    HW231200   4.910   0.180   4.764
10101SOL     OW31201   6.129   3.997   1.440
10101SOL    HW131202   6.066   4.039   1.375
10101SOL    HW231203   6.198   4.065   1.467
10102SOL     OW31204   0.648   1.247   2.538
10102SOL    HW131205   0.650   1.220   2.442
10102SOL    HW231206   0.555   1.276   2.562
10103SOL     OW31207   2.641   0.111   5.779
10103SOL    HW131208   2.580   0.033   5.767
10103SOL    HW231209   2.715   0.087   5.841
10104SOL     OW31210   2.385   1.970   3.786
10104SOL    HW131211   2.473   1.994   3.827
10104SOL    HW231212   2.333   1.912   3.848
10105SOL     OW31213   1.463   1.236   0.601
10105SOL    HW131214   1.502   1.272   0.686
10105SOL    HW231215   1.365   1.255   0.599
10106SOL     OW31216   4.150   6.384   0.296
10106SOL    HW131217   4.237   6.416   0.333
10106SOL    HW231218   4.083   6.377   0.370
10107SOL     OW31219   6.847   1.600   6.175
10107SOL    HW131220   6.794   1.574   6.256
10107SOL    HW231221   6.942   1.615   6.200
10108SOL     OW31222   6.586   0.086   0.013
10108SOL    HW131223   6.632   0.131   0.089
10108SOL    HW231224   6.575   0.151   6.959
10109SOL     OW31225   5.006   6.897   0.499
10109SOL    HW131226   5.069   6.854   0.433
10109SOL    HW231227   4.956   6.970   0.453
10110SOL     OW31228   3.761   5.143   4.772
10110SOL    HW131229   3.825   5.187   4.835
10110SOL    HW231230   3.743   5.203   4.694
10111SOL     OW31231   5.699   3.239   3.611
10111SOL    HW131232   5.708   3.153   3.562
10111SOL    HW231233   5.602   3.258   3.629
10112SOL     OW31234   5.456   3.329   3.685
10112SOL    HW131235   5.402   3.247   3.666
10112SOL    HW231236   5.433   3.364   3.776
10113SOL     OW31237   4.302   0.314   6.791
10113SOL    HW131238   4.401   0.301   6.787
10113SOL    HW231239   4.266   0.326   6.698
10114SOL     OW31240   5.233   1.422   0.884
10114SOL    HW131241   5.293   1.476   0.943
10114SOL    HW231242   5.138   1.431   0.917
10115SOL     OW31243   3.719   1.439   4.770
10115SOL    HW131244   3.694   1.521   4.822
10115SOL    HW231245   3.674   1.440   4.682
10116SOL     OW31246   0.631   6.505   0.531
10116SOL    HW131247   0.681   6.420   0.551
10116SOL    HW231248   0.691   6.567   0.480
10117SOL     OW31249   6.341   5.601   5.656
10117SOL    HW131250   6.403   5.615   5.580
10117SOL    HW231251   6.299   5.688   5.683
10118SOL     OW31252   1.787   4.603   2.705
10118SOL    HW131253   1.698   4.613   2.661
10118SOL    HW231254   1.775   4.588   2.803
10119SOL     OW31255   0.406   5.365   4.254
10119SOL    HW131256   0.358   5.392   4.171
10119SOL    HW231257   0.374   5.421   4.331
10120SOL     OW31258   1.710   3.401   5.131
10120SOL    HW131259   1.669   3.432   5.046
10120SOL    HW231260   1.788   3.460   5.154
10121SOL     OW31261   6.236   3.856   6.806
10121SOL    HW131262   6.260   3.945   6.769
10121SOL    HW231263   6.143   3.832   6.778
10122SOL     OW31264   6.218   3.423   2.021
10122SOL    HW131265   6.208   3.522   2.016
10122SOL    HW231266   6.233   3.395   2.115
10123SOL     OW31267   5.145   6.488   6.770
10123SOL    HW131268   5.192   6.575   6.757
10123SOL    HW231269   5.184   6.420   6.708
10124SOL     OW31270   1.218   4.189   0.450
10124SOL    HW131271   1.217   4.195   0.550
10124SOL    HW231272   1.202   4.095   0.422
10125SOL     OW31273   2.009   1.383   1.999
10125SOL    HW131274   1.993   1.309   1.933
10125SOL    HW231275   1.929   1.392   2.058
10126SOL     OW31276   6.987   6.456   6.480
10126SOL    HW131277   6.985   6.448   6.579
10126SOL    HW231278   0.057   6.483   6.451
10127SOL     OW31279   2.821   4.447   6.506
10127SOL    HW131280   2.777   4.432   6.417
10127SOL    HW231281   2.782   4.527   6.550
10128SOL     OW31282   3.042   1.071   0.765
10128SOL    HW131283   3.045   1.085   0.666
10128SOL    HW231284   3.003   1.153   0.808
10129SOL     OW31285   5.883   1.851   2.148
10129SOL    HW131286   5.927   1.891   2.229
10129SOL    HW231287   5.945   1.857   2.070
10130SOL     OW31288   1.321   3.402   1.896
10130SOL    HW131289   1.368   3.409   1.808
10130SOL    HW231290   1.341   3.483   1.951
10131SOL     OW31291   1.291   0.179   4.451
10131SOL    HW131292   1.212   0.225   4.410
10131SOL    HW231293   1.370   0.190   4.392
10132SOL     OW31294   3.785   0.672   4.065
10132SOL    HW131295   3.818   0.589   4.111
10132SOL    HW231296   3.742   0.732   4.132
10133SOL     OW31297   3.842   6.073   0.718
10133SOL    HW131298   3.780   6.141   0.679
10133SOL    HW231299   3.881   6.108   0.803
10134SOL     OW31300   0.149   6.212   3.102
10134SOL    HW131301   0.103   6.130   3.067
10134SOL    HW231302   0.141   6.286   3.035
10135SOL     OW31303   4.911   3.308   3.416
10135SOL    HW131304   4.830   3.249   3.416
10135SOL    HW231305   4.975   3.278   3.346
10136SOL     OW31306   5.689   1.107   2.473
10136SOL    HW131307   5.696   1.205   2.493
10136SOL    HW231308   5.769   1.077   2.421
10137SOL     OW31309   6.786   3.576   4.202
10137SOL    HW131310   6.693   3.612   4.205
10137SOL    HW231311   6.850   3.649   4.177
10138SOL     OW31312   5.285   3.502   0.209
10138SOL    HW131313   5.305   3.532   0.302
10138SOL    HW231314   5.362   3.448   0.174
10139SOL     OW31315   2.950   3.786   3.600
10139SOL    HW131316   2.893   3.705   3.609
10139SOL    HW231317   3.017   3.788   3.673
10140SOL     OW31318   5.870   5.724   0.099
10140SOL    HW131319   5.913   5.636   0.080
10140SOL    HW231320   5.851   5.771   0.013
10141SOL     OW31321   3.821   1.297   5.664
10141SOL    HW131322   3.769   1.281   5.579
10141SOL    HW231323   3.918   1.277   5.648
10142SOL     OW31324   6.664   6.739   5.644
10142SOL    HW131325   6.606   6.811   5.606
10142SOL    HW231326   6.693   6.677   5.571
10143SOL     OW31327   5.546   1.184   6.720
10143SOL    HW131328   5.579   1.202   6.813
10143SOL    HW231329   5.455   1.145   6.725
10144SOL     OW31330   3.037   0.312   5.937
10144SOL    HW131331   3.032   0.411   5.930
10144SOL    HW231332   3.117   0.286   5.992
10145SOL     OW31333   3.111   4.917   4.177
10145SOL    HW131334   3.015   4.939   4.160
10145SOL    HW231335   3.153   4.884   4.093
10146SOL     OW31336   4.592   4.458   4.937
10146SOL    HW131337   4.502   4.475   4.978
10146SOL    HW231338   4.645   4.543   4.935
10147SOL     OW31339   5.687   3.751   5.109
10147SOL    HW131340   5.623   3.827   5.110
10147SOL    HW231341   5.637   3.665   5.121
10148SOL     OW31342   5.049   4.625   6.209
10148SOL    HW131343   5.060   4.713   6.255
10148SOL    HW231344   4.955   4.615   6.178
10149SOL     OW31345   5.767   3.371   0.729
10149SOL    HW131346   5.859   3.350   0.762
10149SOL    HW231347   5.714   3.286   0.721
10150SOL     OW31348   3.673   3.445   0.376
10150SOL    HW131349   3.641   3.402   0.291
10150SOL    HW231350   3.687   3.543   0.361
10151SOL     OW31351   0.785   5.747   0.109
10151SOL    HW131352   0.852   5.772   0.040
10151SOL    HW231353   0.830   5.690   0.179
10152SOL     OW31354   0.104   5.571   4.239
10152SOL    HW131355   0.172   5.608   4.176
10152SOL    HW231356   0.145   5.559   4.329
10153SOL     OW31357   4.725   6.195   3.746
10153SOL    HW131358   4.693   6.178   3.839
10153SOL    HW231359   4.727   6.109   3.695
10154SOL     OW31360   4.382   6.385   5.237
10154SOL    HW131361   4.374   6.478   5.275
10154SOL    HW231362   4.475   6.370   5.206
10155SOL     OW31363   4.017   2.356   6.232
10155SOL    HW131364   3.978   2.311   6.151
10155SOL    HW231365   4.091   2.416   6.204
10156SOL     OW31366   6.301   0.703   2.075
10156SOL    HW131367   6.259   0.662   2.156
10156SOL    HW231368   6.230   0.728   2.010
10157SOL     OW31369   0.249   1.799   0.505
10157SOL    HW131370   0.224   1.874   0.565
10157SOL    HW231371   0.170   1.740   0.490
10158SOL     OW31372   5.869   5.778   0.647
10158SOL    HW131373   5.946   5.811   0.593
10158SOL    HW231374   5.812   5.855   0.675
10159SOL     OW31375   2.013   3.179   0.698
10159SOL    HW131376   1.928   3.209   0.655
10159SOL    HW231377   2.025   3.081   0.684
10160SOL     OW31378   1.853   3.051   2.024
10160SOL    HW131379   1.771   3.022   1.975
10160SOL    HW231380   1.856   3.007   2.114
10161SOL     OW31381   3.657   3.165   0.979
10161SOL    HW131382   3.749   3.130   0.958
10161SOL    HW231383   3.663   3.232   1.052
10162SOL     OW31384   3.420   4.558   1.185
10162SOL    HW131385   3.348   4.507   1.232
10162SOL    HW231386   3.466   4.498   1.119
10163SOL     OW31387   5.898   4.153   6.756
10163SOL    HW131388   5.864   4.125   6.846
10163SOL    HW231389   5.938   4.244   6.762
10164SOL     OW31390   6.053   3.413   4.093
10164SOL    HW131391   6.037   3.486   4.161
10164SOL    HW231392   6.151   3.399   4.081
10165SOL     OW31393   6.470   1.576   3.099
10165SOL    HW131394   6.559   1.540   3.125
10165SOL    HW231395   6.461   1.671   3.132
10166SOL     OW31396   2.964   1.851   1.930
10166SOL    HW131397   2.996   1.945   1.940
10166SOL    HW231398   2.959   1.808   2.020
10167SOL     OW31399   1.231   4.707   6.778
10167SOL    HW131400   1.155   4.757   6.818
10167SOL    HW231401   1.317   4.754   6.801
10168SOL     OW31402   5.877   2.628   6.493
10168SOL    HW131403   5.952   2.681   6.454
10168SOL    HW231404   5.801   2.625   6.429
10169SOL     OW31405   6.566   4.441   3.496
10169SOL    HW131406   6.625   4.520   3.477
10169SOL    HW231407   6.622   4.366   3.531
10170SOL     OW31408   6.615   5.421   5.472
10170SOL    HW131409   6.700   5.385   5.509
10170SOL    HW231410   6.618   5.521   5.473
10171SOL     OW31411   0.137   2.253   4.420
10171SOL    HW131412   0.181   2.166   4.446
10171SOL    HW231413   0.172   2.326   4.479
10172SOL     OW31414   0.408   5.979   5.356
10172SOL    HW131415   0.464   6.025   5.288
10172SOL    HW231416   0.355   6.046   5.407
10173SOL     OW31417   1.960   2.352   0.732
10173SOL    HW131418   2.019   2.279   0.698
10173SOL    HW231419   1.952   2.344   0.831
10174SOL     OW31420   5.157   4.475   3.656
10174SOL    HW131421   5.067   4.512   3.632
10174SOL    HW231422   5.182   4.404   3.589
10175SOL     OW31423   6.029   1.736   2.810
10175SOL    HW131424   6.112   1.740   2.865
10175SOL    HW231425   5.972   1.815   2.830
10176SOL     OW31426   0.374   3.322   5.266
10176SOL    HW131427   0.312   3.306   5.343
10176SOL    HW231428   0.468   3.306   5.294
10177SOL     OW31429   2.246   1.314   1.433
10177SOL    HW131430   2.301   1.232   1.453
10177SOL    HW231431   2.256   1.339   1.337
10178SOL     OW31432   0.143   0.964   6.405
10178SOL    HW131433   0.088   0.945   6.324
10178SOL    HW231434   0.157   0.879   6.456
10179SOL     OW31435   0.428   2.685   6.570
10179SOL    HW131436   0.349   2.674   6.631
10179SOL    HW231437   0.511   2.699   6.625
10180SOL     OW31438   3.878   0.839   5.691
10180SOL    HW131439   3.930   0.853   5.775
10180SOL    HW231440   3.938   0.799   5.621
10181SOL     OW31441   6.233   3.754   1.359
10181SOL    HW131442   6.145   3.706   1.355
10181SOL    HW231443   6.222   3.840   1.409
10182SOL     OW31444   4.580   0.947   1.572
10182SOL    HW131445   4.539   1.038   1.571
10182SOL    HW231446   4.512   0.881   1.603
10183SOL     OW31447   6.541   3.015   6.536
10183SOL    HW131448   6.619   3.056   6.490
10183SOL    HW231449   6.524   3.063   6.622
10184SOL     OW31450   4.166   0.981   6.133
10184SOL    HW131451   4.111   0.939   6.061
10184SOL    HW231452   4.120   0.969   6.221
10185SOL     OW31453   6.179   6.214   2.875
10185SOL    HW131454   6.160   6.214   2.776
10185SOL    HW231455   6.277   6.199   2.890
10186SOL     OW31456   5.528   3.541   4.035
10186SOL    HW131457   5.468   3.471   3.995
10186SOL    HW231458   5.620   3.504   4.047
10187SOL     OW31459   1.084   3.416   0.344
10187SOL    HW131460   1.164   3.446   0.292
10187SOL    HW231461   1.063   3.321   0.320
10188SOL     OW31462   4.053   4.410   0.361
10188SOL    HW131463   4.064   4.487   0.298
10188SOL    HW231464   4.068   4.442   0.455
10189SOL     OW31465   0.498   1.181   6.295
10189SOL    HW131466   0.403   1.193   6.322
10189SOL    HW231467   0.557   1.225   6.363
10190SOL     OW31468   4.923   3.180   1.215
10190SOL    HW131469   4.951   3.085   1.229
10190SOL    HW231470   4.826   3.190   1.240
10191SOL     OW31471   4.008   6.002   6.396
10191SOL    HW131472   4.020   5.942   6.475
10191SOL    HW231473   3.983   6.094   6.428
10192SOL     OW31474   4.336   1.567   5.462
10192SOL    HW131475   4.393   1.556   5.381
10192SOL    HW231476   4.241   1.578   5.435
10193SOL     OW31477   3.687   2.903   2.114
10193SOL    HW131478   3.758   2.903   2.184
10193SOL    HW231479   3.602   2.869   2.154
10194SOL     OW31480   5.146   6.144   6.144
10194SOL    HW131481   5.136   6.242   6.162
10194SOL    HW231482   5.056   6.100   6.152
10195SOL     OW31483   6.726   6.055   0.150
10195SOL    HW131484   6.657   6.017   0.088
10195SOL    HW231485   6.681   6.101   0.226
10196SOL     OW31486   4.468   1.987   4.174
10196SOL    HW131487   4.425   1.938   4.249
10196SOL    HW231488   4.398   2.027   4.115
10197SOL     OW31489   5.416   1.671   4.585
10197SOL    HW131490   5.451   1.625   4.667
10197SOL    HW231491   5.348   1.739   4.612
10198SOL     OW31492   2.828   6.790   2.666
10198SOL    HW131493   2.924   6.817   2.661
10198SOL    HW231494   2.814   6.711   2.606
10199SOL     OW31495   1.428   2.879   0.842
10199SOL    HW131496   1.459   2.952   0.782
10199SOL    HW231497   1.491   2.870   0.919
10200SOL     OW31498   4.796   2.499   5.929
10200SOL    HW131499   4.772   2.516   5.833
10200SOL    HW231500   4.768   2.407   5.955
10201SOL     OW31501   1.267   5.015   0.410
10201SOL    HW131502   1.208   5.040   0.334
10201SOL    HW231503   1.361   5.007   0.378
10202SOL     OW31504   2.960   5.003   0.977
10202SOL    HW131505   3.026   5.068   1.015
10202SOL    HW231506   2.970   5.000   0.877
10203SOL     OW31507   6.822   2.964   2.472
10203SOL    HW131508   6.811   2.947   2.374
10203SOL    HW231509   6.903   2.915   2.505
10204SOL     OW31510   4.249   5.546   6.903
10204SOL    HW131511   4.301   5.594   6.832
10204SOL    HW231512   4.185   5.483   6.859
10205SOL     OW31513   2.373   0.673   2.095
10205SOL    HW131514   2.297   0.608   2.093
10205SOL    HW231515   2.443   0.643   2.031
10206SOL     OW31516   6.862   6.849   6.605
10206SOL    HW131517   6.782   6.790   6.589
10206SOL    HW231518   6.911   6.816   6.685
10207SOL     OW31519   1.001   2.338   6.511
10207SOL    HW131520   0.926   2.346   6.445
10207SOL    HW231521   1.088   2.336   6.462
10208SOL     OW31522   6.390   5.194   4.069
10208SOL    HW131523   6.474   5.246   4.054
10208SOL    HW231524   6.349   5.171   3.981
10209SOL     OW31525   0.374   6.713   6.998
10209SOL    HW131526   0.440   6.666   6.939
10209SOL    HW231527   0.417   6.737   0.063
10210SOL     OW31528   4.783   6.379   1.916
10210SOL    HW131529   4.821   6.450   1.856
10210SOL    HW231530   4.780   6.413   2.010
10211SOL     OW31531   5.062   6.395   4.344
10211SOL    HW131532   5.089   6.477   4.395
10211SOL    HW231533   5.133   6.326   4.352
10212SOL     OW31534   0.170   0.050   5.350
10212SOL    HW131535   0.240   0.121   5.361
10212SOL    HW231536   0.211   6.991   5.307
10213SOL     OW31537   5.711   2.329   2.093
10213SOL    HW131538   5.804   2.312   2.126
10213SOL    HW231539   5.710   2.331   1.993
10214SOL     OW31540   0.166   1.662   1.593
10214SOL    HW131541   0.125   1.584   1.546
10214SOL    HW231542   0.098   1.735   1.601
10215SOL     OW31543   3.852   3.419   3.983
10215SOL    HW131544   3.794   3.351   3.937
10215SOL    HW231545   3.892   3.379   4.065
10216SOL     OW31546   6.836   1.348   1.531
10216SOL    HW131547   6.775   1.423   1.504
10216SOL    HW231548   6.793   1.260   1.513
10217SOL     OW31549   2.695   1.603   3.592
10217SOL    HW131550   2.722   1.613   3.688
10217SOL    HW231551   2.777   1.604   3.535
10218SOL     OW31552   0.833   1.137   1.769
10218SOL    HW131553   0.900   1.195   1.814
10218SOL    HW231554   0.839   1.149   1.670
10219SOL     OW31555   0.352   2.371   2.783
10219SOL    HW131556   0.430   2.312   2.761
10219SOL    HW231557   0.271   2.339   2.736
10220SOL     OW31558   4.831   1.816   1.144
10220SOL    HW131559   4.784   1.762   1.214
10220SOL    HW231560   4.788   1.906   1.138
10221SOL     OW31561   1.739   4.142   4.442
10221SOL    HW131562   1.765   4.047   4.459
10221SOL    HW231563   1.656   4.144   4.387
10222SOL     OW31564   2.969   4.298   5.278
10222SOL    HW131565   2.964   4.388   5.237
10222SOL    HW231566   2.878   4.271   5.311
10223SOL     OW31567   2.468   5.241   1.184
10223SOL    HW131568   2.539   5.282   1.241
10223SOL    HW231569   2.506   5.218   1.095
10224SOL     OW31570   6.271   2.445   6.066
10224SOL    HW131571   6.305   2.529   6.025
10224SOL    HW231572   6.176   2.431   6.038
10225SOL     OW31573   1.386   6.118   5.184
10225SOL    HW131574   1.451   6.185   5.219
10225SOL    HW231575   1.302   6.164   5.157
10226SOL     OW31576   2.027   0.433   5.990
10226SOL    HW131577   2.048   0.446   5.893
10226SOL    HW231578   2.030   0.336   6.012
10227SOL     OW31579   5.320   4.912   0.953
10227SOL    HW131580   5.357   4.846   0.888
10227SOL    HW231581   5.388   4.930   1.024
10228SOL     OW31582   0.511   6.222   1.841
10228SOL    HW131583   0.452   6.185   1.770
10228SOL    HW231584   0.589   6.268   1.799
10229SOL     OW31585   1.819   3.026   5.032
10229SOL    HW131586   1.910   3.007   4.994
10229SOL    HW231587   1.754   2.959   4.996
10230SOL     OW31588   6.402   6.232   3.169
10230SOL    HW131589   6.413   6.217   3.071
10230SOL    HW231590   6.368   6.324   3.186
10231SOL     OW31591   6.158   4.795   5.051
10231SOL    HW131592   6.223   4.760   5.118
10231SOL    HW231593   6.116   4.879   5.086
10232SOL     OW31594   3.313   1.513   3.942
10232SOL    HW131595   3.296   1.583   3.872
10232SOL    HW231596   3.381   1.547   4.007
10233SOL     OW31597   3.786   3.799   5.307
10233SOL    HW131598   3.836   3.832   5.387
10233SOL    HW231599   3.755   3.877   5.252
10234SOL     OW31600   5.455   0.499   0.799
10234SOL    HW131601   5.388   0.459   0.736
10234SOL    HW231602   5.535   0.529   0.747
10235SOL     OW31603   3.406   2.088   1.345
10235SOL    HW131604   3.361   2.008   1.385
10235SOL    HW231605   3.413   2.076   1.246
10236SOL     OW31606   2.177   1.334   1.169
10236SOL    HW131607   2.182   1.402   1.096
10236SOL    HW231608   2.149   1.246   1.132
10237SOL     OW31609   0.331   4.830   6.048
10237SOL    HW131610   0.311   4.883   6.130
10237SOL    HW231611   0.331   4.890   5.968
10238SOL     OW31612   3.963   3.906   1.990
10238SOL    HW131613   3.956   3.923   2.088
10238SOL    HW231614   3.956   3.808   1.972
10239SOL     OW31615   2.202   3.861   5.995
10239SOL    HW131616   2.198   3.956   6.024
10239SOL    HW231617   2.179   3.854   5.898
10240SOL     OW31618   1.930   4.666   2.423
10240SOL    HW131619   1.881   4.752   2.433
10240SOL    HW231620   1.961   4.655   2.329
10241SOL     OW31621   0.146   6.365   3.338
10241SOL    HW131622   0.161   6.300   3.264
10241SOL    HW231623   0.150   6.318   3.426
10242SOL     OW31624   0.121   1.175   1.567
10242SOL    HW131625   0.187   1.187   1.641
10242SOL    HW231626   0.112   1.261   1.516
10243SOL     OW31627   2.553   4.524   2.642
10243SOL    HW131628   2.556   4.568   2.553
10243SOL    HW231629   2.506   4.584   2.707
10244SOL     OW31630   1.393   4.093   1.101
10244SOL    HW131631   1.324   4.027   1.132
10244SOL    HW231632   1.423   4.069   1.009
10245SOL     OW31633   3.774   3.552   1.444
10245SOL    HW131634   3.792   3.618   1.518
10245SOL    HW231635   3.686   3.508   1.460
10246SOL     OW31636   3.443   3.384   3.498
10246SOL    HW131637   3.381   3.354   3.571
10246SOL    HW231638   3.408   3.351   3.410
10247SOL     OW31639   6.989   4.425   6.181
10247SOL    HW131640   0.049   4.458   6.133
10247SOL    HW231641   6.916   4.409   6.114
10248SOL     OW31642   1.737   6.361   2.843
10248SOL    HW131643   1.649   6.359   2.890
10248SOL    HW231644   1.789   6.440   2.874
10249SOL     OW31645   2.471   6.309   6.445
10249SOL    HW131646   2.415   6.367   6.504
10249SOL    HW231647   2.540   6.262   6.501
10250SOL     OW31648   6.292   2.512   1.634
10250SOL    HW131649   6.233   2.593   1.629
10250SOL    HW231650   6.236   2.430   1.646
10251SOL     OW31651   2.056   1.200   5.079
10251SOL    HW131652   2.087   1.205   4.984
10251SOL    HW231653   2.133   1.175   5.138
10252SOL     OW31654   3.799   4.310   6.060
10252SOL    HW131655   3.826   4.218   6.032
10252SOL    HW231656   3.711   4.333   6.017
10253SOL     OW31657   3.112   0.219   0.770
10253SOL    HW131658   3.041   0.149   0.770
10253SOL    HW231659   3.094   0.285   0.697
10254SOL     OW31660   5.149   1.355   5.506
10254SOL    HW131661   5.058   1.367   5.546
10254SOL    HW231662   5.198   1.283   5.555
10255SOL     OW31663   2.466   6.186   1.313
10255SOL    HW131664   2.406   6.107   1.300
10255SOL    HW231665   2.449   6.225   1.403
10256SOL     OW31666   4.836   2.110   1.900
10256SOL    HW131667   4.819   2.085   1.805
10256SOL    HW231668   4.926   2.153   1.907
10257SOL     OW31669   1.448   4.579   4.732
10257SOL    HW131670   1.402   4.520   4.666
10257SOL    HW231671   1.480   4.662   4.686
10258SOL     OW31672   3.571   1.171   3.821
10258SOL    HW131673   3.475   1.190   3.800
10258SOL    HW231674   3.581   1.073   3.840
10259SOL     OW31675   1.282   5.112   3.090
10259SOL    HW131676   1.359   5.050   3.102
10259SOL    HW231677   1.238   5.095   3.002
10260SOL     OW31678   1.634   1.178   3.851
10260SOL    HW131679   1.538   1.167   3.823
10260SOL    HW231680   1.676   1.251   3.796
10261SOL     OW31681   6.861   4.889   2.479
10261SOL    HW131682   6.851   4.980   2.439
10261SOL    HW231683   6.781   4.869   2.535
10262SOL     OW31684   2.639   6.944   5.530
10262SOL    HW131685   2.705   7.013   5.500
10262SOL    HW231686   2.676   6.853   5.511
10263SOL     OW31687   5.853   6.960   6.937
10263SOL    HW131688   5.777   6.897   6.956
10263SOL    HW231689   5.928   6.908   6.895
10264SOL     OW31690   6.052   6.769   6.778
10264SOL    HW131691   6.124   6.705   6.805
10264SOL    HW231692   6.041   6.767   6.679
10265SOL     OW31693   2.794   2.816   1.191
10265SOL    HW131694   2.876   2.766   1.218
10265SOL    HW231695   2.772   2.884   1.261
10266SOL     OW31696   4.105   3.270   3.920
10266SOL    HW131697   4.154   3.346   3.877
10266SOL    HW231698   4.115   3.276   4.019
10267SOL     OW31699   5.805   2.710   6.941
10267SOL    HW131700   5.782   2.762   6.859
10267SOL    HW231701   5.876   2.643   6.918
10268SOL     OW31702   5.951   5.872   2.665
10268SOL    HW131703   5.910   5.957   2.697
10268SOL    HW231704   5.879   5.810   2.633
10269SOL     OW31705   0.098   3.634   6.869
10269SOL    HW131706   0.163   3.559   6.855
10269SOL    HW231707   0.133   3.697   6.938
10270SOL     OW31708   3.933   4.940   2.806
10270SOL    HW131709   3.982   4.881   2.742
10270SOL    HW231710   3.930   5.033   2.769
10271SOL     OW31711   3.553   2.605   6.597
10271SOL    HW131712   3.490   2.530   6.617
10271SOL    HW231713   3.646   2.579   6.623
10272SOL     OW31714   1.575   1.363   5.350
10272SOL    HW131715   1.532   1.416   5.278
10272SOL    HW231716   1.519   1.283   5.371
10273SOL     OW31717   2.747   5.421   2.713
10273SOL    HW131718   2.840   5.388   2.726
10273SOL    HW231719   2.720   5.479   2.790
10274SOL     OW31720   0.535   5.824   5.557
10274SOL    HW131721   0.513   5.867   5.470
10274SOL    HW231722   0.529   5.725   5.548
10275SOL     OW31723   0.487   6.554   2.499
10275SOL    HW131724   0.515   6.465   2.534
10275SOL    HW231725   0.446   6.543   2.408
10276SOL     OW31726   5.089   4.895   5.578
10276SOL    HW131727   4.993   4.872   5.559
10276SOL    HW231728   5.094   4.948   5.663
10277SOL     OW31729   1.305   5.658   4.060
10277SOL    HW131730   1.297   5.740   4.004
10277SOL    HW231731   1.225   5.600   4.047
10278SOL     OW31732   0.715   2.061   3.987
10278SOL    HW131733   0.742   2.140   3.933
10278SOL    HW231734   0.655   2.002   3.931
10279SOL     OW31735   1.804   5.126   3.973
10279SOL    HW131736   1.746   5.082   3.904
10279SOL    HW231737   1.838   5.057   4.037
10280SOL     OW31738   0.120   3.157   0.614
10280SOL    HW131739   0.114   3.060   0.594
10280SOL    HW231740   0.141   3.170   0.711
10281SOL     OW31741   5.399   1.380   3.164
10281SOL    HW131742   5.420   1.339   3.075
10281SOL    HW231743   5.405   1.480   3.157
10282SOL     OW31744   5.471   3.101   4.280
10282SOL    HW131745   5.545   3.037   4.301
10282SOL    HW231746   5.402   3.097   4.352
10283SOL     OW31747   1.453   3.124   1.122
10283SOL    HW131748   1.395   3.139   1.202
10283SOL    HW231749   1.540   3.082   1.151
10284SOL     OW31750   5.413   2.016   4.870
10284SOL    HW131751   5.433   2.043   4.964
10284SOL    HW231752   5.436   2.090   4.808
10285SOL     OW31753   5.438   0.156   2.610
10285SOL    HW131754   5.372   0.173   2.536
10285SOL    HW231755   5.397   0.095   2.678
10286SOL     OW31756   3.359   1.733   3.127
10286SOL    HW131757   3.356   1.762   3.031
10286SOL    HW231758   3.445   1.685   3.145
10287SOL     OW31759   2.020   6.622   1.654
10287SOL    HW131760   2.097   6.568   1.689
10287SOL    HW231761   2.053   6.711   1.623
10288SOL     OW31762   4.660   5.616   3.370
10288SOL    HW131763   4.607   5.577   3.446
10288SOL    HW231764   4.693   5.543   3.311
10289SOL     OW31765   2.523   6.311   7.015
10289SOL    HW131766   2.452   6.291   0.061
10289SOL    HW231767   2.483   6.311   6.923
10290SOL     OW31768   3.189   3.850   2.671
10290SOL    HW131769   3.188   3.802   2.584
10290SOL    HW231770   3.099   3.890   2.688
10291SOL     OW31771   3.849   1.483   2.968
10291SOL    HW131772   3.911   1.406   2.953
10291SOL    HW231773   3.903   1.566   2.985
10292SOL     OW31774   1.457   1.138   5.424
10292SOL    HW131775   1.390   1.128   5.350
10292SOL    HW231776   1.421   1.094   5.507
10293SOL     OW31777   1.997   3.953   2.294
10293SOL    HW131778   2.019   3.878   2.357
10293SOL    HW231779   1.961   4.030   2.346
10294SOL     OW31780   5.663   2.976   3.274
10294SOL    HW131781   5.648   3.029   3.191
10294SOL    HW231782   5.644   2.879   3.256
10295SOL     OW31783   0.135   4.411   5.488
10295SOL    HW131784   0.146   4.421   5.390
10295SOL    HW231785   0.226   4.399   5.530
10296SOL     OW31786   5.292   1.676   6.992
10296SOL    HW131787   5.328   1.677   6.899
10296SOL    HW231788   5.303   1.767   0.012
10297SOL     OW31789   1.757   6.994   6.343
10297SOL    HW131790   1.846   0.003   6.376
10297SOL    HW231791   1.685   0.027   6.387
10298SOL     OW31792   2.457   4.403   1.600
10298SOL    HW131793   2.380   4.363   1.650
10298SOL    HW231794   2.473   4.350   1.517
10299SOL     OW31795   4.799   4.746   2.862
10299SOL    HW131796   4.881   4.752   2.919
10299SOL    HW231797   4.755   4.836   2.858
10300SOL     OW31798   1.292   4.318   2.265
10300SOL    HW131799   1.371   4.257   2.265
10300SOL    HW231800   1.266   4.340   2.359
10301SOL     OW31801   5.261   2.497   4.392
10301SOL    HW131802   5.206   2.477   4.311
10301SOL    HW231803   5.217   2.457   4.472
10302SOL     OW31804   1.932   6.853   3.912
10302SOL    HW131805   1.839   6.828   3.882
10302SOL    HW231806   1.935   6.950   3.936
10303SOL     OW31807   1.842   6.144   3.003
10303SOL    HW131808   1.818   6.226   2.950
10303SOL    HW231809   1.934   6.155   3.041
10304SOL     OW31810   5.370   6.639   1.650
10304SOL    HW131811   5.326   6.662   1.563
10304SOL    HW231812   5.419   6.719   1.685
10305SOL     OW31813   1.057   4.588   6.621
10305SOL    HW131814   1.007   4.530   6.685
10305SOL    HW231815   1.135   4.630   6.667
10306SOL     OW31816   4.967   6.778   6.310
10306SOL    HW131817   4.882   6.751   6.355
10306SOL    HW231818   4.948   6.810   6.218
10307SOL     OW31819   2.884   2.154   5.322
10307SOL    HW131820   2.854   2.249   5.320
10307SOL    HW231821   2.845   2.108   5.402
10308SOL     OW31822   1.844   4.163   3.334
10308SOL    HW131823   1.908   4.199   3.266
10308SOL    HW231824   1.792   4.088   3.294
10309SOL     OW31825   6.996   1.279   5.795
10309SOL    HW131826   6.968   1.193   5.839
10309SOL    HW231827   6.931   1.301   5.722
10310SOL     OW31828   3.104   3.503   1.286
10310SOL    HW131829   3.117   3.499   1.187
10310SOL    HW231830   3.006   3.508   1.307
10311SOL     OW31831   6.935   6.120   0.450
10311SOL    HW131832   6.998   6.063   0.397
10311SOL    HW231833   6.864   6.063   0.491
10312SOL     OW31834   3.564   6.010   2.528
10312SOL    HW131835   3.647   5.973   2.486
10312SOL    HW231836   3.590   6.068   2.605
10313SOL     OW31837   4.397   6.730   1.853
10313SOL    HW131838   4.351   6.643   1.834
10313SOL    HW231839   4.490   6.727   1.817
10314SOL     OW31840   6.536   0.818   2.178
10314SOL    HW131841   6.610   0.805   2.112
10314SOL    HW231842   6.451   0.782   2.139
10315SOL     OW31843   4.956   5.918   5.415
10315SOL    HW131844   5.011   5.840   5.384
10315SOL    HW231845   5.012   6.001   5.412
10316SOL     OW31846   5.886   1.735   4.170
10316SOL    HW131847   5.965   1.782   4.209
10316SOL    HW231848   5.868   1.651   4.222
10317SOL     OW31849   4.909   5.980   4.469
10317SOL    HW131850   4.877   5.986   4.375
10317SOL    HW231851   4.921   6.072   4.506
10318SOL     OW31852   5.427   6.068   6.870
10318SOL    HW131853   5.352   6.057   6.936
10318SOL    HW231854   5.395   6.042   6.779
10319SOL     OW31855   1.210   2.655   5.688
10319SOL    HW131856   1.247   2.710   5.763
10319SOL    HW231857   1.116   2.627   5.711
10320SOL     OW31858   0.293   1.063   2.925
10320SOL    HW131859   0.249   1.105   2.846
10320SOL    HW231860   0.355   0.991   2.893
10321SOL     OW31861   4.159   1.917   1.847
10321SOL    HW131862   4.171   2.003   1.896
10321SOL    HW231863   4.173   1.841   1.910
10322SOL     OW31864   6.151   5.611   5.334
10322SOL    HW131865   6.094   5.570   5.404
10322SOL    HW231866   6.123   5.706   5.319
10323SOL     OW31867   5.904   2.939   5.786
10323SOL    HW131868   5.964   2.859   5.790
10323SOL    HW231869   5.850   2.936   5.702
10324SOL     OW31870   3.657   3.381   2.418
10324SOL    HW131871   3.591   3.456   2.426
10324SOL    HW231872   3.622   3.312   2.354
10325SOL     OW31873   0.123   4.171   2.080
10325SOL    HW131874   0.149   4.107   2.152
10325SOL    HW231875   0.115   4.263   2.118
10326SOL     OW31876   3.438   4.198   0.374
10326SOL    HW131877   3.341   4.181   0.390
10326SOL    HW231878   3.449   4.273   0.309
10327SOL     OW31879   2.496   1.458   1.452
10327SOL    HW131880   2.421   1.394   1.467
10327SOL    HW231881   2.563   1.449   1.525
10328SOL     OW31882   5.780   2.757   0.860
10328SOL    HW131883   5.829   2.785   0.777
10328SOL    HW231884   5.691   2.717   0.835
10329SOL     OW31885   3.438   7.004   3.967
10329SOL    HW131886   3.466   6.908   3.959
10329SOL    HW231887   3.375   0.005   3.892
10330SOL     OW31888   4.667   0.571   2.325
10330SOL    HW131889   4.688   0.517   2.407
10330SOL    HW231890   4.568   0.575   2.312
10331SOL     OW31891   6.880   1.076   5.425
10331SOL    HW131892   6.949   1.011   5.391
10331SOL    HW231893   6.798   1.070   5.368
10332SOL     OW31894   6.870   6.974   0.567
10332SOL    HW131895   6.790   6.925   0.534
10332SOL    HW231896   6.859   6.997   0.663
10333SOL     OW31897   6.409   4.537   4.499
10333SOL    HW131898   6.415   4.477   4.579
10333SOL    HW231899   6.367   4.623   4.525
10334SOL     OW31900   3.920   6.513   3.761
10334SOL    HW131901   3.983   6.580   3.801
10334SOL    HW231902   3.848   6.561   3.712
10335SOL     OW31903   2.894   4.469   6.998
10335SOL    HW131904   2.934   4.518   6.920
10335SOL    HW231905   2.912   4.371   6.988
10336SOL     OW31906   6.740   6.237   2.643
10336SOL    HW131907   6.800   6.177   2.591
10336SOL    HW231908   6.794   6.305   2.691
10337SOL     OW31909   6.922   6.427   5.981
10337SOL    HW131910   6.868   6.510   5.991
10337SOL    HW231911   6.862   6.347   5.983
10338SOL     OW31912   2.261   6.014   2.551
10338SOL    HW131913   2.238   5.936   2.609
10338SOL    HW231914   2.178   6.057   2.517
10339SOL     OW31915   3.431   4.559   0.116
10339SOL    HW131916   3.440   4.592   0.211
10339SOL    HW231917   3.371   4.621   0.065
10340SOL     OW31918   1.717   4.688   1.110
10340SOL    HW131919   1.746   4.680   1.015
10340SOL    HW231920   1.706   4.784   1.134
10341SOL     OW31921   1.967   3.352   1.774
10341SOL    HW131922   1.979   3.341   1.675
10341SOL    HW231923   2.054   3.380   1.815
10342SOL     OW31924   1.179   0.265   5.437
10342SOL    HW131925   1.245   0.255   5.362
10342SOL    HW231926   1.087   0.247   5.404
10343SOL     OW31927   3.300   6.069   6.766
10343SOL    HW131928   3.320   6.104   6.675
10343SOL    HW231929   3.252   5.982   6.758
10344SOL     OW31930   4.532   4.251   1.634
10344SOL    HW131931   4.488   4.263   1.723
10344SOL    HW231932   4.596   4.175   1.638
10345SOL     OW31933   1.890   1.344   6.762
10345SOL    HW131934   1.855   1.250   6.752
10345SOL    HW231935   1.816   1.409   6.745
10346SOL     OW31936   6.568   6.806   1.739
10346SOL    HW131937   6.527   6.723   1.700
10346SOL    HW231938   6.496   6.873   1.758
10347SOL     OW31939   4.768   2.316   2.583
10347SOL    HW131940   4.727   2.236   2.539
10347SOL    HW231941   4.705   2.393   2.576
10348SOL     OW31942   6.616   1.454   0.303
10348SOL    HW131943   6.585   1.362   0.328
10348SOL    HW231944   6.558   1.522   0.348
10349SOL     OW31945   6.973   0.756   1.062
10349SOL    HW131946   6.916   0.680   1.092
10349SOL    HW231947   7.018   0.797   1.141
10350SOL     OW31948   1.961   6.997   5.241
10350SOL    HW131949   2.036   6.972   5.302
10350SOL    HW231950   1.966   6.942   5.157
10351SOL     OW31951   4.596   5.386   6.538
10351SOL    HW131952   4.629   5.462   6.482
10351SOL    HW231953   4.593   5.302   6.483
10352SOL     OW31954   4.278   2.580   6.452
10352SOL    HW131955   4.294   2.588   6.551
10352SOL    HW231956   4.246   2.488   6.430
10353SOL     OW31957   0.456   2.799   5.966
10353SOL    HW131958   0.538   2.782   6.020
10353SOL    HW231959   0.382   2.739   5.998
10354SOL     OW31960   5.861   2.582   1.891
10354SOL    HW131961   5.866   2.484   1.871
10354SOL    HW231962   5.842   2.632   1.806
10355SOL     OW31963   1.915   0.286   1.741
10355SOL    HW131964   1.859   0.333   1.810
10355SOL    HW231965   1.866   0.205   1.709
10356SOL     OW31966   6.980   4.673   5.845
10356SOL    HW131967   6.981   4.768   5.813
10356SOL    HW231968   6.963   4.612   5.767
10357SOL     OW31969   2.998   3.444   6.117
10357SOL    HW131970   2.907   3.426   6.153
10357SOL    HW231971   2.990   3.503   6.036
10358SOL     OW31972   6.431   3.132   3.011
10358SOL    HW131973   6.522   3.150   3.048
10358SOL    HW231974   6.425   3.036   2.982
10359SOL     OW31975   6.718   1.735   1.596
10359SOL    HW131976   6.728   1.834   1.586
10359SOL    HW231977   6.671   1.697   1.517
10360SOL     OW31978   4.662   5.729   2.637
10360SOL    HW131979   4.567   5.733   2.607
10360SOL    HW231980   4.668   5.677   2.722
10361SOL     OW31981   3.091   0.184   2.971
10361SOL    HW131982   3.011   0.232   2.934
10361SOL    HW231983   3.164   0.250   2.987
10362SOL     OW31984   0.917   4.886   4.046
10362SOL    HW131985   0.970   4.966   4.018
10362SOL    HW231986   0.824   4.915   4.069
10363SOL     OW31987   4.451   2.299   0.919
10363SOL    HW131988   4.402   2.217   0.890
10363SOL    HW231989   4.387   2.363   0.961
10364SOL     OW31990   4.098   3.637   2.246
10364SOL    HW131991   4.030   3.581   2.199
10364SOL    HW231992   4.119   3.597   2.335
10365SOL     OW31993   5.076   4.222   5.579
10365SOL    HW131994   5.022   4.304   5.563
10365SOL    HW231995   5.052   4.153   5.511
10366SOL     OW31996   4.773   0.115   3.841
10366SOL    HW131997   4.787   0.091   3.937
10366SOL    HW231998   4.825   0.197   3.819
10367SOL     OW31999   6.957   1.360   1.787
10367SOL    HW132000   6.927   1.369   1.692
10367SOL    HW232001   6.891   1.303   1.837
10368SOL     OW32002   2.049   0.853   2.137
10368SOL    HW132003   2.001   0.778   2.181
10368SOL    HW232004   2.090   0.912   2.207
10369SOL     OW32005   4.099   1.290   5.236
10369SOL    HW132006   4.010   1.245   5.245
10369SOL    HW232007   4.114   1.350   5.315
10370SOL     OW32008   5.652   1.904   5.408
10370SOL    HW132009   5.561   1.943   5.391
10370SOL    HW232010   5.676   1.842   5.334
10371SOL     OW32011   1.846   6.028   3.991
10371SOL    HW132012   1.885   6.120   3.991
10371SOL    HW232013   1.747   6.034   4.004
10372SOL     OW32014   1.587   1.490   0.154
10372SOL    HW132015   1.641   1.427   0.098
10372SOL    HW232016   1.600   1.469   0.250
10373SOL     OW32017   2.096   6.646   4.312
10373SOL    HW132018   2.152   6.602   4.382
10373SOL    HW232019   2.099   6.590   4.228
10374SOL     OW32020   4.150   1.125   2.626
10374SOL    HW132021   4.228   1.187   2.621
10374SOL    HW232022   4.179   1.033   2.601
10375SOL     OW32023   3.073   1.629   6.409
10375SOL    HW132024   2.983   1.615   6.452
10375SOL    HW232025   3.129   1.687   6.467
10376SOL     OW32026   1.336   6.332   4.194
10376SOL    HW132027   1.294   6.415   4.231
10376SOL    HW232028   1.288   6.305   4.110
10377SOL     OW32029   6.798   1.179   3.841
10377SOL    HW132030   6.850   1.194   3.758
10377SOL    HW232031   6.855   1.129   3.907
10378SOL     OW32032   5.987   0.263   5.890
10378SOL    HW132033   6.082   0.283   5.915
10378SOL    HW232034   5.933   0.347   5.892
10379SOL     OW32035   3.118   6.653   4.849
10379SOL    HW132036   3.160   6.562   4.841
10379SOL    HW232037   3.160   6.714   4.782
10380SOL     OW32038   0.697   1.986   4.253
10380SOL    HW132039   0.713   2.002   4.155
10380SOL    HW232040   0.620   2.042   4.283
10381SOL     OW32041   4.365   4.484   0.354
10381SOL    HW132042   4.333   4.555   0.417
10381SOL    HW232043   4.287   4.436   0.315
10382SOL     OW32044   2.079   4.492   0.280
10382SOL    HW132045   2.077   4.393   0.269
10382SOL    HW232046   2.144   4.532   0.215
10383SOL     OW32047   6.598   3.819   0.646
10383SOL    HW132048   6.540   3.900   0.636
10383SOL    HW232049   6.584   3.779   0.737
10384SOL     OW32050   0.615   6.839   0.883
10384SOL    HW132051   0.662   6.907   0.827
10384SOL    HW232052   0.671   6.756   0.890
10385SOL     OW32053   3.052   6.231   5.600
10385SOL    HW132054   2.963   6.253   5.561
10385SOL    HW232055   3.124   6.280   5.551
10386SOL     OW32056   6.528   2.351   5.919
10386SOL    HW132057   6.459   2.399   5.973
10386SOL    HW232058   6.600   2.414   5.893
10387SOL     OW32059   4.492   1.924   2.974
10387SOL    HW132060   4.570   1.986   2.965
10387SOL    HW232061   4.426   1.963   3.037
10388SOL     OW32062   2.089   5.725   2.640
10388SOL    HW132063   2.000   5.770   2.629
10388SOL    HW232064   2.116   5.729   2.736
10389SOL     OW32065   0.068   6.669   1.727
10389SOL    HW132066   0.045   6.726   1.805
10389SOL    HW232067   0.056   6.722   1.643
10390SOL     OW32068   2.320   2.496   1.578
10390SOL    HW132069   2.346   2.412   1.530
10390SOL    HW232070   2.353   2.575   1.527
10391SOL     OW32071   1.176   5.820   4.358
10391SOL    HW132072   1.245   5.751   4.379
10391SOL    HW232073   1.215   5.890   4.298
10392SOL     OW32074   6.671   4.570   0.239
10392SOL    HW132075   6.655   4.669   0.233
10392SOL    HW232076   6.718   4.539   0.157
10393SOL     OW32077   2.371   2.373   2.511
10393SOL    HW132078   2.370   2.273   2.511
10393SOL    HW232079   2.322   2.407   2.591
10394SOL     OW32080   2.262   6.225   4.590
10394SOL    HW132081   2.361   6.214   4.590
10394SOL    HW232082   2.228   6.220   4.684
10395SOL     OW32083   6.802   0.872   3.593
10395SOL    HW132084   6.838   0.785   3.627
10395SOL    HW232085   6.703   0.867   3.586
10396SOL     OW32086   2.443   0.603   4.396
10396SOL    HW132087   2.435   0.614   4.297
10396SOL    HW232088   2.453   0.693   4.439
10397SOL     OW32089   3.215   1.984   3.642
10397SOL    HW132090   3.249   2.034   3.722
10397SOL    HW232091   3.146   1.918   3.671
10398SOL     OW32092   5.790   2.465   0.198
10398SOL    HW132093   5.885   2.453   0.171
10398SOL    HW232094   5.754   2.377   0.230
10399SOL     OW32095   4.156   1.889   4.577
10399SOL    HW132096   4.158   1.791   4.598
10399SOL    HW232097   4.073   1.911   4.527
10400SOL     OW32098   3.727   5.700   1.044
10400SOL    HW132099   3.771   5.775   0.995
10400SOL    HW232100   3.720   5.723   1.141
10401SOL     OW32101   0.415   0.300   2.866
10401SOL    HW132102   0.337   0.356   2.837
10401SOL    HW232103   0.454   0.338   2.950
10402SOL     OW32104   0.266   2.880   5.795
10402SOL    HW132105   0.290   2.845   5.705
10402SOL    HW232106   0.337   2.856   5.861
10403SOL     OW32107   5.432   1.475   2.765
10403SOL    HW132108   5.497   1.548   2.785
10403SOL    HW232109   5.419   1.466   2.667
10404SOL     OW32110   0.215   6.434   3.725
10404SOL    HW132111   0.211   6.355   3.664
10404SOL    HW232112   0.160   6.508   3.688
10405SOL     OW32113   1.559   5.636   4.791
10405SOL    HW132114   1.658   5.622   4.779
10405SOL    HW232115   1.533   5.608   4.883
10406SOL     OW32116   2.202   3.610   5.251
10406SOL    HW132117   2.214   3.529   5.194
10406SOL    HW232118   2.291   3.656   5.262
10407SOL     OW32119   1.700   0.632   6.821
10407SOL    HW132120   1.778   0.679   6.780
10407SOL    HW232121   1.692   0.659   6.918
10408SOL     OW32122   3.464   6.207   2.008
10408SOL    HW132123   3.478   6.296   2.052
10408SOL    HW232124   3.387   6.160   2.052
10409SOL     OW32125   0.442   3.924   0.844
10409SOL    HW132126   0.516   3.952   0.905
10409SOL    HW232127   0.383   4.002   0.825
10410SOL     OW32128   5.195   1.598   1.334
10410SOL    HW132129   5.228   1.504   1.345
10410SOL    HW232130   5.160   1.611   1.242
10411SOL     OW32131   3.828   5.365   4.612
10411SOL    HW132132   3.751   5.427   4.599
10411SOL    HW232133   3.880   5.392   4.693
10412SOL     OW32134   0.510   1.313   0.699
10412SOL    HW132135   0.607   1.336   0.698
10412SOL    HW232136   0.457   1.389   0.662
10413SOL     OW32137   0.249   2.038   0.783
10413SOL    HW132138   0.206   2.091   0.710
10413SOL    HW232139   0.213   2.068   0.872
10414SOL     OW32140   4.676   6.691   6.051
10414SOL    HW132141   4.749   6.740   6.004
10414SOL    HW232142   4.622   6.640   5.984
10415SOL     OW32143   2.532   4.473   3.582
10415SOL    HW132144   2.452   4.417   3.601
10415SOL    HW232145   2.581   4.437   3.503
10416SOL     OW32146   6.008   0.939   5.538
10416SOL    HW132147   5.931   0.971   5.483
10416SOL    HW232148   6.009   0.988   5.625
10417SOL     OW32149   4.843   3.942   4.209
10417SOL    HW132150   4.822   4.040   4.204
10417SOL    HW232151   4.803   3.904   4.292
10418SOL     OW32152   6.197   4.210   5.291
10418SOL    HW132153   6.263   4.151   5.244
10418SOL    HW232154   6.212   4.204   5.390
10419SOL     OW32155   3.161   0.530   5.536
10419SOL    HW132156   3.107   0.470   5.477
10419SOL    HW232157   3.218   0.474   5.596
10420SOL     OW32158   6.790   3.448   3.725
10420SOL    HW132159   6.843   3.502   3.790
10420SOL    HW232160   6.747   3.371   3.773
10421SOL     OW32161   1.556   3.217   4.823
10421SOL    HW132162   1.499   3.187   4.899
10421SOL    HW232163   1.650   3.226   4.853
10422SOL     OW32164   6.435   3.536   5.529
10422SOL    HW132165   6.370   3.581   5.590
10422SOL    HW232166   6.528   3.551   5.563
10423SOL     OW32167   4.262   4.832   5.148
10423SOL    HW132168   4.264   4.912   5.209
10423SOL    HW232169   4.211   4.854   5.065
10424SOL     OW32170   4.006   2.318   0.403
10424SOL    HW132171   3.915   2.336   0.367
10424SOL    HW232172   4.056   2.404   0.413
10425SOL     OW32173   0.720   5.881   1.446
10425SOL    HW132174   0.758   5.822   1.374
10425SOL    HW232175   0.729   5.835   1.534
10426SOL     OW32176   5.514   3.444   5.256
10426SOL    HW132177   5.574   3.385   5.203
10426SOL    HW232178   5.563   3.477   5.337
10427SOL     OW32179   5.277   6.726   6.739
10427SOL    HW132180   5.268   6.781   6.822
10427SOL    HW232181   5.313   6.784   6.665
10428SOL     OW32182   2.025   1.764   4.455
10428SOL    HW132183   2.039   1.832   4.527
10428SOL    HW232184   2.091   1.689   4.467
10429SOL     OW32185   0.944   3.774   3.374
10429SOL    HW132186   0.855   3.813   3.400
10429SOL    HW232187   0.936   3.731   3.284
10430SOL     OW32188   4.148   6.227   4.481
10430SOL    HW132189   4.097   6.227   4.395
10430SOL    HW232190   4.085   6.214   4.557
10431SOL     OW32191   2.918   0.919   4.408
10431SOL    HW132192   2.979   0.948   4.334
10431SOL    HW232193   2.910   0.820   4.407
10432SOL     OW32194   0.069   1.762   5.418
10432SOL    HW132195   0.028   1.838   5.368
10432SOL    HW232196   0.125   1.708   5.355
10433SOL     OW32197   6.839   6.434   2.294
10433SOL    HW132198   6.901   6.372   2.342
10433SOL    HW232199   6.823   6.400   2.201
10434SOL     OW32200   4.655   6.467   4.914
10434SOL    HW132201   4.595   6.395   4.878
10434SOL    HW232202   4.661   6.541   4.847
10435SOL     OW32203   1.735   2.270   5.829
10435SOL    HW132204   1.800   2.296   5.757
10435SOL    HW232205   1.785   2.240   5.910
10436SOL     OW32206   6.376   3.979   3.907
10436SOL    HW132207   6.370   4.003   4.004
10436SOL    HW232208   6.389   3.880   3.898
10437SOL     OW32209   5.516   4.855   5.233
10437SOL    HW132210   5.585   4.784   5.246
10437SOL    HW232211   5.513   4.914   5.313
10438SOL     OW32212   0.004   6.076   5.928
10438SOL    HW132213   6.990   5.985   5.907
10438SOL    HW232214   0.098   6.069   5.961
10439SOL     OW32215   5.794   1.521   5.398
10439SOL    HW132216   5.724   1.560   5.456
10439SOL    HW232217   5.752   1.486   5.314
10440SOL     OW32218   6.935   6.796   6.882
10440SOL    HW132219   6.994   6.717   6.903
10440SOL    HW232220   6.839   6.767   6.882
10441SOL     OW32221   2.948   1.218   1.127
10441SOL    HW132222   2.935   1.187   1.221
10441SOL    HW232223   3.041   1.197   1.097
10442SOL     OW32224   4.401   0.399   4.502
10442SOL    HW132225   4.338   0.322   4.507
10442SOL    HW232226   4.472   0.380   4.435
10443SOL     OW32227   6.507   2.568   2.752
10443SOL    HW132228   6.470   2.652   2.710
10443SOL    HW232229   6.515   2.581   2.851
10444SOL     OW32230   3.759   5.041   2.419
10444SOL    HW132231   3.701   5.004   2.492
10444SOL    HW232232   3.721   5.016   2.330
10445SOL     OW32233   0.414   3.826   2.696
10445SOL    HW132234   0.513   3.825   2.682
10445SOL    HW232235   0.394   3.863   2.787
10446SOL     OW32236   1.888   3.851   6.293
10446SOL    HW132237   1.896   3.942   6.252
10446SOL    HW232238   1.920   3.783   6.228
10447SOL     OW32239   7.019   0.302   2.151
10447SOL    HW132240   0.012   0.247   2.234
10447SOL    HW232241   0.007   0.399   2.173
10448SOL     OW32242   3.271   0.504   2.436
10448SOL    HW132243   3.330   0.435   2.394
10448SOL    HW232244   3.265   0.488   2.534
10449SOL     OW32245   2.808   5.720   6.589
10449SOL    HW132246   2.845   5.652   6.527
10449SOL    HW232247   2.739   5.776   6.542
10450SOL     OW32248   6.703   1.123   6.565
10450SOL    HW132249   6.748   1.133   6.477
10450SOL    HW232250   6.771   1.116   6.638
10451SOL     OW32251   3.322   7.010   2.828
10451SOL    HW132252   3.318   0.024   2.922
10451SOL    HW232253   3.349   6.914   2.830
10452SOL     OW32254   6.748   3.491   2.825
10452SOL    HW132255   6.835   3.442   2.827
10452SOL    HW232256   6.691   3.454   2.751
10453SOL     OW32257   4.565   6.143   2.433
10453SOL    HW132258   4.595   6.170   2.341
10453SOL    HW232259   4.606   6.056   2.457
10454SOL     OW32260   5.451   1.223   0.907
10454SOL    HW132261   5.462   1.226   1.007
10454SOL    HW232262   5.380   1.286   0.879
10455SOL     OW32263   0.307   5.712   4.026
10455SOL    HW132264   0.350   5.793   4.066
10455SOL    HW232265   0.241   5.741   3.956
10456SOL     OW32266   0.398   5.619   0.546
10456SOL    HW132267   0.453   5.540   0.518
10456SOL    HW232268   0.434   5.701   0.502
10457SOL     OW32269   4.013   2.899   0.405
10457SOL    HW132270   4.094   2.958   0.404
10457SOL    HW232271   4.042   2.804   0.395
10458SOL     OW32272   6.207   6.571   6.921
10458SOL    HW132273   6.162   6.498   6.870
10458SOL    HW232274   6.288   6.535   6.966
10459SOL     OW32275   4.961   5.090   1.148
10459SOL    HW132276   4.988   5.178   1.187
10459SOL    HW232277   4.882   5.054   1.197
10460SOL     OW32278   0.654   3.710   2.041
10460SOL    HW132279   0.669   3.614   2.062
10460SOL    HW232280   0.741   3.759   2.045
10461SOL     OW32281   6.135   4.839   5.483
10461SOL    HW132282   6.191   4.761   5.455
10461SOL    HW232283   6.144   4.853   5.582
10462SOL     OW32284   5.980   2.267   2.810
10462SOL    HW132285   6.001   2.322   2.730
10462SOL    HW232286   5.924   2.321   2.874
10463SOL     OW32287   4.441   2.136   6.005
10463SOL    HW132288   4.523   2.090   5.971
10463SOL    HW232289   4.369   2.068   6.021
10464SOL     OW32290   5.836   6.414   2.110
10464SOL    HW132291   5.876   6.500   2.141
10464SOL    HW232292   5.841   6.409   2.010
10465SOL     OW32293   4.594   5.688   1.733
10465SOL    HW132294   4.630   5.732   1.815
10465SOL    HW232295   4.562   5.758   1.669
10466SOL     OW32296   4.845   4.810   5.556
10466SOL    HW132297   4.858   4.750   5.635
10466SOL    HW232298   4.765   4.868   5.571
10467SOL     OW32299   1.703   2.231   0.662
10467SOL    HW132300   1.620   2.263   0.708
10467SOL    HW232301   1.783   2.279   0.699
10468SOL     OW32302   4.214   5.081   4.122
10468SOL    HW132303   4.219   4.981   4.110
10468SOL    HW232304   4.118   5.109   4.125
10469SOL     OW32305   4.474   4.215   5.804
10469SOL    HW132306   4.489   4.117   5.817
10469SOL    HW232307   4.562   4.261   5.793
10470SOL     OW32308   2.528   1.431   3.478
10470SOL    HW132309   2.579   1.394   3.401
10470SOL    HW232310   2.580   1.505   3.521
10471SOL     OW32311   2.440   0.468   0.436
10471SOL    HW132312   2.449   0.498   0.531
10471SOL    HW232313   2.393   0.539   0.383
10472SOL     OW32314   2.914   5.866   0.214
10472SOL    HW132315   2.920   5.767   0.226
10472SOL    HW232316   2.907   5.910   0.304
10473SOL     OW32317   5.878   6.800   5.747
10473SOL    HW132318   5.930   6.753   5.818
10473SOL    HW232319   5.906   6.896   5.743
10474SOL     OW32320   4.324   1.093   4.135
10474SOL    HW132321   4.291   1.104   4.041
10474SOL    HW232322   4.422   1.109   4.138
10475SOL     OW32323   3.322   6.807   2.014
10475SOL    HW132324   3.279   6.888   2.053
10475SOL    HW232325   3.277   6.783   1.928
10476SOL     OW32326   5.139   6.406   6.245
10476SOL    HW132327   5.152   6.479   6.178
10476SOL    HW232328   5.084   6.440   6.321
10477SOL     OW32329   6.802   0.949   4.990
10477SOL    HW132330   6.715   0.947   5.040
10477SOL    HW232331   6.833   0.856   4.972
10478SOL     OW32332   6.652   6.578   6.894
10478SOL    HW132333   6.661   6.658   6.953
10478SOL    HW232334   6.718   6.508   6.921
10479SOL     OW32335   6.772   1.525   1.935
10479SOL    HW132336   6.741   1.456   2.001
10479SOL    HW232337   6.837   1.483   1.872
10480SOL     OW32338   1.129   1.235   2.162
10480SOL    HW132339   1.157   1.140   2.149
10480SOL    HW232340   1.048   1.238   2.220
10481SOL     OW32341   1.878   6.555   3.098
10481SOL    HW132342   1.865   6.625   3.027
10481SOL    HW232343   1.896   6.599   3.185
10482SOL     OW32344   6.436   5.235   4.454
10482SOL    HW132345   6.453   5.256   4.358
10482SOL    HW232346   6.396   5.315   4.499
10483SOL     OW32347   5.113   5.562   0.352
10483SOL    HW132348   5.039   5.496   0.363
10483SOL    HW232349   5.159   5.546   0.264
10484SOL     OW32350   4.847   1.813   1.932
10484SOL    HW132351   4.841   1.910   1.906
10484SOL    HW232352   4.916   1.768   1.876
10485SOL     OW32353   2.989   4.373   0.342
10485SOL    HW132354   2.967   4.390   0.438
10485SOL    HW232355   3.035   4.453   0.304
10486SOL     OW32356   0.434   0.728   0.747
10486SOL    HW132357   0.354   0.703   0.693
10486SOL    HW232358   0.412   0.805   0.806
10487SOL     OW32359   4.629   0.349   1.404
10487SOL    HW132360   4.535   0.330   1.377
10487SOL    HW232361   4.631   0.379   1.500
10488SOL     OW32362   3.187   1.634   5.453
10488SOL    HW132363   3.199   1.730   5.476
10488SOL    HW232364   3.156   1.626   5.358
10489SOL     OW32365   0.470   6.768   5.306
10489SOL    HW132366   0.431   6.813   5.386
10489SOL    HW232367   0.506   6.837   5.243
10490SOL     OW32368   6.038   1.316   1.185
10490SOL    HW132369   6.114   1.270   1.140
10490SOL    HW232370   6.072   1.383   1.250
10491SOL     OW32371   1.557   3.406   6.987
10491SOL    HW132372   1.510   3.412   0.054
10491SOL    HW232373   1.512   3.467   6.921
10492SOL     OW32374   5.904   4.222   5.395
10492SOL    HW132375   5.970   4.282   5.440
10492SOL    HW232376   5.861   4.163   5.464
10493SOL     OW32377   3.445   0.512   1.703
10493SOL    HW132378   3.479   0.605   1.687
10493SOL    HW232379   3.485   0.450   1.635
10494SOL     OW32380   5.223   3.839   5.947
10494SOL    HW132381   5.181   3.918   5.903
10494SOL    HW232382   5.315   3.864   5.979
10495SOL     OW32383   2.684   6.840   0.127
10495SOL    HW132384   2.632   6.851   0.042
10495SOL    HW232385   2.625   6.799   0.197
10496SOL     OW32386   0.293   4.463   6.461
10496SOL    HW132387   0.358   4.431   6.529
10496SOL    HW232388   0.212   4.404   6.462
10497SOL     OW32389   2.348   7.009   2.273
10497SOL    HW132390   2.397   0.029   2.196
10497SOL    HW232391   2.346   6.909   2.260
10498SOL     OW32392   3.182   5.556   1.485
10498SOL    HW132393   3.130   5.532   1.567
10498SOL    HW232394   3.241   5.479   1.460
10499SOL     OW32395   3.603   6.832   2.533
10499SOL    HW132396   3.637   6.875   2.617
10499SOL    HW232397   3.595   6.900   2.461
10500SOL     OW32398   6.845   1.129   6.329
10500SOL    HW132399   6.887   1.180   6.253
10500SOL    HW232400   6.809   1.042   6.295
10501SOL     OW32401   2.310   5.622   3.006
10501SOL    HW132402   2.363   5.587   2.929
10501SOL    HW232403   2.241   5.687   2.972
10502SOL     OW32404   2.675   0.274   0.867
10502SOL    HW132405   2.728   0.276   0.782
10502SOL    HW232406   2.637   0.183   0.881
10503SOL     OW32407   3.776   2.937   0.598
10503SOL    HW132408   3.776   2.998   0.518
10503SOL    HW232409   3.684   2.900   0.612
10504SOL     OW32410   1.945   1.714   6.676
10504SOL    HW132411   1.876   1.781   6.651
10504SOL    HW232412   2.029   1.731   6.625
10505SOL     OW32413   5.066   6.268   0.614
10505SOL    HW132414   5.120   6.197   0.658
10505SOL    HW232415   4.987   6.227   0.569
10506SOL     OW32416   7.004   5.394   0.051
10506SOL    HW132417   0.062   5.430   0.001
10506SOL    HW232418   0.014   5.349   0.134
10507SOL     OW32419   2.266   0.133   0.072
10507SOL    HW132420   2.242   0.197   7.020
10507SOL    HW232421   2.344   0.078   0.043
10508SOL     OW32422   6.204   6.779   4.596
10508SOL    HW132423   6.224   6.739   4.686
10508SOL    HW232424   6.111   6.814   4.595
10509SOL     OW32425   0.705   6.728   4.833
10509SOL    HW132426   0.710   6.801   4.764
10509SOL    HW232427   0.779   6.662   4.817
10510SOL     OW32428   4.885   5.959   6.352
10510SOL    HW132429   4.982   5.946   6.372
10510SOL    HW232430   4.871   5.956   6.253
10511SOL     OW32431   4.398   1.627   1.819
10511SOL    HW132432   4.492   1.604   1.795
10511SOL    HW232433   4.381   1.606   1.915
10512SOL     OW32434   3.978   6.885   5.353
10512SOL    HW132435   4.068   6.873   5.313
10512SOL    HW232436   3.985   6.877   5.453
10513SOL     OW32437   6.657   3.017   4.277
10513SOL    HW132438   6.598   3.056   4.206
10513SOL    HW232439   6.631   2.922   4.294
10514SOL     OW32440   6.871   3.792   0.369
10514SOL    HW132441   6.778   3.762   0.393
10514SOL    HW232442   6.867   3.851   0.289
10515SOL     OW32443   0.593   3.247   2.809
10515SOL    HW132444   0.520   3.314   2.804
10515SOL    HW232445   0.674   3.283   2.763
10516SOL     OW32446   3.886   1.141   0.491
10516SOL    HW132447   3.964   1.197   0.521
10516SOL    HW232448   3.914   1.086   0.413
10517SOL     OW32449   0.468   2.798   2.446
10517SOL    HW132450   0.539   2.731   2.424
10517SOL    HW232451   0.511   2.888   2.459
10518SOL     OW32452   1.253   5.306   6.874
10518SOL    HW132453   1.156   5.288   6.857
10518SOL    HW232454   1.270   5.405   6.870
10519SOL     OW32455   2.248   3.082   6.824
10519SOL    HW132456   2.187   3.018   6.872
10519SOL    HW232457   2.322   3.110   6.885
10520SOL     OW32458   0.947   2.732   6.640
10520SOL    HW132459   1.008   2.714   6.562
10520SOL    HW232460   0.998   2.719   6.725
10521SOL     OW32461   5.496   6.150   2.155
10521SOL    HW132462   5.453   6.121   2.240
10521SOL    HW232463   5.591   6.176   2.172
10522SOL     OW32464   6.335   0.415   6.303
10522SOL    HW132465   6.249   0.465   6.297
10522SOL    HW232466   6.397   0.462   6.365
10523SOL     OW32467   0.575   4.739   4.034
10523SOL    HW132468   0.631   4.700   3.961
10523SOL    HW232469   0.627   4.810   4.081
10524SOL     OW32470   1.902   0.553   4.701
10524SOL    HW132471   1.903   0.604   4.787
10524SOL    HW232472   1.872   0.613   4.627
10525SOL     OW32473   3.241   6.703   5.912
10525SOL    HW132474   3.189   6.697   5.997
10525SOL    HW232475   3.331   6.744   5.930
10526SOL     OW32476   0.868   0.107   3.591
10526SOL    HW132477   0.940   0.121   3.658
10526SOL    HW232478   0.896   0.146   3.503
10527SOL     OW32479   6.360   1.990   4.596
10527SOL    HW132480   6.339   2.087   4.582
10527SOL    HW232481   6.447   1.982   4.645
10528SOL     OW32482   2.108   3.333   5.941
10528SOL    HW132483   2.160   3.409   5.903
10528SOL    HW232484   2.107   3.341   6.041
10529SOL     OW32485   2.230   5.851   4.043
10529SOL    HW132486   2.302   5.891   3.987
10529SOL    HW232487   2.268   5.779   4.100
10530SOL     OW32488   2.111   0.621   6.679
10530SOL    HW132489   2.129   0.543   6.618
10530SOL    HW232490   2.193   0.678   6.684
10531SOL     OW32491   1.364   3.020   3.756
10531SOL    HW132492   1.293   3.046   3.821
10531SOL    HW232493   1.329   3.030   3.663
10532SOL     OW32494   1.135   4.639   6.162
10532SOL    HW132495   1.161   4.667   6.255
10532SOL    HW232496   1.144   4.718   6.100
10533SOL     OW32497   2.644   1.269   4.957
10533SOL    HW132498   2.642   1.169   4.957
10533SOL    HW232499   2.656   1.302   4.864
10534SOL     OW32500   5.915   5.857   1.579
10534SOL    HW132501   5.881   5.946   1.548
10534SOL    HW232502   6.001   5.870   1.629
10535SOL     OW32503   0.825   1.887   1.334
10535SOL    HW132504   0.833   1.952   1.258
10535SOL    HW232505   0.779   1.930   1.411
10536SOL     OW32506   3.745   0.723   3.169
10536SOL    HW132507   3.806   0.710   3.247
10536SOL    HW232508   3.680   0.796   3.190
10537SOL     OW32509   3.772   5.401   4.283
10537SOL    HW132510   3.680   5.370   4.258
10537SOL    HW232511   3.808   5.343   4.356
10538SOL     OW32512   5.247   2.693   0.433
10538SOL    HW132513   5.148   2.687   0.447
10538SOL    HW232514   5.293   2.664   0.517
10539SOL     OW32515   0.176   3.807   0.022
10539SOL    HW132516   0.245   3.772   0.085
10539SOL    HW232517   0.118   3.873   0.069
10540SOL     OW32518   1.467   3.058   5.114
10540SOL    HW132519   1.410   2.996   5.168
10540SOL    HW232520   1.548   3.084   5.167
10541SOL     OW32521   3.936   3.854   2.248
10541SOL    HW132522   4.003   3.780   2.242
10541SOL    HW232523   3.887   3.848   2.335
10542SOL     OW32524   6.595   0.646   5.443
10542SOL    HW132525   6.517   0.708   5.455
10542SOL    HW232526   6.674   0.683   5.493
10543SOL     OW32527   0.428   1.008   5.419
10543SOL    HW132528   0.447   0.921   5.465
10543SOL    HW232529   0.342   1.046   5.454
10544SOL     OW32530   2.138   6.781   1.996
10544SOL    HW132531   2.187   6.787   2.083
10544SOL    HW232532   2.201   6.803   1.921
10545SOL     OW32533   6.108   1.044   3.063
10545SOL    HW132534   6.009   1.042   3.063
10545SOL    HW232535   6.140   1.094   2.983
10546SOL     OW32536   1.378   0.749   6.769
10546SOL    HW132537   1.416   0.666   6.730
10546SOL    HW232538   1.280   0.754   6.748
10547SOL     OW32539   5.697   2.649   2.087
10547SOL    HW132540   5.736   2.684   2.173
10547SOL    HW232541   5.771   2.621   2.026
10548SOL     OW32542   5.337   4.139   4.882
10548SOL    HW132543   5.250   4.095   4.906
10548SOL    HW232544   5.366   4.197   4.958
10549SOL     OW32545   6.753   7.004   1.730
10549SOL    HW132546   6.707   6.916   1.736
10549SOL    HW232547   6.773   0.004   1.634
10550SOL     OW32548   4.373   6.286   4.600
10550SOL    HW132549   4.403   6.376   4.566
10550SOL    HW232550   4.298   6.253   4.543
10551SOL     OW32551   1.800   2.648   6.719
10551SOL    HW132552   1.846   2.638   6.807
10551SOL    HW232553   1.818   2.568   6.662
10552SOL     OW32554   3.270   1.412   6.392
10552SOL    HW132555   3.271   1.376   6.486
10552SOL    HW232556   3.205   1.488   6.386
10553SOL     OW32557   0.566   5.069   1.746
10553SOL    HW132558   0.545   5.017   1.829
10553SOL    HW232559   0.661   5.052   1.719
10554SOL     OW32560   5.223   5.120   0.337
10554SOL    HW132561   5.206   5.162   0.247
10554SOL    HW232562   5.145   5.139   0.397
10555SOL     OW32563   1.678   3.452   0.634
10555SOL    HW132564   1.691   3.355   0.610
10555SOL    HW232565   1.696   3.508   0.553
10556SOL     OW32566   2.296   2.306   5.038
10556SOL    HW132567   2.390   2.338   5.033
10556SOL    HW232568   2.272   2.287   5.134
10557SOL     OW32569   2.572   2.072   3.186
10557SOL    HW132570   2.479   2.036   3.178
10557SOL    HW232571   2.586   2.143   3.117
10558SOL     OW32572   3.781   0.863   3.561
10558SOL    HW132573   3.818   0.942   3.610
10558SOL    HW232574   3.751   0.794   3.627
10559SOL     OW32575   4.728   0.464   1.171
10559SOL    HW132576   4.714   0.477   1.270
10559SOL    HW232577   4.675   0.532   1.121
10560SOL     OW32578   3.466   6.078   3.702
10560SOL    HW132579   3.393   6.122   3.650
10560SOL    HW232580   3.551   6.082   3.650
10561SOL     OW32581   3.107   4.687   1.139
10561SOL    HW132582   3.051   4.652   1.064
10561SOL    HW232583   3.163   4.763   1.106
10562SOL     OW32584   4.642   5.871   0.258
10562SOL    HW132585   4.587   5.881   0.175
10562SOL    HW232586   4.739   5.877   0.234
10563SOL     OW32587   0.549   1.448   3.860
10563SOL    HW132588   0.591   1.495   3.938
10563SOL    HW232589   0.515   1.359   3.890
10564SOL     OW32590   5.731   6.723   1.935
10564SOL    HW132591   5.738   6.819   1.908
10564SOL    HW232592   5.802   6.703   2.004
10565SOL     OW32593   6.659   0.490   6.395
10565SOL    HW132594   6.641   0.421   6.466
10565SOL    HW232595   6.707   0.448   6.319
10566SOL     OW32596   4.058   2.520   0.159
10566SOL    HW132597   3.962   2.491   0.166
10566SOL    HW232598   4.069   2.583   0.082
10567SOL     OW32599   2.762   1.899   4.058
10567SOL    HW132600   2.857   1.901   4.028
10567SOL    HW232601   2.756   1.927   4.154
10568SOL     OW32602   6.250   2.097   0.925
10568SOL    HW132603   6.267   2.137   1.015
10568SOL    HW232604   6.165   2.134   0.887
10569SOL     OW32605   5.783   2.323   1.839
10569SOL    HW132606   5.755   2.369   1.755
10569SOL    HW232607   5.845   2.247   1.816
10570SOL     OW32608   1.796   5.172   3.431
10570SOL    HW132609   1.853   5.190   3.511
10570SOL    HW232610   1.707   5.217   3.443
10571SOL     OW32611   0.051   5.240   4.762
10571SOL    HW132612   6.995   5.203   4.814
10571SOL    HW232613   0.069   5.181   4.683
10572SOL     OW32614   0.046   4.110   3.949
10572SOL    HW132615   7.019   4.067   4.026
10572SOL    HW232616   0.048   4.046   3.872
10573SOL     OW32617   4.545   0.109   5.133
10573SOL    HW132618   4.552   0.153   5.222
10573SOL    HW232619   4.485   0.029   5.139
10574SOL     OW32620   1.201   1.789   4.037
10574SOL    HW132621   1.277   1.813   3.976
10574SOL    HW232622   1.210   1.693   4.065
10575SOL     OW32623   6.950   1.434   2.954
10575SOL    HW132624   6.885   1.361   2.977
10575SOL    HW232625   7.011   1.402   2.882
10576SOL     OW32626   0.295   5.548   5.294
10576SOL    HW132627   0.223   5.478   5.290
10576SOL    HW232628   0.290   5.606   5.213
10577SOL     OW32629   1.836   2.605   0.018
10577SOL    HW132630   1.786   2.683   7.002
10577SOL    HW232631   1.853   2.619   0.116
10578SOL     OW32632   5.712   0.737   3.239
10578SOL    HW132633   5.765   0.816   3.271
10578SOL    HW232634   5.748   0.653   3.280
10579SOL     OW32635   4.651   2.045   1.188
10579SOL    HW132636   4.600   1.980   1.244
10579SOL    HW232637   4.603   2.133   1.185
10580SOL     OW32638   6.863   0.401   6.842
10580SOL    HW132639   6.783   0.356   6.802
10580SOL    HW232640   6.943   0.383   6.785
10581SOL     OW32641   0.165   0.348   3.196
10581SOL    HW132642   0.261   0.337   3.223
10581SOL    HW232643   0.133   0.438   3.224
10582SOL     OW32644   5.113   5.211   0.057
10582SOL    HW132645   5.057   5.251   7.005
10582SOL    HW232646   5.189   5.161   0.016
10583SOL     OW32647   3.831   1.496   5.154
10583SOL    HW132648   3.848   1.422   5.090
10583SOL    HW232649   3.917   1.527   5.194
10584SOL     OW32650   6.399   6.262   1.567
10584SOL    HW132651   6.350   6.273   1.480
10584SOL    HW232652   6.496   6.250   1.549
10585SOL     OW32653   2.247   2.841   5.652
10585SOL    HW132654   2.216   2.758   5.699
10585SOL    HW232655   2.186   2.917   5.673
10586SOL     OW32656   0.468   4.856   4.296
10586SOL    HW132657   0.389   4.917   4.304
10586SOL    HW232658   0.439   4.769   4.254
10587SOL     OW32659   5.804   4.065   7.008
10587SOL    HW132660   5.798   4.130   0.063
10587SOL    HW232661   5.767   3.977   0.015
10588SOL     OW32662   0.294   3.636   3.421
10588SOL    HW132663   0.238   3.666   3.343
10588SOL    HW232664   0.236   3.589   3.487
10589SOL     OW32665   6.188   1.268   4.804
10589SOL    HW132666   6.265   1.250   4.866
10589SOL    HW232667   6.218   1.330   4.732
10590SOL     OW32668   0.998   0.415   1.731
10590SOL    HW132669   1.061   0.448   1.801
10590SOL    HW232670   1.003   0.316   1.726
10591SOL     OW32671   1.023   1.670   6.179
10591SOL    HW132672   0.988   1.619   6.258
10591SOL    HW232673   0.994   1.625   6.095
10592SOL     OW32674   6.253   3.228   1.105
10592SOL    HW132675   6.297   3.318   1.099
10592SOL    HW232676   6.182   3.221   1.036
10593SOL     OW32677   1.859   5.129   0.319
10593SOL    HW132678   1.940   5.157   0.371
10593SOL    HW232679   1.829   5.039   0.350
10594SOL     OW32680   5.366   0.786   2.102
10594SOL    HW132681   5.452   0.786   2.051
10594SOL    HW232682   5.302   0.851   2.059
10595SOL     OW32683   3.905   6.728   5.080
10595SOL    HW132684   3.849   6.649   5.106
10595SOL    HW232685   3.994   6.722   5.124
10596SOL     OW32686   4.727   0.048   0.099
10596SOL    HW132687   4.701   6.982   0.140
10596SOL    HW232688   4.827   0.054   0.093
10597SOL     OW32689   3.433   1.465   4.838
10597SOL    HW132690   3.380   1.411   4.773
10597SOL    HW232691   3.416   1.562   4.823
10598SOL     OW32692   2.976   2.765   6.755
10598SOL    HW132693   2.917   2.725   6.684
10598SOL    HW232694   2.937   2.744   6.845
10599SOL     OW32695   4.758   2.586   6.379
10599SOL    HW132696   4.810   2.662   6.341
10599SOL    HW232697   4.660   2.606   6.372
10600SOL     OW32698   1.916   2.551   0.554
10600SOL    HW132699   1.962   2.488   0.616
10600SOL    HW232700   1.983   2.586   0.488
10601SOL     OW32701   1.488   4.134   6.198
10601SOL    HW132702   1.512   4.223   6.159
10601SOL    HW232703   1.479   4.144   6.297
10602SOL     OW32704   5.008   2.219   3.550
10602SOL    HW132705   4.949   2.138   3.555
10602SOL    HW232706   5.090   2.197   3.496
10603SOL     OW32707   2.371   5.619   3.852
10603SOL    HW132708   2.408   5.672   3.776
10603SOL    HW232709   2.284   5.579   3.825
10604SOL     OW32710   5.753   3.974   5.317
10604SOL    HW132711   5.684   4.012   5.256
10604SOL    HW232712   5.711   3.906   5.376
10605SOL     OW32713   1.636   4.959   1.011
10605SOL    HW132714   1.692   5.013   0.949
10605SOL    HW232715   1.629   5.006   1.099
10606SOL     OW32716   6.758   6.863   2.232
10606SOL    HW132717   6.830   6.928   2.209
10606SOL    HW232718   6.696   6.852   2.155
10607SOL     OW32719   3.994   4.783   6.428
10607SOL    HW132720   4.022   4.789   6.332
10607SOL    HW232721   3.955   4.692   6.445
10608SOL     OW32722   5.185   2.080   5.876
10608SOL    HW132723   5.141   2.081   5.966
10608SOL    HW232724   5.191   2.174   5.842
10609SOL     OW32725   3.060   6.841   1.541
10609SOL    HW132726   3.146   6.799   1.511
10609SOL    HW232727   3.059   6.937   1.512
10610SOL     OW32728   1.200   3.239   6.005
10610SOL    HW132729   1.168   3.213   5.914
10610SOL    HW232730   1.141   3.197   6.075
10611SOL     OW32731   4.128   3.827   5.846
10611SOL    HW132732   4.163   3.779   5.765
10611SOL    HW232733   4.028   3.837   5.837
10612SOL     OW32734   2.921   0.538   5.671
10612SOL    HW132735   3.007   0.544   5.620
10612SOL    HW232736   2.878   0.449   5.653
10613SOL     OW32737   6.522   6.938   5.537
10613SOL    HW132738   6.493   7.000   5.610
10613SOL    HW232739   6.445   6.919   5.477
10614SOL     OW32740   6.535   2.664   4.554
10614SOL    HW132741   6.507   2.689   4.462
10614SOL    HW232742   6.606   2.593   4.550
10615SOL     OW32743   3.363   6.148   5.366
10615SOL    HW132744   3.342   6.068   5.423
10615SOL    HW232745   3.443   6.195   5.402
10616SOL     OW32746   2.852   6.561   1.047
10616SOL    HW132747   2.794   6.557   1.128
10616SOL    HW232748   2.919   6.634   1.056
10617SOL     OW32749   2.213   2.423   0.532
10617SOL    HW132750   2.208   2.489   0.457
10617SOL    HW232751   2.185   2.333   0.500
10618SOL     OW32752   6.577   3.906   6.350
10618SOL    HW132753   6.544   3.846   6.278
10618SOL    HW232754   6.604   3.852   6.429
10619SOL     OW32755   6.599   4.094   2.459
10619SOL    HW132756   6.588   4.138   2.548
10619SOL    HW232757   6.692   4.108   2.425
10620SOL     OW32758   1.656   5.271   5.570
10620SOL    HW132759   1.665   5.228   5.480
10620SOL    HW232760   1.569   5.321   5.573
10621SOL     OW32761   1.185   6.335   1.710
10621SOL    HW132762   1.210   6.342   1.614
10621SOL    HW232763   1.179   6.238   1.736
10622SOL     OW32764   4.990   1.016   1.207
10622SOL    HW132765   5.062   0.962   1.163
10622SOL    HW232766   4.944   0.960   1.275
10623SOL     OW32767   0.172   4.564   4.237
10623SOL    HW132768   0.139   4.490   4.179
10623SOL    HW232769   0.114   4.644   4.225
10624SOL     OW32770   0.522   1.756   4.477
10624SOL    HW132771   0.523   1.826   4.548
10624SOL    HW232772   0.606   1.762   4.423
10625SOL     OW32773   0.590   4.201   0.068
10625SOL    HW132774   0.584   4.129   7.020
10625SOL    HW232775   0.547   4.169   0.153
10626SOL     OW32776   2.352   3.073   1.027
10626SOL    HW132777   2.430   3.070   1.090
10626SOL    HW232778   2.309   2.983   1.024
10627SOL     OW32779   5.574   5.980   1.038
10627SOL    HW132780   5.507   6.030   1.092
10627SOL    HW232781   5.655   5.960   1.093
10628SOL     OW32782   4.893   5.629   6.957
10628SOL    HW132783   4.856   5.539   6.981
10628SOL    HW232784   4.821   5.685   6.916
10629SOL     OW32785   2.736   4.757   4.760
10629SOL    HW132786   2.636   4.753   4.749
10629SOL    HW232787   2.762   4.712   4.845
10630SOL     OW32788   6.571   1.547   4.123
10630SOL    HW132789   6.639   1.534   4.195
10630SOL    HW232790   6.617   1.546   4.034
10631SOL     OW32791   2.398   5.182   5.060
10631SOL    HW132792   2.476   5.120   5.072
10631SOL    HW232793   2.318   5.129   5.030
10632SOL     OW32794   5.623   1.719   3.741
10632SOL    HW132795   5.670   1.687   3.659
10632SOL    HW232796   5.684   1.710   3.820
10633SOL     OW32797   2.783   3.908   1.647
10633SOL    HW132798   2.727   3.912   1.729
10633SOL    HW232799   2.819   3.999   1.626
10634SOL     OW32800   2.900   5.524   1.155
10634SOL    HW132801   2.931   5.455   1.220
10634SOL    HW232802   2.848   5.594   1.204
10635SOL     OW32803   3.689   1.433   0.969
10635SOL    HW132804   3.707   1.380   0.887
10635SOL    HW232805   3.759   1.413   1.038
10636SOL     OW32806   1.105   1.292   1.551
10636SOL    HW132807   1.016   1.247   1.539
10636SOL    HW232808   1.099   1.387   1.518
10637SOL     OW32809   3.000   4.904   5.627
10637SOL    HW132810   2.905   4.872   5.628
10637SOL    HW232811   3.018   4.951   5.540
10638SOL     OW32812   0.452   5.491   3.095
10638SOL    HW132813   0.523   5.540   3.044
10638SOL    HW232814   0.363   5.533   3.076
10639SOL     OW32815   0.885   3.313   2.722
10639SOL    HW132816   0.968   3.360   2.693
10639SOL    HW232817   0.897   3.275   2.813
10640SOL     OW32818   3.853   0.269   5.759
10640SOL    HW132819   3.909   0.205   5.813
10640SOL    HW232820   3.757   0.259   5.785
10641SOL     OW32821   3.768   2.462   0.194
10641SOL    HW132822   3.717   2.508   0.122
10641SOL    HW232823   3.717   2.466   0.280
10642SOL     OW32824   6.486   2.874   1.608
10642SOL    HW132825   6.521   2.793   1.560
10642SOL    HW232826   6.495   2.954   1.549
10643SOL     OW32827   2.348   4.621   5.373
10643SOL    HW132828   2.406   4.684   5.322
10643SOL    HW232829   2.253   4.651   5.367
10644SOL     OW32830   5.903   2.222   3.151
10644SOL    HW132831   5.998   2.200   3.131
10644SOL    HW232832   5.892   2.321   3.158
10645SOL     OW32833   0.544   1.665   5.096
10645SOL    HW132834   0.483   1.715   5.034
10645SOL    HW232835   0.503   1.577   5.120
10646SOL     OW32836   0.502   1.531   6.220
10646SOL    HW132837   0.419   1.476   6.229
10646SOL    HW232838   0.479   1.628   6.230
10647SOL     OW32839   3.663   5.411   0.016
10647SOL    HW132840   3.582   5.392   0.071
10647SOL    HW232841   3.675   5.338   6.969
10648SOL     OW32842   4.948   4.435   5.903
10648SOL    HW132843   4.855   4.443   5.940
10648SOL    HW232844   4.973   4.339   5.896
10649SOL     OW32845   0.579   4.280   3.339
10649SOL    HW132846   0.670   4.298   3.303
10649SOL    HW232847   0.532   4.366   3.357
10650SOL     OW32848   1.219   6.696   2.758
10650SOL    HW132849   1.137   6.753   2.765
10650SOL    HW232850   1.193   6.608   2.718
10651SOL     OW32851   4.460   6.913   5.888
10651SOL    HW132852   4.439   7.009   5.906
10651SOL    HW232853   4.514   6.876   5.964
10652SOL     OW32854   3.750   0.230   6.457
10652SOL    HW132855   3.754   0.271   6.367
10652SOL    HW232856   3.774   0.133   6.451
10653SOL     OW32857   5.599   3.839   4.279
10653SOL    HW132858   5.556   3.805   4.195
10653SOL    HW232859   5.662   3.770   4.314
10654SOL     OW32860   4.358   1.420   1.081
10654SOL    HW132861   4.390   1.515   1.080
10654SOL    HW232862   4.287   1.410   1.150
10655SOL     OW32863   2.926   5.275   1.289
10655SOL    HW132864   2.971   5.217   1.357
10655SOL    HW232865   2.827   5.276   1.307
10656SOL     OW32866   6.139   2.689   0.892
10656SOL    HW132867   6.082   2.607   0.903
10656SOL    HW232868   6.105   2.762   0.951
10657SOL     OW32869   6.723   0.123   6.714
10657SOL    HW132870   6.804   0.079   6.753
10657SOL    HW232871   6.644   0.062   6.721
10658SOL     OW32872   6.179   3.701   4.464
10658SOL    HW132873   6.186   3.718   4.562
10658SOL    HW232874   6.228   3.773   4.414
10659SOL     OW32875   0.139   6.326   0.832
10659SOL    HW132876   0.151   6.360   0.925
10659SOL    HW232877   0.215   6.266   0.807
10660SOL     OW32878   5.220   4.289   6.498
10660SOL    HW132879   5.138   4.257   6.546
10660SOL    HW232880   5.195   4.323   6.407
10661SOL     OW32881   0.058   6.160   2.731
10661SOL    HW132882   0.155   6.152   2.755
10661SOL    HW232883   0.014   6.227   2.790
10662SOL     OW32884   5.701   0.592   1.982
10662SOL    HW132885   5.758   0.649   2.041
10662SOL    HW232886   5.739   0.499   1.980
10663SOL     OW32887   0.618   0.109   1.943
10663SOL    HW132888   0.583   0.179   2.005
10663SOL    HW232889   0.680   0.049   1.993
10664SOL     OW32890   1.578   4.570   5.233
10664SOL    HW132891   1.671   4.608   5.233
10664SOL    HW232892   1.569   4.504   5.158
10665SOL     OW32893   0.637   0.929   0.935
10665SOL    HW132894   0.712   0.986   0.901
10665SOL    HW232895   0.665   0.833   0.933
10666SOL     OW32896   3.017   4.836   0.735
10666SOL    HW132897   2.922   4.810   0.718
10666SOL    HW232898   3.025   4.936   0.732
10667SOL     OW32899   4.006   2.735   5.475
10667SOL    HW132900   3.953   2.812   5.511
10667SOL    HW232901   3.947   2.676   5.422
10668SOL     OW32902   1.465   2.048   5.185
10668SOL    HW132903   1.542   2.015   5.131
10668SOL    HW232904   1.392   1.980   5.185
10669SOL     OW32905   5.964   6.572   0.545
10669SOL    HW132906   5.866   6.568   0.567
10669SOL    HW232907   6.016   6.571   0.630
10670SOL     OW32908   4.838   3.787   5.270
10670SOL    HW132909   4.775   3.725   5.224
10670SOL    HW232910   4.787   3.868   5.302
10671SOL     OW32911   2.715   2.140   2.404
10671SOL    HW132912   2.733   2.058   2.458
10671SOL    HW232913   2.651   2.117   2.330
10672SOL     OW32914   6.871   2.414   0.554
10672SOL    HW132915   6.778   2.377   0.551
10672SOL    HW232916   6.871   2.498   0.609
10673SOL     OW32917   1.579   2.339   0.176
10673SOL    HW132918   1.653   2.293   0.127
10673SOL    HW232919   1.554   2.423   0.128
10674SOL     OW32920   3.344   3.600   0.981
10674SOL    HW132921   3.267   3.660   1.000
10674SOL    HW232922   3.336   3.564   0.888
10675SOL     OW32923   1.885   0.117   5.850
10675SOL    HW132924   1.982   0.129   5.829
10675SOL    HW232925   1.875   0.076   5.941
10676SOL     OW32926   6.313   6.632   6.354
10676SOL    HW132927   6.319   6.541   6.312
10676SOL    HW232928   6.372   6.696   6.305
10677SOL     OW32929   0.837   0.620   2.002
10677SOL    HW132930   0.906   0.561   1.960
10677SOL    HW232931   0.819   0.589   2.095
10678SOL     OW32932   3.772   5.265   3.022
10678SOL    HW132933   3.739   5.233   3.111
10678SOL    HW232934   3.749   5.361   3.010
10679SOL     OW32935   5.162   4.671   5.911
10679SOL    HW132936   5.082   4.707   5.863
10679SOL    HW232937   5.132   4.612   5.986
10680SOL     OW32938   1.990   2.094   3.712
10680SOL    HW132939   1.932   2.131   3.785
10680SOL    HW232940   2.080   2.137   3.717
10681SOL     OW32941   0.033   4.069   6.550
10681SOL    HW132942   0.024   3.992   6.613
10681SOL    HW232943   7.000   4.051   6.468
10682SOL     OW32944   2.090   1.997   2.994
10682SOL    HW132945   2.102   2.094   2.972
10682SOL    HW232946   2.130   1.978   3.083
10683SOL     OW32947   3.545   1.663   4.017
10683SOL    HW132948   3.533   1.728   3.942
10683SOL    HW232949   3.542   1.711   4.104
10684SOL     OW32950   4.496   3.587   0.428
10684SOL    HW132951   4.538   3.584   0.338
10684SOL    HW232952   4.550   3.646   0.488
10685SOL     OW32953   6.410   4.470   2.044
10685SOL    HW132954   6.313   4.491   2.030
10685SOL    HW232955   6.418   4.378   2.082
10686SOL     OW32956   3.677   5.225   6.861
10686SOL    HW132957   3.718   5.218   6.770
10686SOL    HW232958   3.658   5.133   6.896
10687SOL     OW32959   6.908   5.055   1.497
10687SOL    HW132960   7.007   5.057   1.513
10687SOL    HW232961   6.884   5.125   1.429
10688SOL     OW32962   6.591   4.775   2.573
10688SOL    HW132963   6.586   4.692   2.629
10688SOL    HW232964   6.531   4.844   2.612
10689SOL     OW32965   0.284   0.022   3.713
10689SOL    HW132966   0.187   0.018   3.691
10689SOL    HW232967   0.309   0.115   3.741
10690SOL     OW32968   6.038   5.403   3.995
10690SOL    HW132969   6.026   5.394   3.896
10690SOL    HW232970   6.017   5.315   4.039
10691SOL     OW32971   6.883   1.513   2.476
10691SOL    HW132972   6.813   1.492   2.544
10691SOL    HW232973   6.880   1.610   2.453
10692SOL     OW32974   3.434   5.077   3.458
10692SOL    HW132975   3.524   5.068   3.501
10692SOL    HW232976   3.443   5.127   3.372
10693SOL     OW32977   1.863   1.035   2.007
10693SOL    HW132978   1.836   1.111   2.065
10693SOL    HW232979   1.926   0.975   2.056
10694SOL     OW32980   3.469   5.818   1.617
10694SOL    HW132981   3.527   5.897   1.635
10694SOL    HW232982   3.527   5.738   1.600
10695SOL     OW32983   6.313   1.960   2.754
10695SOL    HW132984   6.337   2.003   2.842
10695SOL    HW232985   6.227   1.998   2.722
10696SOL     OW32986   6.805   4.796   2.161
10696SOL    HW132987   6.722   4.787   2.215
10696SOL    HW232988   6.880   4.747   2.206
10697SOL     OW32989   6.938   6.284   4.466
10697SOL    HW132990   7.014   6.265   4.529
10697SOL    HW232991   6.971   6.278   4.372
10698SOL     OW32992   3.471   6.530   4.513
10698SOL    HW132993   3.504   6.458   4.573
10698SOL    HW232994   3.417   6.490   4.439
10699SOL     OW32995   4.152   1.563   2.515
10699SOL    HW132996   4.159   1.488   2.450
10699SOL    HW232997   4.057   1.590   2.525
10700SOL     OW32998   1.314   0.009   0.494
10700SOL    HW132999   1.240   6.978   0.537
10700SOL    HW233000   1.399   7.014   0.543
10701SOL     OW33001   3.921   5.850   6.983
10701SOL    HW133002   3.852   5.861   0.033
10701SOL    HW233003   3.909   5.921   6.914
10702SOL     OW33004   6.147   2.850   2.372
10702SOL    HW133005   6.092   2.847   2.288
10702SOL    HW233006   6.240   2.821   2.352
10703SOL     OW33007   3.913   3.073   3.954
10703SOL    HW133008   3.911   3.024   4.040
10703SOL    HW233009   3.996   3.129   3.949
10704SOL     OW33010   4.981   5.739   1.863
10704SOL    HW133011   4.883   5.750   1.874
10704SOL    HW233012   5.029   5.813   1.911
10705SOL     OW33013   0.237   3.785   1.252
10705SOL    HW133014   0.191   3.817   1.335
10705SOL    HW233015   0.325   3.832   1.243
10706SOL     OW33016   4.389   6.569   2.575
10706SOL    HW133017   4.371   6.652   2.524
10706SOL    HW233018   4.316   6.503   2.559
10707SOL     OW33019   0.791   0.296   4.937
10707SOL    HW133020   0.730   0.259   4.868
10707SOL    HW233021   0.833   0.221   4.988
10708SOL     OW33022   4.875   0.788   1.993
10708SOL    HW133023   4.870   0.840   1.907
10708SOL    HW233024   4.928   0.840   2.060
10709SOL     OW33025   6.634   1.294   5.291
10709SOL    HW133026   6.580   1.294   5.375
10709SOL    HW233027   6.584   1.246   5.220
10710SOL     OW33028   1.040   6.797   4.901
10710SOL    HW133029   1.105   6.858   4.946
10710SOL    HW233030   0.958   6.787   4.957
10711SOL     OW33031   2.070   6.687   3.315
10711SOL    HW133032   2.112   6.679   3.225
10711SOL    HW233033   2.097   6.610   3.372
10712SOL     OW33034   3.542   0.906   3.238
10712SOL    HW133035   3.619   0.970   3.231
10712SOL    HW233036   3.491   0.924   3.322
10713SOL     OW33037   1.746   4.660   1.881
10713SOL    HW133038   1.705   4.642   1.970
10713SOL    HW233039   1.818   4.729   1.890
10714SOL     OW33040   6.872   3.066   5.107
10714SOL    HW133041   6.774   3.079   5.123
10714SOL    HW233042   6.912   3.019   5.186
10715SOL     OW33043   4.521   0.790   2.744
10715SOL    HW133044   4.616   0.789   2.775
10715SOL    HW233045   4.465   0.841   2.810
10716SOL     OW33046   0.256   2.554   3.130
10716SOL    HW133047   0.279   2.457   3.116
10716SOL    HW233048   0.181   2.561   3.195
10717SOL     OW33049   0.710   1.817   0.887
10717SOL    HW133050   0.683   1.721   0.892
10717SOL    HW233051   0.709   1.847   0.792
10718SOL     OW33052   6.315   5.142   6.971
10718SOL    HW133053   6.276   5.136   0.042
10718SOL    HW233054   6.381   5.068   6.959
10719SOL     OW33055   4.430   6.011   1.766
10719SOL    HW133056   4.330   5.999   1.766
10719SOL    HW233057   4.469   5.962   1.688
10720SOL     OW33058   6.500   3.763   6.135
10720SOL    HW133059   6.526   3.838   6.074
10720SOL    HW233060   6.486   3.680   6.081
10721SOL     OW33061   6.796   2.646   4.336
10721SOL    HW133062   6.700   2.648   4.310
10721SOL    HW233063   6.851   2.622   4.256
10722SOL     OW33064   6.997   3.170   0.084
10722SOL    HW133065   6.960   3.262   0.096
10722SOL    HW233066   0.012   3.137   0.172
10723SOL     OW33067   5.626   4.050   6.694
10723SOL    HW133068   5.722   4.071   6.714
10723SOL    HW233069   5.606   3.956   6.720
10724SOL     OW33070   3.598   6.695   6.037
10724SOL    HW133071   3.531   6.764   6.067
10724SOL    HW233072   3.599   6.691   5.937
10725SOL     OW33073   6.978   5.300   4.169
10725SOL    HW133074   6.938   5.239   4.237
10725SOL    HW233075   7.018   5.380   4.215
10726SOL     OW33076   5.998   6.934   5.344
10726SOL    HW133077   5.928   6.864   5.356
10726SOL    HW233078   5.955   0.001   5.325
10727SOL     OW33079   1.665   5.151   5.337
10727SOL    HW133080   1.759   5.131   5.312
10727SOL    HW233081   1.613   5.176   5.255
10728SOL     OW33082   5.919   6.696   2.137
10728SOL    HW133083   5.895   6.735   2.226
10728SOL    HW233084   6.018   6.707   2.122
10729SOL     OW33085   6.643   1.368   2.666
10729SOL    HW133086   6.569   1.426   2.634
10729SOL    HW233087   6.606   1.283   2.704
10730SOL     OW33088   2.577   6.593   1.851
10730SOL    HW133089   2.573   6.495   1.871
10730SOL    HW233090   2.595   6.606   1.753
10731SOL     OW33091   2.631   5.544   0.243
10731SOL    HW133092   2.647   5.461   0.296
10731SOL    HW233093   2.692   5.546   0.163
10732SOL     OW33094   0.037   0.301   2.969
10732SOL    HW133095   0.032   0.201   2.968
10732SOL    HW233096   0.078   0.331   3.056
10733SOL     OW33097   5.857   2.137   0.161
10733SOL    HW133098   5.764   2.153   0.126
10733SOL    HW233099   5.918   2.209   0.127
10734SOL     OW33100   1.073   0.699   6.722
10734SOL    HW133101   0.994   0.760   6.719
10734SOL    HW233102   1.098   0.673   6.629
10735SOL     OW33103   1.225   5.006   2.599
10735SOL    HW133104   1.178   4.919   2.613
10735SOL    HW233105   1.217   5.033   2.503
10736SOL     OW33106   0.632   0.961   3.043
10736SOL    HW133107   0.539   0.958   3.080
10736SOL    HW233108   0.686   1.027   3.095
10737SOL     OW33109   0.882   2.209   0.603
10737SOL    HW133110   0.788   2.203   0.570
10737SOL    HW233111   0.884   2.189   0.701
10738SOL     OW33112   2.607   6.966   2.539
10738SOL    HW133113   2.657   6.881   2.558
10738SOL    HW233114   2.652   7.015   2.465
10739SOL     OW33115   6.792   1.971   2.647
10739SOL    HW133116   6.695   1.993   2.639
10739SOL    HW233117   6.807   1.876   2.619
10740SOL     OW33118   1.248   5.799   5.617
10740SOL    HW133119   1.188   5.729   5.578
10740SOL    HW233120   1.258   5.874   5.551
10741SOL     OW33121   1.784   1.883   3.656
10741SOL    HW133122   1.857   1.935   3.698
10741SOL    HW233123   1.700   1.937   3.654
10742SOL     OW33124   6.129   0.047   2.269
10742SOL    HW133125   6.186   0.124   2.239
10742SOL    HW233126   6.177   6.982   2.253
10743SOL     OW33127   3.054   2.058   4.350
10743SOL    HW133128   3.018   2.148   4.327
10743SOL    HW233129   2.983   1.989   4.338
10744SOL     OW33130   3.202   1.292   2.101
10744SOL    HW133131   3.232   1.200   2.127
10744SOL    HW233132   3.170   1.341   2.183
10745SOL     OW33133   2.084   4.693   0.455
10745SOL    HW133134   2.166   4.724   0.504
10745SOL    HW233135   2.107   4.611   0.402
10746SOL     OW33136   1.704   5.591   1.325
10746SOL    HW133137   1.734   5.499   1.300
10746SOL    HW233138   1.740   5.615   1.415
10747SOL     OW33139   5.400   1.561   3.434
10747SOL    HW133140   5.426   1.503   3.512
10747SOL    HW233141   5.481   1.606   3.397
10748SOL     OW33142   5.357   5.658   1.175
10748SOL    HW133143   5.342   5.574   1.122
10748SOL    HW233144   5.425   5.715   1.129
10749SOL     OW33145   0.076   5.423   2.711
10749SOL    HW133146   0.163   5.375   2.726
10749SOL    HW233147   0.013   5.362   2.663
10750SOL     OW33148   4.825   4.133   4.700
10750SOL    HW133149   4.838   4.047   4.652
10750SOL    HW233150   4.779   4.116   4.787
10751SOL     OW33151   1.244   3.130   4.926
10751SOL    HW133152   1.196   3.049   4.960
10751SOL    HW233153   1.228   3.207   4.989
10752SOL     OW33154   6.184   4.509   6.625
10752SOL    HW133155   6.127   4.438   6.583
10752SOL    HW233156   6.140   4.598   6.612
10753SOL     OW33157   5.664   0.094   4.109
10753SOL    HW133158   5.703   0.010   4.070
10753SOL    HW233159   5.738   0.157   4.133
10754SOL     OW33160   1.821   2.425   2.360
10754SOL    HW133161   1.895   2.405   2.424
10754SOL    HW233162   1.745   2.361   2.376
10755SOL     OW33163   6.686   2.086   0.585
10755SOL    HW133164   6.606   2.028   0.570
10755SOL    HW233165   6.656   2.177   0.614
10756SOL     OW33166   6.149   2.896   0.325
10756SOL    HW133167   6.168   2.799   0.340
10756SOL    HW233168   6.234   2.945   0.306
10757SOL     OW33169   0.088   4.083   0.527
10757SOL    HW133170   0.132   4.003   0.485
10757SOL    HW233171   0.093   4.076   0.626
10758SOL     OW33172   0.514   5.569   5.488
10758SOL    HW133173   0.542   5.476   5.512
10758SOL    HW233174   0.442   5.564   5.418
10759SOL     OW33175   1.820   3.298   6.354
10759SOL    HW133176   1.793   3.385   6.395
10759SOL    HW233177   1.745   3.262   6.298
10760SOL     OW33178   0.187   6.105   1.322
10760SOL    HW133179   0.135   6.021   1.303
10760SOL    HW233180   0.196   6.117   1.421
10761SOL     OW33181   1.219   2.892   6.548
10761SOL    HW133182   1.231   2.839   6.464
10761SOL    HW233183   1.266   2.847   6.624
10762SOL     OW33184   5.002   0.859   5.141
10762SOL    HW133185   4.986   0.826   5.234
10762SOL    HW233186   5.011   0.782   5.079
10763SOL     OW33187   4.346   0.488   1.524
10763SOL    HW133188   4.285   0.540   1.584
10763SOL    HW233189   4.441   0.512   1.544
10764SOL     OW33190   5.209   1.481   6.200
10764SOL    HW133191   5.123   1.518   6.164
10764SOL    HW233192   5.273   1.556   6.215
10765SOL     OW33193   5.964   0.838   1.698
10765SOL    HW133194   6.050   0.829   1.648
10765SOL    HW233195   5.888   0.813   1.638
10766SOL     OW33196   2.287   3.304   0.308
10766SOL    HW133197   2.312   3.326   0.213
10766SOL    HW233198   2.265   3.388   0.357
10767SOL     OW33199   1.675   6.647   0.613
10767SOL    HW133200   1.748   6.591   0.651
10767SOL    HW233201   1.713   6.732   0.577
10768SOL     OW33202   5.620   5.614   0.341
10768SOL    HW133203   5.682   5.682   0.380
10768SOL    HW233204   5.549   5.591   0.407
10769SOL     OW33205   2.744   4.627   5.381
10769SOL    HW133206   2.812   4.582   5.324
10769SOL    HW233207   2.694   4.558   5.434
10770SOL     OW33208   5.447   0.312   4.851
10770SOL    HW133209   5.512   0.251   4.805
10770SOL    HW233210   5.361   0.263   4.866
10771SOL     OW33211   4.552   0.157   4.860
10771SOL    HW133212   4.543   0.066   4.820
10771SOL    HW233213   4.546   0.150   4.960
10772SOL     OW33214   6.889   6.943   3.683
10772SOL    HW133215   6.964   6.881   3.707
10772SOL    HW233216   6.914   0.015   3.710
10773SOL     OW33217   6.739   4.952   6.775
10773SOL    HW133218   6.785   4.867   6.748
10773SOL    HW233219   6.806   5.026   6.781
10774SOL     OW33220   1.411   2.275   1.033
10774SOL    HW133221   1.349   2.340   1.078
10774SOL    HW233222   1.467   2.229   1.101
10775SOL     OW33223   2.557   4.124   0.583
10775SOL    HW133224   2.571   4.154   0.489
10775SOL    HW233225   2.480   4.174   0.622
10776SOL     OW33226   6.942   6.450   1.713
10776SOL    HW133227   6.857   6.474   1.760
10776SOL    HW233228   7.004   6.528   1.713
10777SOL     OW33229   3.841   0.333   3.254
10777SOL    HW133230   3.814   0.371   3.166
10777SOL    HW233231   3.769   0.351   3.321
10778SOL     OW33232   0.085   7.003   4.907
10778SOL    HW133233   0.117   0.072   4.875
10778SOL    HW233234   7.020   7.014   4.956
10779SOL     OW33235   0.050   4.739   2.316
10779SOL    HW133236   0.104   4.698   2.389
10779SOL    HW233237   6.991   4.784   2.355
10780SOL     OW33238   0.583   5.760   3.705
10780SOL    HW133239   0.601   5.681   3.647
10780SOL    HW233240   0.491   5.795   3.685
10781SOL     OW33241   4.650   1.680   4.696
10781SOL    HW133242   4.680   1.635   4.612
10781SOL    HW233243   4.557   1.650   4.719
10782SOL     OW33244   6.243   2.351   3.723
10782SOL    HW133245   6.203   2.309   3.804
10782SOL    HW233246   6.182   2.423   3.689
10783SOL     OW33247   2.118   3.249   2.329
10783SOL    HW133248   2.020   3.229   2.327
10783SOL    HW233249   2.162   3.208   2.249
10784SOL     OW33250   2.876   6.673   1.447
10784SOL    HW133251   2.915   6.585   1.418
10784SOL    HW233252   2.950   6.735   1.474
10785SOL     OW33253   1.610   4.579   1.627
10785SOL    HW133254   1.657   4.600   1.713
10785SOL    HW233255   1.670   4.596   1.550
10786SOL     OW33256   5.515   2.471   2.221
10786SOL    HW133257   5.580   2.409   2.176
10786SOL    HW233258   5.538   2.565   2.198
10787SOL     OW33259   3.630   1.151   4.412
10787SOL    HW133260   3.550   1.125   4.467
10787SOL    HW233261   3.657   1.245   4.434
10788SOL     OW33262   2.030   4.078   0.464
10788SOL    HW133263   2.092   4.126   0.402
10788SOL    HW233264   2.084   4.038   0.539
10789SOL     OW33265   6.015   0.753   0.377
10789SOL    HW133266   6.027   0.683   0.448
10789SOL    HW233267   6.100   0.761   0.324
10790SOL     OW33268   0.543   0.738   5.557
10790SOL    HW133269   0.468   0.718   5.494
10790SOL    HW233270   0.610   0.665   5.553
10791SOL     OW33271   1.568   1.586   1.882
10791SOL    HW133272   1.658   1.616   1.853
10791SOL    HW233273   1.519   1.662   1.924
10792SOL     OW33274   3.252   3.096   1.769
10792SOL    HW133275   3.246   3.156   1.849
10792SOL    HW233276   3.207   3.010   1.790
10793SOL     OW33277   5.585   2.417   4.163
10793SOL    HW133278   5.518   2.365   4.110
10793SOL    HW233279   5.677   2.385   4.140
10794SOL     OW33280   3.697   4.168   2.005
10794SOL    HW133281   3.752   4.196   1.926
10794SOL    HW233282   3.712   4.232   2.080
10795SOL     OW33283   6.367   4.032   2.685
10795SOL    HW133284   6.282   3.992   2.650
10795SOL    HW233285   6.441   3.965   2.677
10796SOL     OW33286   3.147   0.100   6.566
10796SOL    HW133287   3.193   0.148   6.641
10796SOL    HW233288   3.048   0.110   6.575
10797SOL     OW33289   3.908   2.674   0.573
10797SOL    HW133290   3.992   2.660   0.521
10797SOL    HW233291   3.883   2.771   0.571
10798SOL     OW33292   2.067   0.237   0.256
10798SOL    HW133293   2.121   0.199   0.180
10798SOL    HW233294   1.970   0.224   0.237
10799SOL     OW33295   3.508   2.129   2.512
10799SOL    HW133296   3.465   2.209   2.469
10799SOL    HW233297   3.606   2.128   2.489
10800SOL     OW33298   2.157   6.156   0.750
10800SOL    HW133299   2.195   6.197   0.667
10800SOL    HW233300   2.172   6.057   0.749
10801SOL     OW33301   1.827   0.221   3.839
10801SOL    HW133302   1.757   0.192   3.774
10801SOL    HW233303   1.911   0.245   3.789
10802SOL     OW33304   2.282   2.766   4.901
10802SOL    HW133305   2.202   2.749   4.959
10802SOL    HW233306   2.319   2.857   4.922
10803SOL     OW33307   4.899   4.692   5.309
10803SOL    HW133308   4.871   4.761   5.375
10803SOL    HW233309   4.983   4.723   5.263
10804SOL     OW33310   6.889   4.491   0.688
10804SOL    HW133311   6.856   4.522   0.599
10804SOL    HW233312   6.930   4.567   0.738
10805SOL     OW33313   3.624   0.693   6.903
10805SOL    HW133314   3.559   0.740   6.843
10805SOL    HW233315   3.577   0.661   6.985
10806SOL     OW33316   5.328   4.422   0.239
10806SOL    HW133317   5.418   4.466   0.247
10806SOL    HW233318   5.331   4.352   0.167
10807SOL     OW33319   3.121   6.855   3.579
10807SOL    HW133320   3.067   6.814   3.505
10807SOL    HW233321   3.091   6.949   3.594
10808SOL     OW33322   6.816   3.984   0.187
10808SOL    HW133323   6.793   4.076   0.218
10808SOL    HW233324   6.799   3.977   0.089
10809SOL     OW33325   2.787   0.525   4.489
10809SOL    HW133326   2.733   0.575   4.558
10809SOL    HW233327   2.777   0.427   4.504
10810SOL     OW33328   1.033   1.536   5.765
10810SOL    HW133329   1.112   1.597   5.773
10810SOL    HW233330   1.063   1.448   5.727
10811SOL     OW33331   3.903   5.073   5.673
10811SOL    HW133332   3.933   5.131   5.748
10811SOL    HW233333   3.930   5.114   5.586
10812SOL     OW33334   0.493   3.418   2.153
10812SOL    HW133335   0.491   3.404   2.054
10812SOL    HW233336   0.584   3.449   2.181
10813SOL     OW33337   3.094   6.413   1.074
10813SOL    HW133338   3.126   6.424   1.168
10813SOL    HW233339   3.007   6.461   1.062
10814SOL     OW33340   1.433   0.437   5.582
10814SOL    HW133341   1.453   0.396   5.493
10814SOL    HW233342   1.385   0.370   5.639
10815SOL     OW33343   5.113   4.814   3.440
10815SOL    HW133344   5.114   4.865   3.354
10815SOL    HW233345   5.064   4.728   3.426
10816SOL     OW33346   1.852   1.233   2.198
10816SOL    HW133347   1.795   1.216   2.278
10816SOL    HW233348   1.925   1.297   2.222
10817SOL     OW33349   5.635   6.950   2.715
10817SOL    HW133350   5.558   6.925   2.773
10817SOL    HW233351   5.609   0.004   2.655
10818SOL     OW33352   6.003   2.346   5.985
10818SOL    HW133353   5.929   2.359   6.051
10818SOL    HW233354   6.026   2.248   5.980
10819SOL     OW33355   0.654   4.139   6.700
10819SOL    HW133356   0.589   4.104   6.768
10819SOL    HW233357   0.747   4.132   6.736
10820SOL     OW33358   0.101   6.590   4.393
10820SOL    HW133359   0.172   6.536   4.348
10820SOL    HW233360   0.095   6.564   4.490
10821SOL     OW33361   5.984   6.575   3.165
10821SOL    HW133362   5.997   6.486   3.120
10821SOL    HW233363   5.985   6.562   3.264
10822SOL     OW33364   1.497   3.097   2.778
10822SOL    HW133365   1.450   3.117   2.864
10822SOL    HW233366   1.496   3.178   2.720
10823SOL     OW33367   1.854   4.899   1.452
10823SOL    HW133368   1.870   4.972   1.385
10823SOL    HW233369   1.765   4.912   1.495
10824SOL     OW33370   4.935   6.746   3.420
10824SOL    HW133371   4.935   6.647   3.412
10824SOL    HW233372   4.967   6.772   3.511
10825SOL     OW33373   2.634   0.870   0.533
10825SOL    HW133374   2.590   0.908   0.452
10825SOL    HW233375   2.649   0.943   0.600
10826SOL     OW33376   6.534   3.550   2.994
10826SOL    HW133377   6.529   3.650   2.990
10826SOL    HW233378   6.618   3.519   2.950
10827SOL     OW33379   5.881   3.443   3.543
10827SOL    HW133380   5.795   3.403   3.574
10827SOL    HW233381   5.956   3.411   3.602
10828SOL     OW33382   1.159   6.000   2.185
10828SOL    HW133383   1.146   5.915   2.134
10828SOL    HW233384   1.181   6.074   2.122
10829SOL     OW33385   2.853   3.244   1.217
10829SOL    HW133386   2.813   3.319   1.270
10829SOL    HW233387   2.917   3.193   1.274
10830SOL     OW33388   5.380   2.260   3.491
10830SOL    HW133389   5.343   2.236   3.581
10830SOL    HW233390   5.322   2.221   3.419
10831SOL     OW33391   4.980   0.139   1.864
10831SOL    HW133392   4.885   0.106   1.868
10831SOL    HW233393   5.042   0.067   1.896
10832SOL     OW33394   0.637   2.388   0.703
10832SOL    HW133395   0.636   2.417   0.607
10832SOL    HW233396   0.705   2.442   0.753
10833SOL     OW33397   2.005   0.513   3.855
10833SOL    HW133398   1.978   0.463   3.773
10833SOL    HW233399   1.933   0.578   3.880
10834SOL     OW33400   0.538   1.212   5.727
10834SOL    HW133401   0.489   1.248   5.647
10834SOL    HW233402   0.631   1.247   5.727
10835SOL     OW33403   5.825   1.181   1.066
10835SOL    HW133404   5.745   1.186   1.125
10835SOL    HW233405   5.896   1.242   1.101
10836SOL     OW33406   7.002   1.599   5.745
10836SOL    HW133407   6.968   1.571   5.655
10836SOL    HW233408   0.017   1.520   5.793
10837SOL     OW33409   6.682   4.866   0.264
10837SOL    HW133410   6.751   4.931   0.233
10837SOL    HW233411   6.645   4.895   0.352
10838SOL     OW33412   5.972   0.621   5.081
10838SOL    HW133413   5.949   0.645   5.176
10838SOL    HW233414   6.023   0.535   5.080
10839SOL     OW33415   2.822   3.200   0.276
10839SOL    HW133416   2.744   3.147   0.310
10839SOL    HW233417   2.845   3.170   0.183
10840SOL     OW33418   3.614   5.581   1.580
10840SOL    HW133419   3.553   5.565   1.502
10840SOL    HW233420   3.706   5.546   1.558
10841SOL     OW33421   3.267   5.926   5.539
10841SOL    HW133422   3.200   5.955   5.608
10841SOL    HW233423   3.354   5.906   5.584
10842SOL     OW33424   6.047   3.262   0.942
10842SOL    HW133425   5.978   3.189   0.940
10842SOL    HW233426   6.078   3.281   0.849
10843SOL     OW33427   0.573   1.511   1.771
10843SOL    HW133428   0.503   1.575   1.802
10843SOL    HW233429   0.565   1.426   1.822
10844SOL     OW33430   0.257   6.083   4.366
10844SOL    HW133431   0.162   6.114   4.366
10844SOL    HW233432   0.268   6.008   4.431
10845SOL     OW33433   2.091   1.072   1.087
10845SOL    HW133434   2.118   1.015   1.165
10845SOL    HW233435   2.068   1.013   1.009
10846SOL     OW33436   4.918   2.293   0.989
10846SOL    HW133437   4.921   2.201   0.949
10846SOL    HW233438   4.823   2.320   1.002
10847SOL     OW33439   2.961   1.800   6.188
10847SOL    HW133440   2.864   1.808   6.165
10847SOL    HW233441   2.975   1.721   6.247
10848SOL     OW33442   2.829   1.932   6.721
10848SOL    HW133443   2.822   1.919   6.820
10848SOL    HW233444   2.748   1.894   6.676
10849SOL     OW33445   4.026   4.858   3.796
10849SOL    HW133446   3.954   4.922   3.769
10849SOL    HW233447   4.057   4.808   3.715
10850SOL     OW33448   3.560   6.987   0.066
10850SOL    HW133449   3.566   6.898   0.112
10850SOL    HW233450   3.555   6.974   6.989
10851SOL     OW33451   3.145   2.549   5.985
10851SOL    HW133452   3.224   2.559   5.924
10851SOL    HW233453   3.171   2.573   6.078
10852SOL     OW33454   0.486   0.346   6.591
10852SOL    HW133455   0.506   0.279   6.520
10852SOL    HW233456   0.484   0.300   6.680
10853SOL     OW33457   3.839   1.806   4.706
10853SOL    HW133458   3.834   1.752   4.622
10853SOL    HW233459   3.778   1.766   4.775
10854SOL     OW33460   6.126   0.076   6.506
10854SOL    HW133461   6.029   0.053   6.518
10854SOL    HW233462   6.138   0.175   6.510
10855SOL     OW33463   2.741   6.219   2.574
10855SOL    HW133464   2.782   6.283   2.639
10855SOL    HW233465   2.739   6.260   2.483
10856SOL     OW33466   5.800   0.750   0.804
10856SOL    HW133467   5.900   0.745   0.807
10856SOL    HW233468   5.772   0.797   0.721
10857SOL     OW33469   6.025   3.012   3.333
10857SOL    HW133470   5.952   3.079   3.320
10857SOL    HW233471   6.108   3.059   3.366
10858SOL     OW33472   2.089   2.840   6.400
10858SOL    HW133473   2.049   2.767   6.345
10858SOL    HW233474   2.107   2.806   6.493
10859SOL     OW33475   1.705   3.915   3.638
10859SOL    HW133476   1.668   3.936   3.548
10859SOL    HW233477   1.784   3.854   3.629
10860SOL     OW33478   6.540   1.410   6.422
10860SOL    HW133479   6.586   1.404   6.333
10860SOL    HW233480   6.597   1.367   6.492
10861SOL     OW33481   3.737   2.544   1.702
10861SOL    HW133482   3.763   2.623   1.759
10861SOL    HW233483   3.694   2.475   1.759
10862SOL     OW33484   2.458   1.581   6.362
10862SOL    HW133485   2.480   1.673   6.331
10862SOL    HW233486   2.425   1.586   6.457
10863SOL     OW33487   3.389   1.061   2.573
10863SOL    HW133488   3.312   1.048   2.512
10863SOL    HW233489   3.432   1.150   2.554
10864SOL     OW33490   2.060   4.602   1.203
10864SOL    HW133491   1.989   4.652   1.254
10864SOL    HW233492   2.134   4.578   1.265
10865SOL     OW33493   5.749   2.609   3.391
10865SOL    HW133494   5.778   2.516   3.415
10865SOL    HW233495   5.686   2.643   3.460
10866SOL     OW33496   5.594   3.476   0.941
10866SOL    HW133497   5.675   3.464   0.885
10866SOL    HW233498   5.548   3.561   0.915
10867SOL     OW33499   2.346   2.767   0.307
10867SOL    HW133500   2.262   2.715   0.321
10867SOL    HW233501   2.327   2.849   0.254
10868SOL     OW33502   1.257   2.253   3.044
10868SOL    HW133503   1.293   2.187   2.978
10868SOL    HW233504   1.220   2.332   2.995
10869NA      NA33505   0.638   2.185   6.380
10870NA      NA33506   4.365   4.621   5.252
10871NA      NA33507   2.018   4.628   2.635
10872NA      NA33508   5.248   4.635   3.808
10873NA      NA33509   4.399   2.424   5.167
10874NA      NA33510   3.321   4.240   1.733
10875NA      NA33511   1.028   4.683   0.229
10876NA      NA33512   4.031   4.014   1.576
10877NA      NA33513   4.412   4.222   0.934
10878NA      NA33514   3.573   1.041   5.446
10879NA      NA33515   5.047   5.558   1.721
10880NA      NA33516   1.612   0.588   5.655
10881NA      NA33517   4.760   4.824   2.304
10882NA      NA33518   3.627   3.312   0.565
   7.02110   7.02110   7.02110
