Generated by trjconv : CNT in water t= 125.00000
33518
    1C        C    1   2.843   2.769   4.748
    1C        C    2   2.894   2.713   4.867
    1C        C    3   2.843   2.772   4.983
    1C        C    4   2.851   2.775   4.259
    1C        C    5   2.903   2.729   4.382
    1C        C    6   2.848   2.774   4.504
    1C        C    7   3.006   2.635   4.623
    1C        C    8   2.891   2.717   4.626
    1C        C    9   3.070   2.597   4.744
    1C        C   10   3.006   2.627   4.866
    1C        C   11   3.178   2.490   4.975
    1C        C   12   3.057   2.559   4.977
    1C        C   13   2.854   2.769   3.770
    1C        C   14   2.901   2.719   3.894
    1C        C   15   2.850   2.773   4.013
    1C        C   16   3.018   2.646   4.138
    1C        C   17   2.903   2.727   4.136
    1C        C   18   3.078   2.608   4.260
    1C        C   19   3.017   2.645   4.382
    1C        C   20   3.206   2.556   4.503
    1C        C   21   3.073   2.601   4.504
    1C        C   22   3.274   2.531   4.625
    1C        C   23   3.200   2.541   4.745
    1C        C   24   3.410   2.484   4.867
    1C        C   25   3.267   2.498   4.863
    1C        C   26   3.488   2.473   4.982
    1C        C   27   2.848   2.768   3.281
    1C        C   28   2.905   2.724   3.403
    1C        C   29   2.854   2.771   3.526
    1C        C   30   3.018   2.634   3.648
    1C        C   31   2.909   2.723   3.648
    1C        C   32   3.075   2.598   3.772
    1C        C   33   3.013   2.633   3.894
    1C        C   34   3.206   2.546   4.015
    1C        C   35   3.076   2.602   4.017
    1C        C   36   3.275   2.528   4.137
    1C        C   37   3.207   2.551   4.258
    1C        C   38   3.413   2.508   4.381
    1C        C   39   3.273   2.530   4.381
    1C        C   40   3.483   2.505   4.503
    1C        C   41   3.413   2.506   4.625
    1C        C   42   3.627   2.484   4.745
    1C        C   43   3.485   2.493   4.746
    1C        C   44   3.702   2.486   4.865
    1C        C   45   3.627   2.481   4.982
    1C        C   46   2.840   2.754   2.791
    1C        C   47   2.895   2.709   2.914
    1C        C   48   2.842   2.758   3.035
    1C        C   49   3.016   2.640   3.160
    1C        C   50   2.900   2.720   3.159
    1C        C   51   3.078   2.601   3.281
    1C        C   52   3.016   2.637   3.403
    1C        C   53   3.205   2.542   3.525
    1C        C   54   3.075   2.597   3.525
    1C        C   55   3.273   2.523   3.648
    1C        C   56   3.208   2.548   3.771
    1C        C   57   3.414   2.499   3.892
    1C        C   58   3.275   2.526   3.893
    1C        C   59   3.484   2.492   4.014
    1C        C   60   3.414   2.500   4.136
    1C        C   61   3.625   2.497   4.259
    1C        C   62   3.484   2.495   4.259
    1C        C   63   3.695   2.506   4.381
    1C        C   64   3.624   2.504   4.503
    1C        C   65   3.831   2.546   4.618
    1C        C   66   3.696   2.505   4.624
    1C        C   67   3.900   2.565   4.741
    1C        C   68   3.838   2.525   4.861
    1C        C   69   4.052   2.581   4.974
    1C        C   70   3.920   2.533   4.974
    1C        C   71   2.822   2.732   2.307
    1C        C   72   2.884   2.689   2.427
    1C        C   73   2.837   2.749   2.545
    1C        C   74   3.005   2.622   2.671
    1C        C   75   2.891   2.706   2.669
    1C        C   76   3.073   2.598   2.793
    1C        C   77   3.015   2.634   2.916
    1C        C   78   3.206   2.542   3.035
    1C        C   79   3.079   2.605   3.039
    1C        C   80   3.271   2.519   3.158
    1C        C   81   3.207   2.544   3.282
    1C        C   82   3.412   2.490   3.402
    1C        C   83   3.273   2.517   3.404
    1C        C   84   3.482   2.486   3.524
    1C        C   85   3.412   2.496   3.646
    1C        C   86   3.624   2.495   3.771
    1C        C   87   3.483   2.494   3.769
    1C        C   88   3.696   2.504   3.892
    1C        C   89   3.625   2.498   4.014
    1C        C   90   3.831   2.545   4.135
    1C        C   91   3.695   2.508   4.136
    1C        C   92   3.898   2.570   4.257
    1C        C   93   3.832   2.542   4.378
    1C        C   94   4.024   2.640   4.497
    1C        C   95   3.901   2.570   4.498
    1C        C   96   4.089   2.672   4.618
    1C        C   97   4.029   2.623   4.736
    1C        C   98   4.186   2.762   4.856
    1C        C   99   4.099   2.649   4.857
    1C        C  100   4.207   2.843   4.969
    1C        C  101   2.822   2.732   2.071
    1C        C  102   2.989   2.590   2.189
    1C        C  103   2.873   2.674   2.188
    1C        C  104   3.063   2.571   2.308
    1C        C  105   3.001   2.611   2.429
    1C        C  106   3.195   2.524   2.549
    1C        C  107   3.066   2.581   2.551
    1C        C  108   3.269   2.516   2.670
    1C        C  109   3.204   2.545   2.792
    1C        C  110   3.410   2.488   2.913
    1C        C  111   3.273   2.522   2.913
    1C        C  112   3.480   2.486   3.036
    1C        C  113   3.410   2.492   3.158
    1C        C  114   3.623   2.487   3.277
    1C        C  115   3.482   2.480   3.279
    1C        C  116   3.691   2.501   3.401
    1C        C  117   3.623   2.492   3.524
    1C        C  118   3.829   2.539   3.645
    1C        C  119   3.692   2.504   3.647
    1C        C  120   3.894   2.568   3.767
    1C        C  121   3.830   2.549   3.892
    1C        C  122   4.025   2.633   4.011
    1C        C  123   3.898   2.571   4.013
    1C        C  124   4.086   2.671   4.133
    1C        C  125   4.023   2.637   4.254
    1C        C  126   4.194   2.767   4.373
    1C        C  127   4.085   2.677   4.375
    1C        C  128   4.241   2.821   4.495
    1C        C  129   4.193   2.768   4.616
    1C        C  130   4.322   2.937   4.740
    1C        C  131   4.239   2.822   4.738
    1C        C  132   4.359   3.001   4.860
    1C        C  133   4.288   2.956   4.972
    1C        C  134   3.171   2.459   2.082
    1C        C  135   3.038   2.503   2.086
    1C        C  136   3.259   2.479   2.190
    1C        C  137   3.194   2.516   2.310
    1C        C  138   3.404   2.471   2.429
    1C        C  139   3.264   2.490   2.430
    1C        C  140   3.479   2.476   2.548
    1C        C  141   3.407   2.488   2.669
    1C        C  142   3.621   2.483   2.791
    1C        C  143   3.480   2.478   2.790
    1C        C  144   3.692   2.493   2.912
    1C        C  145   3.621   2.488   3.034
    1C        C  146   3.830   2.534   3.155
    1C        C  147   3.693   2.499   3.155
    1C        C  148   3.895   2.561   3.277
    1C        C  149   3.827   2.539   3.399
    1C        C  150   4.019   2.626   3.521
    1C        C  151   3.893   2.562   3.521
    1C        C  152   4.080   2.666   3.642
    1C        C  153   4.019   2.634   3.765
    1C        C  154   4.190   2.761   3.885
    1C        C  155   4.078   2.675   3.887
    1C        C  156   4.244   2.811   4.006
    1C        C  157   4.195   2.762   4.129
    1C        C  158   4.333   2.924   4.251
    1C        C  159   4.246   2.813   4.250
    1C        C  160   4.371   2.987   4.373
    1C        C  161   4.328   2.932   4.496
    1C        C  162   4.430   3.119   4.614
    1C        C  163   4.366   2.993   4.618
    1C        C  164   4.458   3.187   4.734
    1C        C  165   4.424   3.126   4.857
    1C        C  166   4.520   3.318   4.973
    1C        C  167   4.471   3.188   4.974
    1C        C  168   3.477   2.439   2.075
    1C        C  169   3.399   2.461   2.189
    1C        C  170   3.618   2.459   2.308
    1C        C  171   3.476   2.456   2.308
    1C        C  172   3.694   2.474   2.426
    1C        C  173   3.620   2.477   2.546
    1C        C  174   3.826   2.530   2.665
    1C        C  175   3.690   2.494   2.668
    1C        C  176   3.893   2.558   2.787
    1C        C  177   3.828   2.533   2.910
    1C        C  178   4.022   2.619   3.030
    1C        C  179   3.895   2.556   3.032
    1C        C  180   4.081   2.659   3.152
    1C        C  181   4.020   2.629   3.276
    1C        C  182   4.189   2.754   3.397
    1C        C  183   4.077   2.667   3.399
    1C        C  184   4.243   2.802   3.519
    1C        C  185   4.189   2.755   3.641
    1C        C  186   4.327   2.921   3.764
    1C        C  187   4.241   2.808   3.762
    1C        C  188   4.369   2.981   3.884
    1C        C  189   4.333   2.921   4.007
    1C        C  190   4.439   3.106   4.126
    1C        C  191   4.370   2.983   4.128
    1C        C  192   4.468   3.174   4.246
    1C        C  193   4.435   3.112   4.369
    1C        C  194   4.498   3.316   4.491
    1C        C  195   4.459   3.181   4.490
    1C        C  196   4.523   3.387   4.611
    1C        C  197   4.514   3.318   4.733
    1C        C  198   4.553   3.532   4.849
    1C        C  199   4.534   3.390   4.854
    1C        C  200   4.580   3.617   4.961
    1C        C  201   3.614   2.414   2.071
    1C        C  202   3.821   2.515   2.181
    1C        C  203   3.689   2.459   2.185
    1C        C  204   3.895   2.542   2.300
    1C        C  205   3.828   2.518   2.422
    1C        C  206   4.019   2.616   2.540
    1C        C  207   3.893   2.552   2.543
    1C        C  208   4.075   2.663   2.661
    1C        C  209   4.020   2.620   2.784
    1C        C  210   4.188   2.748   2.906
    1C        C  211   4.079   2.658   2.907
    1C        C  212   4.241   2.796   3.028
    1C        C  213   4.189   2.750   3.151
    1C        C  214   4.328   2.910   3.275
    1C        C  215   4.240   2.799   3.274
    1C        C  216   4.361   2.976   3.396
    1C        C  217   4.325   2.917   3.519
    1C        C  218   4.430   3.102   3.636
    1C        C  219   4.368   2.975   3.640
    1C        C  220   4.457   3.170   3.757
    1C        C  221   4.434   3.106   3.881
    1C        C  222   4.506   3.306   4.002
    1C        C  223   4.469   3.169   4.003
    1C        C  224   4.521   3.379   4.122
    1C        C  225   4.505   3.310   4.244
    1C        C  226   4.525   3.522   4.365
    1C        C  227   4.513   3.381   4.367
    1C        C  228   4.527   3.598   4.484
    1C        C  229   4.533   3.528   4.607
    1C        C  230   4.512   3.742   4.727
    1C        C  231   4.540   3.603   4.727
    1C        C  232   4.500   3.819   4.845
    1C        C  233   4.541   3.751   4.961
    1C        C  234   4.014   2.608   2.059
    1C        C  235   3.892   2.541   2.063
    1C        C  236   4.083   2.644   2.176
    1C        C  237   4.021   2.608   2.298
    1C        C  238   4.195   2.736   2.420
    1C        C  239   4.083   2.648   2.418
    1C        C  240   4.249   2.785   2.541
    1C        C  241   4.189   2.745   2.663
    1C        C  242   4.331   2.904   2.783
    1C        C  243   4.240   2.797   2.784
    1C        C  244   4.371   2.961   2.906
    1C        C  245   4.333   2.903   3.030
    1C        C  246   4.436   3.088   3.147
    1C        C  247   4.373   2.962   3.152
    1C        C  248   4.459   3.161   3.266
    1C        C  249   4.431   3.098   3.390
    1C        C  250   4.491   3.302   3.511
    1C        C  251   4.453   3.166   3.512
    1C        C  252   4.512   3.370   3.633
    1C        C  253   4.501   3.304   3.758
    1C        C  254   4.531   3.515   3.874
    1C        C  255   4.517   3.374   3.879
    1C        C  256   4.523   3.589   3.994
    1C        C  257   4.525   3.520   4.118
    1C        C  258   4.491   3.728   4.238
    1C        C  259   4.518   3.589   4.241
    1C        C  260   4.475   3.798   4.360
    1C        C  261   4.499   3.736   4.484
    1C        C  262   4.430   3.938   4.600
    1C        C  263   4.487   3.809   4.605
    1C        C  264   4.395   4.004   4.720
    1C        C  265   4.438   3.946   4.841
    1C        C  266   4.313   4.124   4.954
    1C        C  267   4.391   4.009   4.957
    1C        C  268   4.258   2.778   2.061
    1C        C  269   4.194   2.731   2.177
    1C        C  270   4.342   2.888   2.296
    1C        C  271   4.247   2.782   2.297
    1C        C  272   4.382   2.950   2.416
    1C        C  273   4.340   2.893   2.539
    1C        C  274   4.446   3.080   2.659
    1C        C  275   4.371   2.960   2.659
    1C        C  276   4.469   3.150   2.779
    1C        C  277   4.434   3.087   2.901
    1C        C  278   4.497   3.289   3.022
    1C        C  279   4.460   3.153   3.023
    1C        C  280   4.506   3.364   3.142
    1C        C  281   4.491   3.298   3.266
    1C        C  282   4.524   3.509   3.387
    1C        C  283   4.509   3.368   3.387
    1C        C  284   4.521   3.580   3.509
    1C        C  285   4.522   3.511   3.632
    1C        C  286   4.495   3.724   3.748
    1C        C  287   4.524   3.585   3.752
    1C        C  288   4.475   3.792   3.870
    1C        C  289   4.496   3.728   3.994
    1C        C  290   4.426   3.929   4.113
    1C        C  291   4.477   3.797   4.116
    1C        C  292   4.399   3.996   4.235
    1C        C  293   4.427   3.931   4.357
    1C        C  294   4.321   4.119   4.475
    1C        C  295   4.395   3.998   4.477
    1C        C  296   4.278   4.181   4.594
    1C        C  297   4.316   4.122   4.717
    1C        C  298   4.199   4.310   4.836
    1C        C  299   4.276   4.190   4.836
    1C        C  300   4.170   4.404   4.941
    1C        C  301   4.346   2.886   2.058
    1C        C  302   4.468   3.067   2.173
    1C        C  303   4.393   2.945   2.176
    1C        C  304   4.479   3.140   2.295
    1C        C  305   4.448   3.075   2.417
    1C        C  306   4.507   3.282   2.536
    1C        C  307   4.477   3.144   2.537
    1C        C  308   4.519   3.355   2.656
    1C        C  309   4.503   3.287   2.778
    1C        C  310   4.529   3.499   2.899
    1C        C  311   4.514   3.358   2.900
    1C        C  312   4.527   3.572   3.019
    1C        C  313   4.522   3.504   3.144
    1C        C  314   4.489   3.716   3.261
    1C        C  315   4.520   3.578   3.264
    1C        C  316   4.477   3.787   3.383
    1C        C  317   4.496   3.719   3.505
    1C        C  318   4.426   3.923   3.625
    1C        C  319   4.475   3.791   3.625
    1C        C  320   4.389   3.986   3.746
    1C        C  321   4.421   3.923   3.868
    1C        C  322   4.321   4.110   3.991
    1C        C  323   4.393   3.989   3.990
    1C        C  324   4.272   4.167   4.111
    1C        C  325   4.321   4.115   4.233
    1C        C  326   4.183   4.278   4.353
    1C        C  327   4.285   4.180   4.353
    1C        C  328   4.131   4.333   4.472
    1C        C  329   4.186   4.288   4.595
    1C        C  330   4.024   4.432   4.711
    1C        C  331   4.139   4.348   4.713
    1C        C  332   3.966   4.486   4.828
    1C        C  333   4.048   4.472   4.940
    1C        C  334   4.559   3.267   2.063
    1C        C  335   4.534   3.129   2.063
    1C        C  336   4.538   3.348   2.175
    1C        C  337   4.512   3.278   2.295
    1C        C  338   4.521   3.495   2.410
    1C        C  339   4.517   3.354   2.414
    1C        C  340   4.526   3.566   2.531
    1C        C  341   4.525   3.496   2.654
    1C        C  342   4.493   3.706   2.771
    1C        C  343   4.519   3.568   2.776
    1C        C  344   4.475   3.776   2.893
    1C        C  345   4.497   3.710   3.016
    1C        C  346   4.426   3.913   3.135
    1C        C  347   4.475   3.780   3.136
    1C        C  348   4.391   3.978   3.255
    1C        C  349   4.426   3.919   3.379
    1C        C  350   4.314   4.099   3.501
    1C        C  351   4.399   3.985   3.501
    1C        C  352   4.270   4.158   3.622
    1C        C  353   4.310   4.103   3.746
    1C        C  354   4.172   4.260   3.863
    1C        C  355   4.273   4.162   3.869
    1C        C  356   4.121   4.312   3.984
    1C        C  357   4.171   4.265   4.107
    1C        C  358   4.007   4.397   4.229
    1C        C  359   4.122   4.314   4.231
    1C        C  360   3.949   4.444   4.348
    1C        C  361   4.014   4.411   4.469
    1C        C  362   3.825   4.510   4.591
    1C        C  363   3.955   4.456   4.590
    1C        C  364   3.759   4.543   4.711
    1C        C  365   3.835   4.540   4.830
    1C        C  366   3.625   4.588   4.951
    1C        C  367   3.763   4.570   4.946
    1C        C  368   4.505   3.561   2.050
    1C        C  369   4.524   3.488   2.169
    1C        C  370   4.503   3.705   2.285
    1C        C  371   4.520   3.565   2.287
    1C        C  372   4.480   3.775   2.405
    1C        C  373   4.498   3.705   2.526
    1C        C  374   4.422   3.904   2.645
    1C        C  375   4.476   3.773   2.648
    1C        C  376   4.393   3.971   2.766
    1C        C  377   4.425   3.908   2.888
    1C        C  378   4.321   4.091   3.010
    1C        C  379   4.398   3.973   3.011
    1C        C  380   4.271   4.146   3.131
    1C        C  381   4.311   4.095   3.256
    1C        C  382   4.175   4.257   3.376
    1C        C  383   4.272   4.154   3.378
    1C        C  384   4.115   4.299   3.496
    1C        C  385   4.170   4.258   3.620
    1C        C  386   4.001   4.387   3.741
    1C        C  387   4.119   4.309   3.741
    1C        C  388   3.941   4.423   3.864
    1C        C  389   4.007   4.395   3.986
    1C        C  390   3.816   4.488   4.107
    1C        C  391   3.945   4.431   4.107
    1C        C  392   3.749   4.518   4.228
    1C        C  393   3.818   4.499   4.349
    1C        C  394   3.614   4.554   4.474
    1C        C  395   3.753   4.531   4.471
    1C        C  396   3.542   4.568   4.595
    1C        C  397   3.619   4.563   4.713
    1C        C  398   3.410   4.549   4.837
    1C        C  399   3.549   4.575   4.835
    1C        C  400   3.340   4.511   4.953
    1C        C  401   4.507   3.700   2.050
    1C        C  402   4.450   3.913   2.161
    1C        C  403   4.492   3.779   2.165
    1C        C  404   4.414   3.978   2.282
    1C        C  405   4.441   3.911   2.403
    1C        C  406   4.321   4.090   2.523
    1C        C  407   4.398   3.972   2.523
    1C        C  408   4.276   4.147   2.644
    1C        C  409   4.315   4.089   2.767
    1C        C  410   4.169   4.242   2.889
    1C        C  411   4.273   4.146   2.889
    1C        C  412   4.115   4.290   3.011
    1C        C  413   4.172   4.246   3.133
    1C        C  414   3.999   4.372   3.251
    1C        C  415   4.118   4.297   3.253
    1C        C  416   3.936   4.404   3.373
    1C        C  417   3.998   4.377   3.497
    1C        C  418   3.809   4.476   3.616
    1C        C  419   3.937   4.417   3.619
    1C        C  420   3.746   4.504   3.740
    1C        C  421   3.812   4.481   3.863
    1C        C  422   3.610   4.539   3.987
    1C        C  423   3.748   4.508   3.985
    1C        C  424   3.540   4.546   4.109
    1C        C  425   3.610   4.543   4.232
    1C        C  426   3.400   4.546   4.353
    1C        C  427   3.540   4.556   4.354
    1C        C  428   3.329   4.547   4.476
    1C        C  429   3.401   4.560   4.597
    1C        C  430   3.192   4.522   4.722
    1C        C  431   3.332   4.551   4.719
    1C        C  432   3.121   4.496   4.842
    1C        C  433   3.204   4.487   4.955
    1C        C  434   4.386   4.124   2.050
    1C        C  435   4.445   3.997   2.049
    1C        C  436   4.301   4.161   2.159
    1C        C  437   4.334   4.096   2.282
    1C        C  438   4.175   4.242   2.399
    1C        C  439   4.280   4.148   2.401
    1C        C  440   4.117   4.284   2.521
    1C        C  441   4.175   4.246   2.644
    1C        C  442   4.001   4.369   2.763
    1C        C  443   4.118   4.289   2.766
    1C        C  444   3.939   4.405   2.885
    1C        C  445   3.999   4.370   3.008
    1C        C  446   3.806   4.463   3.127
    1C        C  447   3.935   4.404   3.129
    1C        C  448   3.744   4.489   3.251
    1C        C  449   3.809   4.468   3.374
    1C        C  450   3.605   4.531   3.494
    1C        C  451   3.742   4.500   3.494
    1C        C  452   3.538   4.540   3.619
    1C        C  453   3.608   4.534   3.741
    1C        C  454   3.399   4.546   3.862
    1C        C  455   3.540   4.547   3.864
    1C        C  456   3.329   4.533   3.985
    1C        C  457   3.399   4.537   4.108
    1C        C  458   3.191   4.506   4.236
    1C        C  459   3.330   4.531   4.231
    1C        C  460   3.122   4.486   4.358
    1C        C  461   3.191   4.516   4.478
    1C        C  462   2.998   4.431   4.600
    1C        C  463   3.127   4.490   4.601
    1C        C  464   2.932   4.398   4.720
    1C        C  465   2.989   4.443   4.842
    1C        C  466   2.804   4.336   4.959
    1C        C  467   2.909   4.428   4.960
    1C        C  468   4.121   4.290   2.043
    1C        C  469   4.187   4.247   2.158
    1C        C  470   4.007   4.372   2.279
    1C        C  471   4.127   4.296   2.278
    1C        C  472   3.938   4.402   2.399
    1C        C  473   4.002   4.365   2.519
    1C        C  474   3.812   4.462   2.641
    1C        C  475   3.942   4.406   2.641
    1C        C  476   3.743   4.488   2.762
    1C        C  477   3.813   4.468   2.884
    1C        C  478   3.604   4.519   3.007
    1C        C  479   3.742   4.489   3.004
    1C        C  480   3.534   4.530   3.129
    1C        C  481   3.606   4.523   3.251
    1C        C  482   3.394   4.544   3.374
    1C        C  483   3.535   4.537   3.372
    1C        C  484   3.325   4.535   3.498
    1C        C  485   3.397   4.540   3.619
    1C        C  486   3.189   4.502   3.744
    1C        C  487   3.326   4.538   3.741
    1C        C  488   3.126   4.476   3.867
    1C        C  489   3.192   4.501   3.989
    1C        C  490   3.003   4.414   4.114
    1C        C  491   3.125   4.486   4.113
    1C        C  492   2.938   4.383   4.235
    1C        C  493   2.993   4.429   4.356
    1C        C  494   2.828   4.301   4.481
    1C        C  495   2.935   4.392   4.480
    1C        C  496   2.772   4.256   4.603
    1C        C  497   2.816   4.316   4.723
    1C        C  498   2.663   4.167   4.840
    1C        C  499   2.752   4.276   4.843
    1C        C  500   2.603   4.114   4.956
    1C        C  501   3.996   4.351   2.042
    1C        C  502   3.812   4.464   2.155
    1C        C  503   3.938   4.400   2.159
    1C        C  504   3.743   4.485   2.277
    1C        C  505   3.809   4.459   2.399
    1C        C  506   3.603   4.507   2.520
    1C        C  507   3.742   4.483   2.521
    1C        C  508   3.531   4.519   2.642
    1C        C  509   3.605   4.517   2.762
    1C        C  510   3.393   4.523   2.885
    1C        C  511   3.534   4.525   2.884
    1C        C  512   3.321   4.526   3.007
    1C        C  513   3.393   4.535   3.128
    1C        C  514   3.188   4.497   3.254
    1C        C  515   3.324   4.533   3.252
    1C        C  516   3.124   4.470   3.377
    1C        C  517   3.189   4.498   3.500
    1C        C  518   2.999   4.407   3.624
    1C        C  519   3.122   4.475   3.622
    1C        C  520   2.939   4.372   3.747
    1C        C  521   3.002   4.408   3.868
    1C        C  522   2.836   4.282   3.994
    1C        C  523   2.945   4.371   3.992
    1C        C  524   2.786   4.234   4.117
    1C        C  525   2.833   4.289   4.239
    1C        C  526   2.693   4.132   4.361
    1C        C  527   2.776   4.246   4.361
    1C        C  528   2.648   4.077   4.483
    1C        C  529   2.689   4.142   4.602
    1C        C  530   2.579   3.963   4.726
    1C        C  531   2.635   4.094   4.723
    1C        C  532   2.538   3.903   4.849
    1C        C  533   2.531   3.994   4.958
    1C        C  534   3.617   4.554   2.040
    1C        C  535   3.751   4.513   2.039
    1C        C  536   3.533   4.530   2.154
    1C        C  537   3.603   4.510   2.276
    1C        C  538   3.391   4.507   2.396
    1C        C  539   3.532   4.511   2.398
    1C        C  540   3.319   4.509   2.518
    1C        C  541   3.390   4.519   2.639
    1C        C  542   3.185   4.483   2.764
    1C        C  543   3.323   4.513   2.763
    1C        C  544   3.119   4.463   2.888
    1C        C  545   3.184   4.491   3.010
    1C        C  546   2.998   4.396   3.135
    1C        C  547   3.120   4.467   3.133
    1C        C  548   2.943   4.356   3.258
    1C        C  549   3.002   4.399   3.379
    1C        C  550   2.834   4.273   3.504
    1C        C  551   2.939   4.368   3.502
    1C        C  552   2.783   4.226   3.627
    1C        C  553   2.833   4.279   3.749
    1C        C  554   2.698   4.120   3.872
    1C        C  555   2.786   4.230   3.873
    1C        C  556   2.658   4.063   3.995
    1C        C  557   2.695   4.125   4.117
    1C        C  558   2.590   3.944   4.243
    1C        C  559   2.655   4.070   4.240
    1C        C  560   2.560   3.882   4.366
    1C        C  561   2.588   3.949   4.487
    1C        C  562   2.529   3.747   4.613
    1C        C  563   2.561   3.885   4.610
    1C        C  564   2.507   3.679   4.734
    1C        C  565   2.515   3.762   4.850
    1C        C  566   2.533   3.548   4.971
    1C        C  567   2.524   3.686   4.968
    1C        C  568   3.328   4.465   2.038
    1C        C  569   3.392   4.512   2.153
    1C        C  570   3.182   4.470   2.276
    1C        C  571   3.320   4.504   2.274
    1C        C  572   3.115   4.451   2.399
    1C        C  573   3.180   4.482   2.521
    1C        C  574   2.986   4.403   2.645
    1C        C  575   3.112   4.468   2.644
    1C        C  576   2.929   4.364   2.768
    1C        C  577   2.994   4.397   2.890
    1C        C  578   2.825   4.273   3.014
    1C        C  579   2.937   4.359   3.013
    1C        C  580   2.779   4.218   3.136
    1C        C  581   2.833   4.268   3.257
    1C        C  582   2.699   4.110   3.383
    1C        C  583   2.787   4.221   3.382
    1C        C  584   2.659   4.054   3.506
    1C        C  585   2.697   4.114   3.628
    1C        C  586   2.594   3.932   3.754
    1C        C  587   2.660   4.056   3.752
    1C        C  588   2.568   3.869   3.878
    1C        C  589   2.599   3.935   4.000
    1C        C  590   2.530   3.737   4.124
    1C        C  591   2.571   3.872   4.123
    1C        C  592   2.519   3.672   4.249
    1C        C  593   2.524   3.746   4.370
    1C        C  594   2.510   3.534   4.494
    1C        C  595   2.516   3.675   4.492
    1C        C  596   2.514   3.463   4.616
    1C        C  597   2.508   3.537   4.736
    1C        C  598   2.534   3.325   4.860
    1C        C  599   2.528   3.466   4.857
    1C        C  600   2.537   3.247   4.976
    1C        C  601   3.194   4.429   2.040
    1C        C  602   2.979   4.390   2.157
    1C        C  603   3.115   4.435   2.156
    1C        C  604   2.924   4.353   2.282
    1C        C  605   2.987   4.391   2.402
    1C        C  606   2.817   4.269   2.528
    1C        C  607   2.927   4.358   2.526
    1C        C  608   2.769   4.219   2.651
    1C        C  609   2.823   4.271   2.771
    1C        C  610   2.691   4.105   2.894
    1C        C  611   2.772   4.221   2.893
    1C        C  612   2.656   4.044   3.017
    1C        C  613   2.696   4.104   3.138
    1C        C  614   2.590   3.925   3.264
    1C        C  615   2.658   4.049   3.263
    1C        C  616   2.565   3.863   3.388
    1C        C  617   2.596   3.927   3.510
    1C        C  618   2.525   3.729   3.636
    1C        C  619   2.565   3.864   3.633
    1C        C  620   2.506   3.663   3.760
    1C        C  621   2.524   3.735   3.880
    1C        C  622   2.507   3.524   4.008
    1C        C  623   2.515   3.665   4.003
    1C        C  624   2.510   3.455   4.131
    1C        C  625   2.512   3.531   4.250
    1C        C  626   2.538   3.323   4.379
    1C        C  627   2.515   3.462   4.373
    1C        C  628   2.549   3.250   4.500
    1C        C  629   2.533   3.323   4.620
    1C        C  630   2.592   3.115   4.742
    1C        C  631   2.552   3.252   4.741
    1C        C  632   2.612   3.045   4.864
    1C        C  633   2.551   3.107   4.977
    1C        C  634   2.780   4.298   2.052
    1C        C  635   2.887   4.389   2.047
    1C        C  636   2.744   4.226   2.166
    1C        C  637   2.809   4.269   2.284
    1C        C  638   2.673   4.110   2.409
    1C        C  639   2.760   4.222   2.408
    1C        C  640   2.635   4.050   2.530
    1C        C  641   2.678   4.111   2.650
    1C        C  642   2.584   3.921   2.775
    1C        C  643   2.649   4.046   2.773
    1C        C  644   2.557   3.858   2.898
    1C        C  645   2.585   3.922   3.021
    1C        C  646   2.517   3.723   3.145
    1C        C  647   2.558   3.858   3.144
    1C        C  648   2.505   3.656   3.269
    1C        C  649   2.524   3.728   3.389
    1C        C  650   2.508   3.520   3.518
    1C        C  651   2.512   3.661   3.513
    1C        C  652   2.517   3.450   3.641
    1C        C  653   2.506   3.522   3.763
    1C        C  654   2.535   3.315   3.890
    1C        C  655   2.508   3.453   3.886
    1C        C  656   2.549   3.248   4.014
    1C        C  657   2.537   3.316   4.136
    1C        C  658   2.608   3.118   4.258
    1C        C  659   2.560   3.251   4.260
    1C        C  660   2.631   3.051   4.380
    1C        C  661   2.595   3.116   4.500
    1C        C  662   2.711   2.937   4.624
    1C        C  663   2.627   3.051   4.621
    1C        C  664   2.746   2.873   4.745
    1C        C  665   2.691   2.926   4.865
    1C        C  666   2.745   2.872   4.982
    1C        C  667   2.680   4.021   2.051
    1C        C  668   2.677   4.102   2.165
    1C        C  669   2.584   3.913   2.291
    1C        C  670   2.640   4.044   2.288
    1C        C  671   2.553   3.849   2.413
    1C        C  672   2.576   3.922   2.532
    1C        C  673   2.512   3.720   2.658
    1C        C  674   2.550   3.856   2.654
    1C        C  675   2.507   3.650   2.781
    1C        C  676   2.519   3.722   2.903
    1C        C  677   2.501   3.510   3.028
    1C        C  678   2.509   3.651   3.024
    1C        C  679   2.507   3.440   3.151
    1C        C  680   2.506   3.515   3.271
    1C        C  681   2.530   3.309   3.401
    1C        C  682   2.509   3.449   3.396
    1C        C  683   2.554   3.242   3.523
    1C        C  684   2.540   3.311   3.645
    1C        C  685   2.608   3.114   3.770
    1C        C  686   2.553   3.244   3.769
    1C        C  687   2.640   3.052   3.893
    1C        C  688   2.601   3.116   4.012
    1C        C  689   2.714   2.936   4.135
    1C        C  690   2.639   3.056   4.135
    1C        C  691   2.758   2.881   4.257
    1C        C  692   2.714   2.937   4.379
    1C        C  693   2.754   2.880   4.502
    1C        C  694   2.630   3.890   2.055
    1C        C  695   2.527   3.704   2.175
    1C        C  696   2.579   3.836   2.173
    1C        C  697   2.508   3.636   2.297
    1C        C  698   2.523   3.711   2.416
    1C        C  699   2.494   3.503   2.540
    1C        C  700   2.505   3.644   2.539
    1C        C  701   2.507   3.436   2.664
    1C        C  702   2.504   3.509   2.785
    1C        C  703   2.531   3.299   2.909
    1C        C  704   2.507   3.438   2.907
    1C        C  705   2.547   3.232   3.033
    1C        C  706   2.531   3.301   3.155
    1C        C  707   2.600   3.107   3.279
    1C        C  708   2.549   3.238   3.280
    1C        C  709   2.634   3.047   3.402
    1C        C  710   2.605   3.110   3.525
    1C        C  711   2.713   2.929   3.647
    1C        C  712   2.638   3.049   3.648
    1C        C  713   2.760   2.875   3.769
    1C        C  714   2.720   2.935   3.890
    1C        C  715   2.754   2.877   4.014
    1C        C  716   2.449   3.497   2.061
    1C        C  717   2.497   3.629   2.061
    1C        C  718   2.466   3.420   2.180
    1C        C  719   2.478   3.497   2.299
    1C        C  720   2.517   3.290   2.422
    1C        C  721   2.484   3.428   2.421
    1C        C  722   2.544   3.225   2.544
    1C        C  723   2.531   3.297   2.666
    1C        C  724   2.594   3.095   2.790
    1C        C  725   2.545   3.227   2.788
    1C        C  726   2.620   3.032   2.913
    1C        C  727   2.596   3.099   3.035
    1C        C  728   2.708   2.923   3.156
    1C        C  729   2.626   3.037   3.159
    1C        C  730   2.752   2.871   3.281
    1C        C  731   2.709   2.927   3.403
    1C        C  732   2.758   2.875   3.525
    1C        C  733   2.490   3.194   2.071
    1C        C  734   2.494   3.279   2.182
    1C        C  735   2.581   3.082   2.302
    1C        C  736   2.531   3.215   2.303
    1C        C  737   2.611   3.020   2.425
    1C        C  738   2.592   3.093   2.545
    1C        C  739   2.698   2.910   2.669
    1C        C  740   2.625   3.031   2.667
    1C        C  741   2.741   2.855   2.792
    1C        C  742   2.699   2.915   2.912
    1C        C  743   2.751   2.866   3.034
    1C        C  744   2.534   3.062   2.073
    1C        C  745   2.685   2.895   2.185
    1C        C  746   2.607   3.012   2.182
    1C        C  747   2.727   2.838   2.308
    1C        C  748   2.683   2.898   2.427
    1C        C  749   2.736   2.848   2.548
    1C        C  750   2.736   2.841   2.066
    1C        C  751   3.647   2.296   1.988
    1C        O  752   3.628   2.178   2.028
    1C        O  753   3.700   2.312   1.859
    1C        C  754   4.622   3.057   1.968
    1C        O  755   4.601   3.051   1.844
    1C        O  756   4.753   3.020   2.003
    1C        C  757   4.438   4.232   1.963
    1C        O  758   4.492   4.333   2.016
    1C        O  759   4.444   4.226   1.823
    1C        C  760   3.595   4.674   1.955
    1C        O  761   3.649   4.781   1.994
    1C        O  762   3.532   4.668   1.831
    1C        C  763   2.874   4.483   1.934
    1C        O  764   2.927   4.457   1.822
    1C        O  765   2.789   4.594   1.934
    1C        C  766   2.334   3.479   1.970
    1C        O  767   2.339   3.453   1.846
    1C        O  768   2.205   3.524   2.003
    1C        C  769   4.682   3.579   5.062
    1C        O  770   4.645   3.539   5.176
    1C        O  771   4.812   3.629   5.051
    1C        C  772   4.283   4.480   4.998
    1C        O  773   4.350   4.458   5.103
    1C        O  774   4.365   4.563   4.921
    1C        C  775   4.141   2.498   5.058
    1C        O  776   4.195   2.392   5.016
    1C        O  777   4.161   2.517   5.195
    1C        C  778   2.896   4.538   5.059
    1C        O  779   2.836   4.641   5.021
    1C        O  780   2.852   4.522   5.191
    1C        C  781   2.459   3.037   5.069
    1C        O  782   2.370   2.961   5.024
    1C        O  783   2.426   3.083   5.196
    1C        C  784   2.437   3.975   5.071
    1C        O  785   2.329   4.040   5.075
    1C        O  786   2.488   3.962   5.200
    1C        C  787   2.942   2.425   2.006
    1C        O  788   2.908   2.452   1.888
    1C        O  789   2.912   2.294   2.041
    1C        C  790   3.174   2.361   5.047
    1C        O  791   3.109   2.266   4.996
    1C        O  792   3.172   2.359   5.187
    1C        H  793   4.269   3.032   5.045
    1C        H  794   4.137   2.836   5.050
    1C        H  795   4.491   3.123   5.057
    1C        H  796   4.566   3.353   5.064
    1C        H  797   4.601   3.813   5.024
    1C        H  798   4.433   3.984   5.052
    1C        H  799   4.314   4.186   5.041
    1C        H  800   4.009   4.500   5.036
    1C        H  801   3.814   4.611   5.031
    1C        H  802   3.586   4.640   5.036
    1C        H  803   3.396   4.452   5.021
    1C        H  804   3.170   4.431   5.040
    1C        H  805   3.883   2.508   5.072
    1C        H  806   3.680   2.441   5.066
    1C        H  807   3.007   2.574   5.070
    1C        H  808   3.443   2.421   5.065
    1C        H  809   2.914   2.781   5.063
    1C        H  810   2.735   2.924   5.075
    1C        H  811   2.514   3.297   5.068
    1C        H  812   2.520   3.509   5.069
    1C        H  813   2.569   3.737   5.050
    1C        H  814   2.585   4.181   5.037
    1C        H  815   2.750   4.326   5.051
    1C        H  816   2.718   2.878   1.968
    1C        H  817   2.833   2.671   1.983
    1C        H  818   3.205   2.415   1.991
    1C        H  819   3.441   2.494   1.990
    1C        H  820   3.868   2.485   1.976
    1C        H  821   4.071   2.597   1.969
    1C        H  822   4.251   2.717   1.973
    1C        H  823   4.356   2.931   1.962
    1C        H  824   4.607   3.311   1.977
    1C        H  825   4.462   3.516   1.963
    1C        H  826   4.532   3.750   1.958
    1C        H  827   3.805   4.521   1.947
    1C        H  828   3.938   4.336   1.953
    1C        H  829   4.153   4.247   1.950
    1C        H  830   4.532   3.992   1.988
    1C        H  831   2.653   3.831   1.968
    1C        H  832   2.694   4.059   1.952
    1C        H  833   2.716   4.276   1.969
    1C        H  834   3.374   4.465   1.941
    1C        H  835   3.171   4.350   1.972
    1C        H  836   2.466   2.992   2.029
    1C        H  837   2.425   3.216   1.989
    1C        H  838   2.542   3.657   1.968
    2V3OU   H29  839   2.792   3.553   1.617
    2V3OU   C27  840   2.780   3.499   1.715
    2V3OU   H27  841   2.730   3.566   1.789
    2V3OU   H28  842   2.726   3.400   1.710
    2V3OU   O11  843   2.909   3.474   1.770
    2V3OU   C15  844   2.919   3.399   1.886
    2V3OU   C13  845   3.049   3.376   1.935
    2V3OU   C14  846   3.074   3.262   2.013
    2V3OU   C16  847   2.970   3.182   2.056
    2V3OU    H6  848   2.992   3.094   2.119
    2V3OU   C12  849   3.211   3.228   2.058
    2V3OU    O2  850   3.240   3.122   2.119
    2V3OU   C10  851   3.321   3.302   1.996
    2V3OU    C8  852   3.453   3.269   2.024
    2V3OU   O10  853   3.485   3.154   2.089
    2V3OU   H26  854   3.399   3.109   2.096
    2V3OU    C6  855   3.562   3.349   1.977
    2V3OU    C5  856   3.535   3.465   1.905
    2V3OU    C4  857   3.700   3.294   1.980
    2V3OU    H4  858   3.722   3.223   2.066
    2V3OU    H5  859   3.704   3.227   1.889
    2V3OU    C2  860   3.815   3.395   1.973
    2V3OU    O6  861   3.806   3.474   2.092
    2V3OU   H21  862   3.756   3.555   2.069
    2V3OU    C3  863   3.782   3.491   1.859
    2V3OU    H2  864   3.857   3.573   1.848
    2V3OU    H3  865   3.781   3.434   1.762
    2V3OU   C25  866   3.948   3.323   1.954
    2V3OU    O7  867   3.995   3.294   1.844
    2V3OU   C26  868   4.031   3.282   2.074
    2V3OU   H22  869   4.059   3.383   2.115
    2V3OU   H23  870   4.117   3.218   2.042
    2V3OU    O8  871   3.955   3.205   2.164
    2V3OU   H24  872   3.922   3.264   2.234
    2V3OU    C1  873   3.648   3.560   1.878
    2V3OU    H1  874   3.626   3.615   1.782
    2V3OU    O3  875   3.659   3.651   1.988
    2V3OU   C19  876   3.616   3.787   1.972
    2V3OU    H9  877   3.523   3.809   1.913
    2V3OU    O4  878   3.714   3.844   1.888
    2V3OU   C20  879   3.840   3.874   1.949
    2V3OU   H10  880   3.890   3.772   1.955
    2V3OU   C24  881   3.609   3.854   2.109
    2V3OU   H16  882   3.537   3.798   2.174
    2V3OU   H17  883   3.566   3.954   2.083
    2V3OU   C23  884   3.743   3.873   2.180
    2V3OU   H15  885   3.785   3.770   2.207
    2V3OU    N1  886   3.730   3.952   2.301
    2V3OU   H19  887   3.801   3.930   2.369
    2V3OU   H20  888   3.640   3.939   2.343
    2V3OU   C21  889   3.844   3.944   2.084
    2V3OU   H11  890   3.948   3.931   2.126
    2V3OU    O5  891   3.818   4.083   2.087
    2V3OU   H18  892   3.780   4.095   2.176
    2V3OU   C22  893   3.913   3.949   1.839
    2V3OU   H12  894   3.861   4.046   1.819
    2V3OU   H13  895   3.910   3.890   1.744
    2V3OU   H14  896   4.019   3.965   1.871
    2V3OU   C11  897   3.158   3.470   1.907
    2V3OU    O1  898   3.137   3.583   1.858
    2V3OU    C9  899   3.297   3.422   1.924
    2V3OU    C7  900   3.400   3.502   1.875
    2V3OU    O9  901   3.385   3.615   1.798
    2V3OU   H25  902   3.289   3.624   1.791
    2V3OU   C17  903   2.815   3.314   1.930
    2V3OU    H7  904   2.712   3.344   1.916
    2V3OU   C18  905   2.839   3.207   2.015
    2V3OU    H8  906   2.757   3.141   2.047
    3SOL     OW  907   2.095   4.327   1.329
    3SOL    HW1  908   2.157   4.250   1.317
    3SOL    HW2  909   2.085   4.376   1.242
    4SOL     OW  910   6.291   6.593   1.743
    4SOL    HW1  911   6.302   6.674   1.686
    4SOL    HW2  912   6.310   6.617   1.839
    5SOL     OW  913   4.218   1.281   1.681
    5SOL    HW1  914   4.151   1.348   1.711
    5SOL    HW2  915   4.257   1.309   1.593
    6SOL     OW  916   3.681   2.104   2.283
    6SOL    HW1  917   3.647   2.107   2.189
    6SOL    HW2  918   3.616   2.151   2.343
    7SOL     OW  919   5.970   2.279   1.946
    7SOL    HW1  920   5.976   2.195   1.893
    7SOL    HW2  921   6.001   2.262   2.039
    8SOL     OW  922   2.496   6.701   4.873
    8SOL    HW1  923   2.404   6.737   4.887
    8SOL    HW2  924   2.493   6.602   4.862
    9SOL     OW  925   1.635   5.765   5.945
    9SOL    HW1  926   1.664   5.853   5.984
    9SOL    HW2  927   1.674   5.754   5.854
   10SOL     OW  928   0.372   4.780   6.000
   10SOL    HW1  929   0.383   4.827   6.088
   10SOL    HW2  930   0.385   4.682   6.013
   11SOL     OW  931   3.166   0.112   0.629
   11SOL    HW1  932   3.221   0.030   0.616
   11SOL    HW2  933   3.074   0.097   0.592
   12SOL     OW  934   4.598   6.095   3.328
   12SOL    HW1  935   4.696   6.088   3.312
   12SOL    HW2  936   4.551   6.017   3.287
   13SOL     OW  937   2.963   6.408   4.194
   13SOL    HW1  938   2.864   6.415   4.189
   13SOL    HW2  939   3.004   6.438   4.108
   14SOL     OW  940   3.590   5.834   6.374
   14SOL    HW1  941   3.530   5.768   6.418
   14SOL    HW2  942   3.679   5.834   6.419
   15SOL     OW  943   1.330   6.073   0.333
   15SOL    HW1  944   1.285   6.021   0.261
   15SOL    HW2  945   1.424   6.093   0.306
   16SOL     OW  946   6.357   2.187   6.081
   16SOL    HW1  947   6.343   2.178   5.982
   16SOL    HW2  948   6.447   2.225   6.099
   17SOL     OW  949   5.120   6.052   4.320
   17SOL    HW1  950   5.203   6.000   4.298
   17SOL    HW2  951   5.126   6.087   4.413
   18SOL     OW  952   2.649   2.299   6.130
   18SOL    HW1  953   2.621   2.237   6.056
   18SOL    HW2  954   2.724   2.258   6.181
   19SOL     OW  955   0.060   0.124   3.510
   19SOL    HW1  956   0.027   0.152   3.600
   19SOL    HW2  957   0.041   0.027   3.496
   20SOL     OW  958   3.589   1.082   4.103
   20SOL    HW1  959   3.586   0.985   4.078
   20SOL    HW2  960   3.639   1.093   4.189
   21SOL     OW  961   3.060   1.710   2.185
   21SOL    HW1  962   3.027   1.615   2.184
   21SOL    HW2  963   2.991   1.770   2.224
   22SOL     OW  964   1.887   0.067   6.887
   22SOL    HW1  965   1.832   0.150   6.875
   22SOL    HW2  966   1.855   7.016   6.825
   23SOL     OW  967   4.604   6.892   3.728
   23SOL    HW1  968   4.521   6.908   3.674
   23SOL    HW2  969   4.627   6.795   3.726
   24SOL     OW  970   5.322   1.441   4.498
   24SOL    HW1  971   5.225   1.449   4.520
   24SOL    HW2  972   5.350   1.518   4.441
   25SOL     OW  973   2.859   6.001   0.020
   25SOL    HW1  974   2.928   5.930   0.008
   25SOL    HW2  975   2.886   6.082   6.987
   26SOL     OW  976   6.420   0.963   1.520
   26SOL    HW1  977   6.332   0.935   1.559
   26SOL    HW2  978   6.412   1.056   1.485
   27SOL     OW  979   0.022   0.468   2.423
   27SOL    HW1  980   6.957   0.419   2.406
   27SOL    HW2  981   0.038   0.475   2.521
   28SOL     OW  982   4.188   0.459   6.672
   28SOL    HW1  983   4.096   0.499   6.673
   28SOL    HW2  984   4.239   0.495   6.594
   29SOL     OW  985   5.014   2.351   2.136
   29SOL    HW1  986   5.035   2.292   2.215
   29SOL    HW2  987   4.949   2.304   2.077
   30SOL     OW  988   2.662   6.895   5.943
   30SOL    HW1  989   2.674   6.861   6.036
   30SOL    HW2  990   2.641   6.819   5.882
   31SOL     OW  991   0.841   0.845   5.867
   31SOL    HW1  992   0.841   0.924   5.806
   31SOL    HW2  993   0.794   0.769   5.823
   32SOL     OW  994   0.703   2.542   2.757
   32SOL    HW1  995   0.732   2.573   2.848
   32SOL    HW2  996   0.778   2.556   2.693
   33SOL     OW  997   1.747   2.742   6.190
   33SOL    HW1  998   1.748   2.813   6.261
   33SOL    HW2  999   1.663   2.750   6.137
   34SOL     OW 1000   1.687   0.269   5.136
   34SOL    HW1 1001   1.665   0.309   5.047
   34SOL    HW2 1002   1.728   0.179   5.122
   35SOL     OW 1003   4.326   2.186   6.231
   35SOL    HW1 1004   4.253   2.120   6.213
   35SOL    HW2 1005   4.398   2.143   6.284
   36SOL     OW 1006   0.784   0.614   6.545
   36SOL    HW1 1007   0.741   0.655   6.626
   36SOL    HW2 1008   0.720   0.618   6.468
   37SOL     OW 1009   2.128   6.711   1.382
   37SOL    HW1 1010   2.218   6.746   1.408
   37SOL    HW2 1011   2.107   6.739   1.288
   38SOL     OW 1012   6.977   6.057   2.844
   38SOL    HW1 1013   6.938   6.106   2.766
   38SOL    HW2 1014   0.046   6.096   2.866
   39SOL     OW 1015   6.535   4.058   5.989
   39SOL    HW1 1016   6.537   4.017   6.081
   39SOL    HW2 1017   6.622   4.042   5.943
   40SOL     OW 1018   6.087   2.319   2.189
   40SOL    HW1 1019   6.186   2.319   2.196
   40SOL    HW2 1020   6.048   2.377   2.261
   41SOL     OW 1021   2.270   6.344   4.534
   41SOL    HW1 1022   2.210   6.404   4.481
   41SOL    HW2 1023   2.236   6.250   4.530
   42SOL     OW 1024   3.300   6.851   6.054
   42SOL    HW1 1025   3.240   6.855   6.133
   42SOL    HW2 1026   3.390   6.818   6.082
   43SOL     OW 1027   5.775   6.062   5.752
   43SOL    HW1 1028   5.851   6.084   5.691
   43SOL    HW2 1029   5.706   6.010   5.701
   44SOL     OW 1030   0.047   2.511   6.254
   44SOL    HW1 1031   7.017   2.571   6.317
   44SOL    HW2 1032   0.109   2.565   6.199
   45SOL     OW 1033   3.407   0.412   2.809
   45SOL    HW1 1034   3.494   0.366   2.829
   45SOL    HW2 1035   3.414   0.508   2.836
   46SOL     OW 1036   0.742   3.739   4.562
   46SOL    HW1 1037   0.755   3.662   4.500
   46SOL    HW2 1038   0.795   3.817   4.530
   47SOL     OW 1039   6.327   3.251   3.833
   47SOL    HW1 1040   6.328   3.234   3.735
   47SOL    HW2 1041   6.321   3.349   3.850
   48SOL     OW 1042   0.616   2.435   5.085
   48SOL    HW1 1043   0.540   2.490   5.052
   48SOL    HW2 1044   0.672   2.405   5.007
   49SOL     OW 1045   4.929   4.152   1.389
   49SOL    HW1 1046   4.877   4.143   1.305
   49SOL    HW2 1047   4.880   4.214   1.452
   50SOL     OW 1048   6.854   3.304   4.643
   50SOL    HW1 1049   6.953   3.312   4.631
   50SOL    HW2 1050   6.807   3.334   4.560
   51SOL     OW 1051   3.097   5.390   2.697
   51SOL    HW1 1052   3.006   5.400   2.737
   51SOL    HW2 1053   3.156   5.464   2.728
   52SOL     OW 1054   3.213   1.671   3.055
   52SOL    HW1 1055   3.130   1.721   3.029
   52SOL    HW2 1056   3.227   1.679   3.153
   53SOL     OW 1057   4.609   0.352   3.780
   53SOL    HW1 1058   4.673   0.412   3.731
   53SOL    HW2 1059   4.631   0.257   3.761
   54SOL     OW 1060   3.077   4.867   6.331
   54SOL    HW1 1061   3.003   4.915   6.379
   54SOL    HW2 1062   3.094   4.780   6.377
   55SOL     OW 1063   3.882   1.352   5.941
   55SOL    HW1 1064   3.795   1.394   5.914
   55SOL    HW2 1065   3.884   1.258   5.910
   56SOL     OW 1066   2.000   0.594   1.707
   56SOL    HW1 1067   2.070   0.636   1.764
   56SOL    HW2 1068   1.910   0.626   1.734
   57SOL     OW 1069   5.100   0.228   0.657
   57SOL    HW1 1070   5.187   0.217   0.608
   57SOL    HW2 1071   5.043   0.147   0.642
   58SOL     OW 1072   0.168   5.919   6.828
   58SOL    HW1 1073   0.195   6.009   6.862
   58SOL    HW2 1074   0.246   5.856   6.835
   59SOL     OW 1075   1.674   0.655   6.330
   59SOL    HW1 1076   1.689   0.739   6.279
   59SOL    HW2 1077   1.726   0.658   6.416
   60SOL     OW 1078   4.932   0.540   5.866
   60SOL    HW1 1079   5.022   0.558   5.826
   60SOL    HW2 1080   4.912   0.608   5.936
   61SOL     OW 1081   4.805   0.376   4.204
   61SOL    HW1 1082   4.884   0.331   4.162
   61SOL    HW2 1083   4.751   0.422   4.134
   62SOL     OW 1084   0.852   0.542   4.108
   62SOL    HW1 1085   0.844   0.550   4.207
   62SOL    HW2 1086   0.781   0.481   4.074
   63SOL     OW 1087   6.541   2.434   3.197
   63SOL    HW1 1088   6.505   2.379   3.272
   63SOL    HW2 1089   6.591   2.375   3.133
   64SOL     OW 1090   6.804   3.837   6.181
   64SOL    HW1 1091   6.751   3.878   6.255
   64SOL    HW2 1092   6.761   3.752   6.152
   65SOL     OW 1093   6.277   3.997   5.212
   65SOL    HW1 1094   6.338   4.075   5.202
   65SOL    HW2 1095   6.331   3.913   5.219
   66SOL     OW 1096   3.429   0.800   6.710
   66SOL    HW1 1097   3.365   0.791   6.785
   66SOL    HW2 1098   3.475   0.712   6.695
   67SOL     OW 1099   5.662   6.240   5.445
   67SOL    HW1 1100   5.569   6.212   5.466
   67SOL    HW2 1101   5.663   6.288   5.357
   68SOL     OW 1102   5.985   1.552   6.704
   68SOL    HW1 1103   5.979   1.461   6.745
   68SOL    HW2 1104   5.984   1.543   6.604
   69SOL     OW 1105   1.359   4.290   6.365
   69SOL    HW1 1106   1.424   4.356   6.329
   69SOL    HW2 1107   1.266   4.326   6.356
   70SOL     OW 1108   6.619   5.646   2.784
   70SOL    HW1 1109   6.606   5.547   2.784
   70SOL    HW2 1110   6.530   5.690   2.772
   71SOL     OW 1111   2.968   2.204   3.747
   71SOL    HW1 1112   2.931   2.266   3.816
   71SOL    HW2 1113   2.899   2.185   3.678
   72SOL     OW 1114   2.759   5.891   4.025
   72SOL    HW1 1115   2.841   5.835   4.036
   72SOL    HW2 1116   2.754   5.959   4.098
   73SOL     OW 1117   3.332   2.316   6.941
   73SOL    HW1 1118   3.376   2.405   6.955
   73SOL    HW2 1119   3.233   2.326   6.949
   74SOL     OW 1120   5.369   6.728   0.326
   74SOL    HW1 1121   5.405   6.716   0.233
   74SOL    HW2 1122   5.426   6.793   0.376
   75SOL     OW 1123   3.137   5.213   5.141
   75SOL    HW1 1124   3.228   5.247   5.119
   75SOL    HW2 1125   3.076   5.230   5.064
   76SOL     OW 1126   2.171   2.721   1.386
   76SOL    HW1 1127   2.102   2.649   1.382
   76SOL    HW2 1128   2.148   2.785   1.460
   77SOL     OW 1129   5.179   5.770   4.581
   77SOL    HW1 1130   5.196   5.674   4.557
   77SOL    HW2 1131   5.116   5.810   4.514
   78SOL     OW 1132   6.862   6.528   6.290
   78SOL    HW1 1133   6.875   6.493   6.383
   78SOL    HW2 1134   6.951   6.544   6.247
   79SOL     OW 1135   2.895   0.020   0.601
   79SOL    HW1 1136   2.897   6.955   0.653
   79SOL    HW2 1137   2.890   7.019   0.503
   80SOL     OW 1138   6.328   0.810   4.941
   80SOL    HW1 1139   6.419   0.850   4.952
   80SOL    HW2 1140   6.328   0.716   4.975
   81SOL     OW 1141   2.483   0.733   2.738
   81SOL    HW1 1142   2.467   0.636   2.719
   81SOL    HW2 1143   2.442   0.788   2.665
   82SOL     OW 1144   6.548   5.403   0.164
   82SOL    HW1 1145   6.625   5.356   0.206
   82SOL    HW2 1146   6.581   5.477   0.105
   83SOL     OW 1147   6.854   6.946   0.576
   83SOL    HW1 1148   6.823   6.915   0.486
   83SOL    HW2 1149   6.787   7.010   0.614
   84SOL     OW 1150   5.249   3.667   2.557
   84SOL    HW1 1151   5.182   3.602   2.593
   84SOL    HW2 1152   5.222   3.693   2.464
   85SOL     OW 1153   0.680   1.412   5.143
   85SOL    HW1 1154   0.651   1.479   5.073
   85SOL    HW2 1155   0.730   1.338   5.099
   86SOL     OW 1156   0.782   0.346   5.759
   86SOL    HW1 1157   0.760   0.254   5.793
   86SOL    HW2 1158   0.880   0.362   5.766
   87SOL     OW 1159   4.715   2.770   0.280
   87SOL    HW1 1160   4.624   2.731   0.267
   87SOL    HW2 1161   4.782   2.718   0.227
   88SOL     OW 1162   4.834   1.812   0.095
   88SOL    HW1 1163   4.750   1.775   0.135
   88SOL    HW2 1164   4.814   1.901   0.055
   89SOL     OW 1165   1.702   2.897   6.984
   89SOL    HW1 1166   1.683   2.995   6.979
   89SOL    HW2 1167   1.705   2.868   0.060
   90SOL     OW 1168   5.116   6.940   3.926
   90SOL    HW1 1169   5.193   6.974   3.872
   90SOL    HW2 1170   5.041   6.913   3.866
   91SOL     OW 1171   4.797   4.737   4.019
   91SOL    HW1 1172   4.843   4.814   3.974
   91SOL    HW2 1173   4.795   4.658   3.958
   92SOL     OW 1174   3.134   5.549   0.530
   92SOL    HW1 1175   3.074   5.527   0.607
   92SOL    HW2 1176   3.132   5.647   0.514
   93SOL     OW 1177   2.961   4.548   5.963
   93SOL    HW1 1178   2.980   4.465   6.016
   93SOL    HW2 1179   2.989   4.534   5.868
   94SOL     OW 1180   3.176   5.346   6.634
   94SOL    HW1 1181   3.201   5.435   6.673
   94SOL    HW2 1182   3.136   5.361   6.543
   95SOL     OW 1183   0.638   1.718   4.088
   95SOL    HW1 1184   0.635   1.751   3.993
   95SOL    HW2 1185   0.608   1.623   4.091
   96SOL     OW 1186   2.422   6.889   5.774
   96SOL    HW1 1187   2.331   6.850   5.792
   96SOL    HW2 1188   2.476   6.887   5.858
   97SOL     OW 1189   6.831   3.869   5.029
   97SOL    HW1 1190   6.823   3.801   4.956
   97SOL    HW2 1191   6.922   3.909   5.027
   98SOL     OW 1192   6.092   3.525   6.616
   98SOL    HW1 1193   6.175   3.579   6.631
   98SOL    HW2 1194   6.034   3.530   6.697
   99SOL     OW 1195   4.232   3.085   0.957
   99SOL    HW1 1196   4.160   3.022   0.927
   99SOL    HW2 1197   4.247   3.075   1.056
  100SOL     OW 1198   0.506   6.903   6.536
  100SOL    HW1 1199   0.480   6.855   6.452
  100SOL    HW2 1200   0.546   6.838   6.600
  101SOL     OW 1201   0.777   5.796   2.636
  101SOL    HW1 1202   0.847   5.866   2.623
  101SOL    HW2 1203   0.821   5.710   2.663
  102SOL     OW 1204   4.316   1.184   2.961
  102SOL    HW1 1205   4.372   1.257   2.999
  102SOL    HW2 1206   4.336   1.173   2.864
  103SOL     OW 1207   4.501   1.381   1.321
  103SOL    HW1 1208   4.551   1.394   1.407
  103SOL    HW2 1209   4.540   1.441   1.251
  104SOL     OW 1210   6.752   5.605   3.015
  104SOL    HW1 1211   6.708   5.519   3.038
  104SOL    HW2 1212   6.726   5.633   2.923
  105SOL     OW 1213   6.454   1.422   6.715
  105SOL    HW1 1214   6.540   1.472   6.703
  105SOL    HW2 1215   6.404   1.460   6.793
  106SOL     OW 1216   3.191   0.030   6.376
  106SOL    HW1 1217   3.199   0.099   6.449
  106SOL    HW2 1218   3.094   0.014   6.356
  107SOL     OW 1219   1.754   2.528   1.863
  107SOL    HW1 1220   1.820   2.600   1.883
  107SOL    HW2 1221   1.733   2.478   1.947
  108SOL     OW 1222   4.584   4.593   6.921
  108SOL    HW1 1223   4.600   4.497   6.941
  108SOL    HW2 1224   4.576   4.645   7.006
  109SOL     OW 1225   0.797   0.399   1.479
  109SOL    HW1 1226   0.893   0.410   1.506
  109SOL    HW2 1227   0.776   0.462   1.404
  110SOL     OW 1228   4.140   6.008   5.268
  110SOL    HW1 1229   4.133   6.090   5.325
  110SOL    HW2 1230   4.203   5.943   5.310
  111SOL     OW 1231   4.096   0.467   3.897
  111SOL    HW1 1232   4.063   0.380   3.934
  111SOL    HW2 1233   4.148   0.516   3.968
  112SOL     OW 1234   5.706   5.574   5.871
  112SOL    HW1 1235   5.716   5.628   5.787
  112SOL    HW2 1236   5.659   5.628   5.939
  113SOL     OW 1237   6.450   4.330   3.260
  113SOL    HW1 1238   6.363   4.370   3.231
  113SOL    HW2 1239   6.519   4.345   3.189
  114SOL     OW 1240   1.023   0.430   0.808
  114SOL    HW1 1241   1.101   0.478   0.769
  114SOL    HW2 1242   0.952   0.496   0.834
  115SOL     OW 1243   4.626   0.966   4.117
  115SOL    HW1 1244   4.627   1.023   4.035
  115SOL    HW2 1245   4.718   0.935   4.138
  116SOL     OW 1246   5.986   5.033   2.101
  116SOL    HW1 1247   6.063   5.095   2.114
  116SOL    HW2 1248   5.916   5.077   2.045
  117SOL     OW 1249   0.740   1.335   6.496
  117SOL    HW1 1250   0.761   1.238   6.488
  117SOL    HW2 1251   0.826   1.387   6.506
  118SOL     OW 1252   0.073   1.468   1.942
  118SOL    HW1 1253   0.148   1.477   2.007
  118SOL    HW2 1254   7.011   1.435   1.989
  119SOL     OW 1255   0.163   2.395   6.525
  119SOL    HW1 1256   0.247   2.346   6.501
  119SOL    HW2 1257   0.110   2.412   6.441
  120SOL     OW 1258   6.536   6.661   1.337
  120SOL    HW1 1259   6.538   6.632   1.433
  120SOL    HW2 1260   6.575   6.588   1.280
  121SOL     OW 1261   2.574   3.975   0.143
  121SOL    HW1 1262   2.479   3.956   0.165
  121SOL    HW2 1263   2.634   3.932   0.211
  122SOL     OW 1264   1.541   3.811   5.894
  122SOL    HW1 1265   1.483   3.829   5.974
  122SOL    HW2 1266   1.491   3.755   5.828
  123SOL     OW 1267   0.238   1.983   1.169
  123SOL    HW1 1268   0.237   1.891   1.131
  123SOL    HW2 1269   0.329   2.005   1.203
  124SOL     OW 1270   5.567   3.442   0.072
  124SOL    HW1 1271   5.581   3.347   0.100
  124SOL    HW2 1272   5.655   3.487   0.061
  125SOL     OW 1273   2.367   1.766   2.797
  125SOL    HW1 1274   2.465   1.778   2.811
  125SOL    HW2 1275   2.351   1.685   2.739
  126SOL     OW 1276   2.983   4.937   1.041
  126SOL    HW1 1277   3.055   4.993   1.081
  126SOL    HW2 1278   3.009   4.841   1.045
  127SOL     OW 1279   6.967   4.493   6.099
  127SOL    HW1 1280   6.878   4.499   6.145
  127SOL    HW2 1281   0.015   4.545   6.150
  128SOL     OW 1282   4.204   2.836   1.706
  128SOL    HW1 1283   4.280   2.773   1.715
  128SOL    HW2 1284   4.238   2.929   1.692
  129SOL     OW 1285   4.186   3.474   5.907
  129SOL    HW1 1286   4.202   3.391   5.959
  129SOL    HW2 1287   4.269   3.530   5.906
  130SOL     OW 1288   0.738   0.901   4.308
  130SOL    HW1 1289   0.697   0.824   4.260
  130SOL    HW2 1290   0.836   0.905   4.288
  131SOL     OW 1291   4.983   1.279   2.585
  131SOL    HW1 1292   4.995   1.250   2.681
  131SOL    HW2 1293   4.912   1.349   2.580
  132SOL     OW 1294   1.715   3.297   0.854
  132SOL    HW1 1295   1.736   3.381   0.805
  132SOL    HW2 1296   1.800   3.253   0.884
  133SOL     OW 1297   5.744   6.725   3.439
  133SOL    HW1 1298   5.719   6.728   3.342
  133SOL    HW2 1299   5.784   6.636   3.460
  134SOL     OW 1300   5.748   2.794   2.775
  134SOL    HW1 1301   5.838   2.764   2.807
  134SOL    HW2 1302   5.709   2.859   2.840
  135SOL     OW 1303   4.960   2.169   2.974
  135SOL    HW1 1304   4.937   2.230   2.898
  135SOL    HW2 1305   4.970   2.223   3.058
  136SOL     OW 1306   4.355   4.325   6.479
  136SOL    HW1 1307   4.367   4.367   6.569
  136SOL    HW2 1308   4.317   4.392   6.415
  137SOL     OW 1309   4.053   0.128   5.580
  137SOL    HW1 1310   4.132   0.067   5.589
  137SOL    HW2 1311   3.969   0.076   5.595
  138SOL     OW 1312   0.166   4.878   4.202
  138SOL    HW1 1313   0.156   4.976   4.214
  138SOL    HW2 1314   0.253   4.858   4.158
  139SOL     OW 1315   2.246   6.096   5.434
  139SOL    HW1 1316   2.192   6.012   5.436
  139SOL    HW2 1317   2.339   6.077   5.467
  140SOL     OW 1318   6.584   5.203   4.414
  140SOL    HW1 1319   6.654   5.163   4.355
  140SOL    HW2 1320   6.513   5.134   4.432
  141SOL     OW 1321   0.322   1.864   5.400
  141SOL    HW1 1322   0.363   1.810   5.328
  141SOL    HW2 1323   0.255   1.808   5.450
  142SOL     OW 1324   2.057   6.368   1.290
  142SOL    HW1 1325   1.992   6.421   1.236
  142SOL    HW2 1326   2.111   6.430   1.347
  143SOL     OW 1327   5.418   4.355   2.162
  143SOL    HW1 1328   5.408   4.426   2.232
  143SOL    HW2 1329   5.362   4.276   2.186
  144SOL     OW 1330   1.673   6.570   6.196
  144SOL    HW1 1331   1.769   6.563   6.170
  144SOL    HW2 1332   1.650   6.494   6.258
  145SOL     OW 1333   1.355   5.371   0.787
  145SOL    HW1 1334   1.270   5.386   0.838
  145SOL    HW2 1335   1.433   5.394   0.844
  146SOL     OW 1336   4.420   6.024   6.395
  146SOL    HW1 1337   4.437   5.998   6.300
  146SOL    HW2 1338   4.341   6.086   6.399
  147SOL     OW 1339   6.312   2.541   0.626
  147SOL    HW1 1340   6.385   2.517   0.562
  147SOL    HW2 1341   6.346   2.532   0.720
  148SOL     OW 1342   0.068   4.996   5.673
  148SOL    HW1 1343   0.102   4.924   5.733
  148SOL    HW2 1344   0.119   4.995   5.587
  149SOL     OW 1345   2.809   1.108   4.083
  149SOL    HW1 1346   2.858   1.189   4.053
  149SOL    HW2 1347   2.813   1.101   4.183
  150SOL     OW 1348   6.550   5.064   6.183
  150SOL    HW1 1349   6.481   5.123   6.226
  150SOL    HW2 1350   6.562   5.091   6.088
  151SOL     OW 1351   3.662   2.449   1.377
  151SOL    HW1 1352   3.657   2.386   1.454
  151SOL    HW2 1353   3.591   2.518   1.385
  152SOL     OW 1354   1.930   1.041   4.472
  152SOL    HW1 1355   1.838   1.001   4.470
  152SOL    HW2 1356   1.954   1.065   4.566
  153SOL     OW 1357   2.567   6.975   2.080
  153SOL    HW1 1358   2.638   0.016   2.045
  153SOL    HW2 1359   2.541   7.003   2.172
  154SOL     OW 1360   6.963   2.930   2.073
  154SOL    HW1 1361   6.870   2.964   2.064
  154SOL    HW2 1362   0.007   3.007   2.070
  155SOL     OW 1363   0.133   1.288   3.737
  155SOL    HW1 1364   0.173   1.345   3.665
  155SOL    HW2 1365   0.204   1.262   3.802
  156SOL     OW 1366   6.770   1.595   1.615
  156SOL    HW1 1367   6.864   1.605   1.583
  156SOL    HW2 1368   6.756   1.501   1.647
  157SOL     OW 1369   6.334   3.315   1.965
  157SOL    HW1 1370   6.307   3.409   1.982
  157SOL    HW2 1371   6.319   3.292   1.869
  158SOL     OW 1372   2.857   0.195   2.171
  158SOL    HW1 1373   2.861   0.194   2.071
  158SOL    HW2 1374   2.921   0.129   2.209
  159SOL     OW 1375   4.849   4.647   1.219
  159SOL    HW1 1376   4.784   4.669   1.291
  159SOL    HW2 1377   4.884   4.732   1.179
  160SOL     OW 1378   6.607   4.804   6.561
  160SOL    HW1 1379   6.549   4.870   6.514
  160SOL    HW2 1380   6.588   4.805   6.659
  161SOL     OW 1381   1.754   5.129   4.725
  161SOL    HW1 1382   1.824   5.080   4.779
  161SOL    HW2 1383   1.792   5.215   4.692
  162SOL     OW 1384   3.973   6.608   0.139
  162SOL    HW1 1385   4.055   6.605   0.197
  162SOL    HW2 1386   3.934   6.516   0.132
  163SOL     OW 1387   4.494   5.981   1.553
  163SOL    HW1 1388   4.503   5.971   1.652
  163SOL    HW2 1389   4.581   5.959   1.510
  164SOL     OW 1390   6.903   3.921   1.358
  164SOL    HW1 1391   6.817   3.893   1.313
  164SOL    HW2 1392   6.970   3.847   1.351
  165SOL     OW 1393   4.955   3.048   0.902
  165SOL    HW1 1394   5.009   3.104   0.840
  165SOL    HW2 1395   5.008   3.026   0.983
  166SOL     OW 1396   0.211   5.266   3.788
  166SOL    HW1 1397   0.128   5.264   3.732
  166SOL    HW2 1398   0.264   5.183   3.772
  167SOL     OW 1399   5.730   1.988   0.264
  167SOL    HW1 1400   5.673   1.911   0.235
  167SOL    HW2 1401   5.719   2.002   0.363
  168SOL     OW 1402   2.761   3.998   0.833
  168SOL    HW1 1403   2.719   3.941   0.763
  168SOL    HW2 1404   2.841   3.952   0.871
  169SOL     OW 1405   3.318   0.112   1.832
  169SOL    HW1 1406   3.333   0.138   1.737
  169SOL    HW2 1407   3.221   0.125   1.856
  170SOL     OW 1408   1.030   1.908   4.519
  170SOL    HW1 1409   0.940   1.915   4.477
  170SOL    HW2 1410   1.096   1.873   4.453
  171SOL     OW 1411   3.402   3.874   7.012
  171SOL    HW1 1412   3.339   3.799   0.013
  171SOL    HW2 1413   3.352   3.961   7.017
  172SOL     OW 1414   6.197   1.538   4.445
  172SOL    HW1 1415   6.284   1.539   4.494
  172SOL    HW2 1416   6.127   1.582   4.501
  173SOL     OW 1417   6.697   0.447   4.374
  173SOL    HW1 1418   6.722   0.474   4.281
  173SOL    HW2 1419   6.778   0.454   4.433
  174SOL     OW 1420   3.022   5.303   3.610
  174SOL    HW1 1421   2.937   5.260   3.640
  174SOL    HW2 1422   3.004   5.398   3.583
  175SOL     OW 1423   1.966   6.755   1.967
  175SOL    HW1 1424   1.935   6.802   1.885
  175SOL    HW2 1425   2.052   6.707   1.948
  176SOL     OW 1426   2.378   4.062   0.980
  176SOL    HW1 1427   2.343   3.968   0.977
  176SOL    HW2 1428   2.475   4.061   1.004
  177SOL     OW 1429   5.830   2.668   3.385
  177SOL    HW1 1430   5.836   2.662   3.286
  177SOL    HW2 1431   5.867   2.756   3.415
  178SOL     OW 1432   4.573   3.810   5.997
  178SOL    HW1 1433   4.636   3.756   6.054
  178SOL    HW2 1434   4.487   3.823   6.046
  179SOL     OW 1435   2.970   1.394   6.463
  179SOL    HW1 1436   2.872   1.415   6.457
  179SOL    HW2 1437   3.021   1.479   6.471
  180SOL     OW 1438   1.131   1.106   6.781
  180SOL    HW1 1439   1.118   1.018   6.734
  180SOL    HW2 1440   1.045   1.136   6.820
  181SOL     OW 1441   3.317   2.035   6.872
  181SOL    HW1 1442   3.289   2.118   6.920
  181SOL    HW2 1443   3.249   1.963   6.888
  182SOL     OW 1444   4.348   2.329   4.535
  182SOL    HW1 1445   4.320   2.287   4.622
  182SOL    HW2 1446   4.444   2.355   4.540
  183SOL     OW 1447   3.663   0.422   2.331
  183SOL    HW1 1448   3.632   0.369   2.410
  183SOL    HW2 1449   3.585   0.449   2.276
  184SOL     OW 1450   1.556   5.862   3.666
  184SOL    HW1 1451   1.456   5.865   3.673
  184SOL    HW2 1452   1.595   5.941   3.713
  185SOL     OW 1453   1.418   2.820   6.721
  185SOL    HW1 1454   1.430   2.750   6.651
  185SOL    HW2 1455   1.371   2.781   6.800
  186SOL     OW 1456   6.701   0.785   3.379
  186SOL    HW1 1457   6.663   0.835   3.457
  186SOL    HW2 1458   6.781   0.733   3.408
  187SOL     OW 1459   5.026   0.824   3.573
  187SOL    HW1 1460   5.077   0.773   3.642
  187SOL    HW2 1461   4.928   0.821   3.594
  188SOL     OW 1462   6.115   2.606   3.498
  188SOL    HW1 1463   6.093   2.681   3.560
  188SOL    HW2 1464   6.031   2.565   3.463
  189SOL     OW 1465   1.706   5.727   2.758
  189SOL    HW1 1466   1.701   5.826   2.772
  189SOL    HW2 1467   1.711   5.680   2.846
  190SOL     OW 1468   3.645   1.295   4.871
  190SOL    HW1 1469   3.658   1.327   4.965
  190SOL    HW2 1470   3.548   1.276   4.855
  191SOL     OW 1471   5.778   5.010   6.126
  191SOL    HW1 1472   5.695   4.995   6.180
  191SOL    HW2 1473   5.816   5.100   6.147
  192SOL     OW 1474   0.129   6.759   1.838
  192SOL    HW1 1475   0.178   6.694   1.780
  192SOL    HW2 1476   0.090   6.831   1.781
  193SOL     OW 1477   4.874   2.828   6.348
  193SOL    HW1 1478   4.930   2.745   6.341
  193SOL    HW2 1479   4.782   2.809   6.312
  194SOL     OW 1480   3.693   0.852   2.871
  194SOL    HW1 1481   3.783   0.868   2.912
  194SOL    HW2 1482   3.699   0.776   2.807
  195SOL     OW 1483   1.609   6.066   3.872
  195SOL    HW1 1484   1.516   6.078   3.838
  195SOL    HW2 1485   1.615   6.098   3.967
  196SOL     OW 1486   2.298   2.443   6.952
  196SOL    HW1 1487   2.353   2.428   0.014
  196SOL    HW2 1488   2.236   2.520   6.966
  197SOL     OW 1489   2.196   2.042   1.152
  197SOL    HW1 1490   2.266   1.988   1.106
  197SOL    HW2 1491   2.210   2.139   1.132
  198SOL     OW 1492   4.457   0.799   3.404
  198SOL    HW1 1493   4.380   0.862   3.406
  198SOL    HW2 1494   4.537   0.843   3.444
  199SOL     OW 1495   1.536   2.686   4.145
  199SOL    HW1 1496   1.572   2.704   4.053
  199SOL    HW2 1497   1.436   2.688   4.142
  200SOL     OW 1498   0.568   2.259   1.188
  200SOL    HW1 1499   0.554   2.341   1.244
  200SOL    HW2 1500   0.661   2.261   1.149
  201SOL     OW 1501   0.075   0.971   5.680
  201SOL    HW1 1502   0.120   0.885   5.704
  201SOL    HW2 1503   0.078   0.983   5.580
  202SOL     OW 1504   4.667   1.022   6.634
  202SOL    HW1 1505   4.604   0.950   6.661
  202SOL    HW2 1506   4.631   1.070   6.554
  203SOL     OW 1507   5.836   2.436   5.261
  203SOL    HW1 1508   5.901   2.366   5.233
  203SOL    HW2 1509   5.744   2.396   5.265
  204SOL     OW 1510   0.577   0.140   5.914
  204SOL    HW1 1511   0.641   0.088   5.857
  204SOL    HW2 1512   0.492   0.155   5.864
  205SOL     OW 1513   1.169   2.336   2.896
  205SOL    HW1 1514   1.241   2.296   2.952
  205SOL    HW2 1515   1.146   2.274   2.820
  206SOL     OW 1516   0.384   2.963   1.512
  206SOL    HW1 1517   0.289   2.982   1.538
  206SOL    HW2 1518   0.405   2.867   1.531
  207SOL     OW 1519   5.026   1.492   2.852
  207SOL    HW1 1520   5.033   1.560   2.926
  207SOL    HW2 1521   5.114   1.448   2.839
  208SOL     OW 1522   6.952   3.978   5.338
  208SOL    HW1 1523   0.008   4.033   5.375
  208SOL    HW2 1524   6.867   4.005   5.383
  209SOL     OW 1525   6.469   4.622   2.299
  209SOL    HW1 1526   6.493   4.674   2.382
  209SOL    HW2 1527   6.376   4.646   2.271
  210SOL     OW 1528   4.216   2.289   0.336
  210SOL    HW1 1529   4.269   2.237   0.268
  210SOL    HW2 1530   4.271   2.365   0.370
  211SOL     OW 1531   1.598   0.433   2.763
  211SOL    HW1 1532   1.589   0.445   2.862
  211SOL    HW2 1533   1.641   0.514   2.723
  212SOL     OW 1534   1.393   3.699   2.381
  212SOL    HW1 1535   1.386   3.614   2.433
  212SOL    HW2 1536   1.479   3.700   2.331
  213SOL     OW 1537   1.702   6.311   1.006
  213SOL    HW1 1538   1.775   6.379   0.997
  213SOL    HW2 1539   1.651   6.329   1.091
  214SOL     OW 1540   4.038   5.238   2.339
  214SOL    HW1 1541   4.110   5.221   2.406
  214SOL    HW2 1542   4.078   5.273   2.254
  215SOL     OW 1543   2.679   4.582   1.312
  215SOL    HW1 1544   2.609   4.637   1.358
  215SOL    HW2 1545   2.755   4.641   1.285
  216SOL     OW 1546   1.225   0.380   2.879
  216SOL    HW1 1547   1.227   0.339   2.788
  216SOL    HW2 1548   1.312   0.425   2.898
  217SOL     OW 1549   1.117   2.746   5.637
  217SOL    HW1 1550   1.118   2.718   5.541
  217SOL    HW2 1551   1.136   2.666   5.695
  218SOL     OW 1552   0.884   1.819   5.300
  218SOL    HW1 1553   0.892   1.837   5.202
  218SOL    HW2 1554   0.788   1.831   5.328
  219SOL     OW 1555   3.995   0.799   0.141
  219SOL    HW1 1556   4.029   0.752   0.222
  219SOL    HW2 1557   3.978   0.895   0.162
  220SOL     OW 1558   3.012   0.615   0.779
  220SOL    HW1 1559   3.050   0.533   0.736
  220SOL    HW2 1560   3.074   0.693   0.764
  221SOL     OW 1561   5.927   4.797   1.135
  221SOL    HW1 1562   5.955   4.737   1.060
  221SOL    HW2 1563   5.868   4.869   1.100
  222SOL     OW 1564   1.431   4.564   6.569
  222SOL    HW1 1565   1.403   4.582   6.475
  222SOL    HW2 1566   1.454   4.467   6.579
  223SOL     OW 1567   0.184   2.821   5.349
  223SOL    HW1 1568   0.152   2.791   5.259
  223SOL    HW2 1569   0.145   2.911   5.370
  224SOL     OW 1570   3.567   2.044   5.839
  224SOL    HW1 1571   3.508   1.965   5.853
  224SOL    HW2 1572   3.523   2.126   5.876
  225SOL     OW 1573   4.447   3.618   5.842
  225SOL    HW1 1574   4.500   3.690   5.887
  225SOL    HW2 1575   4.473   3.615   5.745
  226SOL     OW 1576   1.082   1.488   6.408
  226SOL    HW1 1577   1.045   1.580   6.406
  226SOL    HW2 1578   1.057   1.443   6.494
  227SOL     OW 1579   2.205   4.057   2.778
  227SOL    HW1 1580   2.178   4.090   2.688
  227SOL    HW2 1581   2.182   3.960   2.786
  228SOL     OW 1582   2.160   0.892   3.308
  228SOL    HW1 1583   2.170   0.795   3.329
  228SOL    HW2 1584   2.107   0.903   3.224
  229SOL     OW 1585   5.002   4.869   6.599
  229SOL    HW1 1586   4.902   4.860   6.606
  229SOL    HW2 1587   5.035   4.926   6.675
  230SOL     OW 1588   4.613   6.127   4.550
  230SOL    HW1 1589   4.663   6.210   4.524
  230SOL    HW2 1590   4.663   6.080   4.622
  231SOL     OW 1591   5.546   1.391   0.258
  231SOL    HW1 1592   5.519   1.423   0.168
  231SOL    HW2 1593   5.483   1.319   0.289
  232SOL     OW 1594   0.113   2.827   6.539
  232SOL    HW1 1595   0.033   2.780   6.500
  232SOL    HW2 1596   0.083   2.909   6.588
  233SOL     OW 1597   3.152   2.171   3.489
  233SOL    HW1 1598   3.107   2.191   3.575
  233SOL    HW2 1599   3.102   2.100   3.440
  234SOL     OW 1600   5.626   1.033   6.084
  234SOL    HW1 1601   5.599   1.120   6.042
  234SOL    HW2 1602   5.616   1.040   6.183
  235SOL     OW 1603   5.047   2.963   2.746
  235SOL    HW1 1604   4.986   2.907   2.802
  235SOL    HW2 1605   5.021   3.059   2.754
  236SOL     OW 1606   4.765   3.572   6.825
  236SOL    HW1 1607   4.801   3.656   6.787
  236SOL    HW2 1608   4.770   3.499   6.757
  237SOL     OW 1609   0.012   4.447   2.328
  237SOL    HW1 1610   6.990   4.538   2.319
  237SOL    HW2 1611   0.007   4.417   2.423
  238SOL     OW 1612   6.585   0.833   0.639
  238SOL    HW1 1613   6.527   0.760   0.676
  238SOL    HW2 1614   6.545   0.922   0.662
  239SOL     OW 1615   0.801   4.013   0.437
  239SOL    HW1 1616   0.816   4.108   0.407
  239SOL    HW2 1617   0.709   3.985   0.412
  240SOL     OW 1618   0.164   3.216   3.328
  240SOL    HW1 1619   0.132   3.122   3.341
  240SOL    HW2 1620   0.122   3.276   3.397
  241SOL     OW 1621   2.768   2.234   4.353
  241SOL    HW1 1622   2.699   2.174   4.315
  241SOL    HW2 1623   2.724   2.302   4.413
  242SOL     OW 1624   3.582   3.748   3.517
  242SOL    HW1 1625   3.567   3.793   3.429
  242SOL    HW2 1626   3.678   3.758   3.544
  243SOL     OW 1627   4.448   1.795   6.726
  243SOL    HW1 1628   4.388   1.814   6.803
  243SOL    HW2 1629   4.513   1.724   6.751
  244SOL     OW 1630   6.026   3.432   6.362
  244SOL    HW1 1631   5.967   3.352   6.372
  244SOL    HW2 1632   6.075   3.449   6.447
  245SOL     OW 1633   3.661   1.845   3.991
  245SOL    HW1 1634   3.641   1.936   3.955
  245SOL    HW2 1635   3.685   1.784   3.915
  246SOL     OW 1636   4.987   1.729   3.348
  246SOL    HW1 1637   5.031   1.649   3.388
  246SOL    HW2 1638   4.993   1.806   3.411
  247SOL     OW 1639   2.868   1.938   0.841
  247SOL    HW1 1640   2.772   1.968   0.835
  247SOL    HW2 1641   2.891   1.886   0.759
  248SOL     OW 1642   2.523   1.111   2.691
  248SOL    HW1 1643   2.489   1.041   2.628
  248SOL    HW2 1644   2.615   1.085   2.723
  249SOL     OW 1645   4.979   6.590   5.152
  249SOL    HW1 1646   5.069   6.623   5.122
  249SOL    HW2 1647   4.933   6.662   5.204
  250SOL     OW 1648   4.028   3.427   0.933
  250SOL    HW1 1649   4.128   3.427   0.925
  250SOL    HW2 1650   4.001   3.470   1.019
  251SOL     OW 1651   4.818   3.396   5.306
  251SOL    HW1 1652   4.774   3.328   5.365
  251SOL    HW2 1653   4.748   3.447   5.256
  252SOL     OW 1654   6.356   0.060   5.486
  252SOL    HW1 1655   6.400   0.117   5.555
  252SOL    HW2 1656   6.307   0.119   5.421
  253SOL     OW 1657   3.746   4.745   5.886
  253SOL    HW1 1658   3.839   4.741   5.849
  253SOL    HW2 1659   3.681   4.717   5.816
  254SOL     OW 1660   6.738   2.318   3.453
  254SOL    HW1 1661   6.658   2.331   3.512
  254SOL    HW2 1662   6.708   2.289   3.362
  255SOL     OW 1663   1.537   4.938   5.843
  255SOL    HW1 1664   1.449   4.911   5.805
  255SOL    HW2 1665   1.578   4.861   5.892
  256SOL     OW 1666   5.802   3.059   6.030
  256SOL    HW1 1667   5.849   3.138   5.992
  256SOL    HW2 1668   5.703   3.073   6.026
  257SOL     OW 1669   5.593   6.785   3.160
  257SOL    HW1 1670   5.507   6.752   3.122
  257SOL    HW2 1671   5.576   6.864   3.219
  258SOL     OW 1672   2.144   4.299   5.545
  258SOL    HW1 1673   2.133   4.219   5.604
  258SOL    HW2 1674   2.182   4.270   5.457
  259SOL     OW 1675   5.233   0.813   1.936
  259SOL    HW1 1676   5.322   0.830   1.979
  259SOL    HW2 1677   5.183   0.744   1.988
  260SOL     OW 1678   3.720   5.109   3.193
  260SOL    HW1 1679   3.718   5.205   3.164
  260SOL    HW2 1680   3.653   5.094   3.265
  261SOL     OW 1681   5.647   4.687   1.353
  261SOL    HW1 1682   5.612   4.619   1.419
  261SOL    HW2 1683   5.736   4.720   1.385
  262SOL     OW 1684   1.824   4.063   0.891
  262SOL    HW1 1685   1.911   4.060   0.941
  262SOL    HW2 1686   1.780   4.151   0.908
  263SOL     OW 1687   1.261   0.318   4.279
  263SOL    HW1 1688   1.203   0.239   4.259
  263SOL    HW2 1689   1.280   0.321   4.377
  264SOL     OW 1690   6.369   2.836   0.617
  264SOL    HW1 1691   6.369   2.766   0.545
  264SOL    HW2 1692   6.336   2.796   0.702
  265SOL     OW 1693   6.042   6.617   3.054
  265SOL    HW1 1694   5.947   6.596   3.076
  265SOL    HW2 1695   6.072   6.698   3.104
  266SOL     OW 1696   4.686   3.169   5.885
  266SOL    HW1 1697   4.725   3.110   5.955
  266SOL    HW2 1698   4.681   3.120   5.798
  267SOL     OW 1699   1.187   1.040   5.511
  267SOL    HW1 1700   1.107   1.098   5.525
  267SOL    HW2 1701   1.237   1.030   5.598
  268SOL     OW 1702   3.101   1.183   5.930
  268SOL    HW1 1703   3.200   1.198   5.932
  268SOL    HW2 1704   3.060   1.237   5.857
  269SOL     OW 1705   3.279   2.809   0.323
  269SOL    HW1 1706   3.184   2.779   0.327
  269SOL    HW2 1707   3.316   2.788   0.232
  270SOL     OW 1708   0.726   6.503   0.363
  270SOL    HW1 1709   0.712   6.421   0.420
  270SOL    HW2 1710   0.823   6.525   0.360
  271SOL     OW 1711   0.142   1.719   6.489
  271SOL    HW1 1712   0.142   1.647   6.420
  271SOL    HW2 1713   0.235   1.732   6.524
  272SOL     OW 1714   3.581   6.352   3.717
  272SOL    HW1 1715   3.565   6.451   3.710
  272SOL    HW2 1716   3.515   6.313   3.781
  273SOL     OW 1717   1.691   4.907   5.165
  273SOL    HW1 1718   1.716   4.998   5.134
  273SOL    HW2 1719   1.591   4.897   5.166
  274SOL     OW 1720   3.703   0.915   3.632
  274SOL    HW1 1721   3.793   0.874   3.645
  274SOL    HW2 1722   3.682   0.920   3.535
  275SOL     OW 1723   6.832   6.325   2.704
  275SOL    HW1 1724   6.803   6.375   2.786
  275SOL    HW2 1725   6.755   6.274   2.666
  276SOL     OW 1726   0.652   6.657   3.718
  276SOL    HW1 1727   0.706   6.739   3.735
  276SOL    HW2 1728   0.639   6.645   3.620
  277SOL     OW 1729   1.674   3.636   0.073
  277SOL    HW1 1730   1.767   3.666   0.097
  277SOL    HW2 1731   1.651   3.554   0.126
  278SOL     OW 1732   0.428   3.416   2.500
  278SOL    HW1 1733   0.333   3.391   2.480
  278SOL    HW2 1734   0.489   3.341   2.474
  279SOL     OW 1735   5.145   2.933   4.404
  279SOL    HW1 1736   5.185   2.920   4.495
  279SOL    HW2 1737   5.049   2.960   4.413
  280SOL     OW 1738   2.491   5.408   1.296
  280SOL    HW1 1739   2.440   5.336   1.344
  280SOL    HW2 1740   2.539   5.369   1.218
  281SOL     OW 1741   2.173   4.564   1.718
  281SOL    HW1 1742   2.097   4.628   1.729
  281SOL    HW2 1743   2.227   4.561   1.802
  282SOL     OW 1744   3.056   1.270   4.957
  282SOL    HW1 1745   3.013   1.217   4.885
  282SOL    HW2 1746   3.123   1.213   5.005
  283SOL     OW 1747   5.810   2.675   6.629
  283SOL    HW1 1748   5.810   2.774   6.615
  283SOL    HW2 1749   5.740   2.651   6.697
  284SOL     OW 1750   0.929   3.673   3.779
  284SOL    HW1 1751   0.905   3.713   3.868
  284SOL    HW2 1752   0.852   3.621   3.743
  285SOL     OW 1753   5.620   4.877   3.874
  285SOL    HW1 1754   5.568   4.942   3.819
  285SOL    HW2 1755   5.715   4.876   3.844
  286SOL     OW 1756   3.236   4.125   6.743
  286SOL    HW1 1757   3.242   4.133   6.842
  286SOL    HW2 1758   3.284   4.042   6.713
  287SOL     OW 1759   1.600   3.511   1.500
  287SOL    HW1 1760   1.683   3.526   1.446
  287SOL    HW2 1761   1.599   3.574   1.578
  288SOL     OW 1762   3.709   1.487   6.329
  288SOL    HW1 1763   3.765   1.412   6.364
  288SOL    HW2 1764   3.690   1.552   6.402
  289SOL     OW 1765   1.662   4.532   5.508
  289SOL    HW1 1766   1.762   4.523   5.507
  289SOL    HW2 1767   1.620   4.445   5.483
  290SOL     OW 1768   6.965   1.817   5.216
  290SOL    HW1 1769   6.933   1.724   5.233
  290SOL    HW2 1770   0.043   1.815   5.194
  291SOL     OW 1771   1.050   1.283   3.966
  291SOL    HW1 1772   1.069   1.277   4.064
  291SOL    HW2 1773   0.963   1.329   3.952
  292SOL     OW 1774   2.161   0.662   3.495
  292SOL    HW1 1775   2.074   0.675   3.543
  292SOL    HW2 1776   2.227   0.622   3.559
  293SOL     OW 1777   4.972   5.968   4.011
  293SOL    HW1 1778   4.952   5.888   3.955
  293SOL    HW2 1779   4.927   5.959   4.099
  294SOL     OW 1780   5.077   6.072   6.607
  294SOL    HW1 1781   5.083   5.973   6.608
  294SOL    HW2 1782   5.086   6.106   6.514
  295SOL     OW 1783   4.863   0.531   3.077
  295SOL    HW1 1784   4.827   0.603   3.137
  295SOL    HW2 1785   4.840   0.441   3.115
  296SOL     OW 1786   3.575   1.407   3.011
  296SOL    HW1 1787   3.516   1.366   2.942
  296SOL    HW2 1788   3.523   1.420   3.096
  297SOL     OW 1789   1.900   4.039   3.077
  297SOL    HW1 1790   1.815   4.075   3.039
  297SOL    HW2 1791   1.901   4.053   3.176
  298SOL     OW 1792   6.054   5.652   0.867
  298SOL    HW1 1793   6.003   5.723   0.819
  298SOL    HW2 1794   6.138   5.630   0.817
  299SOL     OW 1795   6.388   2.304   4.701
  299SOL    HW1 1796   6.348   2.304   4.609
  299SOL    HW2 1797   6.488   2.305   4.694
  300SOL     OW 1798   6.243   0.610   2.940
  300SOL    HW1 1799   6.322   0.611   2.880
  300SOL    HW2 1800   6.241   0.695   2.993
  301SOL     OW 1801   5.779   3.559   6.733
  301SOL    HW1 1802   5.688   3.598   6.720
  301SOL    HW2 1803   5.845   3.633   6.747
  302SOL     OW 1804   0.874   0.324   3.670
  302SOL    HW1 1805   0.788   0.369   3.689
  302SOL    HW2 1806   0.889   0.250   3.736
  303SOL     OW 1807   5.120   0.920   2.904
  303SOL    HW1 1808   5.219   0.907   2.899
  303SOL    HW2 1809   5.074   0.831   2.909
  304SOL     OW 1810   2.344   0.105   3.398
  304SOL    HW1 1811   2.294   0.181   3.439
  304SOL    HW2 1812   2.442   0.124   3.401
  305SOL     OW 1813   0.863   4.002   6.783
  305SOL    HW1 1814   0.832   3.907   6.796
  305SOL    HW2 1815   0.855   4.052   6.870
  306SOL     OW 1816   2.576   0.713   3.811
  306SOL    HW1 1817   2.560   0.810   3.795
  306SOL    HW2 1818   2.612   0.699   3.904
  307SOL     OW 1819   4.296   0.158   0.888
  307SOL    HW1 1820   4.342   0.212   0.819
  307SOL    HW2 1821   4.270   0.216   0.965
  308SOL     OW 1822   1.272   6.328   3.241
  308SOL    HW1 1823   1.173   6.320   3.232
  308SOL    HW2 1824   1.316   6.258   3.184
  309SOL     OW 1825   3.491   4.509   5.367
  309SOL    HW1 1826   3.434   4.585   5.334
  309SOL    HW2 1827   3.447   4.423   5.344
  310SOL     OW 1828   0.282   6.328   5.629
  310SOL    HW1 1829   0.277   6.416   5.676
  310SOL    HW2 1830   0.289   6.254   5.697
  311SOL     OW 1831   0.040   5.867   1.638
  311SOL    HW1 1832   0.054   5.783   1.587
  311SOL    HW2 1833   6.973   5.909   1.612
  312SOL     OW 1834   5.173   1.366   5.014
  312SOL    HW1 1835   5.222   1.383   5.099
  312SOL    HW2 1836   5.206   1.281   4.972
  313SOL     OW 1837   2.088   4.433   2.066
  313SOL    HW1 1838   2.062   4.376   2.144
  313SOL    HW2 1839   2.006   4.470   2.023
  314SOL     OW 1840   3.406   5.500   0.418
  314SOL    HW1 1841   3.449   5.543   0.339
  314SOL    HW2 1842   3.314   5.537   0.431
  315SOL     OW 1843   0.482   2.558   3.402
  315SOL    HW1 1844   0.483   2.612   3.317
  315SOL    HW2 1845   0.551   2.593   3.465
  316SOL     OW 1846   2.294   2.720   3.874
  316SOL    HW1 1847   2.316   2.626   3.850
  316SOL    HW2 1848   2.287   2.729   3.973
  317SOL     OW 1849   6.894   1.563   0.275
  317SOL    HW1 1850   6.938   1.652   0.262
  317SOL    HW2 1851   6.819   1.553   0.210
  318SOL     OW 1852   1.509   4.500   0.680
  318SOL    HW1 1853   1.484   4.528   0.773
  318SOL    HW2 1854   1.446   4.542   0.615
  319SOL     OW 1855   1.275   0.296   1.096
  319SOL    HW1 1856   1.358   0.295   1.152
  319SOL    HW2 1857   1.295   0.257   1.006
  320SOL     OW 1858   6.443   3.039   1.044
  320SOL    HW1 1859   6.527   3.068   0.998
  320SOL    HW2 1860   6.460   2.954   1.095
  321SOL     OW 1861   1.709   2.388   2.085
  321SOL    HW1 1862   1.798   2.350   2.110
  321SOL    HW2 1863   1.682   2.457   2.152
  322SOL     OW 1864   3.702   2.835   5.090
  322SOL    HW1 1865   3.772   2.848   5.021
  322SOL    HW2 1866   3.615   2.814   5.046
  323SOL     OW 1867   7.012   4.326   0.799
  323SOL    HW1 1868   0.019   4.231   0.780
  323SOL    HW2 1869   6.916   4.338   0.774
  324SOL     OW 1870   0.859   3.248   4.525
  324SOL    HW1 1871   0.802   3.191   4.585
  324SOL    HW2 1872   0.859   3.210   4.433
  325SOL     OW 1873   1.983   2.948   1.904
  325SOL    HW1 1874   1.996   2.869   1.845
  325SOL    HW2 1875   1.890   2.950   1.939
  326SOL     OW 1876   1.786   6.542   6.633
  326SOL    HW1 1877   1.772   6.467   6.698
  326SOL    HW2 1878   1.864   6.522   6.574
  327SOL     OW 1879   6.330   4.777   5.096
  327SOL    HW1 1880   6.342   4.729   5.009
  327SOL    HW2 1881   6.284   4.865   5.079
  328SOL     OW 1882   4.533   4.830   1.850
  328SOL    HW1 1883   4.513   4.846   1.753
  328SOL    HW2 1884   4.499   4.740   1.877
  329SOL     OW 1885   3.451   3.667   3.242
  329SOL    HW1 1886   3.468   3.606   3.320
  329SOL    HW2 1887   3.444   3.613   3.159
  330SOL     OW 1888   3.466   6.920   1.344
  330SOL    HW1 1889   3.457   6.839   1.286
  330SOL    HW2 1890   3.399   6.916   1.417
  331SOL     OW 1891   4.694   5.043   5.882
  331SOL    HW1 1892   4.649   5.113   5.825
  331SOL    HW2 1893   4.729   4.970   5.823
  332SOL     OW 1894   2.998   1.658   3.837
  332SOL    HW1 1895   3.017   1.721   3.912
  332SOL    HW2 1896   3.035   1.696   3.752
  333SOL     OW 1897   3.943   6.428   5.825
  333SOL    HW1 1898   4.039   6.452   5.810
  333SOL    HW2 1899   3.895   6.427   5.737
  334SOL     OW 1900   3.694   0.155   2.059
  334SOL    HW1 1901   3.595   0.166   2.071
  334SOL    HW2 1902   3.714   0.058   2.046
  335SOL     OW 1903   3.389   5.540   3.576
  335SOL    HW1 1904   3.315   5.583   3.523
  335SOL    HW2 1905   3.477   5.572   3.542
  336SOL     OW 1906   3.405   1.091   3.588
  336SOL    HW1 1907   3.329   1.067   3.527
  336SOL    HW2 1908   3.440   1.008   3.631
  337SOL     OW 1909   0.295   3.729   1.733
  337SOL    HW1 1910   0.239   3.648   1.712
  337SOL    HW2 1911   0.326   3.724   1.828
  338SOL     OW 1912   2.510   2.898   1.721
  338SOL    HW1 1913   2.423   2.920   1.677
  338SOL    HW2 1914   2.561   2.982   1.740
  339SOL     OW 1915   4.144   6.773   2.993
  339SOL    HW1 1916   4.131   6.867   2.960
  339SOL    HW2 1917   4.086   6.758   3.073
  340SOL     OW 1918   4.856   3.859   4.614
  340SOL    HW1 1919   4.884   3.871   4.709
  340SOL    HW2 1920   4.824   3.946   4.578
  341SOL     OW 1921   5.772   5.545   4.046
  341SOL    HW1 1922   5.846   5.494   4.002
  341SOL    HW2 1923   5.804   5.638   4.067
  342SOL     OW 1924   5.843   5.232   0.507
  342SOL    HW1 1925   5.762   5.197   0.553
  342SOL    HW2 1926   5.829   5.328   0.484
  343SOL     OW 1927   3.707   6.689   1.893
  343SOL    HW1 1928   3.750   6.733   1.815
  343SOL    HW2 1929   3.752   6.601   1.911
  344SOL     OW 1930   2.030   5.275   0.548
  344SOL    HW1 1931   1.961   5.336   0.588
  344SOL    HW2 1932   2.114   5.281   0.601
  345SOL     OW 1933   1.023   0.503   5.494
  345SOL    HW1 1934   1.018   0.600   5.471
  345SOL    HW2 1935   1.015   0.448   5.411
  346SOL     OW 1936   1.627   0.161   3.352
  346SOL    HW1 1937   1.607   0.117   3.265
  346SOL    HW2 1938   1.666   0.094   3.415
  347SOL     OW 1939   5.450   6.948   6.699
  347SOL    HW1 1940   5.542   6.924   6.729
  347SOL    HW2 1941   5.441   6.929   6.601
  348SOL     OW 1942   3.786   5.248   1.180
  348SOL    HW1 1943   3.864   5.224   1.124
  348SOL    HW2 1944   3.718   5.296   1.125
  349SOL     OW 1945   0.337   4.907   2.290
  349SOL    HW1 1946   0.277   4.980   2.322
  349SOL    HW2 1947   0.294   4.862   2.212
  350SOL     OW 1948   3.744   3.528   1.519
  350SOL    HW1 1949   3.738   3.442   1.570
  350SOL    HW2 1950   3.656   3.575   1.523
  351SOL     OW 1951   2.850   1.510   0.221
  351SOL    HW1 1952   2.823   1.606   0.216
  351SOL    HW2 1953   2.795   1.464   0.290
  352SOL     OW 1954   3.330   0.320   5.844
  352SOL    HW1 1955   3.324   0.419   5.856
  352SOL    HW2 1956   3.388   0.281   5.916
  353SOL     OW 1957   1.575   5.762   1.165
  353SOL    HW1 1958   1.585   5.853   1.127
  353SOL    HW2 1959   1.647   5.745   1.232
  354SOL     OW 1960   4.238   1.581   6.890
  354SOL    HW1 1961   4.217   1.589   6.793
  354SOL    HW2 1962   4.286   1.495   6.907
  355SOL     OW 1963   6.979   3.193   2.435
  355SOL    HW1 1964   6.926   3.270   2.401
  355SOL    HW2 1965   6.927   3.108   2.423
  356SOL     OW 1966   4.125   5.000   3.886
  356SOL    HW1 1967   4.157   4.908   3.862
  356SOL    HW2 1968   4.192   5.044   3.945
  357SOL     OW 1969   0.484   5.644   5.206
  357SOL    HW1 1970   0.560   5.694   5.249
  357SOL    HW2 1971   0.427   5.603   5.277
  358SOL     OW 1972   5.621   0.353   1.708
  358SOL    HW1 1973   5.569   0.382   1.628
  358SOL    HW2 1974   5.719   0.357   1.688
  359SOL     OW 1975   1.549   2.165   2.480
  359SOL    HW1 1976   1.492   2.242   2.453
  359SOL    HW2 1977   1.570   2.171   2.578
  360SOL     OW 1978   4.590   0.055   6.913
  360SOL    HW1 1979   4.572   6.980   6.890
  360SOL    HW2 1980   4.543   0.115   6.848
  361SOL     OW 1981   5.207   6.163   2.803
  361SOL    HW1 1982   5.250   6.091   2.749
  361SOL    HW2 1983   5.132   6.204   2.751
  362SOL     OW 1984   3.185   3.896   0.867
  362SOL    HW1 1985   3.086   3.900   0.851
  362SOL    HW2 1986   3.226   3.982   0.837
  363SOL     OW 1987   4.453   5.366   4.093
  363SOL    HW1 1988   4.472   5.312   4.175
  363SOL    HW2 1989   4.427   5.459   4.119
  364SOL     OW 1990   1.536   5.358   6.149
  364SOL    HW1 1991   1.532   5.287   6.079
  364SOL    HW2 1992   1.546   5.315   6.239
  365SOL     OW 1993   5.386   6.112   2.068
  365SOL    HW1 1994   5.307   6.171   2.085
  365SOL    HW2 1995   5.380   6.074   1.976
  366SOL     OW 1996   5.731   0.904   6.919
  366SOL    HW1 1997   5.701   0.833   6.855
  366SOL    HW2 1998   5.695   0.883   7.010
  367SOL     OW 1999   5.455   3.276   1.288
  367SOL    HW1 2000   5.486   3.348   1.351
  367SOL    HW2 2001   5.533   3.241   1.237
  368SOL     OW 2002   1.305   4.496   5.381
  368SOL    HW1 2003   1.318   4.514   5.284
  368SOL    HW2 2004   1.371   4.427   5.411
  369SOL     OW 2005   0.498   4.319   1.768
  369SOL    HW1 2006   0.459   4.391   1.711
  369SOL    HW2 2007   0.456   4.321   1.859
  370SOL     OW 2008   2.914   1.383   5.426
  370SOL    HW1 2009   2.886   1.461   5.370
  370SOL    HW2 2010   2.883   1.298   5.383
  371SOL     OW 2011   2.922   3.443   0.011
  371SOL    HW1 2012   2.955   3.400   6.946
  371SOL    HW2 2013   2.973   3.407   0.089
  372SOL     OW 2014   0.007   6.560   5.909
  372SOL    HW1 2015   0.085   6.613   5.875
  372SOL    HW2 2016   6.987   6.508   5.834
  373SOL     OW 2017   0.509   6.112   0.679
  373SOL    HW1 2018   0.508   6.098   0.778
  373SOL    HW2 2019   0.420   6.144   0.649
  374SOL     OW 2020   3.322   0.548   1.730
  374SOL    HW1 2021   3.289   0.460   1.694
  374SOL    HW2 2022   3.245   0.599   1.768
  375SOL     OW 2023   6.643   5.024   3.474
  375SOL    HW1 2024   6.555   5.053   3.512
  375SOL    HW2 2025   6.688   4.963   3.539
  376SOL     OW 2026   2.055   2.873   4.095
  376SOL    HW1 2027   2.016   2.801   4.039
  376SOL    HW2 2028   2.065   2.841   4.189
  377SOL     OW 2029   5.004   2.244   3.263
  377SOL    HW1 2030   4.947   2.176   3.309
  377SOL    HW2 2031   4.999   2.331   3.313
  378SOL     OW 2032   4.641   3.157   5.346
  378SOL    HW1 2033   4.581   3.225   5.387
  378SOL    HW2 2034   4.590   3.073   5.329
  379SOL     OW 2035   5.714   3.785   1.156
  379SOL    HW1 2036   5.751   3.701   1.118
  379SOL    HW2 2037   5.627   3.806   1.111
  380SOL     OW 2038   1.701   1.902   1.174
  380SOL    HW1 2039   1.624   1.966   1.177
  380SOL    HW2 2040   1.729   1.880   1.267
  381SOL     OW 2041   3.350   4.380   1.157
  381SOL    HW1 2042   3.254   4.397   1.137
  381SOL    HW2 2043   3.407   4.432   1.093
  382SOL     OW 2044   3.468   5.937   0.595
  382SOL    HW1 2045   3.510   5.887   0.519
  382SOL    HW2 2046   3.474   5.882   0.678
  383SOL     OW 2047   6.573   2.585   0.483
  383SOL    HW1 2048   6.640   2.626   0.545
  383SOL    HW2 2049   6.543   2.654   0.416
  384SOL     OW 2050   0.820   5.451   4.969
  384SOL    HW1 2051   0.875   5.369   4.960
  384SOL    HW2 2052   0.759   5.460   4.890
  385SOL     OW 2053   4.350   6.371   0.348
  385SOL    HW1 2054   4.287   6.319   0.290
  385SOL    HW2 2055   4.333   6.348   0.444
  386SOL     OW 2056   3.709   6.278   5.370
  386SOL    HW1 2057   3.645   6.209   5.336
  386SOL    HW2 2058   3.707   6.358   5.310
  387SOL     OW 2059   0.321   0.811   5.235
  387SOL    HW1 2060   0.313   0.910   5.249
  387SOL    HW2 2061   0.402   0.777   5.283
  388SOL     OW 2062   0.244   2.504   5.260
  388SOL    HW1 2063   0.146   2.494   5.280
  388SOL    HW2 2064   0.298   2.467   5.335
  389SOL     OW 2065   4.154   4.590   1.245
  389SOL    HW1 2066   4.188   4.619   1.335
  389SOL    HW2 2067   4.055   4.604   1.240
  390SOL     OW 2068   3.552   1.992   0.510
  390SOL    HW1 2069   3.633   2.030   0.555
  390SOL    HW2 2070   3.540   1.896   0.539
  391SOL     OW 2071   2.973   4.089   6.363
  391SOL    HW1 2072   2.956   4.108   6.460
  391SOL    HW2 2073   2.938   4.165   6.308
  392SOL     OW 2074   1.241   3.597   1.975
  392SOL    HW1 2075   1.267   3.580   1.880
  392SOL    HW2 2076   1.305   3.550   2.036
  393SOL     OW 2077   0.974   4.581   1.020
  393SOL    HW1 2078   0.968   4.553   1.116
  393SOL    HW2 2079   1.017   4.509   0.967
  394SOL     OW 2080   6.606   1.189   6.277
  394SOL    HW1 2081   6.583   1.242   6.358
  394SOL    HW2 2082   6.703   1.199   6.256
  395SOL     OW 2083   5.490   4.640   1.134
  395SOL    HW1 2084   5.527   4.687   1.214
  395SOL    HW2 2085   5.467   4.708   1.064
  396SOL     OW 2086   2.850   1.278   2.629
  396SOL    HW1 2087   2.779   1.346   2.642
  396SOL    HW2 2088   2.861   1.224   2.712
  397SOL     OW 2089   4.441   1.668   5.197
  397SOL    HW1 2090   4.422   1.749   5.142
  397SOL    HW2 2091   4.356   1.632   5.234
  398SOL     OW 2092   2.529   1.277   4.475
  398SOL    HW1 2093   2.546   1.366   4.518
  398SOL    HW2 2094   2.592   1.209   4.512
  399SOL     OW 2095   5.769   6.359   3.778
  399SOL    HW1 2096   5.688   6.367   3.836
  399SOL    HW2 2097   5.742   6.342   3.684
  400SOL     OW 2098   6.741   0.618   4.739
  400SOL    HW1 2099   6.720   0.552   4.667
  400SOL    HW2 2100   6.718   0.579   4.828
  401SOL     OW 2101   6.809   5.550   5.864
  401SOL    HW1 2102   6.780   5.486   5.935
  401SOL    HW2 2103   6.837   5.636   5.906
  402SOL     OW 2104   6.821   0.297   2.341
  402SOL    HW1 2105   6.774   0.210   2.355
  402SOL    HW2 2106   6.755   0.366   2.311
  403SOL     OW 2107   2.832   1.100   5.775
  403SOL    HW1 2108   2.736   1.127   5.765
  403SOL    HW2 2109   2.891   1.175   5.747
  404SOL     OW 2110   4.124   4.766   4.278
  404SOL    HW1 2111   4.186   4.714   4.220
  404SOL    HW2 2112   4.144   4.747   4.374
  405SOL     OW 2113   2.759   4.688   3.847
  405SOL    HW1 2114   2.727   4.724   3.759
  405SOL    HW2 2115   2.711   4.603   3.867
  406SOL     OW 2116   0.574   5.811   6.050
  406SOL    HW1 2117   0.560   5.737   5.985
  406SOL    HW2 2118   0.672   5.822   6.068
  407SOL     OW 2119   2.124   3.243   4.658
  407SOL    HW1 2120   2.130   3.343   4.662
  407SOL    HW2 2121   2.113   3.206   4.750
  408SOL     OW 2122   3.045   1.127   3.704
  408SOL    HW1 2123   2.950   1.100   3.713
  408SOL    HW2 2124   3.051   1.227   3.699
  409SOL     OW 2125   0.939   3.693   2.544
  409SOL    HW1 2126   0.926   3.747   2.627
  409SOL    HW2 2127   0.935   3.754   2.464
  410SOL     OW 2128   1.864   2.170   1.512
  410SOL    HW1 2129   1.787   2.161   1.575
  410SOL    HW2 2130   1.871   2.086   1.458
  411SOL     OW 2131   0.830   2.288   1.141
  411SOL    HW1 2132   0.897   2.311   1.070
  411SOL    HW2 2133   0.844   2.346   1.221
  412SOL     OW 2134   1.796   4.929   1.625
  412SOL    HW1 2135   1.796   5.018   1.580
  412SOL    HW2 2136   1.778   4.857   1.557
  413SOL     OW 2137   5.118   5.278   2.899
  413SOL    HW1 2138   5.212   5.309   2.913
  413SOL    HW2 2139   5.116   5.206   2.830
  414SOL     OW 2140   2.432   6.452   3.745
  414SOL    HW1 2141   2.404   6.423   3.653
  414SOL    HW2 2142   2.483   6.377   3.789
  415SOL     OW 2143   6.727   0.631   0.354
  415SOL    HW1 2144   6.678   0.591   0.431
  415SOL    HW2 2145   6.825   0.632   0.373
  416SOL     OW 2146   4.952   3.289   4.742
  416SOL    HW1 2147   5.008   3.325   4.667
  416SOL    HW2 2148   4.857   3.284   4.713
  417SOL     OW 2149   3.519   2.135   6.189
  417SOL    HW1 2150   3.497   2.195   6.111
  417SOL    HW2 2151   3.600   2.170   6.236
  418SOL     OW 2152   3.816   5.640   4.819
  418SOL    HW1 2153   3.911   5.613   4.831
  418SOL    HW2 2154   3.785   5.613   4.728
  419SOL     OW 2155   1.258   7.018   1.474
  419SOL    HW1 2156   1.305   6.940   1.516
  419SOL    HW2 2157   1.174   6.985   1.429
  420SOL     OW 2158   5.191   1.381   5.899
  420SOL    HW1 2159   5.284   1.396   5.866
  420SOL    HW2 2160   5.147   1.310   5.844
  421SOL     OW 2161   5.174   3.296   2.358
  421SOL    HW1 2162   5.153   3.354   2.279
  421SOL    HW2 2163   5.273   3.291   2.370
  422SOL     OW 2164   4.935   3.428   1.563
  422SOL    HW1 2165   4.860   3.368   1.592
  422SOL    HW2 2166   4.901   3.495   1.497
  423SOL     OW 2167   3.524   1.345   6.165
  423SOL    HW1 2168   3.583   1.399   6.226
  423SOL    HW2 2169   3.538   1.248   6.183
  424SOL     OW 2170   1.045   3.743   3.092
  424SOL    HW1 2171   1.095   3.795   3.162
  424SOL    HW2 2172   1.084   3.652   3.085
  425SOL     OW 2173   2.507   0.796   5.309
  425SOL    HW1 2174   2.546   0.857   5.378
  425SOL    HW2 2175   2.449   0.729   5.354
  426SOL     OW 2176   2.505   2.614   4.317
  426SOL    HW1 2177   2.485   2.522   4.349
  426SOL    HW2 2178   2.477   2.681   4.386
  427SOL     OW 2179   3.533   2.049   3.104
  427SOL    HW1 2180   3.471   2.096   3.167
  427SOL    HW2 2181   3.511   1.952   3.103
  428SOL     OW 2182   2.512   1.670   6.095
  428SOL    HW1 2183   2.460   1.743   6.141
  428SOL    HW2 2184   2.484   1.666   5.999
  429SOL     OW 2185   1.300   6.004   3.858
  429SOL    HW1 2186   1.267   6.096   3.881
  429SOL    HW2 2187   1.242   5.964   3.787
  430SOL     OW 2188   1.543   0.088   3.888
  430SOL    HW1 2189   1.471   0.136   3.938
  430SOL    HW2 2190   1.501   0.020   3.827
  431SOL     OW 2191   3.213   1.574   1.899
  431SOL    HW1 2192   3.240   1.654   1.953
  431SOL    HW2 2193   3.282   1.556   1.829
  432SOL     OW 2194   4.266   2.239   1.969
  432SOL    HW1 2195   4.306   2.310   2.027
  432SOL    HW2 2196   4.227   2.281   1.887
  433SOL     OW 2197   2.532   5.692   0.346
  433SOL    HW1 2198   2.621   5.690   0.300
  433SOL    HW2 2199   2.477   5.768   0.311
  434SOL     OW 2200   4.058   6.010   3.520
  434SOL    HW1 2201   4.140   6.065   3.504
  434SOL    HW2 2202   4.071   5.918   3.485
  435SOL     OW 2203   3.220   1.574   6.414
  435SOL    HW1 2204   3.269   1.597   6.498
  435SOL    HW2 2205   3.267   1.614   6.335
  436SOL     OW 2206   5.143   6.734   2.608
  436SOL    HW1 2207   5.199   6.788   2.546
  436SOL    HW2 2208   5.160   6.763   2.702
  437SOL     OW 2209   6.786   0.768   5.083
  437SOL    HW1 2210   6.823   0.679   5.110
  437SOL    HW2 2211   6.860   0.826   5.047
  438SOL     OW 2212   0.379   4.280   2.918
  438SOL    HW1 2213   0.467   4.237   2.898
  438SOL    HW2 2214   0.306   4.212   2.910
  439SOL     OW 2215   6.519   0.299   3.927
  439SOL    HW1 2216   6.519   0.297   4.027
  439SOL    HW2 2217   6.432   0.262   3.893
  440SOL     OW 2218   4.353   0.898   0.695
  440SOL    HW1 2219   4.335   0.808   0.734
  440SOL    HW2 2220   4.297   0.913   0.614
  441SOL     OW 2221   0.191   4.075   2.342
  441SOL    HW1 2222   0.204   3.999   2.278
  441SOL    HW2 2223   0.121   4.049   2.409
  442SOL     OW 2224   5.323   3.063   6.090
  442SOL    HW1 2225   5.354   3.030   6.179
  442SOL    HW2 2226   5.403   3.081   6.032
  443SOL     OW 2227   4.913   3.226   2.447
  443SOL    HW1 2228   4.847   3.158   2.414
  443SOL    HW2 2229   4.992   3.229   2.386
  444SOL     OW 2230   3.908   0.986   1.235
  444SOL    HW1 2231   3.814   1.011   1.212
  444SOL    HW2 2232   3.919   0.987   1.334
  445SOL     OW 2233   1.448   5.730   2.153
  445SOL    HW1 2234   1.466   5.742   2.056
  445SOL    HW2 2235   1.533   5.706   2.201
  446SOL     OW 2236   5.383   6.962   1.489
  446SOL    HW1 2237   5.340   0.032   1.479
  446SOL    HW2 2238   5.402   6.924   1.399
  447SOL     OW 2239   6.414   4.247   0.621
  447SOL    HW1 2240   6.357   4.181   0.571
  447SOL    HW2 2241   6.471   4.297   0.558
  448SOL     OW 2242   3.047   6.981   3.329
  448SOL    HW1 2243   3.091   6.998   3.241
  448SOL    HW2 2244   3.016   6.886   3.333
  449SOL     OW 2245   1.902   3.834   4.970
  449SOL    HW1 2246   1.984   3.891   4.963
  449SOL    HW2 2247   1.825   3.889   5.004
  450SOL     OW 2248   0.617   4.975   3.569
  450SOL    HW1 2249   0.668   4.977   3.655
  450SOL    HW2 2250   0.587   4.882   3.550
  451SOL     OW 2251   0.750   2.206   2.739
  451SOL    HW1 2252   0.805   2.219   2.657
  451SOL    HW2 2253   0.690   2.284   2.752
  452SOL     OW 2254   5.072   5.433   1.953
  452SOL    HW1 2255   5.086   5.501   1.881
  452SOL    HW2 2256   4.988   5.454   2.003
  453SOL     OW 2257   3.643   0.586   6.694
  453SOL    HW1 2258   3.662   0.582   6.792
  453SOL    HW2 2259   3.726   0.564   6.643
  454SOL     OW 2260   6.664   3.374   6.794
  454SOL    HW1 2261   6.735   3.409   6.856
  454SOL    HW2 2262   6.672   3.421   6.705
  455SOL     OW 2263   6.028   4.579   6.448
  455SOL    HW1 2264   6.020   4.536   6.538
  455SOL    HW2 2265   6.104   4.644   6.448
  456SOL     OW 2266   3.081   0.683   2.233
  456SOL    HW1 2267   3.147   0.746   2.192
  456SOL    HW2 2268   3.067   0.708   2.329
  457SOL     OW 2269   2.642   0.569   0.043
  457SOL    HW1 2270   2.574   0.642   0.050
  457SOL    HW2 2271   2.657   0.546   6.967
  458SOL     OW 2272   3.254   0.911   3.426
  458SOL    HW1 2273   3.199   0.841   3.381
  458SOL    HW2 2274   3.326   0.941   3.363
  459SOL     OW 2275   3.388   0.217   4.282
  459SOL    HW1 2276   3.349   0.281   4.349
  459SOL    HW2 2277   3.371   0.123   4.313
  460SOL     OW 2278   1.275   1.449   5.846
  460SOL    HW1 2279   1.182   1.421   5.820
  460SOL    HW2 2280   1.280   1.461   5.945
  461SOL     OW 2281   0.597   4.902   5.882
  461SOL    HW1 2282   0.521   4.868   5.937
  461SOL    HW2 2283   0.562   4.953   5.803
  462SOL     OW 2284   3.074   3.881   5.228
  462SOL    HW1 2285   3.066   3.927   5.316
  462SOL    HW2 2286   3.171   3.863   5.209
  463SOL     OW 2287   5.766   6.779   2.812
  463SOL    HW1 2288   5.744   6.775   2.909
  463SOL    HW2 2289   5.757   6.873   2.779
  464SOL     OW 2290   3.724   5.337   5.748
  464SOL    HW1 2291   3.763   5.427   5.768
  464SOL    HW2 2292   3.797   5.270   5.742
  465SOL     OW 2293   0.683   3.375   0.620
  465SOL    HW1 2294   0.745   3.349   0.693
  465SOL    HW2 2295   0.702   3.469   0.592
  466SOL     OW 2296   4.112   5.579   4.789
  466SOL    HW1 2297   4.113   5.635   4.707
  466SOL    HW2 2298   4.204   5.540   4.804
  467SOL     OW 2299   6.624   0.423   1.221
  467SOL    HW1 2300   6.567   0.474   1.285
  467SOL    HW2 2301   6.660   0.341   1.266
  468SOL     OW 2302   3.509   0.223   6.888
  468SOL    HW1 2303   3.516   0.277   6.803
  468SOL    HW2 2304   3.578   0.151   6.887
  469SOL     OW 2305   3.065   5.132   5.620
  469SOL    HW1 2306   3.163   5.110   5.624
  469SOL    HW2 2307   3.044   5.171   5.530
  470SOL     OW 2308   2.047   5.078   2.950
  470SOL    HW1 2309   2.048   4.979   2.965
  470SOL    HW2 2310   2.103   5.123   3.020
  471SOL     OW 2311   1.854   2.529   4.303
  471SOL    HW1 2312   1.818   2.474   4.378
  471SOL    HW2 2313   1.798   2.514   4.221
  472SOL     OW 2314   5.887   3.838   6.584
  472SOL    HW1 2315   5.860   3.768   6.518
  472SOL    HW2 2316   5.963   3.805   6.639
  473SOL     OW 2317   6.881   2.645   1.980
  473SOL    HW1 2318   6.903   2.548   1.972
  473SOL    HW2 2319   6.966   2.697   1.988
  474SOL     OW 2320   5.289   6.057   3.532
  474SOL    HW1 2321   5.273   6.130   3.599
  474SOL    HW2 2322   5.262   5.969   3.572
  475SOL     OW 2323   5.776   2.042   0.545
  475SOL    HW1 2324   5.804   2.135   0.519
  475SOL    HW2 2325   5.825   2.015   0.628
  476SOL     OW 2326   0.914   4.707   1.521
  476SOL    HW1 2327   0.877   4.667   1.605
  476SOL    HW2 2328   1.008   4.737   1.537
  477SOL     OW 2329   1.828   4.384   3.952
  477SOL    HW1 2330   1.907   4.343   3.997
  477SOL    HW2 2331   1.797   4.463   4.005
  478SOL     OW 2332   5.300   5.801   1.862
  478SOL    HW1 2333   5.311   5.738   1.939
  478SOL    HW2 2334   5.238   5.875   1.888
  479SOL     OW 2335   3.416   3.860   3.686
  479SOL    HW1 2336   3.335   3.884   3.633
  479SOL    HW2 2337   3.481   3.811   3.628
  480SOL     OW 2338   2.190   0.619   2.847
  480SOL    HW1 2339   2.168   0.586   2.939
  480SOL    HW2 2340   2.277   0.668   2.850
  481SOL     OW 2341   0.289   6.979   0.711
  481SOL    HW1 2342   0.222   6.997   0.639
  481SOL    HW2 2343   0.329   0.045   0.742
  482SOL     OW 2344   4.142   5.331   1.523
  482SOL    HW1 2345   4.045   5.339   1.498
  482SOL    HW2 2346   4.198   5.336   1.440
  483SOL     OW 2347   5.327   1.944   3.821
  483SOL    HW1 2348   5.418   1.986   3.822
  483SOL    HW2 2349   5.313   1.899   3.733
  484SOL     OW 2350   2.030   4.921   4.642
  484SOL    HW1 2351   2.032   4.965   4.732
  484SOL    HW2 2352   2.036   4.991   4.571
  485SOL     OW 2353   5.333   3.348   1.858
  485SOL    HW1 2354   5.356   3.295   1.777
  485SOL    HW2 2355   5.267   3.419   1.834
  486SOL     OW 2356   6.082   6.115   6.630
  486SOL    HW1 2357   6.001   6.068   6.596
  486SOL    HW2 2358   6.060   6.212   6.644
  487SOL     OW 2359   6.893   6.758   5.526
  487SOL    HW1 2360   6.901   6.676   5.582
  487SOL    HW2 2361   6.851   6.735   5.438
  488SOL     OW 2362   1.812   6.420   3.164
  488SOL    HW1 2363   1.783   6.503   3.212
  488SOL    HW2 2364   1.885   6.376   3.217
  489SOL     OW 2365   1.073   6.229   6.438
  489SOL    HW1 2366   1.156   6.278   6.464
  489SOL    HW2 2367   1.045   6.168   6.512
  490SOL     OW 2368   1.007   3.904   5.173
  490SOL    HW1 2369   1.079   3.856   5.123
  490SOL    HW2 2370   1.028   3.902   5.271
  491SOL     OW 2371   0.687   2.576   0.746
  491SOL    HW1 2372   0.654   2.670   0.742
  491SOL    HW2 2373   0.610   2.512   0.745
  492SOL     OW 2374   1.674   2.454   5.956
  492SOL    HW1 2375   1.616   2.454   6.037
  492SOL    HW2 2376   1.769   2.437   5.982
  493SOL     OW 2377   2.262   5.593   4.813
  493SOL    HW1 2378   2.170   5.594   4.852
  493SOL    HW2 2379   2.280   5.681   4.768
  494SOL     OW 2380   2.495   6.426   4.832
  494SOL    HW1 2381   2.508   6.388   4.741
  494SOL    HW2 2382   2.579   6.416   4.885
  495SOL     OW 2383   3.794   4.395   5.913
  495SOL    HW1 2384   3.758   4.488   5.919
  495SOL    HW2 2385   3.719   4.331   5.905
  496SOL     OW 2386   4.831   1.368   3.055
  496SOL    HW1 2387   4.872   1.296   3.111
  496SOL    HW2 2388   4.902   1.412   3.000
  497SOL     OW 2389   4.086   2.012   0.105
  497SOL    HW1 2390   4.163   2.033   0.166
  497SOL    HW2 2391   4.028   1.943   0.148
  498SOL     OW 2392   0.659   6.843   1.676
  498SOL    HW1 2393   0.756   6.836   1.698
  498SOL    HW2 2394   0.643   6.807   1.584
  499SOL     OW 2395   3.030   6.031   6.741
  499SOL    HW1 2396   3.115   5.978   6.737
  499SOL    HW2 2397   2.953   5.971   6.721
  500SOL     OW 2398   6.076   2.204   0.653
  500SOL    HW1 2399   6.083   2.127   0.590
  500SOL    HW2 2400   6.139   2.190   0.730
  501SOL     OW 2401   1.050   1.012   3.988
  501SOL    HW1 2402   1.047   1.112   3.982
  501SOL    HW2 2403   1.008   0.972   3.906
  502SOL     OW 2404   1.903   5.219   6.637
  502SOL    HW1 2405   1.889   5.239   6.735
  502SOL    HW2 2406   1.922   5.122   6.626
  503SOL     OW 2407   3.855   4.640   6.747
  503SOL    HW1 2408   3.816   4.688   6.669
  503SOL    HW2 2409   3.806   4.554   6.762
  504SOL     OW 2410   6.086   6.483   1.594
  504SOL    HW1 2411   6.140   6.520   1.670
  504SOL    HW2 2412   6.148   6.450   1.522
  505SOL     OW 2413   4.944   6.457   4.937
  505SOL    HW1 2414   5.033   6.439   4.896
  505SOL    HW2 2415   4.956   6.510   5.021
  506SOL     OW 2416   4.272   5.053   2.761
  506SOL    HW1 2417   4.272   4.953   2.759
  506SOL    HW2 2418   4.193   5.085   2.813
  507SOL     OW 2419   3.216   1.150   0.583
  507SOL    HW1 2420   3.143   1.083   0.572
  507SOL    HW2 2421   3.304   1.107   0.563
  508SOL     OW 2422   0.022   4.595   3.165
  508SOL    HW1 2423   0.035   4.667   3.233
  508SOL    HW2 2424   6.952   4.607   3.123
  509SOL     OW 2425   4.309   6.782   6.305
  509SOL    HW1 2426   4.308   6.695   6.257
  509SOL    HW2 2427   4.398   6.796   6.349
  510SOL     OW 2428   6.900   3.837   0.612
  510SOL    HW1 2429   6.827   3.892   0.654
  510SOL    HW2 2430   6.860   3.758   0.566
  511SOL     OW 2431   1.006   1.980   0.741
  511SOL    HW1 2432   0.948   1.979   0.823
  511SOL    HW2 2433   0.991   1.896   0.688
  512SOL     OW 2434   6.970   2.179   5.383
  512SOL    HW1 2435   6.921   2.249   5.332
  512SOL    HW2 2436   6.970   2.203   5.480
  513SOL     OW 2437   5.463   1.136   2.919
  513SOL    HW1 2438   5.456   1.046   2.875
  513SOL    HW2 2439   5.448   1.126   3.018
  514SOL     OW 2440   6.516   6.892   4.715
  514SOL    HW1 2441   6.616   6.897   4.721
  514SOL    HW2 2442   6.481   6.837   4.791
  515SOL     OW 2443   3.767   0.657   5.957
  515SOL    HW1 2444   3.788   0.705   5.871
  515SOL    HW2 2445   3.852   0.625   5.999
  516SOL     OW 2446   2.247   6.009   1.472
  516SOL    HW1 2447   2.300   6.094   1.482
  516SOL    HW2 2448   2.303   5.932   1.502
  517SOL     OW 2449   3.721   5.867   1.069
  517SOL    HW1 2450   3.703   5.942   1.132
  517SOL    HW2 2451   3.693   5.780   1.111
  518SOL     OW 2452   2.022   3.636   3.961
  518SOL    HW1 2453   1.959   3.562   3.936
  518SOL    HW2 2454   2.036   3.696   3.882
  519SOL     OW 2455   0.262   0.190   2.903
  519SOL    HW1 2456   0.174   0.237   2.913
  519SOL    HW2 2457   0.246   0.091   2.894
  520SOL     OW 2458   0.961   3.016   0.507
  520SOL    HW1 2459   0.982   3.113   0.490
  520SOL    HW2 2460   0.906   3.009   0.590
  521SOL     OW 2461   6.268   5.859   5.085
  521SOL    HW1 2462   6.176   5.834   5.055
  521SOL    HW2 2463   6.281   5.830   5.180
  522SOL     OW 2464   3.587   3.887   1.657
  522SOL    HW1 2465   3.555   3.798   1.625
  522SOL    HW2 2466   3.635   3.875   1.744
  523SOL     OW 2467   0.980   6.855   1.154
  523SOL    HW1 2468   0.944   6.866   1.061
  523SOL    HW2 2469   0.992   6.944   1.196
  524SOL     OW 2470   6.869   2.124   1.941
  524SOL    HW1 2471   6.938   2.100   1.874
  524SOL    HW2 2472   6.779   2.092   1.911
  525SOL     OW 2473   1.345   3.386   5.605
  525SOL    HW1 2474   1.371   3.300   5.650
  525SOL    HW2 2475   1.379   3.386   5.511
  526SOL     OW 2476   2.938   6.787   4.521
  526SOL    HW1 2477   2.868   6.843   4.566
  526SOL    HW2 2478   2.931   6.799   4.422
  527SOL     OW 2479   0.551   0.910   0.510
  527SOL    HW1 2480   0.633   0.963   0.529
  527SOL    HW2 2481   0.564   0.816   0.541
  528SOL     OW 2482   6.736   3.282   4.041
  528SOL    HW1 2483   6.722   3.356   4.107
  528SOL    HW2 2484   6.664   3.213   4.052
  529SOL     OW 2485   1.451   0.995   0.226
  529SOL    HW1 2486   1.538   1.002   0.178
  529SOL    HW2 2487   1.393   0.928   0.180
  530SOL     OW 2488   4.299   3.842   0.613
  530SOL    HW1 2489   4.309   3.825   0.711
  530SOL    HW2 2490   4.369   3.907   0.583
  531SOL     OW 2491   1.332   1.046   0.942
  531SOL    HW1 2492   1.332   0.959   0.991
  531SOL    HW2 2493   1.240   1.065   0.907
  532SOL     OW 2494   2.302   2.399   0.611
  532SOL    HW1 2495   2.387   2.407   0.560
  532SOL    HW2 2496   2.312   2.332   0.684
  533SOL     OW 2497   4.064   0.584   4.309
  533SOL    HW1 2498   4.055   0.681   4.328
  533SOL    HW2 2499   4.157   0.565   4.276
  534SOL     OW 2500   1.341   5.166   1.140
  534SOL    HW1 2501   1.338   5.248   1.084
  534SOL    HW2 2502   1.327   5.190   1.236
  535SOL     OW 2503   5.181   3.606   3.695
  535SOL    HW1 2504   5.170   3.657   3.781
  535SOL    HW2 2505   5.116   3.639   3.628
  536SOL     OW 2506   6.674   6.667   2.589
  536SOL    HW1 2507   6.690   6.636   2.683
  536SOL    HW2 2508   6.760   6.666   2.538
  537SOL     OW 2509   3.794   1.565   4.029
  537SOL    HW1 2510   3.801   1.609   4.119
  537SOL    HW2 2511   3.749   1.476   4.040
  538SOL     OW 2512   2.837   4.621   5.690
  538SOL    HW1 2513   2.858   4.713   5.658
  538SOL    HW2 2514   2.875   4.554   5.626
  539SOL     OW 2515   1.208   0.302   0.197
  539SOL    HW1 2516   1.121   0.327   0.239
  539SOL    HW2 2517   1.283   0.336   0.254
  540SOL     OW 2518   0.705   0.246   4.344
  540SOL    HW1 2519   0.731   0.342   4.351
  540SOL    HW2 2520   0.709   0.217   4.249
  541SOL     OW 2521   4.577   5.677   4.521
  541SOL    HW1 2522   4.567   5.733   4.603
  541SOL    HW2 2523   4.673   5.658   4.505
  542SOL     OW 2524   3.228   0.589   6.043
  542SOL    HW1 2525   3.302   0.634   5.993
  542SOL    HW2 2526   3.267   0.524   6.108
  543SOL     OW 2527   6.019   2.098   4.100
  543SOL    HW1 2528   5.923   2.128   4.102
  543SOL    HW2 2529   6.054   2.091   4.193
  544SOL     OW 2530   1.445   3.840   1.226
  544SOL    HW1 2531   1.462   3.920   1.169
  544SOL    HW2 2532   1.365   3.791   1.191
  545SOL     OW 2533   5.665   1.561   0.869
  545SOL    HW1 2534   5.588   1.508   0.835
  545SOL    HW2 2535   5.640   1.606   0.954
  546SOL     OW 2536   0.344   4.148   2.584
  546SOL    HW1 2537   0.291   4.119   2.504
  546SOL    HW2 2538   0.283   4.155   2.663
  547SOL     OW 2539   4.096   1.341   6.253
  547SOL    HW1 2540   4.179   1.381   6.292
  547SOL    HW2 2541   4.059   1.403   6.183
  548SOL     OW 2542   3.482   2.534   6.985
  548SOL    HW1 2543   3.414   2.593   0.008
  548SOL    HW2 2544   3.561   2.588   6.956
  549SOL     OW 2545   6.247   1.745   1.383
  549SOL    HW1 2546   6.313   1.741   1.309
  549SOL    HW2 2547   6.214   1.652   1.403
  550SOL     OW 2548   0.184   5.239   3.454
  550SOL    HW1 2549   0.252   5.309   3.475
  550SOL    HW2 2550   0.231   5.154   3.429
  551SOL     OW 2551   6.372   0.924   0.400
  551SOL    HW1 2552   6.470   0.908   0.402
  551SOL    HW2 2553   6.325   0.843   0.365
  552SOL     OW 2554   6.018   5.122   5.801
  552SOL    HW1 2555   6.063   5.210   5.817
  552SOL    HW2 2556   5.919   5.133   5.812
  553SOL     OW 2557   3.109   0.900   5.963
  553SOL    HW1 2558   3.105   1.000   5.958
  553SOL    HW2 2559   3.050   0.860   5.893
  554SOL     OW 2560   5.893   6.099   0.977
  554SOL    HW1 2561   5.946   6.168   0.927
  554SOL    HW2 2562   5.953   6.051   1.041
  555SOL     OW 2563   1.655   4.071   5.952
  555SOL    HW1 2564   1.629   3.994   5.894
  555SOL    HW2 2565   1.576   4.098   6.008
  556SOL     OW 2566   5.275   0.474   3.937
  556SOL    HW1 2567   5.239   0.537   3.868
  556SOL    HW2 2568   5.266   0.380   3.904
  557SOL     OW 2569   6.506   4.457   6.679
  557SOL    HW1 2570   6.588   4.411   6.713
  557SOL    HW2 2571   6.443   4.473   6.755
  558SOL     OW 2572   3.290   3.781   2.383
  558SOL    HW1 2573   3.204   3.816   2.420
  558SOL    HW2 2574   3.272   3.706   2.320
  559SOL     OW 2575   6.450   6.525   5.644
  559SOL    HW1 2576   6.497   6.612   5.626
  559SOL    HW2 2577   6.356   6.532   5.610
  560SOL     OW 2578   6.625   3.212   2.916
  560SOL    HW1 2579   6.720   3.194   2.891
  560SOL    HW2 2580   6.565   3.148   2.868
  561SOL     OW 2581   0.633   2.812   6.749
  561SOL    HW1 2582   0.649   2.803   6.847
  561SOL    HW2 2583   0.562   2.881   6.733
  562SOL     OW 2584   4.220   0.553   5.276
  562SOL    HW1 2585   4.183   0.480   5.333
  562SOL    HW2 2586   4.245   0.516   5.186
  563SOL     OW 2587   1.906   1.611   4.559
  563SOL    HW1 2588   1.973   1.678   4.526
  563SOL    HW2 2589   1.953   1.531   4.595
  564SOL     OW 2590   6.820   2.321   5.186
  564SOL    HW1 2591   6.828   2.313   5.087
  564SOL    HW2 2592   6.855   2.410   5.216
  565SOL     OW 2593   3.974   3.293   3.582
  565SOL    HW1 2594   3.886   3.335   3.564
  565SOL    HW2 2595   4.016   3.264   3.496
  566SOL     OW 2596   3.325   6.592   2.937
  566SOL    HW1 2597   3.331   6.678   2.886
  566SOL    HW2 2598   3.269   6.605   3.018
  567SOL     OW 2599   2.023   2.947   6.991
  567SOL    HW1 2600   1.941   2.999   6.967
  567SOL    HW2 2601   2.050   2.890   6.914
  568SOL     OW 2602   6.870   6.486   0.602
  568SOL    HW1 2603   6.917   6.568   0.635
  568SOL    HW2 2604   6.774   6.489   0.632
  569SOL     OW 2605   6.679   2.247   0.681
  569SOL    HW1 2606   6.603   2.238   0.616
  569SOL    HW2 2607   6.764   2.265   0.631
  570SOL     OW 2608   2.278   0.284   5.743
  570SOL    HW1 2609   2.343   0.243   5.678
  570SOL    HW2 2610   2.186   0.253   5.722
  571SOL     OW 2611   2.575   4.974   2.334
  571SOL    HW1 2612   2.643   4.987   2.406
  571SOL    HW2 2613   2.618   4.990   2.245
  572SOL     OW 2614   2.541   6.678   3.664
  572SOL    HW1 2615   2.511   6.589   3.699
  572SOL    HW2 2616   2.534   6.746   3.737
  573SOL     OW 2617   6.862   0.966   5.811
  573SOL    HW1 2618   6.801   0.899   5.769
  573SOL    HW2 2619   6.945   0.976   5.755
  574SOL     OW 2620   2.722   1.794   5.800
  574SOL    HW1 2621   2.685   1.868   5.744
  574SOL    HW2 2622   2.822   1.803   5.805
  575SOL     OW 2623   3.113   3.654   0.653
  575SOL    HW1 2624   3.143   3.712   0.578
  575SOL    HW2 2625   3.193   3.620   0.703
  576SOL     OW 2626   2.325   2.763   2.874
  576SOL    HW1 2627   2.340   2.705   2.954
  576SOL    HW2 2628   2.323   2.859   2.903
  577SOL     OW 2629   0.785   1.367   1.883
  577SOL    HW1 2630   0.709   1.417   1.924
  577SOL    HW2 2631   0.805   1.405   1.793
  578SOL     OW 2632   2.240   6.146   6.800
  578SOL    HW1 2633   2.270   6.138   6.895
  578SOL    HW2 2634   2.160   6.207   6.795
  579SOL     OW 2635   2.312   4.731   1.923
  579SOL    HW1 2636   2.309   4.819   1.970
  579SOL    HW2 2637   2.405   4.695   1.925
  580SOL     OW 2638   4.363   5.467   4.858
  580SOL    HW1 2639   4.352   5.384   4.912
  580SOL    HW2 2640   4.442   5.457   4.798
  581SOL     OW 2641   1.571   2.876   4.352
  581SOL    HW1 2642   1.592   2.819   4.273
  581SOL    HW2 2643   1.639   2.948   4.360
  582SOL     OW 2644   5.794   5.553   3.578
  582SOL    HW1 2645   5.865   5.596   3.634
  582SOL    HW2 2646   5.753   5.621   3.517
  583SOL     OW 2647   3.476   5.225   5.813
  583SOL    HW1 2648   3.560   5.276   5.801
  583SOL    HW2 2649   3.496   5.127   5.814
  584SOL     OW 2650   4.438   0.826   6.385
  584SOL    HW1 2651   4.394   0.909   6.420
  584SOL    HW2 2652   4.511   0.851   6.322
  585SOL     OW 2653   2.860   6.549   1.590
  585SOL    HW1 2654   2.870   6.617   1.517
  585SOL    HW2 2655   2.945   6.541   1.641
  586SOL     OW 2656   4.653   6.944   0.625
  586SOL    HW1 2657   4.742   6.990   0.627
  586SOL    HW2 2658   4.606   6.957   0.712
  587SOL     OW 2659   5.135   1.983   2.181
  587SOL    HW1 2660   5.150   2.054   2.250
  587SOL    HW2 2661   5.207   1.989   2.112
  588SOL     OW 2662   1.059   5.595   2.273
  588SOL    HW1 2663   0.971   5.598   2.226
  588SOL    HW2 2664   1.067   5.507   2.321
  589SOL     OW 2665   3.589   6.032   1.275
  589SOL    HW1 2666   3.502   6.079   1.264
  589SOL    HW2 2667   3.664   6.097   1.261
  590SOL     OW 2668   4.610   1.711   0.228
  590SOL    HW1 2669   4.596   1.653   0.308
  590SOL    HW2 2670   4.579   1.804   0.249
  591SOL     OW 2671   4.165   6.012   4.686
  591SOL    HW1 2672   4.216   6.018   4.772
  591SOL    HW2 2673   4.083   6.068   4.691
  592SOL     OW 2674   4.295   2.367   3.727
  592SOL    HW1 2675   4.274   2.307   3.804
  592SOL    HW2 2676   4.260   2.327   3.643
  593SOL     OW 2677   3.284   1.088   5.716
  593SOL    HW1 2678   3.289   1.153   5.640
  593SOL    HW2 2679   3.205   1.028   5.704
  594SOL     OW 2680   5.714   1.152   2.159
  594SOL    HW1 2681   5.640   1.218   2.143
  594SOL    HW2 2682   5.798   1.201   2.180
  595SOL     OW 2683   5.132   6.067   2.457
  595SOL    HW1 2684   5.197   6.018   2.399
  595SOL    HW2 2685   5.042   6.024   2.449
  596SOL     OW 2686   6.682   4.411   4.357
  596SOL    HW1 2687   6.589   4.428   4.387
  596SOL    HW2 2688   6.737   4.379   4.434
  597SOL     OW 2689   2.802   0.533   6.192
  597SOL    HW1 2690   2.744   0.568   6.266
  597SOL    HW2 2691   2.796   0.594   6.114
  598SOL     OW 2692   3.086   3.073   4.666
  598SOL    HW1 2693   2.991   3.089   4.693
  598SOL    HW2 2694   3.107   3.125   4.583
  599SOL     OW 2695   1.012   6.049   1.908
  599SOL    HW1 2696   1.090   6.100   1.945
  599SOL    HW2 2697   0.944   6.036   1.980
  600SOL     OW 2698   6.859   3.666   4.846
  600SOL    HW1 2699   6.930   3.717   4.799
  600SOL    HW2 2700   6.896   3.581   4.882
  601SOL     OW 2701   1.504   0.663   5.119
  601SOL    HW1 2702   1.586   0.697   5.072
  601SOL    HW2 2703   1.527   0.579   5.169
  602SOL     OW 2704   2.926   6.016   3.795
  602SOL    HW1 2705   2.973   5.944   3.743
  602SOL    HW2 2706   2.861   5.973   3.858
  603SOL     OW 2707   1.904   1.282   5.277
  603SOL    HW1 2708   1.903   1.244   5.370
  603SOL    HW2 2709   1.850   1.367   5.275
  604SOL     OW 2710   6.413   2.513   1.243
  604SOL    HW1 2711   6.351   2.450   1.289
  604SOL    HW2 2712   6.507   2.480   1.251
  605SOL     OW 2713   0.209   5.266   2.629
  605SOL    HW1 2714   0.261   5.180   2.622
  605SOL    HW2 2715   0.266   5.342   2.598
  606SOL     OW 2716   3.912   6.886   4.948
  606SOL    HW1 2717   4.004   6.854   4.924
  606SOL    HW2 2718   3.919   6.972   4.998
  607SOL     OW 2719   0.957   4.682   6.186
  607SOL    HW1 2720   1.033   4.744   6.166
  607SOL    HW2 2721   0.945   4.617   6.111
  608SOL     OW 2722   3.029   0.869   5.149
  608SOL    HW1 2723   2.975   0.865   5.233
  608SOL    HW2 2724   2.971   0.843   5.071
  609SOL     OW 2725   3.811   2.758   1.566
  609SOL    HW1 2726   3.878   2.703   1.517
  609SOL    HW2 2727   3.855   2.803   1.644
  610SOL     OW 2728   4.907   3.496   0.574
  610SOL    HW1 2729   4.919   3.470   0.670
  610SOL    HW2 2730   4.993   3.482   0.525
  611SOL     OW 2731   3.887   0.294   2.484
  611SOL    HW1 2732   3.864   0.303   2.580
  611SOL    HW2 2733   3.814   0.333   2.428
  612SOL     OW 2734   4.003   4.653   6.005
  612SOL    HW1 2735   4.038   4.559   6.014
  612SOL    HW2 2736   3.986   4.673   5.909
  613SOL     OW 2737   4.285   5.225   5.308
  613SOL    HW1 2738   4.209   5.249   5.248
  613SOL    HW2 2739   4.358   5.293   5.301
  614SOL     OW 2740   4.463   5.448   5.788
  614SOL    HW1 2741   4.515   5.529   5.763
  614SOL    HW2 2742   4.379   5.444   5.734
  615SOL     OW 2743   0.333   4.833   1.330
  615SOL    HW1 2744   0.280   4.766   1.278
  615SOL    HW2 2745   0.279   4.865   1.407
  616SOL     OW 2746   5.708   3.367   3.176
  616SOL    HW1 2747   5.655   3.321   3.104
  616SOL    HW2 2748   5.744   3.298   3.239
  617SOL     OW 2749   2.231   5.313   6.129
  617SOL    HW1 2750   2.136   5.342   6.139
  617SOL    HW2 2751   2.290   5.371   6.186
  618SOL     OW 2752   1.460   0.871   2.313
  618SOL    HW1 2753   1.487   0.934   2.240
  618SOL    HW2 2754   1.418   0.790   2.273
  619SOL     OW 2755   1.287   1.287   6.536
  619SOL    HW1 2756   1.234   1.358   6.491
  619SOL    HW2 2757   1.285   1.203   6.480
  620SOL     OW 2758   4.868   3.647   0.245
  620SOL    HW1 2759   4.806   3.644   0.323
  620SOL    HW2 2760   4.934   3.721   0.257
  621SOL     OW 2761   0.381   4.567   1.501
  621SOL    HW1 2762   0.340   4.548   1.591
  621SOL    HW2 2763   0.335   4.645   1.459
  622SOL     OW 2764   2.317   1.748   0.293
  622SOL    HW1 2765   2.320   1.678   0.363
  622SOL    HW2 2766   2.370   1.720   0.214
  623SOL     OW 2767   0.649   4.527   6.408
  623SOL    HW1 2768   0.669   4.489   6.317
  623SOL    HW2 2769   0.653   4.626   6.405
  624SOL     OW 2770   1.130   2.774   2.775
  624SOL    HW1 2771   1.107   2.690   2.823
  624SOL    HW2 2772   1.101   2.853   2.830
  625SOL     OW 2773   2.692   1.711   2.533
  625SOL    HW1 2774   2.725   1.650   2.605
  625SOL    HW2 2775   2.605   1.751   2.561
  626SOL     OW 2776   2.637   6.410   4.580
  626SOL    HW1 2777   2.627   6.356   4.496
  626SOL    HW2 2778   2.728   6.397   4.617
  627SOL     OW 2779   5.298   0.522   0.465
  627SOL    HW1 2780   5.277   0.525   0.368
  627SOL    HW2 2781   5.298   0.615   0.503
  628SOL     OW 2782   5.172   4.266   3.861
  628SOL    HW1 2783   5.116   4.187   3.885
  628SOL    HW2 2784   5.125   4.319   3.790
  629SOL     OW 2785   0.801   0.146   1.303
  629SOL    HW1 2786   0.786   0.236   1.345
  629SOL    HW2 2787   0.896   0.139   1.272
  630SOL     OW 2788   4.564   1.865   1.033
  630SOL    HW1 2789   4.529   1.950   1.074
  630SOL    HW2 2790   4.628   1.888   0.959
  631SOL     OW 2791   2.681   7.016   5.346
  631SOL    HW1 2792   2.663   0.094   5.360
  631SOL    HW2 2793   2.756   6.987   5.405
  632SOL     OW 2794   2.124   1.329   1.246
  632SOL    HW1 2795   2.146   1.255   1.183
  632SOL    HW2 2796   2.090   1.408   1.195
  633SOL     OW 2797   2.913   7.016   6.384
  633SOL    HW1 2798   2.815   7.015   6.366
  633SOL    HW2 2799   2.936   0.076   6.440
  634SOL     OW 2800   3.709   5.762   0.698
  634SOL    HW1 2801   3.782   5.808   0.747
  634SOL    HW2 2802   3.623   5.770   0.749
  635SOL     OW 2803   3.217   6.888   2.552
  635SOL    HW1 2804   3.253   6.868   2.461
  635SOL    HW2 2805   3.185   6.983   2.555
  636SOL     OW 2806   5.179   4.920   0.094
  636SOL    HW1 2807   5.135   4.840   0.134
  636SOL    HW2 2808   5.278   4.903   0.088
  637SOL     OW 2809   4.745   4.113   1.144
  637SOL    HW1 2810   4.647   4.119   1.162
  637SOL    HW2 2811   4.763   4.137   1.049
  638SOL     OW 2812   4.685   1.353   2.080
  638SOL    HW1 2813   4.609   1.354   2.015
  638SOL    HW2 2814   4.665   1.415   2.156
  639SOL     OW 2815   4.294   4.676   2.190
  639SOL    HW1 2816   4.377   4.653   2.240
  639SOL    HW2 2817   4.237   4.595   2.182
  640SOL     OW 2818   3.146   4.465   5.344
  640SOL    HW1 2819   3.064   4.408   5.341
  640SOL    HW2 2820   3.125   4.557   5.311
  641SOL     OW 2821   6.974   5.988   4.832
  641SOL    HW1 2822   6.883   6.031   4.834
  641SOL    HW2 2823   6.992   5.946   4.921
  642SOL     OW 2824   0.560   5.209   4.973
  642SOL    HW1 2825   0.544   5.209   5.072
  642SOL    HW2 2826   0.486   5.258   4.928
  643SOL     OW 2827   5.958   5.579   6.140
  643SOL    HW1 2828   6.057   5.588   6.148
  643SOL    HW2 2829   5.936   5.507   6.074
  644SOL     OW 2830   0.957   6.663   2.435
  644SOL    HW1 2831   0.978   6.676   2.532
  644SOL    HW2 2832   0.869   6.708   2.414
  645SOL     OW 2833   6.007   2.818   3.994
  645SOL    HW1 2834   6.091   2.872   4.005
  645SOL    HW2 2835   5.980   2.780   4.083
  646SOL     OW 2836   1.671   1.658   4.671
  646SOL    HW1 2837   1.760   1.644   4.628
  646SOL    HW2 2838   1.659   1.591   4.745
  647SOL     OW 2839   6.146   3.303   0.473
  647SOL    HW1 2840   6.132   3.205   0.491
  647SOL    HW2 2841   6.244   3.323   0.470
  648SOL     OW 2842   5.992   3.740   2.040
  648SOL    HW1 2843   5.911   3.684   2.023
  648SOL    HW2 2844   5.993   3.818   1.978
  649SOL     OW 2845   4.230   4.655   0.695
  649SOL    HW1 2846   4.171   4.574   0.687
  649SOL    HW2 2847   4.254   4.670   0.791
  650SOL     OW 2848   4.538   4.542   0.732
  650SOL    HW1 2849   4.597   4.602   0.786
  650SOL    HW2 2850   4.444   4.551   0.764
  651SOL     OW 2851   0.941   6.125   0.487
  651SOL    HW1 2852   0.884   6.207   0.497
  651SOL    HW2 2853   0.952   6.081   0.576
  652SOL     OW 2854   4.193   1.099   2.176
  652SOL    HW1 2855   4.221   1.138   2.089
  652SOL    HW2 2856   4.249   1.136   2.250
  653SOL     OW 2857   3.891   4.959   3.712
  653SOL    HW1 2858   3.798   4.984   3.739
  653SOL    HW2 2859   3.956   4.994   3.779
  654SOL     OW 2860   6.786   4.741   0.470
  654SOL    HW1 2861   6.764   4.834   0.441
  654SOL    HW2 2862   6.791   4.682   0.390
  655SOL     OW 2863   0.758   0.638   1.308
  655SOL    HW1 2864   0.752   0.708   1.380
  655SOL    HW2 2865   0.719   0.675   1.223
  656SOL     OW 2866   2.571   6.399   2.048
  656SOL    HW1 2867   2.615   6.328   2.103
  656SOL    HW2 2868   2.472   6.383   2.045
  657SOL     OW 2869   3.639   1.465   0.337
  657SOL    HW1 2870   3.690   1.492   0.255
  657SOL    HW2 2871   3.704   1.450   0.413
  658SOL     OW 2872   2.813   3.911   6.956
  658SOL    HW1 2873   2.741   3.884   6.892
  658SOL    HW2 2874   2.777   3.979   7.020
  659SOL     OW 2875   2.758   6.979   6.895
  659SOL    HW1 2876   2.796   6.989   6.803
  659SOL    HW2 2877   2.660   6.999   6.893
  660SOL     OW 2878   3.524   5.390   2.674
  660SOL    HW1 2879   3.469   5.354   2.599
  660SOL    HW2 2880   3.564   5.477   2.646
  661SOL     OW 2881   4.883   5.434   2.820
  661SOL    HW1 2882   4.834   5.364   2.769
  661SOL    HW2 2883   4.969   5.397   2.854
  662SOL     OW 2884   3.343   1.286   6.437
  662SOL    HW1 2885   3.347   1.321   6.530
  662SOL    HW2 2886   3.274   1.337   6.385
  663SOL     OW 2887   2.282   4.556   5.313
  663SOL    HW1 2888   2.285   4.644   5.264
  663SOL    HW2 2889   2.338   4.489   5.264
  664SOL     OW 2890   6.595   0.941   6.962
  664SOL    HW1 2891   6.598   1.005   0.018
  664SOL    HW2 2892   6.551   0.986   6.883
  665SOL     OW 2893   2.291   5.732   2.986
  665SOL    HW1 2894   2.388   5.755   2.999
  665SOL    HW2 2895   2.279   5.633   2.995
  666SOL     OW 2896   4.174   0.642   1.622
  666SOL    HW1 2897   4.235   0.703   1.571
  666SOL    HW2 2898   4.118   0.695   1.685
  667SOL     OW 2899   0.929   6.359   2.666
  667SOL    HW1 2900   0.835   6.334   2.688
  667SOL    HW2 2901   0.943   6.355   2.567
  668SOL     OW 2902   5.587   3.945   6.506
  668SOL    HW1 2903   5.682   3.916   6.495
  668SOL    HW2 2904   5.527   3.885   6.453
  669SOL     OW 2905   5.288   1.428   3.249
  669SOL    HW1 2906   5.227   1.350   3.238
  669SOL    HW2 2907   5.314   1.463   3.159
  670SOL     OW 2908   1.561   2.267   3.545
  670SOL    HW1 2909   1.657   2.266   3.573
  670SOL    HW2 2910   1.514   2.189   3.586
  671SOL     OW 2911   2.467   6.378   1.321
  671SOL    HW1 2912   2.429   6.287   1.304
  671SOL    HW2 2913   2.561   6.381   1.287
  672SOL     OW 2914   0.945   0.100   2.520
  672SOL    HW1 2915   0.988   0.184   2.487
  672SOL    HW2 2916   0.990   0.070   2.604
  673SOL     OW 2917   5.430   6.627   0.839
  673SOL    HW1 2918   5.484   6.708   0.815
  673SOL    HW2 2919   5.420   6.569   0.758
  674SOL     OW 2920   0.121   0.695   4.968
  674SOL    HW1 2921   0.120   0.637   5.050
  674SOL    HW2 2922   0.124   0.637   4.886
  675SOL     OW 2923   6.155   3.277   2.621
  675SOL    HW1 2924   6.161   3.287   2.720
  675SOL    HW2 2925   6.173   3.182   2.595
  676SOL     OW 2926   2.248   5.529   5.847
  676SOL    HW1 2927   2.267   5.521   5.749
  676SOL    HW2 2928   2.326   5.495   5.899
  677SOL     OW 2929   4.599   0.844   0.953
  677SOL    HW1 2930   4.633   0.893   0.873
  677SOL    HW2 2931   4.578   0.750   0.929
  678SOL     OW 2932   2.019   4.469   5.278
  678SOL    HW1 2933   2.117   4.488   5.283
  678SOL    HW2 2934   1.969   4.534   5.335
  679SOL     OW 2935   5.124   2.148   5.078
  679SOL    HW1 2936   5.144   2.060   5.034
  679SOL    HW2 2937   5.076   2.132   5.165
  680SOL     OW 2938   4.995   6.630   3.918
  680SOL    HW1 2939   4.975   6.728   3.910
  680SOL    HW2 2940   5.071   6.607   3.858
  681SOL     OW 2941   5.058   5.150   2.094
  681SOL    HW1 2942   5.099   5.103   2.016
  681SOL    HW2 2943   5.075   5.249   2.087
  682SOL     OW 2944   0.945   0.661   3.185
  682SOL    HW1 2945   0.846   0.661   3.200
  682SOL    HW2 2946   0.968   0.593   3.116
  683SOL     OW 2947   4.078   3.309   1.421
  683SOL    HW1 2948   4.161   3.364   1.424
  683SOL    HW2 2949   3.998   3.369   1.420
  684SOL     OW 2950   6.485   0.294   5.550
  684SOL    HW1 2951   6.456   0.378   5.596
  684SOL    HW2 2952   6.573   0.265   5.587
  685SOL     OW 2953   3.799   0.517   3.096
  685SOL    HW1 2954   3.849   0.477   3.172
  685SOL    HW2 2955   3.781   0.447   3.027
  686SOL     OW 2956   4.229   1.259   4.650
  686SOL    HW1 2957   4.320   1.260   4.608
  686SOL    HW2 2958   4.159   1.262   4.579
  687SOL     OW 2959   1.614   1.767   4.442
  687SOL    HW1 2960   1.597   1.865   4.451
  687SOL    HW2 2961   1.635   1.728   4.531
  688SOL     OW 2962   6.036   1.284   6.789
  688SOL    HW1 2963   6.000   1.196   6.821
  688SOL    HW2 2964   6.125   1.301   6.831
  689SOL     OW 2965   1.430   5.229   5.687
  689SOL    HW1 2966   1.461   5.194   5.775
  689SOL    HW2 2967   1.463   5.168   5.614
  690SOL     OW 2968   5.739   3.785   2.393
  690SOL    HW1 2969   5.755   3.691   2.422
  690SOL    HW2 2970   5.816   3.816   2.337
  691SOL     OW 2971   4.209   2.054   6.886
  691SOL    HW1 2972   4.164   2.033   6.799
  691SOL    HW2 2973   4.157   2.013   6.961
  692SOL     OW 2974   2.954   1.373   4.534
  692SOL    HW1 2975   2.895   1.327   4.601
  692SOL    HW2 2976   3.038   1.321   4.523
  693SOL     OW 2977   5.534   6.132   3.716
  693SOL    HW1 2978   5.520   6.080   3.631
  693SOL    HW2 2979   5.527   6.230   3.696
  694SOL     OW 2980   4.497   5.792   4.767
  694SOL    HW1 2981   4.469   5.708   4.815
  694SOL    HW2 2982   4.442   5.869   4.801
  695SOL     OW 2983   3.341   6.636   4.505
  695SOL    HW1 2984   3.274   6.710   4.515
  695SOL    HW2 2985   3.417   6.651   4.568
  696SOL     OW 2986   4.849   4.695   3.081
  696SOL    HW1 2987   4.919   4.763   3.102
  696SOL    HW2 2988   4.892   4.614   3.040
  697SOL     OW 2989   0.182   5.176   2.324
  697SOL    HW1 2990   0.111   5.128   2.376
  697SOL    HW2 2991   0.156   5.179   2.228
  698SOL     OW 2992   5.455   6.878   1.214
  698SOL    HW1 2993   5.545   6.838   1.199
  698SOL    HW2 2994   5.422   6.920   1.130
  699SOL     OW 2995   2.722   2.413   0.820
  699SOL    HW1 2996   2.642   2.375   0.865
  699SOL    HW2 2997   2.786   2.340   0.796
  700SOL     OW 2998   3.981   6.799   2.531
  700SOL    HW1 2999   3.953   6.785   2.436
  700SOL    HW2 3000   3.953   6.891   2.560
  701SOL     OW 3001   5.958   5.337   1.032
  701SOL    HW1 3002   5.972   5.282   1.114
  701SOL    HW2 3003   5.944   5.433   1.058
  702SOL     OW 3004   2.854   0.765   4.296
  702SOL    HW1 3005   2.779   0.789   4.358
  702SOL    HW2 3006   2.939   0.809   4.327
  703SOL     OW 3007   3.025   2.547   6.197
  703SOL    HW1 3008   3.085   2.610   6.149
  703SOL    HW2 3009   2.930   2.564   6.170
  704SOL     OW 3010   1.271   2.795   5.955
  704SOL    HW1 3011   1.239   2.734   5.882
  704SOL    HW2 3012   1.277   2.743   6.040
  705SOL     OW 3013   6.902   6.274   4.285
  705SOL    HW1 3014   6.892   6.177   4.309
  705SOL    HW2 3015   6.839   6.329   4.340
  706SOL     OW 3016   4.588   1.113   4.958
  706SOL    HW1 3017   4.682   1.135   4.931
  706SOL    HW2 3018   4.590   1.043   5.030
  707SOL     OW 3019   3.512   4.957   3.422
  707SOL    HW1 3020   3.454   4.884   3.385
  707SOL    HW2 3021   3.600   4.918   3.449
  708SOL     OW 3022   3.443   0.666   3.595
  708SOL    HW1 3023   3.526   0.612   3.612
  708SOL    HW2 3024   3.451   0.755   3.639
  709SOL     OW 3025   2.063   0.502   1.442
  709SOL    HW1 3026   2.041   0.405   1.451
  709SOL    HW2 3027   2.051   0.547   1.531
  710SOL     OW 3028   4.681   2.801   1.801
  710SOL    HW1 3029   4.685   2.885   1.855
  710SOL    HW2 3030   4.769   2.786   1.757
  711SOL     OW 3031   0.182   2.371   6.021
  711SOL    HW1 3032   0.243   2.438   6.066
  711SOL    HW2 3033   0.226   2.338   5.938
  712SOL     OW 3034   5.198   3.102   0.263
  712SOL    HW1 3035   5.248   3.187   0.280
  712SOL    HW2 3036   5.263   3.029   0.244
  713SOL     OW 3037   4.049   2.641   5.384
  713SOL    HW1 3038   4.101   2.587   5.318
  713SOL    HW2 3039   3.955   2.650   5.353
  714SOL     OW 3040   5.837   4.738   3.305
  714SOL    HW1 3041   5.868   4.771   3.216
  714SOL    HW2 3042   5.914   4.740   3.369
  715SOL     OW 3043   6.304   5.338   5.973
  715SOL    HW1 3044   6.282   5.393   6.053
  715SOL    HW2 3045   6.333   5.247   6.003
  716SOL     OW 3046   1.765   1.203   2.571
  716SOL    HW1 3047   1.805   1.117   2.540
  716SOL    HW2 3048   1.730   1.253   2.492
  717SOL     OW 3049   5.866   4.960   3.739
  717SOL    HW1 3050   5.941   4.903   3.708
  717SOL    HW2 3051   5.822   5.004   3.660
  718SOL     OW 3052   5.310   2.009   4.289
  718SOL    HW1 3053   5.212   2.027   4.283
  718SOL    HW2 3054   5.359   2.062   4.219
  719SOL     OW 3055   5.604   0.275   3.240
  719SOL    HW1 3056   5.661   0.198   3.214
  719SOL    HW2 3057   5.623   0.353   3.180
  720SOL     OW 3058   2.105   1.096   0.075
  720SOL    HW1 3059   2.171   1.154   0.028
  720SOL    HW2 3060   2.146   1.058   0.158
  721SOL     OW 3061   0.065   2.502   2.719
  721SOL    HW1 3062   0.069   2.476   2.622
  721SOL    HW2 3063   0.025   2.428   2.772
  722SOL     OW 3064   4.503   6.811   6.945
  722SOL    HW1 3065   4.470   6.826   0.018
  722SOL    HW2 3066   4.457   6.731   6.906
  723SOL     OW 3067   2.220   5.714   4.027
  723SOL    HW1 3068   2.280   5.728   4.105
  723SOL    HW2 3069   2.222   5.618   4.000
  724SOL     OW 3070   1.072   0.484   3.700
  724SOL    HW1 3071   0.988   0.431   3.686
  724SOL    HW2 3072   1.114   0.503   3.611
  725SOL     OW 3073   1.572   4.387   2.356
  725SOL    HW1 3074   1.520   4.333   2.290
  725SOL    HW2 3075   1.588   4.332   2.439
  726SOL     OW 3076   1.848   4.517   0.642
  726SOL    HW1 3077   1.865   4.547   0.548
  726SOL    HW2 3078   1.749   4.516   0.659
  727SOL     OW 3079   4.507   5.024   5.331
  727SOL    HW1 3080   4.430   5.088   5.325
  727SOL    HW2 3081   4.532   5.010   5.426
  728SOL     OW 3082   6.954   2.790   4.640
  728SOL    HW1 3083   6.926   2.719   4.705
  728SOL    HW2 3084   6.914   2.877   4.666
  729SOL     OW 3085   0.522   3.841   1.599
  729SOL    HW1 3086   0.436   3.814   1.643
  729SOL    HW2 3087   0.518   3.939   1.577
  730SOL     OW 3088   4.993   0.678   2.859
  730SOL    HW1 3089   5.069   0.634   2.812
  730SOL    HW2 3090   4.959   0.617   2.931
  731SOL     OW 3091   4.296   4.302   6.146
  731SOL    HW1 3092   4.334   4.382   6.194
  731SOL    HW2 3093   4.210   4.327   6.103
  732SOL     OW 3094   4.678   1.734   3.361
  732SOL    HW1 3095   4.772   1.718   3.329
  732SOL    HW2 3096   4.676   1.730   3.461
  733SOL     OW 3097   6.179   6.585   3.485
  733SOL    HW1 3098   6.197   6.564   3.581
  733SOL    HW2 3099   6.236   6.527   3.427
  734SOL     OW 3100   5.358   5.975   2.672
  734SOL    HW1 3101   5.441   5.965   2.617
  734SOL    HW2 3102   5.290   5.910   2.641
  735SOL     OW 3103   5.289   0.616   2.240
  735SOL    HW1 3104   5.197   0.625   2.200
  735SOL    HW2 3105   5.349   0.571   2.174
  736SOL     OW 3106   1.494   1.482   4.482
  736SOL    HW1 3107   1.467   1.563   4.430
  736SOL    HW2 3108   1.525   1.410   4.419
  737SOL     OW 3109   5.132   1.487   6.348
  737SOL    HW1 3110   5.215   1.459   6.396
  737SOL    HW2 3111   5.053   1.442   6.389
  738SOL     OW 3112   2.782   4.339   1.179
  738SOL    HW1 3113   2.733   4.258   1.147
  738SOL    HW2 3114   2.722   4.395   1.236
  739SOL     OW 3115   3.054   6.966   4.940
  739SOL    HW1 3116   3.020   6.950   5.032
  739SOL    HW2 3117   3.054   6.879   4.889
  740SOL     OW 3118   5.639   2.513   3.116
  740SOL    HW1 3119   5.615   2.598   3.161
  740SOL    HW2 3120   5.738   2.509   3.102
  741SOL     OW 3121   3.049   0.487   3.429
  741SOL    HW1 3122   3.089   0.510   3.517
  741SOL    HW2 3123   3.042   0.387   3.420
  742SOL     OW 3124   1.792   0.228   1.333
  742SOL    HW1 3125   1.879   0.221   1.382
  742SOL    HW2 3126   1.760   0.323   1.335
  743SOL     OW 3127   0.850   6.051   3.537
  743SOL    HW1 3128   0.881   6.060   3.442
  743SOL    HW2 3129   0.865   5.957   3.568
  744SOL     OW 3130   4.991   1.379   0.231
  744SOL    HW1 3131   4.905   1.407   0.187
  744SOL    HW2 3132   4.996   1.279   0.232
  745SOL     OW 3133   2.512   5.644   4.930
  745SOL    HW1 3134   2.443   5.626   4.859
  745SOL    HW2 3135   2.492   5.588   5.010
  746SOL     OW 3136   5.948   4.433   5.786
  746SOL    HW1 3137   5.902   4.466   5.868
  746SOL    HW2 3138   6.016   4.500   5.756
  747SOL     OW 3139   5.588   5.729   3.109
  747SOL    HW1 3140   5.563   5.731   3.205
  747SOL    HW2 3141   5.510   5.760   3.054
  748SOL     OW 3142   5.321   5.472   2.528
  748SOL    HW1 3143   5.247   5.439   2.468
  748SOL    HW2 3144   5.407   5.432   2.499
  749SOL     OW 3145   5.316   4.316   3.588
  749SOL    HW1 3146   5.381   4.392   3.591
  749SOL    HW2 3147   5.316   4.276   3.496
  750SOL     OW 3148   2.258   1.701   2.029
  750SOL    HW1 3149   2.255   1.602   2.016
  750SOL    HW2 3150   2.309   1.722   2.112
  751SOL     OW 3151   4.673   0.515   6.947
  751SOL    HW1 3152   4.648   0.427   6.988
  751SOL    HW2 3153   4.599   0.546   6.887
  752SOL     OW 3154   3.263   2.544   5.338
  752SOL    HW1 3155   3.173   2.570   5.373
  752SOL    HW2 3156   3.255   2.466   5.277
  753SOL     OW 3157   3.587   4.008   4.781
  753SOL    HW1 3158   3.662   3.995   4.717
  753SOL    HW2 3159   3.505   4.037   4.731
  754SOL     OW 3160   5.313   0.565   6.406
  754SOL    HW1 3161   5.383   0.636   6.417
  754SOL    HW2 3162   5.262   0.581   6.322
  755SOL     OW 3163   3.812   4.673   5.340
  755SOL    HW1 3164   3.726   4.659   5.290
  755SOL    HW2 3165   3.834   4.592   5.393
  756SOL     OW 3166   2.214   5.227   6.445
  756SOL    HW1 3167   2.235   5.152   6.382
  756SOL    HW2 3168   2.129   5.272   6.417
  757SOL     OW 3169   2.267   6.889   2.285
  757SOL    HW1 3170   2.328   6.940   2.345
  757SOL    HW2 3171   2.316   6.811   2.245
  758SOL     OW 3172   3.132   1.781   4.080
  758SOL    HW1 3173   3.172   1.768   4.170
  758SOL    HW2 3174   3.148   1.875   4.050
  759SOL     OW 3175   0.552   2.710   4.545
  759SOL    HW1 3176   0.489   2.787   4.529
  759SOL    HW2 3177   0.543   2.644   4.471
  760SOL     OW 3178   6.648   6.300   3.878
  760SOL    HW1 3179   6.642   6.233   3.805
  760SOL    HW2 3180   6.581   6.278   3.949
  761SOL     OW 3181   4.969   4.264   5.459
  761SOL    HW1 3182   4.979   4.187   5.395
  761SOL    HW2 3183   4.955   4.229   5.551
  762SOL     OW 3184   2.968   5.845   4.561
  762SOL    HW1 3185   2.886   5.901   4.553
  762SOL    HW2 3186   2.946   5.750   4.541
  763SOL     OW 3187   5.446   0.686   6.860
  763SOL    HW1 3188   5.463   0.620   6.786
  763SOL    HW2 3189   5.470   0.644   6.947
  764SOL     OW 3190   5.247   6.565   5.032
  764SOL    HW1 3191   5.263   6.641   4.970
  764SOL    HW2 3192   5.237   6.481   4.980
  765SOL     OW 3193   0.357   6.704   0.639
  765SOL    HW1 3194   0.335   6.801   0.642
  765SOL    HW2 3195   0.331   6.661   0.725
  766SOL     OW 3196   1.669   2.344   5.393
  766SOL    HW1 3197   1.726   2.380   5.466
  766SOL    HW2 3198   1.573   2.347   5.421
  767SOL     OW 3199   0.345   6.815   4.112
  767SOL    HW1 3200   0.425   6.768   4.072
  767SOL    HW2 3201   0.290   6.853   4.038
  768SOL     OW 3202   2.711   5.988   2.809
  768SOL    HW1 3203   2.773   6.028   2.742
  768SOL    HW2 3204   2.666   5.908   2.769
  769SOL     OW 3205   2.844   2.263   4.924
  769SOL    HW1 3206   2.804   2.329   4.988
  769SOL    HW2 3207   2.943   2.262   4.935
  770SOL     OW 3208   1.727   4.846   4.669
  770SOL    HW1 3209   1.714   4.944   4.685
  770SOL    HW2 3210   1.821   4.829   4.639
  771SOL     OW 3211   1.197   5.959   3.074
  771SOL    HW1 3212   1.277   6.018   3.082
  771SOL    HW2 3213   1.214   5.888   3.006
  772SOL     OW 3214   5.228   4.338   0.202
  772SOL    HW1 3215   5.171   4.384   0.135
  772SOL    HW2 3216   5.170   4.293   0.270
  773SOL     OW 3217   0.582   3.742   3.591
  773SOL    HW1 3218   0.553   3.652   3.558
  773SOL    HW2 3219   0.600   3.737   3.690
  774SOL     OW 3220   2.618   0.247   3.154
  774SOL    HW1 3221   2.646   0.153   3.176
  774SOL    HW2 3222   2.519   0.251   3.146
  775SOL     OW 3223   2.053   4.212   3.914
  775SOL    HW1 3224   2.011   4.186   3.827
  775SOL    HW2 3225   2.006   4.164   3.988
  776SOL     OW 3226   2.582   5.965   6.465
  776SOL    HW1 3227   2.563   6.035   6.396
  776SOL    HW2 3228   2.572   6.005   6.556
  777SOL     OW 3229   1.946   3.806   0.133
  777SOL    HW1 3230   1.897   3.884   0.093
  777SOL    HW2 3231   2.033   3.794   0.085
  778SOL     OW 3232   3.216   6.932   1.498
  778SOL    HW1 3233   3.195   6.861   1.566
  778SOL    HW2 3234   3.143   6.934   1.429
  779SOL     OW 3235   0.345   1.875   2.812
  779SOL    HW1 3236   0.439   1.901   2.787
  779SOL    HW2 3237   0.346   1.785   2.854
  780SOL     OW 3238   1.426   1.690   5.396
  780SOL    HW1 3239   1.513   1.740   5.398
  780SOL    HW2 3240   1.404   1.657   5.487
  781SOL     OW 3241   0.815   4.012   1.047
  781SOL    HW1 3242   0.741   3.950   1.073
  781SOL    HW2 3243   0.789   4.063   0.965
  782SOL     OW 3244   1.714   3.484   5.732
  782SOL    HW1 3245   1.632   3.540   5.721
  782SOL    HW2 3246   1.721   3.420   5.656
  783SOL     OW 3247   5.682   4.580   6.580
  783SOL    HW1 3248   5.715   4.667   6.545
  783SOL    HW2 3249   5.695   4.576   6.679
  784SOL     OW 3250   3.264   6.374   0.207
  784SOL    HW1 3251   3.314   6.365   0.293
  784SOL    HW2 3252   3.169   6.347   0.221
  785SOL     OW 3253   0.846   6.853   4.665
  785SOL    HW1 3254   0.810   6.849   4.571
  785SOL    HW2 3255   0.862   6.761   4.698
  786SOL     OW 3256   0.024   1.338   3.338
  786SOL    HW1 3257   0.121   1.348   3.317
  786SOL    HW2 3258   0.013   1.279   3.418
  787SOL     OW 3259   2.690   0.199   0.670
  787SOL    HW1 3260   2.730   0.108   0.656
  787SOL    HW2 3261   2.611   0.210   0.610
  788SOL     OW 3262   3.595   3.134   1.360
  788SOL    HW1 3263   3.679   3.154   1.410
  788SOL    HW2 3264   3.519   3.183   1.401
  789SOL     OW 3265   4.337   5.471   1.714
  789SOL    HW1 3266   4.389   5.398   1.670
  789SOL    HW2 3267   4.288   5.524   1.644
  790SOL     OW 3268   0.867   3.074   2.731
  790SOL    HW1 3269   0.799   3.014   2.690
  790SOL    HW2 3270   0.914   3.126   2.660
  791SOL     OW 3271   3.005   5.298   4.880
  791SOL    HW1 3272   2.918   5.340   4.854
  791SOL    HW2 3273   3.015   5.211   4.831
  792SOL     OW 3274   0.806   1.169   0.995
  792SOL    HW1 3275   0.740   1.155   0.921
  792SOL    HW2 3276   0.802   1.264   1.026
  793SOL     OW 3277   3.171   6.121   3.840
  793SOL    HW1 3278   3.081   6.091   3.872
  793SOL    HW2 3279   3.200   6.064   3.763
  794SOL     OW 3280   3.183   3.507   3.389
  794SOL    HW1 3281   3.266   3.540   3.432
  794SOL    HW2 3282   3.206   3.465   3.300
  795SOL     OW 3283   4.092   0.180   6.121
  795SOL    HW1 3284   4.055   0.117   6.189
  795SOL    HW2 3285   4.165   0.135   6.070
  796SOL     OW 3286   1.442   3.610   6.711
  796SOL    HW1 3287   1.424   3.624   6.614
  796SOL    HW2 3288   1.373   3.549   6.750
  797SOL     OW 3289   5.153   6.376   1.079
  797SOL    HW1 3290   5.074   6.345   1.027
  797SOL    HW2 3291   5.160   6.476   1.074
  798SOL     OW 3292   3.776   6.850   0.187
  798SOL    HW1 3293   3.825   6.930   0.152
  798SOL    HW2 3294   3.842   6.786   0.225
  799SOL     OW 3295   1.475   2.264   6.342
  799SOL    HW1 3296   1.518   2.323   6.274
  799SOL    HW2 3297   1.395   2.310   6.380
  800SOL     OW 3298   6.186   2.381   1.370
  800SOL    HW1 3299   6.092   2.352   1.353
  800SOL    HW2 3300   6.196   2.413   1.464
  801SOL     OW 3301   2.098   5.566   5.399
  801SOL    HW1 3302   2.105   5.533   5.305
  801SOL    HW2 3303   2.018   5.525   5.442
  802SOL     OW 3304   6.031   2.851   7.014
  802SOL    HW1 3305   6.095   2.815   0.061
  802SOL    HW2 3306   6.015   2.784   6.942
  803SOL     OW 3307   2.523   1.546   5.462
  803SOL    HW1 3308   2.500   1.638   5.493
  803SOL    HW2 3309   2.616   1.546   5.425
  804SOL     OW 3310   6.188   0.614   1.722
  804SOL    HW1 3311   6.162   0.531   1.771
  804SOL    HW2 3312   6.224   0.682   1.787
  805SOL     OW 3313   3.684   0.564   3.669
  805SOL    HW1 3314   3.698   0.651   3.714
  805SOL    HW2 3315   3.772   0.525   3.642
  806SOL     OW 3316   1.785   6.301   5.504
  806SOL    HW1 3317   1.789   6.397   5.475
  806SOL    HW2 3318   1.692   6.279   5.534
  807SOL     OW 3319   0.958   6.079   5.815
  807SOL    HW1 3320   0.996   6.086   5.908
  807SOL    HW2 3321   0.940   6.171   5.780
  808SOL     OW 3322   5.557   3.032   0.367
  808SOL    HW1 3323   5.556   3.095   0.289
  808SOL    HW2 3324   5.649   3.028   0.405
  809SOL     OW 3325   1.293   4.819   0.259
  809SOL    HW1 3326   1.384   4.860   0.261
  809SOL    HW2 3327   1.245   4.846   0.176
  810SOL     OW 3328   3.423   3.520   0.072
  810SOL    HW1 3329   3.501   3.496   0.015
  810SOL    HW2 3330   3.389   3.439   0.119
  811SOL     OW 3331   5.409   4.725   4.012
  811SOL    HW1 3332   5.387   4.722   4.110
  811SOL    HW2 3333   5.470   4.803   3.995
  812SOL     OW 3334   0.599   2.567   1.750
  812SOL    HW1 3335   0.657   2.486   1.759
  812SOL    HW2 3336   0.503   2.538   1.742
  813SOL     OW 3337   1.292   1.980   4.863
  813SOL    HW1 3338   1.292   1.908   4.932
  813SOL    HW2 3339   1.339   1.948   4.781
  814SOL     OW 3340   1.011   4.990   3.461
  814SOL    HW1 3341   0.963   4.984   3.549
  814SOL    HW2 3342   0.994   5.079   3.421
  815SOL     OW 3343   4.700   2.009   3.587
  815SOL    HW1 3344   4.689   1.909   3.583
  815SOL    HW2 3345   4.611   2.051   3.604
  816SOL     OW 3346   5.450   3.904   6.925
  816SOL    HW1 3347   5.484   3.926   7.016
  816SOL    HW2 3348   5.356   3.870   6.932
  817SOL     OW 3349   0.846   4.839   6.766
  817SOL    HW1 3350   0.889   4.890   6.692
  817SOL    HW2 3351   0.784   4.770   6.728
  818SOL     OW 3352   6.173   2.506   4.249
  818SOL    HW1 3353   6.160   2.454   4.165
  818SOL    HW2 3354   6.097   2.569   4.261
  819SOL     OW 3355   5.317   2.765   2.176
  819SOL    HW1 3356   5.231   2.722   2.205
  819SOL    HW2 3357   5.313   2.863   2.195
  820SOL     OW 3358   2.337   1.929   5.020
  820SOL    HW1 3359   2.242   1.956   5.029
  820SOL    HW2 3360   2.387   1.999   4.970
  821SOL     OW 3361   5.735   3.486   5.045
  821SOL    HW1 3362   5.665   3.421   5.015
  821SOL    HW2 3363   5.826   3.448   5.026
  822SOL     OW 3364   0.647   4.313   3.309
  822SOL    HW1 3365   0.667   4.241   3.243
  822SOL    HW2 3366   0.585   4.380   3.267
  823SOL     OW 3367   0.946   3.691   5.894
  823SOL    HW1 3368   0.855   3.724   5.869
  823SOL    HW2 3369   0.970   3.611   5.838
  824SOL     OW 3370   5.683   1.519   5.813
  824SOL    HW1 3371   5.617   1.586   5.780
  824SOL    HW2 3372   5.776   1.549   5.792
  825SOL     OW 3373   0.117   5.702   0.820
  825SOL    HW1 3374   0.163   5.791   0.826
  825SOL    HW2 3375   0.126   5.654   0.907
  826SOL     OW 3376   3.570   1.114   5.311
  826SOL    HW1 3377   3.665   1.107   5.282
  826SOL    HW2 3378   3.511   1.119   5.231
  827SOL     OW 3379   3.382   3.821   4.024
  827SOL    HW1 3380   3.371   3.789   3.930
  827SOL    HW2 3381   3.414   3.745   4.081
  828SOL     OW 3382   6.276   5.720   5.322
  828SOL    HW1 3383   6.343   5.745   5.391
  828SOL    HW2 3384   6.232   5.634   5.348
  829SOL     OW 3385   3.648   2.834   2.612
  829SOL    HW1 3386   3.604   2.788   2.535
  829SOL    HW2 3387   3.605   2.923   2.627
  830SOL     OW 3388   6.564   4.778   0.240
  830SOL    HW1 3389   6.585   4.692   0.194
  830SOL    HW2 3390   6.533   4.845   0.172
  831SOL     OW 3391   5.636   6.463   1.160
  831SOL    HW1 3392   5.661   6.475   1.256
  831SOL    HW2 3393   5.536   6.459   1.152
  832SOL     OW 3394   3.106   2.146   4.758
  832SOL    HW1 3395   3.036   2.182   4.696
  832SOL    HW2 3396   3.114   2.205   4.838
  833SOL     OW 3397   2.154   3.266   6.316
  833SOL    HW1 3398   2.140   3.362   6.339
  833SOL    HW2 3399   2.078   3.211   6.352
  834SOL     OW 3400   4.935   3.710   6.614
  834SOL    HW1 3401   4.898   3.763   6.538
  834SOL    HW2 3402   4.997   3.640   6.579
  835SOL     OW 3403   0.511   6.422   4.362
  835SOL    HW1 3404   0.432   6.461   4.410
  835SOL    HW2 3405   0.553   6.351   4.420
  836SOL     OW 3406   3.169   1.151   4.619
  836SOL    HW1 3407   3.243   1.208   4.656
  836SOL    HW2 3408   3.120   1.107   4.695
  837SOL     OW 3409   1.417   0.746   0.811
  837SOL    HW1 3410   1.389   0.666   0.865
  837SOL    HW2 3411   1.516   0.753   0.811
  838SOL     OW 3412   2.072   5.835   3.119
  838SOL    HW1 3413   2.067   5.802   3.213
  838SOL    HW2 3414   2.138   5.780   3.068
  839SOL     OW 3415   1.597   1.839   0.684
  839SOL    HW1 3416   1.670   1.815   0.619
  839SOL    HW2 3417   1.630   1.908   0.748
  840SOL     OW 3418   5.021   5.921   0.080
  840SOL    HW1 3419   5.033   5.981   0.001
  840SOL    HW2 3420   4.971   5.839   0.053
  841SOL     OW 3421   3.918   5.175   5.889
  841SOL    HW1 3422   3.863   5.158   5.971
  841SOL    HW2 3423   4.005   5.126   5.897
  842SOL     OW 3424   3.101   0.166   0.143
  842SOL    HW1 3425   3.161   0.192   0.066
  842SOL    HW2 3426   3.091   0.243   0.205
  843SOL     OW 3427   1.549   1.719   2.604
  843SOL    HW1 3428   1.626   1.686   2.658
  843SOL    HW2 3429   1.502   1.792   2.652
  844SOL     OW 3430   6.268   0.253   1.109
  844SOL    HW1 3431   6.342   0.265   1.043
  844SOL    HW2 3432   6.250   0.155   1.122
  845SOL     OW 3433   3.545   1.542   2.653
  845SOL    HW1 3434   3.539   1.443   2.658
  845SOL    HW2 3435   3.627   1.568   2.602
  846SOL     OW 3436   2.986   2.074   0.348
  846SOL    HW1 3437   3.046   2.053   0.271
  846SOL    HW2 3438   3.040   2.070   0.433
  847SOL     OW 3439   2.429   4.719   1.375
  847SOL    HW1 3440   2.449   4.733   1.472
  847SOL    HW2 3441   2.365   4.643   1.364
  848SOL     OW 3442   6.784   5.812   6.760
  848SOL    HW1 3443   6.685   5.797   6.767
  848SOL    HW2 3444   6.802   5.910   6.760
  849SOL     OW 3445   5.805   4.087   0.189
  849SOL    HW1 3446   5.897   4.126   0.199
  849SOL    HW2 3447   5.750   4.148   0.132
  850SOL     OW 3448   0.569   0.742   5.777
  850SOL    HW1 3449   0.627   0.678   5.727
  850SOL    HW2 3450   0.524   0.804   5.713
  851SOL     OW 3451   6.763   3.265   6.006
  851SOL    HW1 3452   6.665   3.249   5.993
  851SOL    HW2 3453   6.793   3.336   5.942
  852SOL     OW 3454   0.219   3.882   2.141
  852SOL    HW1 3455   0.254   3.931   2.062
  852SOL    HW2 3456   0.275   3.801   2.158
  853SOL     OW 3457   2.489   4.248   0.262
  853SOL    HW1 3458   2.421   4.180   0.290
  853SOL    HW2 3459   2.557   4.205   0.202
  854SOL     OW 3460   5.428   6.495   6.545
  854SOL    HW1 3461   5.483   6.414   6.525
  854SOL    HW2 3462   5.345   6.468   6.593
  855SOL     OW 3463   5.900   0.867   0.263
  855SOL    HW1 3464   5.830   0.861   0.334
  855SOL    HW2 3465   5.954   0.950   0.277
  856SOL     OW 3466   2.046   6.198   0.268
  856SOL    HW1 3467   2.086   6.112   0.298
  856SOL    HW2 3468   1.954   6.181   0.231
  857SOL     OW 3469   6.514   5.051   5.018
  857SOL    HW1 3470   6.517   5.090   5.110
  857SOL    HW2 3471   6.419   5.051   4.985
  858SOL     OW 3472   3.676   3.920   0.336
  858SOL    HW1 3473   3.643   3.867   0.414
  858SOL    HW2 3474   3.770   3.949   0.352
  859SOL     OW 3475   4.283   6.734   5.303
  859SOL    HW1 3476   4.368   6.746   5.354
  859SOL    HW2 3477   4.243   6.645   5.325
  860SOL     OW 3478   5.541   3.159   5.941
  860SOL    HW1 3479   5.549   3.258   5.927
  860SOL    HW2 3480   5.581   3.112   5.862
  861SOL     OW 3481   2.331   6.418   2.571
  861SOL    HW1 3482   2.300   6.480   2.642
  861SOL    HW2 3483   2.274   6.429   2.489
  862SOL     OW 3484   1.398   4.337   3.503
  862SOL    HW1 3485   1.350   4.318   3.417
  862SOL    HW2 3486   1.413   4.436   3.511
  863SOL     OW 3487   7.005   0.904   6.598
  863SOL    HW1 3488   0.027   0.986   6.559
  863SOL    HW2 3489   0.049   0.828   6.593
  864SOL     OW 3490   5.563   0.204   5.275
  864SOL    HW1 3491   5.626   0.263   5.225
  864SOL    HW2 3492   5.481   0.256   5.299
  865SOL     OW 3493   2.130   6.108   4.557
  865SOL    HW1 3494   2.035   6.111   4.524
  865SOL    HW2 3495   2.131   6.108   4.657
  866SOL     OW 3496   2.723   6.247   2.260
  866SOL    HW1 3497   2.801   6.280   2.314
  866SOL    HW2 3498   2.655   6.207   2.321
  867SOL     OW 3499   5.999   1.940   0.199
  867SOL    HW1 3500   5.905   1.960   0.228
  867SOL    HW2 3501   6.011   1.841   0.192
  868SOL     OW 3502   6.736   2.429   2.204
  868SOL    HW1 3503   6.771   2.510   2.156
  868SOL    HW2 3504   6.778   2.425   2.295
  869SOL     OW 3505   0.050   3.945   3.526
  869SOL    HW1 3506   0.139   3.928   3.484
  869SOL    HW2 3507   0.046   4.040   3.558
  870SOL     OW 3508   3.476   5.244   1.523
  870SOL    HW1 3509   3.450   5.214   1.615
  870SOL    HW2 3510   3.546   5.183   1.486
  871SOL     OW 3511   4.546   1.965   3.226
  871SOL    HW1 3512   4.487   2.009   3.294
  871SOL    HW2 3513   4.522   1.869   3.218
  872SOL     OW 3514   6.926   2.648   4.421
  872SOL    HW1 3515   6.923   2.697   4.508
  872SOL    HW2 3516   6.986   2.697   4.357
  873SOL     OW 3517   4.438   6.537   6.223
  873SOL    HW1 3518   4.453   6.516   6.127
  873SOL    HW2 3519   4.460   6.456   6.278
  874SOL     OW 3520   4.870   4.107   0.560
  874SOL    HW1 3521   4.794   4.142   0.505
  874SOL    HW2 3522   4.849   4.015   0.591
  875SOL     OW 3523   4.884   5.545   0.533
  875SOL    HW1 3524   4.794   5.537   0.576
  875SOL    HW2 3525   4.927   5.454   0.529
  876SOL     OW 3526   0.335   6.235   1.913
  876SOL    HW1 3527   0.273   6.159   1.935
  876SOL    HW2 3528   0.430   6.203   1.918
  877SOL     OW 3529   2.855   4.484   6.885
  877SOL    HW1 3530   2.940   4.498   6.835
  877SOL    HW2 3531   2.790   4.555   6.860
  878SOL     OW 3532   4.163   6.628   4.349
  878SOL    HW1 3533   4.085   6.687   4.371
  878SOL    HW2 3534   4.154   6.541   4.397
  879SOL     OW 3535   4.934   0.479   0.355
  879SOL    HW1 3536   4.891   0.521   0.434
  879SOL    HW2 3537   5.034   0.489   0.362
  880SOL     OW 3538   2.977   3.278   2.881
  880SOL    HW1 3539   2.947   3.368   2.914
  880SOL    HW2 3540   2.934   3.260   2.792
  881SOL     OW 3541   4.453   2.511   5.826
  881SOL    HW1 3542   4.453   2.469   5.735
  881SOL    HW2 3543   4.439   2.441   5.895
  882SOL     OW 3544   0.863   3.591   4.987
  882SOL    HW1 3545   0.948   3.542   4.964
  882SOL    HW2 3546   0.824   3.553   5.071
  883SOL     OW 3547   3.186   0.274   2.758
  883SOL    HW1 3548   3.261   0.336   2.780
  883SOL    HW2 3549   3.135   0.253   2.842
  884SOL     OW 3550   4.805   2.742   5.169
  884SOL    HW1 3551   4.737   2.798   5.123
  884SOL    HW2 3552   4.802   2.759   5.267
  885SOL     OW 3553   3.302   1.375   6.001
  885SOL    HW1 3554   3.216   1.386   6.051
  885SOL    HW2 3555   3.375   1.354   6.065
  886SOL     OW 3556   3.570   0.884   6.949
  886SOL    HW1 3557   3.540   0.826   6.873
  886SOL    HW2 3558   3.654   0.931   6.924
  887SOL     OW 3559   4.360   0.835   3.856
  887SOL    HW1 3560   4.290   0.840   3.928
  887SOL    HW2 3561   4.334   0.896   3.781
  888SOL     OW 3562   0.670   0.587   3.224
  888SOL    HW1 3563   0.607   0.570   3.148
  888SOL    HW2 3564   0.666   0.511   3.288
  889SOL     OW 3565   0.586   4.172   6.651
  889SOL    HW1 3566   0.556   4.147   6.559
  889SOL    HW2 3567   0.645   4.099   6.688
  890SOL     OW 3568   2.104   5.947   3.588
  890SOL    HW1 3569   2.174   5.979   3.524
  890SOL    HW2 3570   2.013   5.967   3.551
  891SOL     OW 3571   5.519   5.572   0.687
  891SOL    HW1 3572   5.486   5.656   0.643
  891SOL    HW2 3573   5.613   5.585   0.718
  892SOL     OW 3574   2.432   4.026   5.585
  892SOL    HW1 3575   2.416   4.116   5.546
  892SOL    HW2 3576   2.530   4.005   5.584
  893SOL     OW 3577   2.503   6.452   3.078
  893SOL    HW1 3578   2.519   6.368   3.026
  893SOL    HW2 3579   2.457   6.431   3.163
  894SOL     OW 3580   1.435   4.235   1.477
  894SOL    HW1 3581   1.376   4.242   1.396
  894SOL    HW2 3582   1.408   4.155   1.531
  895SOL     OW 3583   0.464   5.462   3.138
  895SOL    HW1 3584   0.507   5.380   3.175
  895SOL    HW2 3585   0.527   5.539   3.145
  896SOL     OW 3586   6.621   5.584   6.508
  896SOL    HW1 3587   6.574   5.595   6.420
  896SOL    HW2 3588   6.572   5.637   6.578
  897SOL     OW 3589   5.322   0.769   0.592
  897SOL    HW1 3590   5.393   0.821   0.544
  897SOL    HW2 3591   5.364   0.706   0.656
  898SOL     OW 3592   3.400   5.165   3.096
  898SOL    HW1 3593   3.426   5.248   3.047
  898SOL    HW2 3594   3.406   5.181   3.195
  899SOL     OW 3595   0.810   5.308   6.118
  899SOL    HW1 3596   0.738   5.359   6.070
  899SOL    HW2 3597   0.826   5.221   6.070
  900SOL     OW 3598   6.176   6.945   0.111
  900SOL    HW1 3599   6.136   0.016   0.123
  900SOL    HW2 3600   6.106   6.875   0.128
  901SOL     OW 3601   1.868   0.947   2.482
  901SOL    HW1 3602   1.924   0.906   2.409
  901SOL    HW2 3603   1.777   0.967   2.447
  902SOL     OW 3604   6.101   3.439   0.729
  902SOL    HW1 3605   6.139   3.531   0.713
  902SOL    HW2 3606   6.108   3.386   0.645
  903SOL     OW 3607   6.860   2.199   0.088
  903SOL    HW1 3608   6.897   2.209   7.016
  903SOL    HW2 3609   6.768   2.158   0.083
  904SOL     OW 3610   3.067   2.036   3.985
  904SOL    HW1 3611   3.053   2.073   3.893
  904SOL    HW2 3612   3.025   2.097   4.052
  905SOL     OW 3613   5.859   2.594   0.164
  905SOL    HW1 3614   5.775   2.618   0.115
  905SOL    HW2 3615   5.838   2.577   0.260
  906SOL     OW 3616   0.410   2.349   5.524
  906SOL    HW1 3617   0.406   2.261   5.476
  906SOL    HW2 3618   0.476   2.409   5.480
  907SOL     OW 3619   4.963   3.527   0.003
  907SOL    HW1 3620   4.903   3.481   6.957
  907SOL    HW2 3621   4.909   3.583   0.065
  908SOL     OW 3622   2.643   4.661   2.173
  908SOL    HW1 3623   2.702   4.627   2.100
  908SOL    HW2 3624   2.550   4.625   2.160
  909SOL     OW 3625   4.402   5.103   6.031
  909SOL    HW1 3626   4.468   5.039   5.992
  909SOL    HW2 3627   4.418   5.112   6.129
  910SOL     OW 3628   2.468   2.643   1.853
  910SOL    HW1 3629   2.493   2.721   1.796
  910SOL    HW2 3630   2.546   2.580   1.859
  911SOL     OW 3631   1.892   6.099   6.193
  911SOL    HW1 3632   1.982   6.057   6.187
  911SOL    HW2 3633   1.864   6.105   6.289
  912SOL     OW 3634   5.093   2.970   3.576
  912SOL    HW1 3635   5.001   3.005   3.557
  912SOL    HW2 3636   5.160   3.024   3.524
  913SOL     OW 3637   5.379   6.629   3.048
  913SOL    HW1 3638   5.431   6.555   3.092
  913SOL    HW2 3639   5.371   6.610   2.950
  914SOL     OW 3640   2.497   0.094   6.607
  914SOL    HW1 3641   2.493   0.184   6.652
  914SOL    HW2 3642   2.558   0.099   6.528
  915SOL     OW 3643   5.790   5.560   0.746
  915SOL    HW1 3644   5.836   5.644   0.717
  915SOL    HW2 3645   5.859   5.495   0.780
  916SOL     OW 3646   0.866   2.281   2.499
  916SOL    HW1 3647   0.957   2.255   2.467
  916SOL    HW2 3648   0.810   2.309   2.422
  917SOL     OW 3649   0.586   6.993   0.667
  917SOL    HW1 3650   0.532   6.911   0.653
  917SOL    HW2 3651   0.643   6.983   0.748
  918SOL     OW 3652   1.913   6.155   0.930
  918SOL    HW1 3653   1.977   6.232   0.928
  918SOL    HW2 3654   1.819   6.190   0.931
  919SOL     OW 3655   5.751   1.774   3.300
  919SOL    HW1 3656   5.785   1.804   3.211
  919SOL    HW2 3657   5.708   1.852   3.347
  920SOL     OW 3658   2.582   4.932   1.836
  920SOL    HW1 3659   2.556   4.893   1.748
  920SOL    HW2 3660   2.679   4.914   1.853
  921SOL     OW 3661   5.313   5.838   4.268
  921SOL    HW1 3662   5.357   5.824   4.357
  921SOL    HW2 3663   5.280   5.750   4.233
  922SOL     OW 3664   3.653   3.853   3.955
  922SOL    HW1 3665   3.675   3.770   4.006
  922SOL    HW2 3666   3.554   3.860   3.945
  923SOL     OW 3667   2.065   2.588   5.466
  923SOL    HW1 3668   2.022   2.540   5.390
  923SOL    HW2 3669   2.096   2.521   5.535
  924SOL     OW 3670   6.782   3.818   2.294
  924SOL    HW1 3671   6.775   3.785   2.388
  924SOL    HW2 3672   6.701   3.872   2.271
  925SOL     OW 3673   6.030   1.627   0.215
  925SOL    HW1 3674   5.958   1.589   0.273
  925SOL    HW2 3675   6.011   1.603   0.119
  926SOL     OW 3676   0.488   1.459   1.934
  926SOL    HW1 3677   0.488   1.495   1.841
  926SOL    HW2 3678   0.428   1.514   1.992
  927SOL     OW 3679   5.512   3.876   3.550
  927SOL    HW1 3680   5.443   3.947   3.563
  927SOL    HW2 3681   5.479   3.789   3.587
  928SOL     OW 3682   3.280   5.984   6.425
  928SOL    HW1 3683   3.235   5.950   6.508
  928SOL    HW2 3684   3.376   6.005   6.446
  929SOL     OW 3685   6.575   1.448   5.819
  929SOL    HW1 3686   6.606   1.520   5.757
  929SOL    HW2 3687   6.653   1.393   5.849
  930SOL     OW 3688   5.083   5.072   6.426
  930SOL    HW1 3689   5.039   4.997   6.475
  930SOL    HW2 3690   5.014   5.128   6.381
  931SOL     OW 3691   6.446   2.923   3.364
  931SOL    HW1 3692   6.377   2.901   3.294
  931SOL    HW2 3693   6.518   2.978   3.323
  932SOL     OW 3694   4.190   0.484   3.618
  932SOL    HW1 3695   4.189   0.504   3.716
  932SOL    HW2 3696   4.177   0.386   3.605
  933SOL     OW 3697   1.444   4.931   2.731
  933SOL    HW1 3698   1.506   4.994   2.685
  933SOL    HW2 3699   1.439   4.845   2.679
  934SOL     OW 3700   1.665   5.284   6.457
  934SOL    HW1 3701   1.743   5.261   6.516
  934SOL    HW2 3702   1.634   5.377   6.477
  935SOL     OW 3703   5.385   3.457   3.317
  935SOL    HW1 3704   5.411   3.542   3.272
  935SOL    HW2 3705   5.455   3.388   3.301
  936SOL     OW 3706   1.734   0.340   6.814
  936SOL    HW1 3707   1.638   0.321   6.833
  936SOL    HW2 3708   1.749   0.438   6.809
  937SOL     OW 3709   5.297   0.839   5.468
  937SOL    HW1 3710   5.272   0.756   5.419
  937SOL    HW2 3711   5.317   0.912   5.403
  938SOL     OW 3712   6.166   5.237   4.535
  938SOL    HW1 3713   6.236   5.169   4.555
  938SOL    HW2 3714   6.165   5.306   4.608
  939SOL     OW 3715   0.265   0.006   5.083
  939SOL    HW1 3716   0.225   0.067   5.152
  939SOL    HW2 3717   0.194   6.994   5.021
  940SOL     OW 3718   2.338   5.122   0.678
  940SOL    HW1 3719   2.390   5.128   0.763
  940SOL    HW2 3720   2.322   5.025   0.656
  941SOL     OW 3721   3.812   0.177   6.559
  941SOL    HW1 3722   3.848   0.241   6.628
  941SOL    HW2 3723   3.713   0.181   6.558
  942SOL     OW 3724   6.789   5.317   0.243
  942SOL    HW1 3725   6.853   5.365   0.184
  942SOL    HW2 3726   6.837   5.245   0.292
  943SOL     OW 3727   3.164   4.886   2.907
  943SOL    HW1 3728   3.145   4.950   2.832
  943SOL    HW2 3729   3.257   4.851   2.898
  944SOL     OW 3730   0.759   6.533   4.311
  944SOL    HW1 3731   0.823   6.521   4.235
  944SOL    HW2 3732   0.678   6.476   4.297
  945SOL     OW 3733   1.055   5.761   6.400
  945SOL    HW1 3734   1.068   5.698   6.477
  945SOL    HW2 3735   1.106   5.728   6.321
  946SOL     OW 3736   4.754   4.115   3.623
  946SOL    HW1 3737   4.789   4.151   3.710
  946SOL    HW2 3738   4.702   4.032   3.639
  947SOL     OW 3739   3.788   4.045   4.087
  947SOL    HW1 3740   3.857   3.981   4.120
  947SOL    HW2 3741   3.731   4.000   4.018
  948SOL     OW 3742   4.555   1.393   2.534
  948SOL    HW1 3743   4.638   1.428   2.578
  948SOL    HW2 3744   4.557   1.293   2.534
  949SOL     OW 3745   3.160   6.456   6.607
  949SOL    HW1 3746   3.161   6.546   6.649
  949SOL    HW2 3747   3.122   6.463   6.514
  950SOL     OW 3748   6.941   6.252   2.185
  950SOL    HW1 3749   7.001   6.248   2.105
  950SOL    HW2 3750   6.956   6.337   2.235
  951SOL     OW 3751   1.751   0.026   3.568
  951SOL    HW1 3752   1.815   0.071   3.630
  951SOL    HW2 3753   1.711   6.966   3.615
  952SOL     OW 3754   3.813   1.438   1.847
  952SOL    HW1 3755   3.788   1.394   1.934
  952SOL    HW2 3756   3.750   1.513   1.828
  953SOL     OW 3757   6.661   5.093   5.303
  953SOL    HW1 3758   6.600   5.014   5.295
  953SOL    HW2 3759   6.741   5.081   5.244
  954SOL     OW 3760   4.936   5.815   2.741
  954SOL    HW1 3761   4.933   5.816   2.841
  954SOL    HW2 3762   5.030   5.798   2.711
  955SOL     OW 3763   1.329   4.711   6.815
  955SOL    HW1 3764   1.241   4.667   6.796
  955SOL    HW2 3765   1.393   4.689   6.742
  956SOL     OW 3766   6.709   0.864   1.356
  956SOL    HW1 3767   6.796   0.884   1.310
  956SOL    HW2 3768   6.634   0.907   1.307
  957SOL     OW 3769   6.459   2.444   3.973
  957SOL    HW1 3770   6.462   2.436   4.072
  957SOL    HW2 3771   6.364   2.440   3.942
  958SOL     OW 3772   5.305   6.834   2.168
  958SOL    HW1 3773   5.229   6.819   2.105
  958SOL    HW2 3774   5.386   6.787   2.133
  959SOL     OW 3775   3.672   6.874   4.258
  959SOL    HW1 3776   3.669   6.972   4.279
  959SOL    HW2 3777   3.702   6.861   4.164
  960SOL     OW 3778   0.820   0.493   0.226
  960SOL    HW1 3779   0.814   0.407   0.176
  960SOL    HW2 3780   0.735   0.509   0.276
  961SOL     OW 3781   3.521   6.510   2.736
  961SOL    HW1 3782   3.580   6.591   2.728
  961SOL    HW2 3783   3.450   6.527   2.803
  962SOL     OW 3784   6.725   0.278   4.799
  962SOL    HW1 3785   6.682   0.242   4.881
  962SOL    HW2 3786   6.656   0.322   4.742
  963SOL     OW 3787   4.739   3.027   1.169
  963SOL    HW1 3788   4.825   2.979   1.186
  963SOL    HW2 3789   4.674   3.009   1.243
  964SOL     OW 3790   4.941   4.482   4.952
  964SOL    HW1 3791   4.945   4.388   4.917
  964SOL    HW2 3792   5.031   4.523   4.947
  965SOL     OW 3793   5.762   2.606   3.653
  965SOL    HW1 3794   5.788   2.621   3.558
  965SOL    HW2 3795   5.678   2.551   3.657
  966SOL     OW 3796   5.018   2.207   3.989
  966SOL    HW1 3797   4.971   2.292   4.013
  966SOL    HW2 3798   5.069   2.220   3.904
  967SOL     OW 3799   5.260   4.193   6.331
  967SOL    HW1 3800   5.337   4.205   6.393
  967SOL    HW2 3801   5.181   4.244   6.365
  968SOL     OW 3802   3.583   0.418   1.269
  968SOL    HW1 3803   3.581   0.492   1.202
  968SOL    HW2 3804   3.532   0.339   1.232
  969SOL     OW 3805   3.442   4.259   5.796
  969SOL    HW1 3806   3.491   4.299   5.720
  969SOL    HW2 3807   3.394   4.331   5.847
  970SOL     OW 3808   5.972   0.316   6.269
  970SOL    HW1 3809   5.978   0.255   6.190
  970SOL    HW2 3810   5.880   0.313   6.308
  971SOL     OW 3811   6.125   4.096   2.657
  971SOL    HW1 3812   6.195   4.122   2.724
  971SOL    HW2 3813   6.035   4.115   2.694
  972SOL     OW 3814   0.460   2.764   0.895
  972SOL    HW1 3815   0.488   2.775   0.800
  972SOL    HW2 3816   0.379   2.706   0.899
  973SOL     OW 3817   0.001   3.576   6.269
  973SOL    HW1 3818   0.055   3.656   6.297
  973SOL    HW2 3819   6.930   3.605   6.242
  974SOL     OW 3820   6.568   4.899   4.219
  974SOL    HW1 3821   6.624   4.982   4.224
  974SOL    HW2 3822   6.612   4.826   4.270
  975SOL     OW 3823   2.094   6.991   2.061
  975SOL    HW1 3824   2.033   6.913   2.047
  975SOL    HW2 3825   2.153   6.973   2.140
  976SOL     OW 3826   6.562   3.935   2.154
  976SOL    HW1 3827   6.547   3.885   2.069
  976SOL    HW2 3828   6.611   4.020   2.134
  977SOL     OW 3829   0.228   1.140   2.509
  977SOL    HW1 3830   0.271   1.214   2.561
  977SOL    HW2 3831   0.211   1.063   2.570
  978SOL     OW 3832   5.535   2.499   2.099
  978SOL    HW1 3833   5.545   2.561   2.177
  978SOL    HW2 3834   5.602   2.425   2.107
  979SOL     OW 3835   6.461   3.804   0.254
  979SOL    HW1 3836   6.484   3.841   0.344
  979SOL    HW2 3837   6.399   3.868   0.207
  980SOL     OW 3838   3.460   1.664   5.122
  980SOL    HW1 3839   3.555   1.695   5.126
  980SOL    HW2 3840   3.413   1.689   5.207
  981SOL     OW 3841   6.734   6.671   5.329
  981SOL    HW1 3842   6.742   6.683   5.230
  981SOL    HW2 3843   6.639   6.649   5.352
  982SOL     OW 3844   0.146   1.503   5.041
  982SOL    HW1 3845   0.111   1.531   5.131
  982SOL    HW2 3846   0.119   1.571   4.973
  983SOL     OW 3847   0.224   4.223   3.919
  983SOL    HW1 3848   0.184   4.223   4.011
  983SOL    HW2 3849   0.278   4.139   3.906
  984SOL     OW 3850   1.745   1.780   3.037
  984SOL    HW1 3851   1.667   1.727   3.004
  984SOL    HW2 3852   1.825   1.762   2.979
  985SOL     OW 3853   6.200   3.383   4.352
  985SOL    HW1 3854   6.157   3.473   4.348
  985SOL    HW2 3855   6.297   3.391   4.333
  986SOL     OW 3856   5.307   4.404   1.051
  986SOL    HW1 3857   5.373   4.476   1.073
  986SOL    HW2 3858   5.352   4.315   1.054
  987SOL     OW 3859   6.141   4.983   3.634
  987SOL    HW1 3860   6.179   5.018   3.720
  987SOL    HW2 3861   6.143   5.054   3.564
  988SOL     OW 3862   3.052   4.017   1.590
  988SOL    HW1 3863   3.079   4.099   1.641
  988SOL    HW2 3864   2.963   3.985   1.623
  989SOL     OW 3865   0.411   1.482   1.225
  989SOL    HW1 3866   0.499   1.435   1.227
  989SOL    HW2 3867   0.351   1.442   1.295
  990SOL     OW 3868   4.128   0.256   3.430
  990SOL    HW1 3869   4.105   0.165   3.393
  990SOL    HW2 3870   4.160   0.246   3.524
  991SOL     OW 3871   6.516   4.396   3.923
  991SOL    HW1 3872   6.429   4.444   3.912
  991SOL    HW2 3873   6.510   4.335   4.002
  992SOL     OW 3874   0.490   2.678   1.207
  992SOL    HW1 3875   0.586   2.701   1.221
  992SOL    HW2 3876   0.435   2.761   1.206
  993SOL     OW 3877   1.949   5.445   0.814
  993SOL    HW1 3878   1.925   5.399   0.900
  993SOL    HW2 3879   2.045   5.472   0.816
  994SOL     OW 3880   3.261   6.740   0.667
  994SOL    HW1 3881   3.293   6.796   0.591
  994SOL    HW2 3882   3.335   6.728   0.733
  995SOL     OW 3883   5.387   3.509   5.626
  995SOL    HW1 3884   5.375   3.410   5.621
  995SOL    HW2 3885   5.320   3.554   5.567
  996SOL     OW 3886   3.575   6.195   5.805
  996SOL    HW1 3887   3.585   6.097   5.787
  996SOL    HW2 3888   3.528   6.239   5.728
  997SOL     OW 3889   1.667   5.732   3.955
  997SOL    HW1 3890   1.644   5.825   3.927
  997SOL    HW2 3891   1.642   5.720   4.051
  998SOL     OW 3892   5.717   0.283   6.299
  998SOL    HW1 3893   5.694   0.193   6.337
  998SOL    HW2 3894   5.702   0.281   6.200
  999SOL     OW 3895   4.868   3.678   1.886
  999SOL    HW1 3896   4.933   3.742   1.846
  999SOL    HW2 3897   4.796   3.657   1.820
 1000SOL     OW 3898   4.095   1.767   1.592
 1000SOL    HW1 3899   4.119   1.704   1.666
 1000SOL    HW2 3900   4.019   1.825   1.622
 1001SOL     OW 3901   2.407   6.655   2.186
 1001SOL    HW1 3902   2.437   6.619   2.274
 1001SOL    HW2 3903   2.485   6.697   2.139
 1002SOL     OW 3904   5.435   2.873   1.416
 1002SOL    HW1 3905   5.450   2.919   1.504
 1002SOL    HW2 3906   5.522   2.839   1.381
 1003SOL     OW 3907   0.575   6.492   2.827
 1003SOL    HW1 3908   0.495   6.466   2.881
 1003SOL    HW2 3909   0.612   6.411   2.781
 1004SOL     OW 3910   5.275   1.480   3.737
 1004SOL    HW1 3911   5.254   1.507   3.831
 1004SOL    HW2 3912   5.348   1.538   3.700
 1005SOL     OW 3913   1.426   4.790   4.292
 1005SOL    HW1 3914   1.373   4.841   4.359
 1005SOL    HW2 3915   1.514   4.835   4.277
 1006SOL     OW 3916   2.020   3.547   0.588
 1006SOL    HW1 3917   2.028   3.622   0.522
 1006SOL    HW2 3918   2.081   3.473   0.562
 1007SOL     OW 3919   4.340   1.939   6.428
 1007SOL    HW1 3920   4.416   2.004   6.432
 1007SOL    HW2 3921   4.376   1.845   6.428
 1008SOL     OW 3922   0.393   4.437   4.890
 1008SOL    HW1 3923   0.385   4.419   4.792
 1008SOL    HW2 3924   0.433   4.527   4.905
 1009SOL     OW 3925   6.381   5.181   5.622
 1009SOL    HW1 3926   6.446   5.242   5.666
 1009SOL    HW2 3927   6.346   5.223   5.539
 1010SOL     OW 3928   2.379   3.638   1.275
 1010SOL    HW1 3929   2.317   3.609   1.202
 1010SOL    HW2 3930   2.454   3.573   1.282
 1011SOL     OW 3931   0.390   4.776   2.908
 1011SOL    HW1 3932   0.480   4.794   2.871
 1011SOL    HW2 3933   0.327   4.754   2.834
 1012SOL     OW 3934   5.702   0.405   2.374
 1012SOL    HW1 3935   5.613   0.414   2.419
 1012SOL    HW2 3936   5.700   0.327   2.312
 1013SOL     OW 3937   6.471   0.998   6.597
 1013SOL    HW1 3938   6.429   0.990   6.507
 1013SOL    HW2 3939   6.553   0.941   6.602
 1014SOL     OW 3940   1.058   4.790   4.444
 1014SOL    HW1 3941   0.996   4.842   4.384
 1014SOL    HW2 3942   1.142   4.842   4.457
 1015SOL     OW 3943   3.673   6.819   6.303
 1015SOL    HW1 3944   3.621   6.799   6.220
 1015SOL    HW2 3945   3.610   6.845   6.376
 1016SOL     OW 3946   5.576   4.105   1.780
 1016SOL    HW1 3947   5.487   4.131   1.817
 1016SOL    HW2 3948   5.648   4.134   1.843
 1017SOL     OW 3949   2.399   1.528   2.656
 1017SOL    HW1 3950   2.316   1.490   2.696
 1017SOL    HW2 3951   2.382   1.552   2.560
 1018SOL     OW 3952   0.366   4.729   3.401
 1018SOL    HW1 3953   0.345   4.701   3.307
 1018SOL    HW2 3954   0.310   4.677   3.465
 1019SOL     OW 3955   0.110   5.221   0.832
 1019SOL    HW1 3956   0.153   5.144   0.786
 1019SOL    HW2 3957   0.059   5.275   0.765
 1020SOL     OW 3958   0.180   6.828   0.903
 1020SOL    HW1 3959   0.165   6.732   0.882
 1020SOL    HW2 3960   0.195   6.879   0.819
 1021SOL     OW 3961   6.408   6.065   1.950
 1021SOL    HW1 3962   6.428   5.970   1.927
 1021SOL    HW2 3963   6.399   6.118   1.866
 1022SOL     OW 3964   2.629   6.398   6.220
 1022SOL    HW1 3965   2.640   6.307   6.180
 1022SOL    HW2 3966   2.692   6.408   6.298
 1023SOL     OW 3967   0.504   1.663   3.451
 1023SOL    HW1 3968   0.415   1.654   3.407
 1023SOL    HW2 3969   0.512   1.754   3.493
 1024SOL     OW 3970   1.588   2.063   5.217
 1024SOL    HW1 3971   1.598   1.981   5.161
 1024SOL    HW2 3972   1.622   2.142   5.165
 1025SOL     OW 3973   4.546   3.633   0.007
 1025SOL    HW1 3974   4.559   3.571   0.084
 1025SOL    HW2 3975   4.615   3.616   6.957
 1026SOL     OW 3976   2.683   2.702   1.360
 1026SOL    HW1 3977   2.691   2.798   1.387
 1026SOL    HW2 3978   2.586   2.678   1.353
 1027SOL     OW 3979   0.748   6.476   1.190
 1027SOL    HW1 3980   0.732   6.380   1.213
 1027SOL    HW2 3981   0.696   6.533   1.254
 1028SOL     OW 3982   0.576   5.979   2.748
 1028SOL    HW1 3983   0.527   5.960   2.833
 1028SOL    HW2 3984   0.632   5.900   2.723
 1029SOL     OW 3985   1.093   1.793   5.840
 1029SOL    HW1 3986   1.178   1.835   5.807
 1029SOL    HW2 3987   1.021   1.861   5.843
 1030SOL     OW 3988   3.035   3.565   1.509
 1030SOL    HW1 3989   3.089   3.502   1.453
 1030SOL    HW2 3990   3.031   3.531   1.603
 1031SOL     OW 3991   3.375   3.389   1.519
 1031SOL    HW1 3992   3.455   3.352   1.565
 1031SOL    HW2 3993   3.397   3.407   1.423
 1032SOL     OW 3994   1.887   1.699   6.088
 1032SOL    HW1 3995   1.981   1.719   6.060
 1032SOL    HW2 3996   1.823   1.734   6.019
 1033SOL     OW 3997   0.771   6.022   2.031
 1033SOL    HW1 3998   0.720   6.089   1.976
 1033SOL    HW2 3999   0.713   5.943   2.049
 1034SOL     OW 4000   3.617   6.797   4.915
 1034SOL    HW1 4001   3.564   6.794   5.001
 1034SOL    HW2 4002   3.709   6.830   4.934
 1035SOL     OW 4003   0.568   1.536   5.825
 1035SOL    HW1 4004   0.526   1.553   5.736
 1035SOL    HW2 4005   0.620   1.616   5.854
 1036SOL     OW 4006   5.259   1.676   0.790
 1036SOL    HW1 4007   5.186   1.705   0.852
 1036SOL    HW2 4008   5.345   1.721   0.815
 1037SOL     OW 4009   1.399   2.256   3.047
 1037SOL    HW1 4010   1.447   2.170   3.035
 1037SOL    HW2 4011   1.464   2.332   3.045
 1038SOL     OW 4012   2.864   0.358   7.005
 1038SOL    HW1 4013   2.825   0.326   0.071
 1038SOL    HW2 4014   2.960   0.332   7.000
 1039SOL     OW 4015   3.578   3.438   3.769
 1039SOL    HW1 4016   3.568   3.343   3.799
 1039SOL    HW2 4017   3.649   3.443   3.699
 1040SOL     OW 4018   3.921   1.001   2.627
 1040SOL    HW1 4019   3.844   1.022   2.688
 1040SOL    HW2 4020   4.007   1.020   2.675
 1041SOL     OW 4021   6.820   6.132   5.837
 1041SOL    HW1 4022   6.831   6.227   5.863
 1041SOL    HW2 4023   6.777   6.081   5.912
 1042SOL     OW 4024   5.037   4.538   2.316
 1042SOL    HW1 4025   5.006   4.615   2.260
 1042SOL    HW2 4026   5.045   4.456   2.260
 1043SOL     OW 4027   3.342   1.390   3.625
 1043SOL    HW1 4028   3.434   1.429   3.632
 1043SOL    HW2 4029   3.347   1.290   3.629
 1044SOL     OW 4030   5.855   4.916   1.436
 1044SOL    HW1 4031   5.933   4.855   1.447
 1044SOL    HW2 4032   5.853   4.952   1.342
 1045SOL     OW 4033   2.476   0.467   4.122
 1045SOL    HW1 4034   2.532   0.394   4.084
 1045SOL    HW2 4035   2.530   0.551   4.128
 1046SOL     OW 4036   3.378   1.450   0.784
 1046SOL    HW1 4037   3.415   1.392   0.711
 1046SOL    HW2 4038   3.326   1.393   0.848
 1047SOL     OW 4039   3.615   0.138   3.197
 1047SOL    HW1 4040   3.536   0.077   3.199
 1047SOL    HW2 4041   3.600   0.213   3.261
 1048SOL     OW 4042   1.377   6.245   2.360
 1048SOL    HW1 4043   1.301   6.262   2.297
 1048SOL    HW2 4044   1.353   6.277   2.451
 1049SOL     OW 4045   4.234   6.791   5.030
 1049SOL    HW1 4046   4.242   6.760   5.125
 1049SOL    HW2 4047   4.261   6.888   5.025
 1050SOL     OW 4048   3.202   5.225   3.831
 1050SOL    HW1 4049   3.149   5.208   3.748
 1050SOL    HW2 4050   3.281   5.163   3.834
 1051SOL     OW 4051   0.132   0.169   0.355
 1051SOL    HW1 4052   0.178   0.154   0.268
 1051SOL    HW2 4053   0.108   0.266   0.364
 1052SOL     OW 4054   3.887   0.521   6.604
 1052SOL    HW1 4055   3.924   0.492   6.515
 1052SOL    HW2 4056   3.887   0.444   6.667
 1053SOL     OW 4057   5.917   3.603   2.715
 1053SOL    HW1 4058   5.840   3.594   2.651
 1053SOL    HW2 4059   6.003   3.585   2.668
 1054SOL     OW 4060   3.168   4.371   0.031
 1054SOL    HW1 4061   3.151   4.442   6.983
 1054SOL    HW2 4062   3.090   4.365   0.093
 1055SOL     OW 4063   4.440   5.807   6.566
 1055SOL    HW1 4064   4.447   5.894   6.517
 1055SOL    HW2 4065   4.346   5.774   6.565
 1056SOL     OW 4066   2.304   4.327   6.956
 1056SOL    HW1 4067   2.235   4.333   0.008
 1056SOL    HW2 4068   2.387   4.283   6.992
 1057SOL     OW 4069   3.137   1.620   1.595
 1057SOL    HW1 4070   3.066   1.555   1.624
 1057SOL    HW2 4071   3.112   1.712   1.625
 1058SOL     OW 4072   2.947   1.754   2.915
 1058SOL    HW1 4073   2.884   1.711   2.980
 1058SOL    HW2 4074   2.966   1.690   2.840
 1059SOL     OW 4075   2.427   5.743   1.510
 1059SOL    HW1 4076   2.491   5.713   1.581
 1059SOL    HW2 4077   2.477   5.794   1.440
 1060SOL     OW 4078   6.604   6.041   5.670
 1060SOL    HW1 4079   6.674   6.076   5.732
 1060SOL    HW2 4080   6.577   6.114   5.606
 1061SOL     OW 4081   6.615   3.947   0.449
 1061SOL    HW1 4082   6.702   3.959   0.401
 1061SOL    HW2 4083   6.632   3.945   0.547
 1062SOL     OW 4084   3.641   6.497   5.211
 1062SOL    HW1 4085   3.687   6.520   5.125
 1062SOL    HW2 4086   3.625   6.580   5.264
 1063SOL     OW 4087   1.583   6.344   5.697
 1063SOL    HW1 4088   1.546   6.314   5.785
 1063SOL    HW2 4089   1.652   6.414   5.713
 1064SOL     OW 4090   0.544   4.717   0.899
 1064SOL    HW1 4091   0.513   4.689   0.990
 1064SOL    HW2 4092   0.488   4.793   0.867
 1065SOL     OW 4093   4.120   0.230   4.608
 1065SOL    HW1 4094   4.047   0.279   4.655
 1065SOL    HW2 4095   4.189   0.202   4.675
 1066SOL     OW 4096   4.782   0.149   2.060
 1066SOL    HW1 4097   4.837   0.184   1.984
 1066SOL    HW2 4098   4.785   0.213   2.136
 1067SOL     OW 4099   2.951   1.188   0.326
 1067SOL    HW1 4100   2.878   1.215   0.389
 1067SOL    HW2 4101   3.014   1.265   0.313
 1068SOL     OW 4102   5.940   3.204   1.373
 1068SOL    HW1 4103   5.852   3.247   1.394
 1068SOL    HW2 4104   5.948   3.118   1.424
 1069SOL     OW 4105   6.544   4.190   1.611
 1069SOL    HW1 4106   6.626   4.135   1.628
 1069SOL    HW2 4107   6.569   4.287   1.608
 1070SOL     OW 4108   0.965   0.982   2.024
 1070SOL    HW1 4109   1.053   0.948   1.990
 1070SOL    HW2 4110   0.924   0.913   2.085
 1071SOL     OW 4111   0.035   2.736   5.148
 1071SOL    HW1 4112   6.969   2.783   5.133
 1071SOL    HW2 4113   0.087   2.732   5.062
 1072SOL     OW 4114   3.020   1.386   2.453
 1072SOL    HW1 4115   3.112   1.359   2.482
 1072SOL    HW2 4116   2.952   1.340   2.509
 1073SOL     OW 4117   5.119   1.528   3.480
 1073SOL    HW1 4118   5.198   1.513   3.421
 1073SOL    HW2 4119   5.116   1.457   3.551
 1074SOL     OW 4120   3.243   5.001   2.346
 1074SOL    HW1 4121   3.157   5.000   2.396
 1074SOL    HW2 4122   3.225   5.022   2.250
 1075SOL     OW 4123   5.810   2.669   5.093
 1075SOL    HW1 4124   5.882   2.671   5.024
 1075SOL    HW2 4125   5.822   2.588   5.150
 1076SOL     OW 4126   2.097   4.008   4.933
 1076SOL    HW1 4127   2.166   4.023   5.004
 1076SOL    HW2 4128   2.108   4.078   4.862
 1077SOL     OW 4129   6.578   0.257   0.460
 1077SOL    HW1 4130   6.505   0.205   0.416
 1077SOL    HW2 4131   6.657   0.264   0.398
 1078SOL     OW 4132   6.613   5.954   4.024
 1078SOL    HW1 4133   6.681   5.998   3.965
 1078SOL    HW2 4134   6.563   5.884   3.973
 1079SOL     OW 4135   0.989   5.730   2.912
 1079SOL    HW1 4136   1.086   5.738   2.889
 1079SOL    HW2 4137   0.951   5.821   2.931
 1080SOL     OW 4138   1.889   4.943   5.576
 1080SOL    HW1 4139   1.823   4.907   5.510
 1080SOL    HW2 4140   1.962   4.877   5.590
 1081SOL     OW 4141   6.153   5.692   4.741
 1081SOL    HW1 4142   6.253   5.688   4.736
 1081SOL    HW2 4143   6.125   5.787   4.752
 1082SOL     OW 4144   5.661   0.026   6.368
 1082SOL    HW1 4145   5.574   0.011   6.413
 1082SOL    HW2 4146   5.660   7.004   6.277
 1083SOL     OW 4147   5.255   4.080   0.818
 1083SOL    HW1 4148   5.158   4.104   0.827
 1083SOL    HW2 4149   5.263   3.981   0.805
 1084SOL     OW 4150   0.217   0.006   6.393
 1084SOL    HW1 4151   0.189   0.078   6.329
 1084SOL    HW2 4152   0.284   6.966   6.349
 1085SOL     OW 4153   1.970   4.055   4.121
 1085SOL    HW1 4154   1.899   4.021   4.182
 1085SOL    HW2 4155   2.038   3.984   4.105
 1086SOL     OW 4156   6.025   4.471   0.046
 1086SOL    HW1 4157   6.117   4.489   0.082
 1086SOL    HW2 4158   5.972   4.555   0.046
 1087SOL     OW 4159   1.923   0.639   5.658
 1087SOL    HW1 4160   1.960   0.731   5.641
 1087SOL    HW2 4161   1.902   0.630   5.755
 1088SOL     OW 4162   6.768   4.603   3.385
 1088SOL    HW1 4163   6.704   4.527   3.384
 1088SOL    HW2 4164   6.842   4.584   3.451
 1089SOL     OW 4165   6.343   4.309   4.779
 1089SOL    HW1 4166   6.269   4.246   4.804
 1089SOL    HW2 4167   6.430   4.273   4.812
 1090SOL     OW 4168   5.046   1.485   4.575
 1090SOL    HW1 4169   5.056   1.576   4.537
 1090SOL    HW2 4170   4.953   1.451   4.558
 1091SOL     OW 4171   2.298   2.808   3.602
 1091SOL    HW1 4172   2.331   2.732   3.546
 1091SOL    HW2 4173   2.293   2.779   3.698
 1092SOL     OW 4174   0.773   5.122   0.551
 1092SOL    HW1 4175   0.731   5.093   0.637
 1092SOL    HW2 4176   0.775   5.222   0.547
 1093SOL     OW 4177   2.238   0.004   1.238
 1093SOL    HW1 4178   2.257   6.932   1.203
 1093SOL    HW2 4179   2.220   7.019   1.336
 1094SOL     OW 4180   1.338   0.324   3.194
 1094SOL    HW1 4181   1.395   0.377   3.132
 1094SOL    HW2 4182   1.266   0.277   3.142
 1095SOL     OW 4183   6.963   3.145   0.051
 1095SOL    HW1 4184   7.019   3.174   0.128
 1095SOL    HW2 4185   6.990   3.194   6.988
 1096SOL     OW 4186   2.889   5.438   1.238
 1096SOL    HW1 4187   2.956   5.445   1.313
 1096SOL    HW2 4188   2.797   5.445   1.275
 1097SOL     OW 4189   2.501   5.258   3.414
 1097SOL    HW1 4190   2.588   5.253   3.464
 1097SOL    HW2 4191   2.446   5.178   3.437
 1098SOL     OW 4192   5.986   5.010   0.414
 1098SOL    HW1 4193   6.056   4.981   0.479
 1098SOL    HW2 4194   5.928   5.079   0.457
 1099SOL     OW 4195   4.742   1.329   6.250
 1099SOL    HW1 4196   4.724   1.310   6.154
 1099SOL    HW2 4197   4.711   1.422   6.272
 1100SOL     OW 4198   3.638   1.194   3.470
 1100SOL    HW1 4199   3.601   1.273   3.421
 1100SOL    HW2 4200   3.563   1.141   3.509
 1101SOL     OW 4201   6.081   2.915   5.931
 1101SOL    HW1 4202   5.990   2.897   5.968
 1101SOL    HW2 4203   6.117   3.000   5.971
 1102SOL     OW 4204   2.116   0.783   4.707
 1102SOL    HW1 4205   2.059   0.750   4.782
 1102SOL    HW2 4206   2.155   0.872   4.731
 1103SOL     OW 4207   3.102   0.495   6.565
 1103SOL    HW1 4208   3.088   0.594   6.568
 1103SOL    HW2 4209   3.074   0.459   6.477
 1104SOL     OW 4210   0.400   3.681   3.278
 1104SOL    HW1 4211   0.456   3.601   3.259
 1104SOL    HW2 4212   0.389   3.735   3.194
 1105SOL     OW 4213   5.306   1.182   4.839
 1105SOL    HW1 4214   5.319   1.086   4.864
 1105SOL    HW2 4215   5.392   1.220   4.806
 1106SOL     OW 4216   0.567   1.481   0.434
 1106SOL    HW1 4217   0.565   1.383   0.416
 1106SOL    HW2 4218   0.646   1.503   0.492
 1107SOL     OW 4219   0.370   0.679   0.047
 1107SOL    HW1 4220   0.459   0.676   0.003
 1107SOL    HW2 4221   0.314   0.603   0.015
 1108SOL     OW 4222   2.693   6.384   4.125
 1108SOL    HW1 4223   2.678   6.352   4.031
 1108SOL    HW2 4224   2.615   6.438   4.155
 1109SOL     OW 4225   5.123   1.726   4.474
 1109SOL    HW1 4226   5.200   1.758   4.419
 1109SOL    HW2 4227   5.101   1.796   4.543
 1110SOL     OW 4228   3.545   0.335   2.560
 1110SOL    HW1 4229   3.511   0.412   2.615
 1110SOL    HW2 4230   3.467   0.287   2.519
 1111SOL     OW 4231   4.738   3.589   6.138
 1111SOL    HW1 4232   4.675   3.531   6.086
 1111SOL    HW2 4233   4.729   3.570   6.236
 1112SOL     OW 4234   5.747   0.651   2.278
 1112SOL    HW1 4235   5.735   0.556   2.308
 1112SOL    HW2 4236   5.669   0.705   2.309
 1113SOL     OW 4237   6.231   4.685   2.200
 1113SOL    HW1 4238   6.177   4.724   2.125
 1113SOL    HW2 4239   6.176   4.684   2.284
 1114SOL     OW 4240   4.668   3.091   5.642
 1114SOL    HW1 4241   4.664   3.191   5.642
 1114SOL    HW2 4242   4.610   3.055   5.569
 1115SOL     OW 4243   2.963   4.144   5.942
 1115SOL    HW1 4244   3.006   4.069   5.994
 1115SOL    HW2 4245   2.941   4.112   5.850
 1116SOL     OW 4246   4.926   0.364   6.166
 1116SOL    HW1 4247   4.839   0.337   6.209
 1116SOL    HW2 4248   4.984   0.408   6.234
 1117SOL     OW 4249   0.958   2.719   1.717
 1117SOL    HW1 4250   1.048   2.760   1.707
 1117SOL    HW2 4251   0.894   2.787   1.755
 1118SOL     OW 4252   3.089   5.001   0.031
 1118SOL    HW1 4253   2.994   4.988   0.059
 1118SOL    HW2 4254   3.149   4.980   0.108
 1119SOL     OW 4255   3.999   5.322   3.624
 1119SOL    HW1 4256   3.982   5.256   3.551
 1119SOL    HW2 4257   4.072   5.384   3.597
 1120SOL     OW 4258   6.829   5.388   1.018
 1120SOL    HW1 4259   6.904   5.435   1.064
 1120SOL    HW2 4260   6.855   5.293   0.998
 1121SOL     OW 4261   0.267   4.521   4.342
 1121SOL    HW1 4262   0.300   4.614   4.329
 1121SOL    HW2 4263   0.204   4.518   4.420
 1122SOL     OW 4264   5.593   2.642   1.858
 1122SOL    HW1 4265   5.517   2.615   1.918
 1122SOL    HW2 4266   5.678   2.605   1.894
 1123SOL     OW 4267   4.066   2.265   3.182
 1123SOL    HW1 4268   4.054   2.251   3.084
 1123SOL    HW2 4269   4.009   2.199   3.232
 1124SOL     OW 4270   2.148   3.132   4.940
 1124SOL    HW1 4271   2.212   3.059   4.964
 1124SOL    HW2 4272   2.170   3.214   4.991
 1125SOL     OW 4273   1.059   3.865   4.076
 1125SOL    HW1 4274   1.132   3.915   4.029
 1125SOL    HW2 4275   1.095   3.779   4.112
 1126SOL     OW 4276   4.031   5.481   5.272
 1126SOL    HW1 4277   4.094   5.555   5.249
 1126SOL    HW2 4278   4.004   5.489   5.368
 1127SOL     OW 4279   5.488   6.032   3.239
 1127SOL    HW1 4280   5.511   6.126   3.263
 1127SOL    HW2 4281   5.563   5.971   3.267
 1128SOL     OW 4282   6.391   1.491   3.373
 1128SOL    HW1 4283   6.295   1.498   3.401
 1128SOL    HW2 4284   6.409   1.397   3.343
 1129SOL     OW 4285   1.765   0.414   1.085
 1129SOL    HW1 4286   1.793   0.335   1.030
 1129SOL    HW2 4287   1.841   0.441   1.145
 1130SOL     OW 4288   2.248   5.476   2.959
 1130SOL    HW1 4289   2.301   5.395   2.937
 1130SOL    HW2 4290   2.185   5.497   2.884
 1131SOL     OW 4291   1.309   6.465   4.399
 1131SOL    HW1 4292   1.320   6.383   4.343
 1131SOL    HW2 4293   1.376   6.534   4.371
 1132SOL     OW 4294   3.826   1.322   3.134
 1132SOL    HW1 4295   3.736   1.363   3.124
 1132SOL    HW2 4296   3.887   1.357   3.062
 1133SOL     OW 4297   0.683   6.621   5.033
 1133SOL    HW1 4298   0.585   6.636   5.048
 1133SOL    HW2 4299   0.695   6.562   4.953
 1134SOL     OW 4300   4.353   0.075   1.299
 1134SOL    HW1 4301   4.301   0.013   1.358
 1134SOL    HW2 4302   4.362   0.164   1.344
 1135SOL     OW 4303   1.867   6.035   3.780
 1135SOL    HW1 4304   1.780   6.060   3.820
 1135SOL    HW2 4305   1.936   6.103   3.804
 1136SOL     OW 4306   3.043   5.630   2.245
 1136SOL    HW1 4307   3.015   5.576   2.325
 1136SOL    HW2 4308   2.991   5.715   2.243
 1137SOL     OW 4309   0.482   5.377   6.722
 1137SOL    HW1 4310   0.510   5.303   6.661
 1137SOL    HW2 4311   0.533   5.460   6.699
 1138SOL     OW 4312   1.893   3.210   4.981
 1138SOL    HW1 4313   1.858   3.279   4.917
 1138SOL    HW2 4314   1.989   3.193   4.961
 1139SOL     OW 4315   2.808   5.273   4.297
 1139SOL    HW1 4316   2.876   5.200   4.303
 1139SOL    HW2 4317   2.819   5.322   4.211
 1140SOL     OW 4318   1.565   1.366   2.168
 1140SOL    HW1 4319   1.604   1.454   2.142
 1140SOL    HW2 4320   1.557   1.360   2.268
 1141SOL     OW 4321   5.917   4.919   5.648
 1141SOL    HW1 4322   5.986   4.970   5.699
 1141SOL    HW2 4323   5.961   4.873   5.571
 1142SOL     OW 4324   2.705   0.005   3.239
 1142SOL    HW1 4325   2.804   0.010   3.248
 1142SOL    HW2 4326   2.676   6.929   3.239
 1143SOL     OW 4327   0.954   3.887   1.724
 1143SOL    HW1 4328   0.959   3.982   1.696
 1143SOL    HW2 4329   0.909   3.833   1.653
 1144SOL     OW 4330   5.651   4.372   2.330
 1144SOL    HW1 4331   5.705   4.288   2.324
 1144SOL    HW2 4332   5.569   4.364   2.274
 1145SOL     OW 4333   0.738   1.857   6.758
 1145SOL    HW1 4334   0.693   1.796   6.822
 1145SOL    HW2 4335   0.827   1.884   6.794
 1146SOL     OW 4336   0.504   1.191   1.561
 1146SOL    HW1 4337   0.495   1.149   1.651
 1146SOL    HW2 4338   0.521   1.289   1.572
 1147SOL     OW 4339   3.107   6.260   1.159
 1147SOL    HW1 4340   3.118   6.264   1.060
 1147SOL    HW2 4341   3.097   6.165   1.188
 1148SOL     OW 4342   3.814   6.153   2.077
 1148SOL    HW1 4343   3.906   6.190   2.092
 1148SOL    HW2 4344   3.753   6.183   2.151
 1149SOL     OW 4345   5.190   2.257   1.627
 1149SOL    HW1 4346   5.276   2.307   1.636
 1149SOL    HW2 4347   5.148   2.280   1.539
 1150SOL     OW 4348   1.084   4.252   6.848
 1150SOL    HW1 4349   0.996   4.208   6.862
 1150SOL    HW2 4350   1.076   4.323   6.778
 1151SOL     OW 4351   6.588   5.432   3.460
 1151SOL    HW1 4352   6.506   5.473   3.419
 1151SOL    HW2 4353   6.578   5.428   3.559
 1152SOL     OW 4354   4.925   0.448   6.889
 1152SOL    HW1 4355   4.907   0.350   6.893
 1152SOL    HW2 4356   4.839   0.499   6.894
 1153SOL     OW 4357   6.414   0.520   1.033
 1153SOL    HW1 4358   6.417   0.486   1.127
 1153SOL    HW2 4359   6.426   0.443   0.970
 1154SOL     OW 4360   1.445   3.453   2.102
 1154SOL    HW1 4361   1.419   3.356   2.098
 1154SOL    HW2 4362   1.501   3.469   2.183
 1155SOL     OW 4363   2.648   6.714   4.615
 1155SOL    HW1 4364   2.665   6.619   4.591
 1155SOL    HW2 4365   2.615   6.719   4.709
 1156SOL     OW 4366   4.183   1.796   4.723
 1156SOL    HW1 4367   4.164   1.705   4.687
 1156SOL    HW2 4368   4.280   1.816   4.712
 1157SOL     OW 4369   3.986   0.408   5.770
 1157SOL    HW1 4370   3.932   0.335   5.813
 1157SOL    HW2 4371   3.925   0.482   5.741
 1158SOL     OW 4372   5.958   6.190   2.984
 1158SOL    HW1 4373   5.903   6.108   2.998
 1158SOL    HW2 4374   5.937   6.229   2.894
 1159SOL     OW 4375   6.697   6.089   2.591
 1159SOL    HW1 4376   6.621   6.091   2.656
 1159SOL    HW2 4377   6.730   5.995   2.580
 1160SOL     OW 4378   4.392   0.335   0.238
 1160SOL    HW1 4379   4.367   0.316   0.143
 1160SOL    HW2 4380   4.479   0.384   0.241
 1161SOL     OW 4381   0.217   5.461   0.114
 1161SOL    HW1 4382   0.143   5.396   0.128
 1161SOL    HW2 4383   0.303   5.420   0.144
 1162SOL     OW 4384   1.965   3.082   5.220
 1162SOL    HW1 4385   1.948   3.138   5.140
 1162SOL    HW2 4386   1.982   3.140   5.299
 1163SOL     OW 4387   6.171   4.257   1.565
 1163SOL    HW1 4388   6.110   4.310   1.625
 1163SOL    HW2 4389   6.126   4.172   1.539
 1164SOL     OW 4390   4.968   1.669   4.266
 1164SOL    HW1 4391   4.940   1.765   4.263
 1164SOL    HW2 4392   5.017   1.652   4.352
 1165SOL     OW 4393   3.802   6.060   3.563
 1165SOL    HW1 4394   3.900   6.061   3.541
 1165SOL    HW2 4395   3.787   6.113   3.646
 1166SOL     OW 4396   2.632   6.175   6.829
 1166SOL    HW1 4397   2.725   6.199   6.800
 1166SOL    HW2 4398   2.568   6.191   6.753
 1167SOL     OW 4399   5.202   4.545   2.591
 1167SOL    HW1 4400   5.199   4.620   2.656
 1167SOL    HW2 4401   5.109   4.518   2.566
 1168SOL     OW 4402   5.955   2.551   2.857
 1168SOL    HW1 4403   6.039   2.565   2.804
 1168SOL    HW2 4404   5.928   2.455   2.852
 1169SOL     OW 4405   5.517   0.758   5.013
 1169SOL    HW1 4406   5.453   0.805   4.952
 1169SOL    HW2 4407   5.608   0.798   5.004
 1170SOL     OW 4408   4.931   6.952   3.278
 1170SOL    HW1 4409   4.890   6.861   3.270
 1170SOL    HW2 4410   4.931   6.981   3.373
 1171SOL     OW 4411   1.299   0.817   1.119
 1171SOL    HW1 4412   1.267   0.741   1.062
 1171SOL    HW2 4413   1.385   0.791   1.163
 1172SOL     OW 4414   6.679   3.912   6.827
 1172SOL    HW1 4415   6.675   3.873   6.919
 1172SOL    HW2 4416   6.771   3.947   6.810
 1173SOL     OW 4417   2.818   1.557   1.600
 1173SOL    HW1 4418   2.771   1.622   1.659
 1173SOL    HW2 4419   2.858   1.484   1.656
 1174SOL     OW 4420   3.948   3.797   1.075
 1174SOL    HW1 4421   3.861   3.823   1.118
 1174SOL    HW2 4422   3.962   3.698   1.084
 1175SOL     OW 4423   3.760   3.082   5.221
 1175SOL    HW1 4424   3.860   3.093   5.223
 1175SOL    HW2 4425   3.738   2.993   5.181
 1176SOL     OW 4426   5.427   3.821   6.308
 1176SOL    HW1 4427   5.359   3.882   6.348
 1176SOL    HW2 4428   5.468   3.865   6.228
 1177SOL     OW 4429   6.312   2.035   4.653
 1177SOL    HW1 4430   6.217   2.036   4.684
 1177SOL    HW2 4431   6.357   2.120   4.680
 1178SOL     OW 4432   3.261   4.728   0.482
 1178SOL    HW1 4433   3.344   4.734   0.538
 1178SOL    HW2 4434   3.181   4.739   0.539
 1179SOL     OW 4435   2.685   5.356   0.479
 1179SOL    HW1 4436   2.659   5.381   0.573
 1179SOL    HW2 4437   2.604   5.320   0.431
 1180SOL     OW 4438   2.863   5.973   0.993
 1180SOL    HW1 4439   2.902   5.970   0.901
 1180SOL    HW2 4440   2.767   6.002   0.987
 1181SOL     OW 4441   0.703   5.538   6.665
 1181SOL    HW1 4442   0.700   5.590   6.580
 1181SOL    HW2 4443   0.735   5.596   6.739
 1182SOL     OW 4444   3.478   5.426   2.941
 1182SOL    HW1 4445   3.506   5.522   2.950
 1182SOL    HW2 4446   3.498   5.394   2.848
 1183SOL     OW 4447   1.943   4.081   6.507
 1183SOL    HW1 4448   1.977   4.167   6.544
 1183SOL    HW2 4449   1.845   4.088   6.490
 1184SOL     OW 4450   1.272   0.225   5.257
 1184SOL    HW1 4451   1.195   0.212   5.195
 1184SOL    HW2 4452   1.295   0.322   5.263
 1185SOL     OW 4453   6.896   1.408   6.753
 1185SOL    HW1 4454   6.827   1.464   6.800
 1185SOL    HW2 4455   6.851   1.348   6.688
 1186SOL     OW 4456   4.796   5.998   4.209
 1186SOL    HW1 4457   4.832   6.087   4.236
 1186SOL    HW2 4458   4.703   5.987   4.244
 1187SOL     OW 4459   6.669   7.017   6.183
 1187SOL    HW1 4460   6.768   0.007   6.172
 1187SOL    HW2 4461   6.631   6.971   6.103
 1188SOL     OW 4462   2.871   6.529   4.677
 1188SOL    HW1 4463   2.908   6.598   4.616
 1188SOL    HW2 4464   2.943   6.495   4.737
 1189SOL     OW 4465   6.711   3.422   2.777
 1189SOL    HW1 4466   6.654   3.361   2.832
 1189SOL    HW2 4467   6.784   3.460   2.833
 1190SOL     OW 4468   1.963   6.291   3.362
 1190SOL    HW1 4469   1.922   6.216   3.415
 1190SOL    HW2 4470   2.062   6.278   3.359
 1191SOL     OW 4471   4.056   5.383   3.195
 1191SOL    HW1 4472   4.022   5.367   3.103
 1191SOL    HW2 4473   4.097   5.299   3.231
 1192SOL     OW 4474   3.872   5.798   2.940
 1192SOL    HW1 4475   3.827   5.873   2.892
 1192SOL    HW2 4476   3.852   5.711   2.893
 1193SOL     OW 4477   5.907   4.678   4.364
 1193SOL    HW1 4478   5.990   4.630   4.392
 1193SOL    HW2 4479   5.827   4.632   4.403
 1194SOL     OW 4480   5.342   0.600   1.285
 1194SOL    HW1 4481   5.317   0.523   1.226
 1194SOL    HW2 4482   5.347   0.684   1.231
 1195SOL     OW 4483   5.961   4.147   1.861
 1195SOL    HW1 4484   5.996   4.237   1.838
 1195SOL    HW2 4485   5.876   4.156   1.913
 1196SOL     OW 4486   6.744   6.573   3.797
 1196SOL    HW1 4487   6.700   6.485   3.812
 1196SOL    HW2 4488   6.708   6.640   3.863
 1197SOL     OW 4489   3.738   0.539   6.935
 1197SOL    HW1 4490   3.812   0.584   6.984
 1197SOL    HW2 4491   3.670   0.506   7.000
 1198SOL     OW 4492   1.433   2.320   0.790
 1198SOL    HW1 4493   1.456   2.335   0.694
 1198SOL    HW2 4494   1.416   2.222   0.805
 1199SOL     OW 4495   4.987   4.971   1.513
 1199SOL    HW1 4496   4.971   5.024   1.596
 1199SOL    HW2 4497   4.948   5.019   1.434
 1200SOL     OW 4498   3.244   3.334   2.842
 1200SOL    HW1 4499   3.235   3.420   2.793
 1200SOL    HW2 4500   3.155   3.305   2.877
 1201SOL     OW 4501   1.295   1.345   4.796
 1201SOL    HW1 4502   1.360   1.364   4.868
 1201SOL    HW2 4503   1.257   1.430   4.761
 1202SOL     OW 4504   0.834   5.302   6.663
 1202SOL    HW1 4505   0.777   5.382   6.680
 1202SOL    HW2 4506   0.859   5.299   6.566
 1203SOL     OW 4507   4.769   5.910   6.194
 1203SOL    HW1 4508   4.825   5.990   6.172
 1203SOL    HW2 4509   4.746   5.861   6.110
 1204SOL     OW 4510   2.487   0.375   1.427
 1204SOL    HW1 4511   2.391   0.374   1.399
 1204SOL    HW2 4512   2.511   0.287   1.466
 1205SOL     OW 4513   5.249   4.185   1.667
 1205SOL    HW1 4514   5.238   4.145   1.576
 1205SOL    HW2 4515   5.296   4.119   1.726
 1206SOL     OW 4516   2.901   3.379   4.693
 1206SOL    HW1 4517   2.973   3.379   4.762
 1206SOL    HW2 4518   2.827   3.319   4.723
 1207SOL     OW 4519   2.364   6.829   1.457
 1207SOL    HW1 4520   2.399   6.763   1.391
 1207SOL    HW2 4521   2.424   6.832   1.536
 1208SOL     OW 4522   3.522   4.190   0.389
 1208SOL    HW1 4523   3.532   4.289   0.388
 1208SOL    HW2 4524   3.578   4.151   0.462
 1209SOL     OW 4525   3.621   0.359   5.366
 1209SOL    HW1 4526   3.636   0.438   5.426
 1209SOL    HW2 4527   3.657   0.277   5.410
 1210SOL     OW 4528   2.850   6.708   3.797
 1210SOL    HW1 4529   2.813   6.625   3.755
 1210SOL    HW2 4530   2.775   6.768   3.825
 1211SOL     OW 4531   1.071   3.972   1.070
 1211SOL    HW1 4532   1.114   4.051   1.026
 1211SOL    HW2 4533   0.972   3.974   1.054
 1212SOL     OW 4534   6.969   0.186   6.665
 1212SOL    HW1 4535   7.003   0.157   6.575
 1212SOL    HW2 4536   6.879   0.229   6.654
 1213SOL     OW 4537   6.041   2.599   0.619
 1213SOL    HW1 4538   6.024   2.590   0.717
 1213SOL    HW2 4539   6.139   2.583   0.601
 1214SOL     OW 4540   0.027   1.823   1.004
 1214SOL    HW1 4541   7.006   1.902   0.959
 1214SOL    HW2 4542   0.054   1.756   0.935
 1215SOL     OW 4543   1.536   4.561   4.475
 1215SOL    HW1 4544   1.606   4.516   4.420
 1215SOL    HW2 4545   1.468   4.603   4.414
 1216SOL     OW 4546   4.396   0.588   6.840
 1216SOL    HW1 4547   4.350   0.504   6.810
 1216SOL    HW2 4548   4.328   0.658   6.860
 1217SOL     OW 4549   2.096   4.717   0.629
 1217SOL    HW1 4550   2.056   4.632   0.664
 1217SOL    HW2 4551   2.033   4.793   0.647
 1218SOL     OW 4552   0.987   4.931   4.027
 1218SOL    HW1 4553   1.086   4.943   4.019
 1218SOL    HW2 4554   0.964   4.835   4.008
 1219SOL     OW 4555   4.792   6.082   1.809
 1219SOL    HW1 4556   4.701   6.049   1.833
 1219SOL    HW2 4557   4.789   6.182   1.798
 1220SOL     OW 4558   1.172   4.927   2.988
 1220SOL    HW1 4559   1.162   4.996   2.916
 1220SOL    HW2 4560   1.087   4.875   2.996
 1221SOL     OW 4561   5.648   3.030   5.403
 1221SOL    HW1 4562   5.718   2.975   5.358
 1221SOL    HW2 4563   5.624   2.988   5.491
 1222SOL     OW 4564   6.543   6.690   6.748
 1222SOL    HW1 4565   6.499   6.768   6.793
 1222SOL    HW2 4566   6.478   6.644   6.688
 1223SOL     OW 4567   3.671   6.848   0.489
 1223SOL    HW1 4568   3.736   6.836   0.564
 1223SOL    HW2 4569   3.716   6.895   0.413
 1224SOL     OW 4570   2.606   0.444   1.196
 1224SOL    HW1 4571   2.534   0.447   1.126
 1224SOL    HW2 4572   2.564   0.436   1.286
 1225SOL     OW 4573   3.292   3.705   6.153
 1225SOL    HW1 4574   3.242   3.691   6.067
 1225SOL    HW2 4575   3.377   3.653   6.151
 1226SOL     OW 4576   2.253   4.532   1.435
 1226SOL    HW1 4577   2.255   4.521   1.535
 1226SOL    HW2 4578   2.207   4.454   1.394
 1227SOL     OW 4579   6.826   3.549   6.934
 1227SOL    HW1 4580   6.780   3.496   7.006
 1227SOL    HW2 4581   6.791   3.642   6.933
 1228SOL     OW 4582   3.516   2.611   6.103
 1228SOL    HW1 4583   3.515   2.547   6.180
 1228SOL    HW2 4584   3.591   2.589   6.041
 1229SOL     OW 4585   4.209   4.804   6.442
 1229SOL    HW1 4586   4.115   4.831   6.424
 1229SOL    HW2 4587   4.257   4.790   6.355
 1230SOL     OW 4588   4.358   6.916   3.632
 1230SOL    HW1 4589   4.302   6.986   3.676
 1230SOL    HW2 4590   4.322   6.898   3.540
 1231SOL     OW 4591   2.050   3.574   4.941
 1231SOL    HW1 4592   1.993   3.651   4.970
 1231SOL    HW2 4593   2.118   3.555   5.012
 1232SOL     OW 4594   1.425   2.636   5.255
 1232SOL    HW1 4595   1.387   2.545   5.270
 1232SOL    HW2 4596   1.461   2.642   5.162
 1233SOL     OW 4597   1.124   2.416   5.591
 1233SOL    HW1 4598   1.030   2.452   5.595
 1233SOL    HW2 4599   1.147   2.376   5.679
 1234SOL     OW 4600   6.412   4.397   4.509
 1234SOL    HW1 4601   6.341   4.377   4.441
 1234SOL    HW2 4602   6.373   4.388   4.601
 1235SOL     OW 4603   6.410   5.889   3.347
 1235SOL    HW1 4604   6.458   5.807   3.377
 1235SOL    HW2 4605   6.446   5.919   3.259
 1236SOL     OW 4606   5.036   0.833   6.318
 1236SOL    HW1 4607   5.070   0.816   6.226
 1236SOL    HW2 4608   5.022   0.932   6.330
 1237SOL     OW 4609   2.632   4.999   6.334
 1237SOL    HW1 4610   2.554   5.001   6.271
 1237SOL    HW2 4611   2.651   4.904   6.361
 1238SOL     OW 4612   2.031   1.599   1.200
 1238SOL    HW1 4613   1.932   1.593   1.212
 1238SOL    HW2 4614   2.064   1.688   1.234
 1239SOL     OW 4615   0.081   6.079   6.610
 1239SOL    HW1 4616   0.097   6.023   6.691
 1239SOL    HW2 4617   0.139   6.047   6.535
 1240SOL     OW 4618   5.541   5.927   1.793
 1240SOL    HW1 4619   5.513   6.022   1.776
 1240SOL    HW2 4620   5.460   5.872   1.813
 1241SOL     OW 4621   6.460   3.339   4.415
 1241SOL    HW1 4622   6.491   3.312   4.506
 1241SOL    HW2 4623   6.530   3.394   4.370
 1242SOL     OW 4624   1.423   3.617   0.585
 1242SOL    HW1 4625   1.406   3.631   0.487
 1242SOL    HW2 4626   1.465   3.699   0.623
 1243SOL     OW 4627   2.141   5.288   5.253
 1243SOL    HW1 4628   2.061   5.272   5.311
 1243SOL    HW2 4629   2.122   5.361   5.188
 1244SOL     OW 4630   0.409   0.982   3.264
 1244SOL    HW1 4631   0.499   0.952   3.297
 1244SOL    HW2 4632   0.390   0.937   3.176
 1245SOL     OW 4633   2.821   3.686   0.081
 1245SOL    HW1 4634   2.871   3.610   0.040
 1245SOL    HW2 4635   2.826   3.765   0.020
 1246SOL     OW 4636   2.188   6.563   1.922
 1246SOL    HW1 4637   2.235   6.477   1.939
 1246SOL    HW2 4638   2.120   6.550   1.850
 1247SOL     OW 4639   2.200   6.736   6.315
 1247SOL    HW1 4640   2.214   6.658   6.255
 1247SOL    HW2 4641   2.250   6.722   6.400
 1248SOL     OW 4642   1.713   5.585   2.986
 1248SOL    HW1 4643   1.756   5.668   3.022
 1248SOL    HW2 4644   1.750   5.505   3.034
 1249SOL     OW 4645   5.978   3.286   3.160
 1249SOL    HW1 4646   6.063   3.334   3.182
 1249SOL    HW2 4647   5.905   3.353   3.143
 1250SOL     OW 4648   1.298   4.905   4.046
 1250SOL    HW1 4649   1.379   4.871   3.997
 1250SOL    HW2 4650   1.290   4.858   4.134
 1251SOL     OW 4651   4.025   0.859   4.376
 1251SOL    HW1 4652   3.999   0.893   4.286
 1251SOL    HW2 4653   3.988   0.919   4.447
 1252SOL     OW 4654   3.172   4.125   5.741
 1252SOL    HW1 4655   3.132   4.166   5.823
 1252SOL    HW2 4656   3.266   4.158   5.731
 1253SOL     OW 4657   3.619   5.187   2.257
 1253SOL    HW1 4658   3.566   5.117   2.304
 1253SOL    HW2 4659   3.664   5.246   2.324
 1254SOL     OW 4660   6.297   2.329   2.814
 1254SOL    HW1 4661   6.220   2.291   2.865
 1254SOL    HW2 4662   6.341   2.256   2.760
 1255SOL     OW 4663   0.392   0.144   5.704
 1255SOL    HW1 4664   0.389   0.207   5.625
 1255SOL    HW2 4665   0.316   0.079   5.697
 1256SOL     OW 4666   6.408   0.077   3.259
 1256SOL    HW1 4667   6.324   0.108   3.212
 1256SOL    HW2 4668   6.425   7.001   3.236
 1257SOL     OW 4669   6.915   0.665   3.538
 1257SOL    HW1 4670   6.844   0.680   3.606
 1257SOL    HW2 4671   6.974   0.590   3.567
 1258SOL     OW 4672   0.701   6.868   3.320
 1258SOL    HW1 4673   0.691   6.884   3.221
 1258SOL    HW2 4674   0.783   6.915   3.353
 1259SOL     OW 4675   3.977   1.855   4.920
 1259SOL    HW1 4676   4.049   1.862   4.852
 1259SOL    HW2 4677   3.889   1.841   4.874
 1260SOL     OW 4678   1.069   1.339   0.062
 1260SOL    HW1 4679   1.131   1.271   0.102
 1260SOL    HW2 4680   1.075   1.424   0.114
 1261SOL     OW 4681   0.520   5.351   0.628
 1261SOL    HW1 4682   0.496   5.312   0.539
 1261SOL    HW2 4683   0.472   5.438   0.641
 1262SOL     OW 4684   5.453   5.493   1.844
 1262SOL    HW1 4685   5.373   5.501   1.785
 1262SOL    HW2 4686   5.438   5.546   1.928
 1263SOL     OW 4687   1.073   2.194   3.714
 1263SOL    HW1 4688   1.091   2.213   3.810
 1263SOL    HW2 4689   1.131   2.252   3.657
 1264SOL     OW 4690   1.022   2.958   5.285
 1264SOL    HW1 4691   1.052   2.875   5.333
 1264SOL    HW2 4692   0.923   2.971   5.300
 1265SOL     OW 4693   5.984   6.013   5.370
 1265SOL    HW1 4694   5.888   5.984   5.382
 1265SOL    HW2 4695   5.991   6.075   5.293
 1266SOL     OW 4696   1.249   0.684   5.005
 1266SOL    HW1 4697   1.201   0.765   5.038
 1266SOL    HW2 4698   1.335   0.674   5.055
 1267SOL     OW 4699   4.790   0.289   2.323
 1267SOL    HW1 4700   4.762   0.228   2.398
 1267SOL    HW2 4701   4.889   0.285   2.312
 1268SOL     OW 4702   4.314   2.284   5.291
 1268SOL    HW1 4703   4.403   2.323   5.313
 1268SOL    HW2 4704   4.254   2.354   5.252
 1269SOL     OW 4705   6.203   2.133   3.691
 1269SOL    HW1 4706   6.130   2.069   3.714
 1269SOL    HW2 4707   6.265   2.090   3.625
 1270SOL     OW 4708   0.774   4.505   2.646
 1270SOL    HW1 4709   0.695   4.454   2.611
 1270SOL    HW2 4710   0.750   4.549   2.733
 1271SOL     OW 4711   1.476   1.494   1.601
 1271SOL    HW1 4712   1.549   1.426   1.608
 1271SOL    HW2 4713   1.391   1.448   1.575
 1272SOL     OW 4714   6.801   4.101   0.144
 1272SOL    HW1 4715   6.855   4.027   0.106
 1272SOL    HW2 4716   6.822   4.111   0.241
 1273SOL     OW 4717   1.769   4.028   5.107
 1273SOL    HW1 4718   1.840   4.064   5.167
 1273SOL    HW2 4719   1.707   4.102   5.080
 1274SOL     OW 4720   0.771   4.742   2.257
 1274SOL    HW1 4721   0.731   4.819   2.305
 1274SOL    HW2 4722   0.718   4.722   2.174
 1275SOL     OW 4723   3.022   0.443   3.058
 1275SOL    HW1 4724   3.010   0.356   3.011
 1275SOL    HW2 4725   2.941   0.464   3.112
 1276SOL     OW 4726   5.130   4.413   4.107
 1276SOL    HW1 4727   5.147   4.360   4.024
 1276SOL    HW2 4728   5.217   4.437   4.150
 1277SOL     OW 4729   0.232   5.971   0.180
 1277SOL    HW1 4730   0.214   6.012   0.090
 1277SOL    HW2 4731   0.216   5.873   0.176
 1278SOL     OW 4732   1.578   6.258   2.787
 1278SOL    HW1 4733   1.535   6.316   2.718
 1278SOL    HW2 4734   1.589   6.309   2.872
 1279SOL     OW 4735   2.807   2.299   6.536
 1279SOL    HW1 4736   2.794   2.283   6.438
 1279SOL    HW2 4737   2.896   2.340   6.552
 1280SOL     OW 4738   3.221   1.407   3.358
 1280SOL    HW1 4739   3.235   1.377   3.452
 1280SOL    HW2 4740   3.126   1.391   3.330
 1281SOL     OW 4741   3.924   5.896   4.062
 1281SOL    HW1 4742   3.863   5.955   4.114
 1281SOL    HW2 4743   3.950   5.942   3.977
 1282SOL     OW 4744   0.168   2.671   0.894
 1282SOL    HW1 4745   0.156   2.666   0.993
 1282SOL    HW2 4746   0.127   2.755   0.859
 1283SOL     OW 4747   6.165   3.228   5.193
 1283SOL    HW1 4748   6.143   3.167   5.269
 1283SOL    HW2 4749   6.160   3.323   5.222
 1284SOL     OW 4750   4.007   1.914   1.304
 1284SOL    HW1 4751   4.083   1.849   1.316
 1284SOL    HW2 4752   3.930   1.886   1.361
 1285SOL     OW 4753   3.502   1.525   4.581
 1285SOL    HW1 4754   3.495   1.493   4.675
 1285SOL    HW2 4755   3.508   1.447   4.519
 1286SOL     OW 4756   4.789   2.190   2.112
 1286SOL    HW1 4757   4.831   2.104   2.142
 1286SOL    HW2 4758   4.690   2.179   2.109
 1287SOL     OW 4759   6.572   4.239   4.910
 1287SOL    HW1 4760   6.668   4.212   4.898
 1287SOL    HW2 4761   6.540   4.208   5.000
 1288SOL     OW 4762   4.332   4.080   6.598
 1288SOL    HW1 4763   4.420   4.082   6.647
 1288SOL    HW2 4764   4.330   4.154   6.531
 1289SOL     OW 4765   0.075   0.184   1.961
 1289SOL    HW1 4766   0.014   0.256   1.994
 1289SOL    HW2 4767   0.039   0.148   1.875
 1290SOL     OW 4768   1.102   0.111   6.893
 1290SOL    HW1 4769   1.085   0.049   6.970
 1290SOL    HW2 4770   1.194   0.095   6.857
 1291SOL     OW 4771   6.796   5.166   2.817
 1291SOL    HW1 4772   6.854   5.234   2.861
 1291SOL    HW2 4773   6.787   5.086   2.877
 1292SOL     OW 4774   1.053   6.048   2.387
 1292SOL    HW1 4775   1.054   6.137   2.340
 1292SOL    HW2 4776   1.142   6.004   2.374
 1293SOL     OW 4777   3.036   1.192   6.645
 1293SOL    HW1 4778   3.125   1.147   6.639
 1293SOL    HW2 4779   3.035   1.271   6.583
 1294SOL     OW 4780   2.020   4.039   5.672
 1294SOL    HW1 4781   2.090   3.969   5.685
 1294SOL    HW2 4782   2.015   4.063   5.575
 1295SOL     OW 4783   0.057   3.507   0.930
 1295SOL    HW1 4784   0.063   3.590   0.985
 1295SOL    HW2 4785   0.137   3.449   0.949
 1296SOL     OW 4786   5.554   6.791   6.228
 1296SOL    HW1 4787   5.501   6.753   6.152
 1296SOL    HW2 4788   5.571   6.720   6.296
 1297SOL     OW 4789   0.354   0.213   2.268
 1297SOL    HW1 4790   0.433   0.254   2.315
 1297SOL    HW2 4791   0.280   0.280   2.263
 1298SOL     OW 4792   5.646   5.296   2.148
 1298SOL    HW1 4793   5.714   5.263   2.214
 1298SOL    HW2 4794   5.652   5.395   2.141
 1299SOL     OW 4795   1.784   3.568   4.630
 1299SOL    HW1 4796   1.708   3.590   4.691
 1299SOL    HW2 4797   1.750   3.562   4.536
 1300SOL     OW 4798   1.391   4.554   1.367
 1300SOL    HW1 4799   1.305   4.503   1.376
 1300SOL    HW2 4800   1.451   4.532   1.444
 1301SOL     OW 4801   0.848   0.945   1.674
 1301SOL    HW1 4802   0.815   0.991   1.757
 1301SOL    HW2 4803   0.908   1.007   1.623
 1302SOL     OW 4804   5.385   6.189   5.756
 1302SOL    HW1 4805   5.327   6.197   5.838
 1302SOL    HW2 4806   5.446   6.267   5.751
 1303SOL     OW 4807   4.351   6.595   1.659
 1303SOL    HW1 4808   4.389   6.580   1.568
 1303SOL    HW2 4809   4.261   6.637   1.651
 1304SOL     OW 4810   0.372   0.970   1.197
 1304SOL    HW1 4811   0.377   0.939   1.102
 1304SOL    HW2 4812   0.276   0.976   1.225
 1305SOL     OW 4813   5.458   3.888   0.194
 1305SOL    HW1 4814   5.415   3.803   0.223
 1305SOL    HW2 4815   5.452   3.955   0.267
 1306SOL     OW 4816   1.741   5.666   4.629
 1306SOL    HW1 4817   1.659   5.694   4.678
 1306SOL    HW2 4818   1.773   5.741   4.571
 1307SOL     OW 4819   2.184   2.452   4.032
 1307SOL    HW1 4820   2.137   2.386   4.091
 1307SOL    HW2 4821   2.116   2.498   3.975
 1308SOL     OW 4822   6.729   5.352   6.029
 1308SOL    HW1 4823   6.684   5.262   6.027
 1308SOL    HW2 4824   6.796   5.354   6.103
 1309SOL     OW 4825   5.166   4.681   6.450
 1309SOL    HW1 4826   5.251   4.650   6.491
 1309SOL    HW2 4827   5.115   4.736   6.516
 1310SOL     OW 4828   1.033   4.083   4.204
 1310SOL    HW1 4829   1.049   3.989   4.175
 1310SOL    HW2 4830   1.119   4.124   4.234
 1311SOL     OW 4831   6.616   5.621   0.005
 1311SOL    HW1 4832   6.695   5.661   0.053
 1311SOL    HW2 4833   6.648   5.569   6.946
 1312SOL     OW 4834   1.937   0.946   5.722
 1312SOL    HW1 4835   1.850   0.947   5.772
 1312SOL    HW2 4836   2.010   0.917   5.784
 1313SOL     OW 4837   6.689   5.363   3.114
 1313SOL    HW1 4838   6.685   5.293   3.185
 1313SOL    HW2 4839   6.762   5.340   3.049
 1314SOL     OW 4840   2.701   1.899   4.815
 1314SOL    HW1 4841   2.668   1.974   4.873
 1314SOL    HW2 4842   2.800   1.906   4.806
 1315SOL     OW 4843   5.723   0.460   4.483
 1315SOL    HW1 4844   5.692   0.400   4.557
 1315SOL    HW2 4845   5.655   0.460   4.410
 1316SOL     OW 4846   4.343   0.745   5.017
 1316SOL    HW1 4847   4.384   0.833   4.995
 1316SOL    HW2 4848   4.243   0.751   5.006
 1317SOL     OW 4849   2.624   2.974   5.751
 1317SOL    HW1 4850   2.666   3.039   5.687
 1317SOL    HW2 4851   2.526   2.970   5.735
 1318SOL     OW 4852   1.860   2.868   6.728
 1318SOL    HW1 4853   1.827   2.837   6.818
 1318SOL    HW2 4854   1.838   2.800   6.659
 1319SOL     OW 4855   6.850   6.240   0.753
 1319SOL    HW1 4856   6.758   6.201   0.752
 1319SOL    HW2 4857   6.859   6.307   0.679
 1320SOL     OW 4858   3.216   2.693   6.075
 1320SOL    HW1 4859   3.217   2.738   5.986
 1320SOL    HW2 4860   3.309   2.668   6.101
 1321SOL     OW 4861   5.717   2.278   6.592
 1321SOL    HW1 4862   5.748   2.356   6.538
 1321SOL    HW2 4863   5.713   2.197   6.533
 1322SOL     OW 4864   3.471   1.242   6.984
 1322SOL    HW1 4865   3.448   1.332   0.001
 1322SOL    HW2 4866   3.388   1.198   6.950
 1323SOL     OW 4867   3.528   0.427   0.587
 1323SOL    HW1 4868   3.550   0.495   0.517
 1323SOL    HW2 4869   3.434   0.395   0.573
 1324SOL     OW 4870   1.136   3.569   0.089
 1324SOL    HW1 4871   1.229   3.561   0.053
 1324SOL    HW2 4872   1.089   3.646   0.045
 1325SOL     OW 4873   2.410   5.740   6.488
 1325SOL    HW1 4874   2.497   5.787   6.479
 1325SOL    HW2 4875   2.416   5.673   6.562
 1326SOL     OW 4876   4.856   4.143   3.942
 1326SOL    HW1 4877   4.859   4.108   4.036
 1326SOL    HW2 4878   4.811   4.232   3.941
 1327SOL     OW 4879   0.190   6.608   1.182
 1327SOL    HW1 4880   0.184   6.536   1.113
 1327SOL    HW2 4881   0.280   6.605   1.225
 1328SOL     OW 4882   0.805   3.380   6.216
 1328SOL    HW1 4883   0.829   3.464   6.167
 1328SOL    HW2 4884   0.870   3.308   6.193
 1329SOL     OW 4885   0.262   2.786   3.376
 1329SOL    HW1 4886   0.186   2.734   3.414
 1329SOL    HW2 4887   0.345   2.769   3.429
 1330SOL     OW 4888   6.565   2.642   0.878
 1330SOL    HW1 4889   6.561   2.542   0.876
 1330SOL    HW2 4890   6.537   2.675   0.968
 1331SOL     OW 4891   4.288   1.833   2.594
 1331SOL    HW1 4892   4.236   1.839   2.680
 1331SOL    HW2 4893   4.238   1.775   2.529
 1332SOL     OW 4894   1.749   0.279   0.764
 1332SOL    HW1 4895   1.766   0.367   0.719
 1332SOL    HW2 4896   1.817   0.266   0.837
 1333SOL     OW 4897   3.303   4.090   2.920
 1333SOL    HW1 4898   3.369   4.021   2.948
 1333SOL    HW2 4899   3.308   4.105   2.822
 1334SOL     OW 4900   6.831   1.741   2.824
 1334SOL    HW1 4901   6.926   1.770   2.830
 1334SOL    HW2 4902   6.827   1.641   2.820
 1335SOL     OW 4903   1.738   4.298   1.679
 1335SOL    HW1 4904   1.826   4.336   1.650
 1335SOL    HW2 4905   1.734   4.201   1.656
 1336SOL     OW 4906   3.629   0.606   5.464
 1336SOL    HW1 4907   3.573   0.651   5.533
 1336SOL    HW2 4908   3.651   0.670   5.391
 1337SOL     OW 4909   6.375   1.722   3.650
 1337SOL    HW1 4910   6.304   1.698   3.584
 1337SOL    HW2 4911   6.450   1.769   3.603
 1338SOL     OW 4912   6.058   3.696   4.649
 1338SOL    HW1 4913   6.129   3.645   4.696
 1338SOL    HW2 4914   5.968   3.662   4.676
 1339SOL     OW 4915   0.186   0.492   6.447
 1339SOL    HW1 4916   0.199   0.529   6.355
 1339SOL    HW2 4917   0.090   0.504   6.473
 1340SOL     OW 4918   5.256   1.637   1.765
 1340SOL    HW1 4919   5.191   1.702   1.803
 1340SOL    HW2 4920   5.346   1.680   1.757
 1341SOL     OW 4921   4.597   6.820   6.374
 1341SOL    HW1 4922   4.659   6.861   6.308
 1341SOL    HW2 4923   4.628   6.839   6.466
 1342SOL     OW 4924   3.131   5.999   1.209
 1342SOL    HW1 4925   3.075   5.917   1.210
 1342SOL    HW2 4926   3.203   5.991   1.278
 1343SOL     OW 4927   5.447   5.196   2.594
 1343SOL    HW1 4928   5.444   5.126   2.665
 1343SOL    HW2 4929   5.384   5.170   2.520
 1344SOL     OW 4930   0.050   0.024   4.599
 1344SOL    HW1 4931   0.046   6.944   4.591
 1344SOL    HW2 4932   0.114   0.060   4.531
 1345SOL     OW 4933   0.524   5.403   2.012
 1345SOL    HW1 4934   0.470   5.469   1.960
 1345SOL    HW2 4935   0.607   5.379   1.961
 1346SOL     OW 4936   2.573   5.156   5.804
 1346SOL    HW1 4937   2.592   5.098   5.883
 1346SOL    HW2 4938   2.659   5.195   5.770
 1347SOL     OW 4939   1.765   0.175   0.166
 1347SOL    HW1 4940   1.731   0.111   0.234
 1347SOL    HW2 4941   1.702   0.178   0.088
 1348SOL     OW 4942   7.016   5.741   5.247
 1348SOL    HW1 4943   6.923   5.726   5.215
 1348SOL    HW2 4944   7.014   5.766   5.343
 1349SOL     OW 4945   5.395   3.863   3.921
 1349SOL    HW1 4946   5.311   3.810   3.933
 1349SOL    HW2 4947   5.422   3.862   3.824
 1350SOL     OW 4948   3.031   3.786   0.236
 1350SOL    HW1 4949   3.062   3.759   0.144
 1350SOL    HW2 4950   2.932   3.777   0.241
 1351SOL     OW 4951   6.552   2.906   4.741
 1351SOL    HW1 4952   6.543   2.911   4.840
 1351SOL    HW2 4953   6.626   2.966   4.712
 1352SOL     OW 4954   6.928   7.014   2.833
 1352SOL    HW1 4955   6.910   6.966   2.748
 1352SOL    HW2 4956   6.850   7.002   2.895
 1353SOL     OW 4957   0.791   1.447   1.029
 1353SOL    HW1 4958   0.722   1.472   0.961
 1353SOL    HW2 4959   0.748   1.438   1.118
 1354SOL     OW 4960   6.319   4.225   2.054
 1354SOL    HW1 4961   6.300   4.167   2.133
 1354SOL    HW2 4962   6.345   4.168   1.976
 1355SOL     OW 4963   6.229   3.312   4.640
 1355SOL    HW1 4964   6.244   3.362   4.554
 1355SOL    HW2 4965   6.250   3.215   4.625
 1356SOL     OW 4966   3.445   3.083   1.756
 1356SOL    HW1 4967   3.378   3.041   1.694
 1356SOL    HW2 4968   3.461   3.023   1.834
 1357SOL     OW 4969   6.725   3.169   5.378
 1357SOL    HW1 4970   6.741   3.263   5.349
 1357SOL    HW2 4971   6.712   3.167   5.478
 1358SOL     OW 4972   1.437   6.654   6.973
 1358SOL    HW1 4973   1.533   6.673   6.989
 1358SOL    HW2 4974   1.382   6.701   0.022
 1359SOL     OW 4975   6.361   4.060   1.809
 1359SOL    HW1 4976   6.398   4.142   1.765
 1359SOL    HW2 4977   6.435   3.998   1.833
 1360SOL     OW 4978   3.044   2.450   6.449
 1360SOL    HW1 4979   3.039   2.486   6.356
 1360SOL    HW2 4980   3.084   2.519   6.510
 1361SOL     OW 4981   6.818   4.362   4.133
 1361SOL    HW1 4982   6.915   4.373   4.155
 1361SOL    HW2 4983   6.764   4.373   4.217
 1362SOL     OW 4984   3.865   3.016   2.618
 1362SOL    HW1 4985   3.870   2.921   2.589
 1362SOL    HW2 4986   3.779   3.056   2.585
 1363SOL     OW 4987   0.241   5.371   5.636
 1363SOL    HW1 4988   0.150   5.398   5.667
 1363SOL    HW2 4989   0.234   5.324   5.548
 1364SOL     OW 4990   4.603   4.279   0.751
 1364SOL    HW1 4991   4.571   4.372   0.731
 1364SOL    HW2 4992   4.685   4.284   0.809
 1365SOL     OW 4993   0.834   3.327   6.799
 1365SOL    HW1 4994   0.761   3.260   6.813
 1365SOL    HW2 4995   0.829   3.363   6.706
 1366SOL     OW 4996   1.711   0.007   5.067
 1366SOL    HW1 4997   1.712   6.945   5.124
 1366SOL    HW2 4998   1.672   7.005   4.978
 1367SOL     OW 4999   2.633   1.097   2.285
 1367SOL    HW1 5000   2.609   1.173   2.346
 1367SOL    HW2 5001   2.689   1.132   2.209
 1368SOL     OW 5002   6.170   6.625   4.718
 1368SOL    HW1 5003   6.213   6.534   4.715
 1368SOL    HW2 5004   6.171   6.665   4.626
 1369SOL     OW 5005   1.056   0.561   3.425
 1369SOL    HW1 5006   1.023   0.604   3.341
 1369SOL    HW2 5007   1.089   0.469   3.405
 1370SOL     OW 5008   3.008   1.038   1.830
 1370SOL    HW1 5009   3.093   1.085   1.856
 1370SOL    HW2 5010   3.029   0.967   1.763
 1371SOL     OW 5011   3.510   0.663   5.920
 1371SOL    HW1 5012   3.504   0.664   5.820
 1371SOL    HW2 5013   3.606   0.663   5.947
 1372SOL     OW 5014   2.820   1.863   2.172
 1372SOL    HW1 5015   2.773   1.913   2.245
 1372SOL    HW2 5016   2.799   1.906   2.084
 1373SOL     OW 5017   0.793   6.143   1.010
 1373SOL    HW1 5018   0.865   6.204   0.980
 1373SOL    HW2 5019   0.792   6.061   0.953
 1374SOL     OW 5020   4.370   2.497   0.370
 1374SOL    HW1 5021   4.315   2.568   0.325
 1374SOL    HW2 5022   4.420   2.445   0.301
 1375SOL     OW 5023   0.452   4.516   6.027
 1375SOL    HW1 5024   0.520   4.503   6.100
 1375SOL    HW2 5025   0.481   4.466   5.945
 1376SOL     OW 5026   4.909   2.578   2.691
 1376SOL    HW1 5027   4.954   2.653   2.642
 1376SOL    HW2 5028   4.816   2.605   2.714
 1377SOL     OW 5029   7.014   5.557   5.024
 1377SOL    HW1 5030   6.997   5.528   5.118
 1377SOL    HW2 5031   6.952   5.508   4.963
 1378SOL     OW 5032   1.242   2.234   0.465
 1378SOL    HW1 5033   1.258   2.330   0.446
 1378SOL    HW2 5034   1.308   2.178   0.415
 1379SOL     OW 5035   4.094   6.225   2.179
 1379SOL    HW1 5036   4.067   6.319   2.200
 1379SOL    HW2 5037   4.074   6.166   2.257
 1380SOL     OW 5038   6.504   6.346   2.787
 1380SOL    HW1 5039   6.553   6.364   2.872
 1380SOL    HW2 5040   6.457   6.429   2.757
 1381SOL     OW 5041   6.087   1.654   0.882
 1381SOL    HW1 5042   6.185   1.641   0.868
 1381SOL    HW2 5043   6.070   1.749   0.906
 1382SOL     OW 5044   5.424   4.550   6.516
 1382SOL    HW1 5045   5.522   4.567   6.526
 1382SOL    HW2 5046   5.395   4.479   6.580
 1383SOL     OW 5047   2.613   0.461   0.826
 1383SOL    HW1 5048   2.662   0.544   0.856
 1383SOL    HW2 5049   2.679   0.394   0.793
 1384SOL     OW 5050   3.084   2.172   2.675
 1384SOL    HW1 5051   3.168   2.171   2.730
 1384SOL    HW2 5052   3.097   2.116   2.593
 1385SOL     OW 5053   6.982   2.988   2.678
 1385SOL    HW1 5054   6.938   3.052   2.740
 1385SOL    HW2 5055   6.935   2.989   2.590
 1386SOL     OW 5056   2.005   2.316   4.194
 1386SOL    HW1 5057   1.960   2.401   4.222
 1386SOL    HW2 5058   2.051   2.275   4.273
 1387SOL     OW 5059   2.090   0.444   5.064
 1387SOL    HW1 5060   2.005   0.436   5.013
 1387SOL    HW2 5061   2.139   0.526   5.035
 1388SOL     OW 5062   6.377   1.195   4.251
 1388SOL    HW1 5063   6.324   1.244   4.181
 1388SOL    HW2 5064   6.315   1.153   4.317
 1389SOL     OW 5065   5.911   0.501   4.771
 1389SOL    HW1 5066   5.813   0.509   4.752
 1389SOL    HW2 5067   5.937   0.405   4.776
 1390SOL     OW 5068   4.673   2.666   2.895
 1390SOL    HW1 5069   4.611   2.642   2.821
 1390SOL    HW2 5070   4.647   2.618   2.979
 1391SOL     OW 5071   5.115   0.843   4.953
 1391SOL    HW1 5072   5.099   0.893   5.038
 1391SOL    HW2 5073   5.098   0.745   4.968
 1392SOL     OW 5074   4.598   5.567   6.536
 1392SOL    HW1 5075   4.612   5.590   6.440
 1392SOL    HW2 5076   4.546   5.641   6.580
 1393SOL     OW 5077   6.428   0.715   7.019
 1393SOL    HW1 5078   6.462   0.643   0.060
 1393SOL    HW2 5079   6.484   0.797   0.011
 1394SOL     OW 5080   4.428   6.560   3.974
 1394SOL    HW1 5081   4.439   6.635   4.040
 1394SOL    HW2 5082   4.416   6.474   4.023
 1395SOL     OW 5083   1.217   5.225   1.929
 1395SOL    HW1 5084   1.230   5.323   1.913
 1395SOL    HW2 5085   1.270   5.172   1.863
 1396SOL     OW 5086   1.950   1.512   3.998
 1396SOL    HW1 5087   2.022   1.489   4.063
 1396SOL    HW2 5088   1.963   1.605   3.964
 1397SOL     OW 5089   0.012   5.221   4.889
 1397SOL    HW1 5090   0.020   5.188   4.795
 1397SOL    HW2 5091   6.960   5.291   4.894
 1398SOL     OW 5092   0.394   0.446   0.463
 1398SOL    HW1 5093   0.418   0.461   0.558
 1398SOL    HW2 5094   0.318   0.381   0.458
 1399SOL     OW 5095   4.119   0.367   0.312
 1399SOL    HW1 5096   4.079   0.410   0.230
 1399SOL    HW2 5097   4.216   0.349   0.295
 1400SOL     OW 5098   6.736   0.279   5.259
 1400SOL    HW1 5099   6.733   0.200   5.320
 1400SOL    HW2 5100   6.751   0.249   5.165
 1401SOL     OW 5101   5.486   0.146   3.618
 1401SOL    HW1 5102   5.554   0.181   3.554
 1401SOL    HW2 5103   5.500   0.189   3.707
 1402SOL     OW 5104   0.182   4.798   2.083
 1402SOL    HW1 5105   0.090   4.826   2.112
 1402SOL    HW2 5106   0.186   4.795   1.983
 1403SOL     OW 5107   3.055   3.100   6.715
 1403SOL    HW1 5108   2.958   3.097   6.694
 1403SOL    HW2 5109   3.107   3.101   6.630
 1404SOL     OW 5110   4.229   6.628   0.325
 1404SOL    HW1 5111   4.218   6.649   0.422
 1404SOL    HW2 5112   4.294   6.552   0.315
 1405SOL     OW 5113   1.237   3.744   1.114
 1405SOL    HW1 5114   1.181   3.819   1.081
 1405SOL    HW2 5115   1.187   3.658   1.102
 1406SOL     OW 5116   2.270   3.124   0.884
 1406SOL    HW1 5117   2.205   3.164   0.819
 1406SOL    HW2 5118   2.241   3.031   0.907
 1407SOL     OW 5119   0.498   2.950   1.250
 1407SOL    HW1 5120   0.471   2.961   1.345
 1407SOL    HW2 5121   0.583   2.897   1.245
 1408SOL     OW 5122   6.112   6.663   0.955
 1408SOL    HW1 5123   6.048   6.737   0.977
 1408SOL    HW2 5124   6.172   6.648   1.034
 1409SOL     OW 5125   6.395   1.737   6.012
 1409SOL    HW1 5126   6.467   1.784   5.961
 1409SOL    HW2 5127   6.418   1.639   6.019
 1410SOL     OW 5128   4.407   0.919   5.875
 1410SOL    HW1 5129   4.336   0.982   5.906
 1410SOL    HW2 5130   4.369   0.858   5.806
 1411SOL     OW 5131   3.477   5.176   6.890
 1411SOL    HW1 5132   3.378   5.180   6.879
 1411SOL    HW2 5133   3.515   5.109   6.827
 1412SOL     OW 5134   2.028   3.240   0.304
 1412SOL    HW1 5135   2.102   3.192   0.257
 1412SOL    HW2 5136   1.974   3.292   0.237
 1413SOL     OW 5137   1.299   1.532   5.203
 1413SOL    HW1 5138   1.257   1.443   5.217
 1413SOL    HW2 5139   1.300   1.583   5.289
 1414SOL     OW 5140   1.279   4.057   2.736
 1414SOL    HW1 5141   1.347   4.125   2.762
 1414SOL    HW2 5142   1.243   4.080   2.645
 1415SOL     OW 5143   1.971   1.811   4.239
 1415SOL    HW1 5144   1.995   1.810   4.336
 1415SOL    HW2 5145   2.052   1.793   4.183
 1416SOL     OW 5146   4.556   0.557   4.709
 1416SOL    HW1 5147   4.575   0.488   4.779
 1416SOL    HW2 5148   4.468   0.537   4.666
 1417SOL     OW 5149   3.288   3.162   5.798
 1417SOL    HW1 5150   3.231   3.184   5.718
 1417SOL    HW2 5151   3.381   3.142   5.768
 1418SOL     OW 5152   3.582   4.617   5.696
 1418SOL    HW1 5153   3.527   4.649   5.619
 1418SOL    HW2 5154   3.599   4.519   5.686
 1419SOL     OW 5155   1.807   5.355   2.556
 1419SOL    HW1 5156   1.839   5.273   2.602
 1419SOL    HW2 5157   1.856   5.435   2.592
 1420SOL     OW 5158   2.782   6.417   3.350
 1420SOL    HW1 5159   2.862   6.428   3.411
 1420SOL    HW2 5160   2.757   6.506   3.312
 1421SOL     OW 5161   0.946   4.679   5.282
 1421SOL    HW1 5162   1.012   4.717   5.217
 1421SOL    HW2 5163   0.975   4.588   5.310
 1422SOL     OW 5164   2.241   3.773   6.164
 1422SOL    HW1 5165   2.306   3.711   6.119
 1422SOL    HW2 5166   2.167   3.719   6.204
 1423SOL     OW 5167   4.610   0.404   4.937
 1423SOL    HW1 5168   4.626   0.473   5.007
 1423SOL    HW2 5169   4.688   0.342   4.931
 1424SOL     OW 5170   6.225   2.877   0.226
 1424SOL    HW1 5171   6.275   2.933   0.159
 1424SOL    HW2 5172   6.206   2.931   0.307
 1425SOL     OW 5173   5.052   6.551   3.493
 1425SOL    HW1 5174   5.018   6.457   3.497
 1425SOL    HW2 5175   5.083   6.572   3.401
 1426SOL     OW 5176   3.363   2.123   0.381
 1426SOL    HW1 5177   3.444   2.085   0.425
 1426SOL    HW2 5178   3.288   2.128   0.448
 1427SOL     OW 5179   2.003   0.280   4.184
 1427SOL    HW1 5180   2.025   0.352   4.118
 1427SOL    HW2 5181   1.923   0.307   4.237
 1428SOL     OW 5182   0.994   3.086   3.883
 1428SOL    HW1 5183   1.026   3.140   3.806
 1428SOL    HW2 5184   1.061   3.089   3.957
 1429SOL     OW 5185   6.416   1.230   1.420
 1429SOL    HW1 5186   6.484   1.298   1.393
 1429SOL    HW2 5187   6.351   1.217   1.346
 1430SOL     OW 5188   2.082   3.672   4.430
 1430SOL    HW1 5189   2.135   3.755   4.446
 1430SOL    HW2 5190   2.085   3.613   4.511
 1431SOL     OW 5191   2.667   1.405   6.485
 1431SOL    HW1 5192   2.626   1.397   6.394
 1431SOL    HW2 5193   2.628   1.483   6.533
 1432SOL     OW 5194   3.153   0.405   2.241
 1432SOL    HW1 5195   3.096   0.470   2.191
 1432SOL    HW2 5196   3.108   0.380   2.326
 1433SOL     OW 5197   2.378   0.134   3.994
 1433SOL    HW1 5198   2.387   0.109   4.091
 1433SOL    HW2 5199   2.458   0.188   3.967
 1434SOL     OW 5200   0.272   3.330   1.069
 1434SOL    HW1 5201   0.189   3.278   1.089
 1434SOL    HW2 5202   0.352   3.272   1.082
 1435SOL     OW 5203   1.746   6.656   4.231
 1435SOL    HW1 5204   1.784   6.632   4.320
 1435SOL    HW2 5205   1.752   6.755   4.218
 1436SOL     OW 5206   5.483   1.503   0.002
 1436SOL    HW1 5207   5.450   1.596   7.007
 1436SOL    HW2 5208   5.406   1.439   0.002
 1437SOL     OW 5209   3.945   0.515   6.121
 1437SOL    HW1 5210   4.045   0.517   6.126
 1437SOL    HW2 5211   3.916   0.445   6.054
 1438SOL     OW 5212   2.745   0.463   2.085
 1438SOL    HW1 5213   2.746   0.535   2.154
 1438SOL    HW2 5214   2.755   0.373   2.129
 1439SOL     OW 5215   0.318   4.561   0.048
 1439SOL    HW1 5216   0.408   4.580   0.007
 1439SOL    HW2 5217   0.263   4.645   0.049
 1440SOL     OW 5218   3.658   3.162   3.107
 1440SOL    HW1 5219   3.704   3.251   3.100
 1440SOL    HW2 5220   3.602   3.148   3.026
 1441SOL     OW 5221   6.563   2.864   3.731
 1441SOL    HW1 5222   6.578   2.799   3.657
 1441SOL    HW2 5223   6.596   2.825   3.817
 1442SOL     OW 5224   5.635   5.942   6.966
 1442SOL    HW1 5225   5.589   5.986   0.024
 1442SOL    HW2 5226   5.730   5.923   6.991
 1443SOL     OW 5227   0.746   2.897   3.066
 1443SOL    HW1 5228   0.681   2.968   3.037
 1443SOL    HW2 5229   0.829   2.941   3.102
 1444SOL     OW 5230   4.893   0.911   4.127
 1444SOL    HW1 5231   4.957   0.931   4.202
 1444SOL    HW2 5232   4.860   0.817   4.136
 1445SOL     OW 5233   6.116   2.241   1.102
 1445SOL    HW1 5234   6.212   2.225   1.125
 1445SOL    HW2 5235   6.073   2.295   1.175
 1446SOL     OW 5236   4.332   0.604   1.230
 1446SOL    HW1 5237   4.350   0.701   1.216
 1446SOL    HW2 5238   4.236   0.592   1.258
 1447SOL     OW 5239   5.734   1.044   5.650
 1447SOL    HW1 5240   5.790   1.103   5.591
 1447SOL    HW2 5241   5.692   0.972   5.595
 1448SOL     OW 5242   5.231   0.485   6.686
 1448SOL    HW1 5243   5.291   0.512   6.611
 1448SOL    HW2 5244   5.161   0.555   6.699
 1449SOL     OW 5245   4.827   5.450   1.200
 1449SOL    HW1 5246   4.875   5.440   1.288
 1449SOL    HW2 5247   4.736   5.410   1.208
 1450SOL     OW 5248   5.633   2.765   3.818
 1450SOL    HW1 5249   5.683   2.844   3.853
 1450SOL    HW2 5250   5.687   2.720   3.746
 1451SOL     OW 5251   1.747   6.930   2.774
 1451SOL    HW1 5252   1.716   7.005   2.715
 1451SOL    HW2 5253   1.761   6.848   2.718
 1452SOL     OW 5254   4.579   0.968   5.221
 1452SOL    HW1 5255   4.550   0.873   5.230
 1452SOL    HW2 5256   4.647   0.989   5.291
 1453SOL     OW 5257   5.137   4.475   4.622
 1453SOL    HW1 5258   5.130   4.539   4.699
 1453SOL    HW2 5259   5.060   4.489   4.560
 1454SOL     OW 5260   4.237   3.671   1.271
 1454SOL    HW1 5261   4.281   3.622   1.346
 1454SOL    HW2 5262   4.213   3.763   1.301
 1455SOL     OW 5263   1.818   2.689   1.632
 1455SOL    HW1 5264   1.789   2.615   1.693
 1455SOL    HW2 5265   1.742   2.753   1.620
 1456SOL     OW 5266   6.570   5.755   3.704
 1456SOL    HW1 5267   6.625   5.713   3.776
 1456SOL    HW2 5268   6.623   5.760   3.619
 1457SOL     OW 5269   2.064   7.019   3.063
 1457SOL    HW1 5270   2.015   0.012   3.149
 1457SOL    HW2 5271   2.005   0.024   2.986
 1458SOL     OW 5272   6.328   5.461   6.724
 1458SOL    HW1 5273   6.401   5.426   6.782
 1458SOL    HW2 5274   6.241   5.456   6.773
 1459SOL     OW 5275   2.412   0.257   0.755
 1459SOL    HW1 5276   2.416   0.161   0.780
 1459SOL    HW2 5277   2.491   0.305   0.793
 1460SOL     OW 5278   0.794   6.515   0.041
 1460SOL    HW1 5279   0.705   6.519   7.015
 1460SOL    HW2 5280   0.822   6.420   0.052
 1461SOL     OW 5281   5.204   5.110   1.294
 1461SOL    HW1 5282   5.195   5.077   1.200
 1461SOL    HW2 5283   5.241   5.036   1.351
 1462SOL     OW 5284   5.258   0.601   5.834
 1462SOL    HW1 5285   5.280   0.529   5.768
 1462SOL    HW2 5286   5.320   0.594   5.912
 1463SOL     OW 5287   0.678   1.015   4.892
 1463SOL    HW1 5288   0.720   0.926   4.910
 1463SOL    HW2 5289   0.597   1.026   4.950
 1464SOL     OW 5290   6.941   6.602   1.073
 1464SOL    HW1 5291   0.000   6.618   1.133
 1464SOL    HW2 5292   6.898   6.690   1.052
 1465SOL     OW 5293   0.420   6.963   4.851
 1465SOL    HW1 5294   0.434   0.006   4.775
 1465SOL    HW2 5295   0.329   6.976   4.889
 1466SOL     OW 5296   5.994   5.413   3.904
 1466SOL    HW1 5297   5.954   5.452   3.821
 1466SOL    HW2 5298   5.977   5.314   3.906
 1467SOL     OW 5299   0.041   3.283   3.089
 1467SOL    HW1 5300   0.074   3.246   3.175
 1467SOL    HW2 5301   0.117   3.323   3.037
 1468SOL     OW 5302   5.585   6.157   2.881
 1468SOL    HW1 5303   5.593   6.177   2.783
 1468SOL    HW2 5304   5.534   6.231   2.925
 1469SOL     OW 5305   0.305   1.052   2.772
 1469SOL    HW1 5306   0.301   0.961   2.731
 1469SOL    HW2 5307   0.371   1.108   2.723
 1470SOL     OW 5308   0.061   0.865   3.494
 1470SOL    HW1 5309   0.155   0.849   3.525
 1470SOL    HW2 5310   0.009   0.780   3.503
 1471SOL     OW 5311   6.720   0.285   0.017
 1471SOL    HW1 5312   6.771   0.200   0.003
 1471SOL    HW2 5313   6.671   0.309   6.953
 1472SOL     OW 5314   4.447   0.255   5.249
 1472SOL    HW1 5315   4.411   0.260   5.342
 1472SOL    HW2 5316   4.422   0.337   5.198
 1473SOL     OW 5317   5.995   4.282   4.088
 1473SOL    HW1 5318   5.981   4.370   4.043
 1473SOL    HW2 5319   6.078   4.286   4.144
 1474SOL     OW 5320   4.984   5.482   3.288
 1474SOL    HW1 5321   4.921   5.557   3.271
 1474SOL    HW2 5322   4.967   5.443   3.379
 1475SOL     OW 5323   0.195   0.824   2.556
 1475SOL    HW1 5324   0.291   0.839   2.536
 1475SOL    HW2 5325   0.148   0.792   2.474
 1476SOL     OW 5326   6.307   1.795   1.957
 1476SOL    HW1 5327   6.401   1.823   1.939
 1476SOL    HW2 5328   6.300   1.695   1.952
 1477SOL     OW 5329   3.017   6.421   3.523
 1477SOL    HW1 5330   2.984   6.328   3.510
 1477SOL    HW2 5331   3.114   6.419   3.547
 1478SOL     OW 5332   6.827   4.415   1.789
 1478SOL    HW1 5333   6.900   4.347   1.795
 1478SOL    HW2 5334   6.742   4.375   1.824
 1479SOL     OW 5335   1.688   5.160   0.658
 1479SOL    HW1 5336   1.717   5.069   0.631
 1479SOL    HW2 5337   1.605   5.154   0.713
 1480SOL     OW 5338   2.739   0.963   6.984
 1480SOL    HW1 5339   2.641   0.953   6.967
 1480SOL    HW2 5340   2.786   0.977   6.898
 1481SOL     OW 5341   6.076   2.185   6.352
 1481SOL    HW1 5342   6.035   2.180   6.261
 1481SOL    HW2 5343   6.098   2.280   6.372
 1482SOL     OW 5344   5.692   0.614   6.430
 1482SOL    HW1 5345   5.665   0.656   6.343
 1482SOL    HW2 5346   5.728   0.523   6.414
 1483SOL     OW 5347   6.096   2.414   6.554
 1483SOL    HW1 5348   6.035   2.458   6.488
 1483SOL    HW2 5349   6.042   2.363   6.621
 1484SOL     OW 5350   6.214   5.893   2.911
 1484SOL    HW1 5351   6.164   5.884   2.825
 1484SOL    HW2 5352   6.247   5.987   2.921
 1485SOL     OW 5353   5.259   2.996   4.160
 1485SOL    HW1 5354   5.331   2.926   4.153
 1485SOL    HW2 5355   5.214   2.987   4.249
 1486SOL     OW 5356   4.751   2.352   2.348
 1486SOL    HW1 5357   4.772   2.318   2.257
 1486SOL    HW2 5358   4.660   2.394   2.348
 1487SOL     OW 5359   6.420   1.364   5.371
 1487SOL    HW1 5360   6.421   1.412   5.283
 1487SOL    HW2 5361   6.327   1.334   5.391
 1488SOL     OW 5362   3.865   1.818   3.025
 1488SOL    HW1 5363   3.789   1.766   2.986
 1488SOL    HW2 5364   3.839   1.914   3.033
 1489SOL     OW 5365   3.779   5.660   5.095
 1489SOL    HW1 5366   3.785   5.563   5.121
 1489SOL    HW2 5367   3.787   5.668   4.996
 1490SOL     OW 5368   1.927   2.693   0.683
 1490SOL    HW1 5369   2.004   2.644   0.724
 1490SOL    HW2 5370   1.928   2.788   0.713
 1491SOL     OW 5371   0.386   2.567   5.028
 1491SOL    HW1 5372   0.326   2.575   5.107
 1491SOL    HW2 5373   0.332   2.540   4.948
 1492SOL     OW 5374   5.399   2.641   2.592
 1492SOL    HW1 5375   5.312   2.595   2.575
 1492SOL    HW2 5376   5.444   2.662   2.506
 1493SOL     OW 5377   4.942   0.624   4.889
 1493SOL    HW1 5378   4.859   0.680   4.899
 1493SOL    HW2 5379   4.917   0.527   4.889
 1494SOL     OW 5380   5.169   3.086   5.277
 1494SOL    HW1 5381   5.115   3.154   5.226
 1494SOL    HW2 5382   5.117   3.056   5.357
 1495SOL     OW 5383   2.055   2.961   2.680
 1495SOL    HW1 5384   1.956   2.964   2.687
 1495SOL    HW2 5385   2.088   2.869   2.704
 1496SOL     OW 5386   1.063   1.103   2.657
 1496SOL    HW1 5387   1.161   1.095   2.677
 1496SOL    HW2 5388   1.049   1.177   2.591
 1497SOL     OW 5389   5.397   4.774   5.354
 1497SOL    HW1 5390   5.471   4.707   5.345
 1497SOL    HW2 5391   5.435   4.866   5.360
 1498SOL     OW 5392   2.975   6.373   0.529
 1498SOL    HW1 5393   3.001   6.443   0.462
 1498SOL    HW2 5394   2.885   6.395   0.567
 1499SOL     OW 5395   0.290   4.489   5.346
 1499SOL    HW1 5396   0.274   4.427   5.270
 1499SOL    HW2 5397   0.315   4.437   5.428
 1500SOL     OW 5398   4.850   6.723   5.836
 1500SOL    HW1 5399   4.780   6.762   5.896
 1500SOL    HW2 5400   4.839   6.759   5.744
 1501SOL     OW 5401   3.967   0.089   6.356
 1501SOL    HW1 5402   4.045   0.026   6.362
 1501SOL    HW2 5403   3.916   0.087   6.443
 1502SOL     OW 5404   6.351   5.956   0.013
 1502SOL    HW1 5405   6.445   5.933   0.039
 1502SOL    HW2 5406   6.298   5.978   0.096
 1503SOL     OW 5407   3.057   3.343   5.912
 1503SOL    HW1 5408   3.157   3.340   5.906
 1503SOL    HW2 5409   3.018   3.356   5.821
 1504SOL     OW 5410   2.522   5.898   4.510
 1504SOL    HW1 5411   2.558   5.820   4.459
 1504SOL    HW2 5412   2.488   5.967   4.446
 1505SOL     OW 5413   4.800   5.057   0.802
 1505SOL    HW1 5414   4.708   5.035   0.833
 1505SOL    HW2 5415   4.835   4.984   0.743
 1506SOL     OW 5416   0.595   5.708   3.179
 1506SOL    HW1 5417   0.613   5.766   3.259
 1506SOL    HW2 5418   0.682   5.680   3.138
 1507SOL     OW 5419   1.750   1.323   6.429
 1507SOL    HW1 5420   1.822   1.324   6.499
 1507SOL    HW2 5421   1.701   1.410   6.430
 1508SOL     OW 5422   5.133   6.937   0.258
 1508SOL    HW1 5423   5.053   6.941   0.318
 1508SOL    HW2 5424   5.189   6.858   0.281
 1509SOL     OW 5425   5.428   2.120   0.348
 1509SOL    HW1 5426   5.339   2.157   0.372
 1509SOL    HW2 5427   5.420   2.023   0.329
 1510SOL     OW 5428   6.915   1.454   4.079
 1510SOL    HW1 5429   6.869   1.398   4.010
 1510SOL    HW2 5430   7.013   1.452   4.063
 1511SOL     OW 5431   2.023   2.497   1.063
 1511SOL    HW1 5432   2.085   2.422   1.086
 1511SOL    HW2 5433   2.038   2.526   0.969
 1512SOL     OW 5434   6.325   0.404   2.365
 1512SOL    HW1 5435   6.315   0.412   2.266
 1512SOL    HW2 5436   6.247   0.446   2.410
 1513SOL     OW 5437   3.452   1.363   1.974
 1513SOL    HW1 5438   3.466   1.266   1.956
 1513SOL    HW2 5439   3.437   1.411   1.887
 1514SOL     OW 5440   5.544   1.628   5.183
 1514SOL    HW1 5441   5.477   1.568   5.225
 1514SOL    HW2 5442   5.499   1.711   5.150
 1515SOL     OW 5443   0.073   4.529   4.545
 1515SOL    HW1 5444   0.025   4.596   4.488
 1515SOL    HW2 5445   0.016   4.448   4.556
 1516SOL     OW 5446   0.890   1.804   0.974
 1516SOL    HW1 5447   0.920   1.868   1.045
 1516SOL    HW2 5448   0.964   1.739   0.954
 1517SOL     OW 5449   3.823   5.514   3.281
 1517SOL    HW1 5450   3.745   5.456   3.257
 1517SOL    HW2 5451   3.908   5.465   3.262
 1518SOL     OW 5452   0.772   4.759   1.063
 1518SOL    HW1 5453   0.715   4.759   0.980
 1518SOL    HW2 5454   0.844   4.690   1.053
 1519SOL     OW 5455   6.866   4.714   0.728
 1519SOL    HW1 5456   6.787   4.736   0.785
 1519SOL    HW2 5457   6.843   4.728   0.632
 1520SOL     OW 5458   1.434   3.412   3.315
 1520SOL    HW1 5459   1.392   3.327   3.345
 1520SOL    HW2 5460   1.452   3.408   3.217
 1521SOL     OW 5461   2.377   4.394   6.042
 1521SOL    HW1 5462   2.414   4.424   6.130
 1521SOL    HW2 5463   2.446   4.407   5.971
 1522SOL     OW 5464   6.423   2.215   6.647
 1522SOL    HW1 5465   6.423   2.123   6.685
 1522SOL    HW2 5466   6.393   2.211   6.551
 1523SOL     OW 5467   6.801   1.616   0.954
 1523SOL    HW1 5468   6.788   1.518   0.944
 1523SOL    HW2 5469   6.762   1.663   0.875
 1524SOL     OW 5470   6.765   0.892   2.726
 1524SOL    HW1 5471   6.715   0.852   2.802
 1524SOL    HW2 5472   6.826   0.824   2.686
 1525SOL     OW 5473   4.117   2.017   6.167
 1525SOL    HW1 5474   4.096   1.920   6.165
 1525SOL    HW2 5475   4.075   2.062   6.088
 1526SOL     OW 5476   0.118   2.192   1.799
 1526SOL    HW1 5477   0.197   2.210   1.857
 1526SOL    HW2 5478   0.139   2.118   1.735
 1527SOL     OW 5479   3.104   0.905   5.510
 1527SOL    HW1 5480   3.038   0.943   5.446
 1527SOL    HW2 5481   3.196   0.915   5.474
 1528SOL     OW 5482   5.541   6.408   3.625
 1528SOL    HW1 5483   5.461   6.401   3.566
 1528SOL    HW2 5484   5.526   6.476   3.696
 1529SOL     OW 5485   2.893   0.344   5.911
 1529SOL    HW1 5486   2.865   0.310   5.821
 1529SOL    HW2 5487   2.945   0.273   5.958
 1530SOL     OW 5488   3.782   6.649   1.581
 1530SOL    HW1 5489   3.827   6.734   1.552
 1530SOL    HW2 5490   3.851   6.576   1.586
 1531SOL     OW 5491   6.786   6.990   4.755
 1531SOL    HW1 5492   6.828   0.051   4.796
 1531SOL    HW2 5493   6.793   6.995   4.656
 1532SOL     OW 5494   3.083   1.536   4.988
 1532SOL    HW1 5495   3.116   1.557   4.896
 1532SOL    HW2 5496   3.075   1.437   4.998
 1533SOL     OW 5497   6.216   3.054   0.002
 1533SOL    HW1 5498   6.150   2.980   7.008
 1533SOL    HW2 5499   6.268   3.069   6.938
 1534SOL     OW 5500   0.336   6.340   1.653
 1534SOL    HW1 5501   0.266   6.271   1.635
 1534SOL    HW2 5502   0.342   6.357   1.752
 1535SOL     OW 5503   5.169   5.326   4.361
 1535SOL    HW1 5504   5.148   5.269   4.441
 1535SOL    HW2 5505   5.119   5.291   4.282
 1536SOL     OW 5506   2.345   5.812   4.280
 1536SOL    HW1 5507   2.392   5.742   4.335
 1536SOL    HW2 5508   2.389   5.901   4.294
 1537SOL     OW 5509   1.810   5.290   4.432
 1537SOL    HW1 5510   1.847   5.309   4.341
 1537SOL    HW2 5511   1.719   5.250   4.423
 1538SOL     OW 5512   2.549   5.263   6.428
 1538SOL    HW1 5513   2.596   5.200   6.367
 1538SOL    HW2 5514   2.603   5.274   6.512
 1539SOL     OW 5515   3.311   4.809   1.884
 1539SOL    HW1 5516   3.246   4.733   1.880
 1539SOL    HW2 5517   3.404   4.773   1.872
 1540SOL     OW 5518   0.334   6.500   4.586
 1540SOL    HW1 5519   0.264   6.477   4.653
 1540SOL    HW2 5520   0.362   6.595   4.599
 1541SOL     OW 5521   5.098   2.570   1.435
 1541SOL    HW1 5522   5.151   2.617   1.506
 1541SOL    HW2 5523   5.011   2.618   1.422
 1542SOL     OW 5524   1.172   6.670   1.098
 1542SOL    HW1 5525   1.104   6.732   1.138
 1542SOL    HW2 5526   1.235   6.723   1.041
 1543SOL     OW 5527   3.121   3.807   4.146
 1543SOL    HW1 5528   3.080   3.731   4.095
 1543SOL    HW2 5529   3.209   3.830   4.105
 1544SOL     OW 5530   3.644   4.062   2.838
 1544SOL    HW1 5531   3.680   4.146   2.879
 1544SOL    HW2 5532   3.582   4.018   2.903
 1545SOL     OW 5533   5.898   0.768   4.741
 1545SOL    HW1 5534   5.948   0.818   4.670
 1545SOL    HW2 5535   5.940   0.678   4.755
 1546SOL     OW 5536   0.800   6.783   5.903
 1546SOL    HW1 5537   0.770   6.707   5.960
 1546SOL    HW2 5538   0.822   6.861   5.962
 1547SOL     OW 5539   3.633   5.939   6.964
 1547SOL    HW1 5540   3.612   5.882   6.885
 1547SOL    HW2 5541   3.732   5.954   6.969
 1548SOL     OW 5542   5.736   4.010   4.495
 1548SOL    HW1 5543   5.786   4.063   4.426
 1548SOL    HW2 5544   5.800   3.981   4.567
 1549SOL     OW 5545   6.763   1.774   1.392
 1549SOL    HW1 5546   6.816   1.700   1.351
 1549SOL    HW2 5547   6.697   1.736   1.457
 1550SOL     OW 5548   2.293   5.828   4.676
 1550SOL    HW1 5549   2.245   5.802   4.592
 1550SOL    HW2 5550   2.362   5.897   4.656
 1551SOL     OW 5551   1.404   2.660   0.196
 1551SOL    HW1 5552   1.372   2.733   0.256
 1551SOL    HW2 5553   1.377   2.571   0.233
 1552SOL     OW 5554   0.712   0.250   0.786
 1552SOL    HW1 5555   0.619   0.218   0.801
 1552SOL    HW2 5556   0.775   0.199   0.843
 1553SOL     OW 5557   5.623   1.076   6.390
 1553SOL    HW1 5558   5.600   1.172   6.406
 1553SOL    HW2 5559   5.592   1.021   6.468
 1554SOL     OW 5560   3.381   1.681   1.202
 1554SOL    HW1 5561   3.365   1.763   1.146
 1554SOL    HW2 5562   3.382   1.601   1.143
 1555SOL     OW 5563   4.124   1.092   5.350
 1555SOL    HW1 5564   4.131   1.006   5.401
 1555SOL    HW2 5565   4.196   1.095   5.281
 1556SOL     OW 5566   4.056   1.668   0.600
 1556SOL    HW1 5567   4.072   1.755   0.554
 1556SOL    HW2 5568   4.070   1.680   0.698
 1557SOL     OW 5569   1.728   2.790   0.497
 1557SOL    HW1 5570   1.686   2.702   0.475
 1557SOL    HW2 5571   1.808   2.774   0.556
 1558SOL     OW 5572   5.630   2.944   6.365
 1558SOL    HW1 5573   5.554   2.888   6.333
 1558SOL    HW2 5574   5.608   3.041   6.354
 1559SOL     OW 5575   2.185   4.693   3.443
 1559SOL    HW1 5576   2.221   4.613   3.491
 1559SOL    HW2 5577   2.085   4.689   3.442
 1560SOL     OW 5578   4.119   1.667   1.255
 1560SOL    HW1 5579   4.078   1.614   1.329
 1560SOL    HW2 5580   4.112   1.617   1.169
 1561SOL     OW 5581   6.011   6.043   1.252
 1561SOL    HW1 5582   6.099   6.011   1.217
 1561SOL    HW2 5583   5.976   5.976   1.318
 1562SOL     OW 5584   4.139   6.595   2.174
 1562SOL    HW1 5585   4.137   6.524   2.244
 1562SOL    HW2 5586   4.075   6.668   2.199
 1563SOL     OW 5587   3.707   2.100   4.319
 1563SOL    HW1 5588   3.739   2.009   4.347
 1563SOL    HW2 5589   3.768   2.138   4.250
 1564SOL     OW 5590   1.008   2.152   3.381
 1564SOL    HW1 5591   1.062   2.211   3.321
 1564SOL    HW2 5592   1.060   2.133   3.465
 1565SOL     OW 5593   4.110   1.298   3.943
 1565SOL    HW1 5594   4.066   1.381   3.910
 1565SOL    HW2 5595   4.077   1.277   4.035
 1566SOL     OW 5596   5.034   4.875   3.132
 1566SOL    HW1 5597   5.113   4.894   3.074
 1566SOL    HW2 5598   5.027   4.947   3.202
 1567SOL     OW 5599   5.118   0.323   5.015
 1567SOL    HW1 5600   5.030   0.364   5.040
 1567SOL    HW2 5601   5.168   0.385   4.954
 1568SOL     OW 5602   2.280   5.244   2.203
 1568SOL    HW1 5603   2.281   5.146   2.223
 1568SOL    HW2 5604   2.195   5.284   2.239
 1569SOL     OW 5605   3.281   0.345   3.167
 1569SOL    HW1 5606   3.204   0.403   3.138
 1569SOL    HW2 5607   3.367   0.393   3.150
 1570SOL     OW 5608   3.452   6.409   6.573
 1570SOL    HW1 5609   3.489   6.318   6.554
 1570SOL    HW2 5610   3.360   6.401   6.611
 1571SOL     OW 5611   0.475   2.571   4.303
 1571SOL    HW1 5612   0.502   2.646   4.243
 1571SOL    HW2 5613   0.493   2.484   4.257
 1572SOL     OW 5614   2.145   5.203   1.857
 1572SOL    HW1 5615   2.227   5.162   1.896
 1572SOL    HW2 5616   2.066   5.146   1.879
 1573SOL     OW 5617   5.642   5.561   0.286
 1573SOL    HW1 5618   5.712   5.547   0.356
 1573SOL    HW2 5619   5.661   5.645   0.236
 1574SOL     OW 5620   7.010   3.574   3.493
 1574SOL    HW1 5621   6.966   3.631   3.562
 1574SOL    HW2 5622   0.003   3.482   3.529
 1575SOL     OW 5623   6.824   1.442   0.529
 1575SOL    HW1 5624   6.727   1.454   0.508
 1575SOL    HW2 5625   6.877   1.441   0.445
 1576SOL     OW 5626   1.086   0.473   2.123
 1576SOL    HW1 5627   1.034   0.535   2.182
 1576SOL    HW2 5628   1.077   0.502   2.028
 1577SOL     OW 5629   4.154   5.827   5.510
 1577SOL    HW1 5630   4.183   5.756   5.574
 1577SOL    HW2 5631   4.081   5.792   5.452
 1578SOL     OW 5632   5.262   1.336   1.004
 1578SOL    HW1 5633   5.247   1.401   1.079
 1578SOL    HW2 5634   5.187   1.269   1.003
 1579SOL     OW 5635   1.898   2.800   1.324
 1579SOL    HW1 5636   1.909   2.709   1.364
 1579SOL    HW2 5637   1.945   2.867   1.381
 1580SOL     OW 5638   3.109   3.556   2.763
 1580SOL    HW1 5639   3.032   3.536   2.702
 1580SOL    HW2 5640   3.151   3.643   2.737
 1581SOL     OW 5641   6.153   3.991   5.754
 1581SOL    HW1 5642   6.155   4.069   5.817
 1581SOL    HW2 5643   6.059   3.962   5.740
 1582SOL     OW 5644   4.591   6.425   5.493
 1582SOL    HW1 5645   4.600   6.463   5.401
 1582SOL    HW2 5646   4.680   6.393   5.525
 1583SOL     OW 5647   1.426   5.933   5.258
 1583SOL    HW1 5648   1.440   6.023   5.216
 1583SOL    HW2 5649   1.471   5.931   5.347
 1584SOL     OW 5650   0.217   5.132   0.264
 1584SOL    HW1 5651   0.180   5.050   0.307
 1584SOL    HW2 5652   0.145   5.176   0.211
 1585SOL     OW 5653   4.068   6.370   3.323
 1585SOL    HW1 5654   4.021   6.384   3.410
 1585SOL    HW2 5655   4.003   6.336   3.255
 1586SOL     OW 5656   3.418   5.031   3.681
 1586SOL    HW1 5657   3.447   4.997   3.592
 1586SOL    HW2 5658   3.448   5.126   3.691
 1587SOL     OW 5659   2.524   6.117   6.259
 1587SOL    HW1 5660   2.452   6.175   6.295
 1587SOL    HW2 5661   2.484   6.034   6.220
 1588SOL     OW 5662   6.035   1.301   3.299
 1588SOL    HW1 5663   5.979   1.314   3.217
 1588SOL    HW2 5664   5.975   1.275   3.376
 1589SOL     OW 5665   5.962   4.523   3.972
 1589SOL    HW1 5666   5.912   4.540   3.888
 1589SOL    HW2 5667   6.060   4.529   3.954
 1590SOL     OW 5668   6.442   2.619   3.570
 1590SOL    HW1 5669   6.395   2.648   3.654
 1590SOL    HW2 5670   6.415   2.679   3.495
 1591SOL     OW 5671   1.347   6.543   2.276
 1591SOL    HW1 5672   1.311   6.456   2.244
 1591SOL    HW2 5673   1.282   6.616   2.256
 1592SOL     OW 5674   0.009   4.097   6.507
 1592SOL    HW1 5675   0.094   4.108   6.455
 1592SOL    HW2 5676   6.952   4.129   6.451
 1593SOL     OW 5677   3.272   0.563   0.498
 1593SOL    HW1 5678   3.347   0.541   0.561
 1593SOL    HW2 5679   3.268   0.662   0.484
 1594SOL     OW 5680   6.317   0.147   2.089
 1594SOL    HW1 5681   6.381   0.207   2.136
 1594SOL    HW2 5682   6.304   0.063   2.143
 1595SOL     OW 5683   0.105   3.822   6.850
 1595SOL    HW1 5684   0.076   3.801   6.756
 1595SOL    HW2 5685   0.110   3.738   6.903
 1596SOL     OW 5686   4.726   4.831   2.760
 1596SOL    HW1 5687   4.666   4.883   2.700
 1596SOL    HW2 5688   4.692   4.737   2.769
 1597SOL     OW 5689   3.765   6.334   6.709
 1597SOL    HW1 5690   3.772   6.431   6.686
 1597SOL    HW2 5691   3.670   6.311   6.729
 1598SOL     OW 5692   2.141   5.361   0.277
 1598SOL    HW1 5693   2.171   5.280   0.227
 1598SOL    HW2 5694   2.105   5.334   0.366
 1599SOL     OW 5695   4.549   5.328   3.612
 1599SOL    HW1 5696   4.613   5.396   3.648
 1599SOL    HW2 5697   4.499   5.368   3.535
 1600SOL     OW 5698   4.875   6.808   2.180
 1600SOL    HW1 5699   4.776   6.819   2.169
 1600SOL    HW2 5700   4.903   6.841   2.270
 1601SOL     OW 5701   6.648   6.853   4.355
 1601SOL    HW1 5702   6.675   6.947   4.376
 1601SOL    HW2 5703   6.727   6.803   4.320
 1602SOL     OW 5704   3.689   5.193   3.999
 1602SOL    HW1 5705   3.663   5.232   4.087
 1602SOL    HW2 5706   3.782   5.222   3.976
 1603SOL     OW 5707   3.257   5.592   2.763
 1603SOL    HW1 5708   3.329   5.622   2.700
 1603SOL    HW2 5709   3.298   5.551   2.844
 1604SOL     OW 5710   4.391   5.126   2.019
 1604SOL    HW1 5711   4.384   5.192   2.094
 1604SOL    HW2 5712   4.390   5.033   2.055
 1605SOL     OW 5713   4.441   5.427   0.970
 1605SOL    HW1 5714   4.534   5.419   0.933
 1605SOL    HW2 5715   4.446   5.439   1.069
 1606SOL     OW 5716   3.727   5.880   4.679
 1606SOL    HW1 5717   3.706   5.807   4.743
 1606SOL    HW2 5718   3.738   5.841   4.587
 1607SOL     OW 5719   4.453   6.343   3.262
 1607SOL    HW1 5720   4.553   6.344   3.255
 1607SOL    HW2 5721   4.423   6.260   3.308
 1608SOL     OW 5722   5.840   1.033   3.079
 1608SOL    HW1 5723   5.838   0.938   3.046
 1608SOL    HW2 5724   5.850   1.033   3.178
 1609SOL     OW 5725   2.950   6.663   0.058
 1609SOL    HW1 5726   2.931   6.618   6.991
 1609SOL    HW2 5727   2.947   6.762   0.046
 1610SOL     OW 5728   5.567   0.267   0.734
 1610SOL    HW1 5729   5.530   0.230   0.819
 1610SOL    HW2 5730   5.500   0.255   0.661
 1611SOL     OW 5731   1.279   4.095   1.671
 1611SOL    HW1 5732   1.203   4.141   1.626
 1611SOL    HW2 5733   1.273   3.996   1.655
 1612SOL     OW 5734   3.933   0.174   1.764
 1612SOL    HW1 5735   3.996   0.200   1.691
 1612SOL    HW2 5736   3.863   0.245   1.774
 1613SOL     OW 5737   6.807   5.325   2.321
 1613SOL    HW1 5738   6.836   5.325   2.417
 1613SOL    HW2 5739   6.846   5.245   2.275
 1614SOL     OW 5740   6.501   1.870   6.287
 1614SOL    HW1 5741   6.428   1.912   6.340
 1614SOL    HW2 5742   6.494   1.898   6.191
 1615SOL     OW 5743   1.187   4.853   6.206
 1615SOL    HW1 5744   1.181   4.880   6.110
 1615SOL    HW2 5745   1.214   4.933   6.261
 1616SOL     OW 5746   2.132   1.450   4.608
 1616SOL    HW1 5747   2.213   1.501   4.636
 1616SOL    HW2 5748   2.157   1.380   4.542
 1617SOL     OW 5749   5.670   6.258   3.349
 1617SOL    HW1 5750   5.760   6.216   3.342
 1617SOL    HW2 5751   5.676   6.340   3.406
 1618SOL     OW 5752   3.035   5.096   2.753
 1618SOL    HW1 5753   2.957   5.047   2.793
 1618SOL    HW2 5754   3.008   5.134   2.665
 1619SOL     OW 5755   1.233   5.124   6.615
 1619SOL    HW1 5756   1.333   5.126   6.605
 1619SOL    HW2 5757   1.207   5.186   6.690
 1620SOL     OW 5758   3.740   5.452   6.305
 1620SOL    HW1 5759   3.690   5.439   6.220
 1620SOL    HW2 5760   3.677   5.444   6.382
 1621SOL     OW 5761   5.262   6.106   0.911
 1621SOL    HW1 5762   5.214   6.116   0.998
 1621SOL    HW2 5763   5.198   6.072   0.842
 1622SOL     OW 5764   0.468   4.176   4.457
 1622SOL    HW1 5765   0.496   4.081   4.444
 1622SOL    HW2 5766   0.473   4.225   4.370
 1623SOL     OW 5767   0.645   2.167   4.032
 1623SOL    HW1 5768   0.645   2.211   3.943
 1623SOL    HW2 5769   0.732   2.119   4.045
 1624SOL     OW 5770   4.343   1.838   0.866
 1624SOL    HW1 5771   4.401   1.860   0.945
 1624SOL    HW2 5772   4.391   1.863   0.782
 1625SOL     OW 5773   1.098   5.606   1.092
 1625SOL    HW1 5774   1.012   5.649   1.065
 1625SOL    HW2 5775   1.133   5.652   1.175
 1626SOL     OW 5776   3.118   1.900   1.228
 1626SOL    HW1 5777   3.057   1.843   1.172
 1626SOL    HW2 5778   3.072   1.925   1.313
 1627SOL     OW 5779   4.137   1.681   4.118
 1627SOL    HW1 5780   4.207   1.723   4.060
 1627SOL    HW2 5781   4.050   1.727   4.104
 1628SOL     OW 5782   5.363   6.591   0.568
 1628SOL    HW1 5783   5.349   6.648   0.487
 1628SOL    HW2 5784   5.301   6.512   0.564
 1629SOL     OW 5785   1.885   0.776   3.646
 1629SOL    HW1 5786   1.790   0.808   3.648
 1629SOL    HW2 5787   1.946   0.850   3.673
 1630SOL     OW 5788   0.209   3.572   0.054
 1630SOL    HW1 5789   0.140   3.539   0.118
 1630SOL    HW2 5790   0.251   3.494   0.007
 1631SOL     OW 5791   6.640   3.177   0.309
 1631SOL    HW1 5792   6.694   3.181   0.393
 1631SOL    HW2 5793   6.645   3.084   0.271
 1632SOL     OW 5794   6.509   4.930   2.689
 1632SOL    HW1 5795   6.482   5.023   2.662
 1632SOL    HW2 5796   6.490   4.867   2.614
 1633SOL     OW 5797   5.050   3.080   3.989
 1633SOL    HW1 5798   5.038   2.987   3.955
 1633SOL    HW2 5799   5.135   3.086   4.041
 1634SOL     OW 5800   5.531   0.684   4.621
 1634SOL    HW1 5801   5.595   0.695   4.545
 1634SOL    HW2 5802   5.571   0.624   4.690
 1635SOL     OW 5803   3.412   5.639   4.054
 1635SOL    HW1 5804   3.372   5.579   3.984
 1635SOL    HW2 5805   3.465   5.711   4.010
 1636SOL     OW 5806   5.812   6.547   1.634
 1636SOL    HW1 5807   5.908   6.527   1.614
 1636SOL    HW2 5808   5.798   6.542   1.733
 1637SOL     OW 5809   0.342   0.171   2.005
 1637SOL    HW1 5810   0.348   0.196   2.101
 1637SOL    HW2 5811   0.250   0.191   1.971
 1638SOL     OW 5812   6.601   2.926   2.086
 1638SOL    HW1 5813   6.606   2.847   2.148
 1638SOL    HW2 5814   6.512   2.971   2.097
 1639SOL     OW 5815   5.149   2.477   2.543
 1639SOL    HW1 5816   5.101   2.560   2.516
 1639SOL    HW2 5817   5.140   2.408   2.472
 1640SOL     OW 5818   6.349   0.196   0.040
 1640SOL    HW1 5819   6.415   0.191   6.985
 1640SOL    HW2 5820   6.258   0.176   0.005
 1641SOL     OW 5821   6.423   2.630   3.015
 1641SOL    HW1 5822   6.479   2.561   3.062
 1641SOL    HW2 5823   6.464   2.651   2.926
 1642SOL     OW 5824   6.124   2.412   5.879
 1642SOL    HW1 5825   6.174   2.477   5.937
 1642SOL    HW2 5826   6.190   2.351   5.835
 1643SOL     OW 5827   2.504   5.868   3.696
 1643SOL    HW1 5828   2.408   5.873   3.723
 1643SOL    HW2 5829   2.519   5.924   3.615
 1644SOL     OW 5830   5.905   2.915   1.339
 1644SOL    HW1 5831   5.953   2.932   1.253
 1644SOL    HW2 5832   5.945   2.836   1.385
 1645SOL     OW 5833   2.147   0.802   5.836
 1645SOL    HW1 5834   2.159   0.857   5.919
 1645SOL    HW2 5835   2.084   0.727   5.855
 1646SOL     OW 5836   1.226   5.522   1.338
 1646SOL    HW1 5837   1.143   5.522   1.394
 1646SOL    HW2 5838   1.269   5.432   1.341
 1647SOL     OW 5839   5.913   2.999   4.255
 1647SOL    HW1 5840   5.915   3.049   4.342
 1647SOL    HW2 5841   5.820   2.997   4.220
 1648SOL     OW 5842   5.551   6.134   1.295
 1648SOL    HW1 5843   5.602   6.218   1.283
 1648SOL    HW2 5844   5.468   6.153   1.347
 1649SOL     OW 5845   3.661   7.020   3.547
 1649SOL    HW1 5846   3.642   0.094   3.521
 1649SOL    HW2 5847   3.694   6.969   3.467
 1650SOL     OW 5848   2.747   4.683   6.387
 1650SOL    HW1 5849   2.804   4.687   6.469
 1650SOL    HW2 5850   2.654   4.713   6.410
 1651SOL     OW 5851   1.306   2.938   3.698
 1651SOL    HW1 5852   1.225   2.924   3.642
 1651SOL    HW2 5853   1.350   2.850   3.718
 1652SOL     OW 5854   0.568   2.479   1.381
 1652SOL    HW1 5855   0.493   2.467   1.445
 1652SOL    HW2 5856   0.557   2.566   1.333
 1653SOL     OW 5857   0.192   4.432   3.522
 1653SOL    HW1 5858   0.221   4.521   3.556
 1653SOL    HW2 5859   0.271   4.370   3.520
 1654SOL     OW 5860   0.467   3.024   2.019
 1654SOL    HW1 5861   0.492   2.929   2.039
 1654SOL    HW2 5862   0.422   3.065   2.098
 1655SOL     OW 5863   0.048   6.790   4.583
 1655SOL    HW1 5864   6.996   6.721   4.582
 1655SOL    HW2 5865   0.111   6.774   4.507
 1656SOL     OW 5866   1.727   4.732   3.949
 1656SOL    HW1 5867   1.787   4.685   4.013
 1656SOL    HW2 5868   1.738   4.693   3.858
 1657SOL     OW 5869   1.235   6.876   5.267
 1657SOL    HW1 5870   1.308   6.916   5.322
 1657SOL    HW2 5871   1.150   6.876   5.319
 1658SOL     OW 5872   6.509   0.114   6.836
 1658SOL    HW1 5873   6.514   0.030   6.890
 1658SOL    HW2 5874   6.512   0.092   6.739
 1659SOL     OW 5875   4.934   6.472   6.537
 1659SOL    HW1 5876   4.849   6.510   6.574
 1659SOL    HW2 5877   4.989   6.432   6.610
 1660SOL     OW 5878   2.424   0.036   2.433
 1660SOL    HW1 5879   2.351   0.103   2.445
 1660SOL    HW2 5880   2.507   0.082   2.402
 1661SOL     OW 5881   4.173   4.793   2.759
 1661SOL    HW1 5882   4.148   4.807   2.663
 1661SOL    HW2 5883   4.091   4.787   2.815
 1662SOL     OW 5884   0.240   1.239   5.102
 1662SOL    HW1 5885   0.242   1.334   5.071
 1662SOL    HW2 5886   0.146   1.205   5.100
 1663SOL     OW 5887   4.115   4.962   0.708
 1663SOL    HW1 5888   4.081   4.996   0.796
 1663SOL    HW2 5889   4.209   4.931   0.718
 1664SOL     OW 5890   1.272   0.142   5.552
 1664SOL    HW1 5891   1.175   0.125   5.567
 1664SOL    HW2 5892   1.285   0.196   5.469
 1665SOL     OW 5893   2.306   3.819   0.415
 1665SOL    HW1 5894   2.343   3.726   0.404
 1665SOL    HW2 5895   2.295   3.839   0.512
 1666SOL     OW 5896   5.863   6.399   6.373
 1666SOL    HW1 5897   5.900   6.448   6.452
 1666SOL    HW2 5898   5.933   6.341   6.333
 1667SOL     OW 5899   1.098   6.560   1.486
 1667SOL    HW1 5900   1.148   6.594   1.406
 1667SOL    HW2 5901   1.010   6.523   1.456
 1668SOL     OW 5902   5.629   4.570   2.946
 1668SOL    HW1 5903   5.644   4.499   2.877
 1668SOL    HW2 5904   5.637   4.660   2.903
 1669SOL     OW 5905   6.267   3.554   5.363
 1669SOL    HW1 5906   6.204   3.535   5.438
 1669SOL    HW2 5907   6.216   3.587   5.283
 1670SOL     OW 5908   2.318   4.905   5.813
 1670SOL    HW1 5909   2.272   4.991   5.833
 1670SOL    HW2 5910   2.371   4.876   5.892
 1671SOL     OW 5911   6.052   2.000   0.942
 1671SOL    HW1 5912   6.105   1.938   1.000
 1671SOL    HW2 5913   6.054   2.092   0.980
 1672SOL     OW 5914   0.881   3.459   0.009
 1672SOL    HW1 5915   0.851   3.406   6.950
 1672SOL    HW2 5916   0.981   3.465   0.009
 1673SOL     OW 5917   2.505   1.412   4.908
 1673SOL    HW1 5918   2.428   1.371   4.957
 1673SOL    HW2 5919   2.486   1.508   4.890
 1674SOL     OW 5920   4.835   1.897   3.058
 1674SOL    HW1 5921   4.897   1.974   3.074
 1674SOL    HW2 5922   4.769   1.891   3.133
 1675SOL     OW 5923   5.548   0.843   1.063
 1675SOL    HW1 5924   5.621   0.775   1.056
 1675SOL    HW2 5925   5.587   0.930   1.096
 1676SOL     OW 5926   1.521   1.642   2.982
 1676SOL    HW1 5927   1.518   1.574   2.909
 1676SOL    HW2 5928   1.509   1.597   3.071
 1677SOL     OW 5929   3.755   4.119   3.607
 1677SOL    HW1 5930   3.798   4.205   3.633
 1677SOL    HW2 5931   3.789   4.046   3.667
 1678SOL     OW 5932   1.244   0.174   0.660
 1678SOL    HW1 5933   1.292   0.260   0.678
 1678SOL    HW2 5934   1.168   0.191   0.598
 1679SOL     OW 5935   1.192   2.337   5.881
 1679SOL    HW1 5936   1.109   2.341   5.938
 1679SOL    HW2 5937   1.227   2.243   5.881
 1680SOL     OW 5938   4.822   2.407   4.015
 1680SOL    HW1 5939   4.792   2.439   4.105
 1680SOL    HW2 5940   4.771   2.324   3.991
 1681SOL     OW 5941   2.048   6.124   4.077
 1681SOL    HW1 5942   2.023   6.175   4.159
 1681SOL    HW2 5943   1.999   6.037   4.075
 1682SOL     OW 5944   3.108   0.362   5.394
 1682SOL    HW1 5945   3.115   0.332   5.489
 1682SOL    HW2 5946   3.173   0.310   5.338
 1683SOL     OW 5947   5.892   4.873   2.376
 1683SOL    HW1 5948   5.818   4.806   2.386
 1683SOL    HW2 5949   5.871   4.935   2.301
 1684SOL     OW 5950   2.533   4.566   1.913
 1684SOL    HW1 5951   2.516   4.471   1.887
 1684SOL    HW2 5952   2.631   4.583   1.912
 1685SOL     OW 5953   0.298   1.075   5.311
 1685SOL    HW1 5954   0.205   1.048   5.340
 1685SOL    HW2 5955   0.294   1.164   5.266
 1686SOL     OW 5956   4.916   5.836   3.019
 1686SOL    HW1 5957   4.890   5.740   3.012
 1686SOL    HW2 5958   4.970   5.850   3.102
 1687SOL     OW 5959   5.875   3.909   2.735
 1687SOL    HW1 5960   5.950   3.844   2.724
 1687SOL    HW2 5961   5.831   3.893   2.824
 1688SOL     OW 5962   2.137   1.399   3.649
 1688SOL    HW1 5963   2.188   1.480   3.679
 1688SOL    HW2 5964   2.157   1.381   3.552
 1689SOL     OW 5965   5.074   0.763   1.318
 1689SOL    HW1 5966   5.105   0.819   1.395
 1689SOL    HW2 5967   5.153   0.727   1.269
 1690SOL     OW 5968   0.941   4.311   4.449
 1690SOL    HW1 5969   1.016   4.298   4.513
 1690SOL    HW2 5970   0.976   4.311   4.355
 1691SOL     OW 5971   4.601   2.883   5.360
 1691SOL    HW1 5972   4.622   2.813   5.429
 1691SOL    HW2 5973   4.507   2.871   5.327
 1692SOL     OW 5974   5.616   5.321   1.112
 1692SOL    HW1 5975   5.649   5.280   1.197
 1692SOL    HW2 5976   5.546   5.262   1.071
 1693SOL     OW 5977   5.545   6.959   5.236
 1693SOL    HW1 5978   5.533   0.038   5.245
 1693SOL    HW2 5979   5.459   6.918   5.206
 1694SOL     OW 5980   4.743   1.375   5.322
 1694SOL    HW1 5981   4.753   1.288   5.369
 1694SOL    HW2 5982   4.646   1.396   5.311
 1695SOL     OW 5983   3.788   1.014   6.239
 1695SOL    HW1 5984   3.806   0.919   6.265
 1695SOL    HW2 5985   3.872   1.055   6.201
 1696SOL     OW 5986   4.688   6.264   0.792
 1696SOL    HW1 5987   4.727   6.174   0.815
 1696SOL    HW2 5988   4.681   6.272   0.692
 1697SOL     OW 5989   5.771   2.448   2.341
 1697SOL    HW1 5990   5.857   2.473   2.386
 1697SOL    HW2 5991   5.697   2.448   2.408
 1698SOL     OW 5992   3.950   1.049   1.494
 1698SOL    HW1 5993   3.908   1.131   1.531
 1698SOL    HW2 5994   4.041   1.037   1.534
 1699SOL     OW 5995   2.353   0.418   0.085
 1699SOL    HW1 5996   2.412   0.474   0.026
 1699SOL    HW2 5997   2.276   0.474   0.116
 1700SOL     OW 5998   6.232   2.859   2.752
 1700SOL    HW1 5999   6.153   2.904   2.795
 1700SOL    HW2 6000   6.235   2.763   2.781
 1701SOL     OW 6001   0.289   5.671   4.411
 1701SOL    HW1 6002   0.319   5.596   4.471
 1701SOL    HW2 6003   0.190   5.671   4.405
 1702SOL     OW 6004   2.001   2.546   5.790
 1702SOL    HW1 6005   1.999   2.484   5.867
 1702SOL    HW2 6006   1.964   2.635   5.818
 1703SOL     OW 6007   3.436   2.154   0.726
 1703SOL    HW1 6008   3.432   2.250   0.698
 1703SOL    HW2 6009   3.484   2.100   0.657
 1704SOL     OW 6010   2.504   2.271   1.324
 1704SOL    HW1 6011   2.592   2.248   1.284
 1704SOL    HW2 6012   2.440   2.195   1.310
 1705SOL     OW 6013   4.313   2.089   0.549
 1705SOL    HW1 6014   4.260   2.008   0.526
 1705SOL    HW2 6015   4.267   2.170   0.512
 1706SOL     OW 6016   4.159   2.309   6.745
 1706SOL    HW1 6017   4.214   2.226   6.743
 1706SOL    HW2 6018   4.093   2.304   6.821
 1707SOL     OW 6019   4.526   2.151   2.165
 1707SOL    HW1 6020   4.450   2.107   2.117
 1707SOL    HW2 6021   4.506   2.153   2.263
 1708SOL     OW 6022   3.387   5.162   1.786
 1708SOL    HW1 6023   3.313   5.098   1.765
 1708SOL    HW2 6024   3.472   5.112   1.800
 1709SOL     OW 6025   4.584   5.336   0.514
 1709SOL    HW1 6026   4.635   5.331   0.428
 1709SOL    HW2 6027   4.593   5.428   0.553
 1710SOL     OW 6028   4.187   5.168   3.319
 1710SOL    HW1 6029   4.208   5.076   3.287
 1710SOL    HW2 6030   4.126   5.163   3.399
 1711SOL     OW 6031   3.634   4.696   6.317
 1711SOL    HW1 6032   3.714   4.722   6.262
 1711SOL    HW2 6033   3.563   4.766   6.308
 1712SOL     OW 6034   0.158   1.937   3.195
 1712SOL    HW1 6035   0.134   1.928   3.292
 1712SOL    HW2 6036   0.076   1.927   3.139
 1713SOL     OW 6037   4.120   0.895   3.122
 1713SOL    HW1 6038   4.208   0.942   3.118
 1713SOL    HW2 6039   4.051   0.956   3.160
 1714SOL     OW 6040   3.908   3.363   0.374
 1714SOL    HW1 6041   3.830   3.425   0.366
 1714SOL    HW2 6042   3.930   3.349   0.470
 1715SOL     OW 6043   1.984   0.132   2.822
 1715SOL    HW1 6044   1.933   0.070   2.762
 1715SOL    HW2 6045   2.060   0.173   2.770
 1716SOL     OW 6046   4.693   0.336   3.272
 1716SOL    HW1 6047   4.677   0.238   3.266
 1716SOL    HW2 6048   4.631   0.384   3.210
 1717SOL     OW 6049   3.539   6.135   5.171
 1717SOL    HW1 6050   3.445   6.154   5.143
 1717SOL    HW2 6051   3.552   6.036   5.180
 1718SOL     OW 6052   1.183   2.888   1.739
 1718SOL    HW1 6053   1.198   2.971   1.686
 1718SOL    HW2 6054   1.249   2.818   1.711
 1719SOL     OW 6055   1.282   5.470   2.112
 1719SOL    HW1 6056   1.282   5.565   2.143
 1719SOL    HW2 6057   1.245   5.411   2.184
 1720SOL     OW 6058   6.952   3.056   5.894
 1720SOL    HW1 6059   6.980   3.127   5.829
 1720SOL    HW2 6060   6.979   3.084   5.986
 1721SOL     OW 6061   1.927   1.833   0.743
 1721SOL    HW1 6062   1.863   1.906   0.721
 1721SOL    HW2 6063   1.879   1.757   0.786
 1722SOL     OW 6064   2.858   2.276   3.114
 1722SOL    HW1 6065   2.953   2.304   3.124
 1722SOL    HW2 6066   2.850   2.177   3.127
 1723SOL     OW 6067   5.148   3.456   0.171
 1723SOL    HW1 6068   5.192   3.386   0.115
 1723SOL    HW2 6069   5.074   3.499   0.119
 1724SOL     OW 6070   6.797   2.210   1.116
 1724SOL    HW1 6071   6.730   2.233   1.187
 1724SOL    HW2 6072   6.820   2.293   1.064
 1725SOL     OW 6073   1.513   5.853   6.973
 1725SOL    HW1 6074   1.483   5.813   0.039
 1725SOL    HW2 6075   1.612   5.840   6.962
 1726SOL     OW 6076   5.344   4.289   3.298
 1726SOL    HW1 6077   5.378   4.234   3.221
 1726SOL    HW2 6078   5.258   4.333   3.271
 1727SOL     OW 6079   3.273   3.154   3.423
 1727SOL    HW1 6080   3.173   3.160   3.434
 1727SOL    HW2 6081   3.297   3.061   3.396
 1728SOL     OW 6082   4.697   2.193   4.132
 1728SOL    HW1 6083   4.678   2.171   4.036
 1728SOL    HW2 6084   4.612   2.191   4.184
 1729SOL     OW 6085   1.594   4.007   2.249
 1729SOL    HW1 6086   1.529   4.063   2.198
 1729SOL    HW2 6087   1.559   3.913   2.255
 1730SOL     OW 6088   2.440   4.872   5.159
 1730SOL    HW1 6089   2.345   4.862   5.189
 1730SOL    HW2 6090   2.447   4.953   5.100
 1731SOL     OW 6091   5.959   4.566   3.654
 1731SOL    HW1 6092   5.876   4.583   3.707
 1731SOL    HW2 6093   5.969   4.638   3.585
 1732SOL     OW 6094   1.829   3.786   5.975
 1732SOL    HW1 6095   1.878   3.838   6.045
 1732SOL    HW2 6096   1.731   3.801   5.986
 1733SOL     OW 6097   2.524   4.155   6.970
 1733SOL    HW1 6098   2.544   4.080   0.013
 1733SOL    HW2 6099   2.506   4.118   6.879
 1734SOL     OW 6100   0.068   2.585   1.167
 1734SOL    HW1 6101   0.146   2.522   1.159
 1734SOL    HW2 6102   0.031   2.580   1.260
 1735SOL     OW 6103   3.975   5.028   5.601
 1735SOL    HW1 6104   3.903   5.073   5.547
 1735SOL    HW2 6105   3.942   5.015   5.694
 1736SOL     OW 6106   4.711   3.320   0.725
 1736SOL    HW1 6107   4.762   3.274   0.651
 1736SOL    HW2 6108   4.772   3.333   0.803
 1737SOL     OW 6109   4.591   1.473   5.558
 1737SOL    HW1 6110   4.650   1.522   5.494
 1737SOL    HW2 6111   4.504   1.451   5.514
 1738SOL     OW 6112   1.448   3.168   4.589
 1738SOL    HW1 6113   1.399   3.115   4.520
 1738SOL    HW2 6114   1.546   3.167   4.569
 1739SOL     OW 6115   5.459   0.412   4.313
 1739SOL    HW1 6116   5.469   0.316   4.284
 1739SOL    HW2 6117   5.364   0.429   4.336
 1740SOL     OW 6118   6.334   2.805   4.577
 1740SOL    HW1 6119   6.262   2.751   4.621
 1740SOL    HW2 6120   6.379   2.863   4.645
 1741SOL     OW 6121   1.029   2.111   4.689
 1741SOL    HW1 6122   1.119   2.128   4.731
 1741SOL    HW2 6123   1.035   2.030   4.630
 1742SOL     OW 6124   5.941   6.641   6.123
 1742SOL    HW1 6125   5.907   6.586   6.199
 1742SOL    HW2 6126   5.986   6.582   6.057
 1743SOL     OW 6127   1.488   0.750   3.029
 1743SOL    HW1 6128   1.562   0.786   2.972
 1743SOL    HW2 6129   1.479   0.806   3.111
 1744SOL     OW 6130   3.799   1.869   4.444
 1744SOL    HW1 6131   3.883   1.906   4.483
 1744SOL    HW2 6132   3.750   1.817   4.514
 1745SOL     OW 6133   6.498   0.084   1.472
 1745SOL    HW1 6134   6.456   0.145   1.540
 1745SOL    HW2 6135   6.547   0.011   1.519
 1746SOL     OW 6136   2.255   4.544   3.658
 1746SOL    HW1 6137   2.348   4.567   3.628
 1746SOL    HW2 6138   2.241   4.445   3.648
 1747SOL     OW 6139   4.372   6.936   2.183
 1747SOL    HW1 6140   4.278   6.954   2.214
 1747SOL    HW2 6141   4.417   0.002   2.161
 1748SOL     OW 6142   6.663   2.682   4.629
 1748SOL    HW1 6143   6.661   2.674   4.529
 1748SOL    HW2 6144   6.617   2.766   4.657
 1749SOL     OW 6145   1.620   4.814   0.842
 1749SOL    HW1 6146   1.572   4.862   0.915
 1749SOL    HW2 6147   1.664   4.733   0.879
 1750SOL     OW 6148   3.887   6.915   5.591
 1750SOL    HW1 6149   3.924   6.893   5.501
 1750SOL    HW2 6150   3.924   6.852   5.659
 1751SOL     OW 6151   5.327   2.754   5.262
 1751SOL    HW1 6152   5.386   2.827   5.227
 1751SOL    HW2 6153   5.232   2.786   5.265
 1752SOL     OW 6154   0.014   0.610   1.898
 1752SOL    HW1 6155   6.954   0.550   1.887
 1752SOL    HW2 6156   0.068   0.609   1.814
 1753SOL     OW 6157   6.185   1.696   1.694
 1753SOL    HW1 6158   6.256   1.760   1.723
 1753SOL    HW2 6159   6.195   1.610   1.743
 1754SOL     OW 6160   3.169   5.954   4.385
 1754SOL    HW1 6161   3.165   5.879   4.319
 1754SOL    HW2 6162   3.095   5.944   4.451
 1755SOL     OW 6163   6.717   6.733   5.040
 1755SOL    HW1 6164   6.773   6.814   5.055
 1755SOL    HW2 6165   6.723   6.704   4.944
 1756SOL     OW 6166   5.111   6.670   5.966
 1756SOL    HW1 6167   5.043   6.679   5.894
 1756SOL    HW2 6168   5.103   6.747   6.029
 1757SOL     OW 6169   2.195   4.746   5.124
 1757SOL    HW1 6170   2.110   4.798   5.113
 1757SOL    HW2 6171   2.224   4.710   5.035
 1758SOL     OW 6172   1.631   6.732   5.016
 1758SOL    HW1 6173   1.692   6.657   5.042
 1758SOL    HW2 6174   1.573   6.757   5.093
 1759SOL     OW 6175   2.053   6.689   0.556
 1759SOL    HW1 6176   2.030   6.652   0.466
 1759SOL    HW2 6177   1.969   6.714   0.604
 1760SOL     OW 6178   6.691   1.138   4.787
 1760SOL    HW1 6179   6.619   1.171   4.848
 1760SOL    HW2 6180   6.663   1.052   4.745
 1761SOL     OW 6181   5.952   1.317   2.225
 1761SOL    HW1 6182   6.012   1.375   2.281
 1761SOL    HW2 6183   5.997   1.298   2.137
 1762SOL     OW 6184   0.626   1.793   6.067
 1762SOL    HW1 6185   0.665   1.702   6.074
 1762SOL    HW2 6186   0.695   1.861   6.092
 1763SOL     OW 6187   0.780   3.805   4.058
 1763SOL    HW1 6188   0.861   3.842   4.103
 1763SOL    HW2 6189   0.754   3.719   4.102
 1764SOL     OW 6190   0.747   5.362   2.953
 1764SOL    HW1 6191   0.838   5.322   2.959
 1764SOL    HW2 6192   0.705   5.338   2.866
 1765SOL     OW 6193   5.448   3.025   2.568
 1765SOL    HW1 6194   5.538   2.985   2.553
 1765SOL    HW2 6195   5.403   2.979   2.645
 1766SOL     OW 6196   4.738   4.983   4.173
 1766SOL    HW1 6197   4.806   4.919   4.136
 1766SOL    HW2 6198   4.647   4.946   4.158
 1767SOL     OW 6199   0.944   4.481   2.202
 1767SOL    HW1 6200   0.965   4.539   2.281
 1767SOL    HW2 6201   0.936   4.386   2.232
 1768SOL     OW 6202   5.112   6.215   2.157
 1768SOL    HW1 6203   5.105   6.270   2.240
 1768SOL    HW2 6204   5.040   6.145   2.157
 1769SOL     OW 6205   5.074   0.032   0.029
 1769SOL    HW1 6206   5.094   7.006   0.116
 1769SOL    HW2 6207   5.128   0.116   0.023
 1770SOL     OW 6208   1.818   5.602   6.693
 1770SOL    HW1 6209   1.876   5.568   6.619
 1770SOL    HW2 6210   1.724   5.571   6.679
 1771SOL     OW 6211   1.499   3.174   5.971
 1771SOL    HW1 6212   1.422   3.222   6.014
 1771SOL    HW2 6213   1.479   3.156   5.875
 1772SOL     OW 6214   2.302   4.802   3.194
 1772SOL    HW1 6215   2.339   4.895   3.197
 1772SOL    HW2 6216   2.272   4.775   3.286
 1773SOL     OW 6217   1.234   6.800   6.099
 1773SOL    HW1 6218   1.161   6.758   6.046
 1773SOL    HW2 6219   1.228   6.770   6.194
 1774SOL     OW 6220   4.888   5.286   0.620
 1774SOL    HW1 6221   4.925   5.286   0.528
 1774SOL    HW2 6222   4.832   5.205   0.634
 1775SOL     OW 6223   2.371   5.524   6.683
 1775SOL    HW1 6224   2.374   5.450   6.616
 1775SOL    HW2 6225   2.380   5.485   6.775
 1776SOL     OW 6226   4.738   1.734   5.772
 1776SOL    HW1 6227   4.781   1.782   5.696
 1776SOL    HW2 6228   4.795   1.744   5.854
 1777SOL     OW 6229   4.930   6.149   6.120
 1777SOL    HW1 6230   4.907   6.205   6.200
 1777SOL    HW2 6231   4.879   6.183   6.040
 1778SOL     OW 6232   5.717   0.066   4.257
 1778SOL    HW1 6233   5.724   0.157   4.216
 1778SOL    HW2 6234   5.742   7.016   4.189
 1779SOL     OW 6235   5.891   5.715   4.263
 1779SOL    HW1 6236   5.942   5.800   4.248
 1779SOL    HW2 6237   5.934   5.663   4.337
 1780SOL     OW 6238   2.032   5.766   4.939
 1780SOL    HW1 6239   1.964   5.800   4.874
 1780SOL    HW2 6240   2.076   5.843   4.985
 1781SOL     OW 6241   3.968   0.969   4.135
 1781SOL    HW1 6242   3.940   1.064   4.145
 1781SOL    HW2 6243   3.895   0.916   4.090
 1782SOL     OW 6244   0.830   1.344   2.753
 1782SOL    HW1 6245   0.908   1.317   2.811
 1782SOL    HW2 6246   0.855   1.423   2.698
 1783SOL     OW 6247   2.188   4.190   6.694
 1783SOL    HW1 6248   2.093   4.222   6.692
 1783SOL    HW2 6249   2.234   4.228   6.774
 1784SOL     OW 6250   2.659   0.035   1.430
 1784SOL    HW1 6251   2.726   0.108   1.437
 1784SOL    HW2 6252   2.577   0.060   1.480
 1785SOL     OW 6253   1.367   6.600   4.660
 1785SOL    HW1 6254   1.377   6.554   4.571
 1785SOL    HW2 6255   1.390   6.536   4.733
 1786SOL     OW 6256   0.868   6.773   0.573
 1786SOL    HW1 6257   0.942   6.746   0.635
 1786SOL    HW2 6258   0.795   6.705   0.578
 1787SOL     OW 6259   2.811   3.649   6.256
 1787SOL    HW1 6260   2.854   3.589   6.189
 1787SOL    HW2 6261   2.749   3.712   6.209
 1788SOL     OW 6262   4.746   3.505   1.052
 1788SOL    HW1 6263   4.794   3.418   1.046
 1788SOL    HW2 6264   4.650   3.493   1.028
 1789SOL     OW 6265   6.117   3.937   1.845
 1789SOL    HW1 6266   6.203   3.978   1.814
 1789SOL    HW2 6267   6.041   4.000   1.826
 1790SOL     OW 6268   2.438   2.360   4.355
 1790SOL    HW1 6269   2.437   2.373   4.454
 1790SOL    HW2 6270   2.476   2.271   4.333
 1791SOL     OW 6271   5.207   6.861   2.867
 1791SOL    HW1 6272   5.248   6.814   2.945
 1791SOL    HW2 6273   5.222   6.960   2.877
 1792SOL     OW 6274   7.020   1.545   5.288
 1792SOL    HW1 6275   0.069   1.479   5.317
 1792SOL    HW2 6276   6.931   1.521   5.328
 1793SOL     OW 6277   0.013   1.293   5.944
 1793SOL    HW1 6278   0.080   1.244   5.887
 1793SOL    HW2 6279   0.061   1.357   6.004
 1794SOL     OW 6280   1.375   0.311   6.464
 1794SOL    HW1 6281   1.443   0.238   6.458
 1794SOL    HW2 6282   1.382   0.355   6.554
 1795SOL     OW 6283   6.020   4.038   1.502
 1795SOL    HW1 6284   6.000   4.071   1.410
 1795SOL    HW2 6285   5.936   4.002   1.543
 1796SOL     OW 6286   0.760   0.401   6.716
 1796SOL    HW1 6287   0.773   0.455   6.633
 1796SOL    HW2 6288   0.847   0.391   6.764
 1797SOL     OW 6289   1.971   5.493   5.874
 1797SOL    HW1 6290   1.943   5.541   5.958
 1797SOL    HW2 6291   2.065   5.462   5.883
 1798SOL     OW 6292   3.020   3.569   5.140
 1798SOL    HW1 6293   3.103   3.624   5.127
 1798SOL    HW2 6294   2.939   3.628   5.133
 1799SOL     OW 6295   3.515   1.689   0.525
 1799SOL    HW1 6296   3.523   1.650   0.434
 1799SOL    HW2 6297   3.572   1.638   0.589
 1800SOL     OW 6298   6.142   3.613   5.139
 1800SOL    HW1 6299   6.070   3.550   5.107
 1800SOL    HW2 6300   6.111   3.707   5.127
 1801SOL     OW 6301   1.304   1.072   2.773
 1801SOL    HW1 6302   1.318   1.171   2.780
 1801SOL    HW2 6303   1.390   1.028   2.746
 1802SOL     OW 6304   0.136   4.637   3.944
 1802SOL    HW1 6305   0.128   4.734   3.969
 1802SOL    HW2 6306   0.056   4.588   3.978
 1803SOL     OW 6307   0.278   6.899   3.217
 1803SOL    HW1 6308   0.307   6.933   3.306
 1803SOL    HW2 6309   0.219   6.967   3.173
 1804SOL     OW 6310   2.078   3.156   6.074
 1804SOL    HW1 6311   2.149   3.139   6.005
 1804SOL    HW2 6312   2.118   3.205   6.152
 1805SOL     OW 6313   0.464   5.834   6.795
 1805SOL    HW1 6314   0.419   5.754   6.835
 1805SOL    HW2 6315   0.551   5.850   6.843
 1806SOL     OW 6316   6.975   1.778   1.849
 1806SOL    HW1 6317   6.911   1.834   1.797
 1806SOL    HW2 6318   6.934   1.688   1.865
 1807SOL     OW 6319   0.280   2.495   2.389
 1807SOL    HW1 6320   0.251   2.400   2.392
 1807SOL    HW2 6321   0.216   2.548   2.333
 1808SOL     OW 6322   4.693   2.431   6.131
 1808SOL    HW1 6323   4.658   2.436   6.225
 1808SOL    HW2 6324   4.697   2.524   6.093
 1809SOL     OW 6325   4.589   0.532   5.504
 1809SOL    HW1 6326   4.567   0.533   5.601
 1809SOL    HW2 6327   4.672   0.479   5.489
 1810SOL     OW 6328   0.168   0.452   4.090
 1810SOL    HW1 6329   0.151   0.363   4.048
 1810SOL    HW2 6330   0.148   0.447   4.188
 1811SOL     OW 6331   4.039   5.593   1.672
 1811SOL    HW1 6332   3.942   5.614   1.670
 1811SOL    HW2 6333   4.087   5.645   1.601
 1812SOL     OW 6334   4.577   6.354   6.055
 1812SOL    HW1 6335   4.574   6.311   6.145
 1812SOL    HW2 6336   4.664   6.403   6.045
 1813SOL     OW 6337   4.493   4.451   2.812
 1813SOL    HW1 6338   4.468   4.383   2.742
 1813SOL    HW2 6339   4.562   4.412   2.873
 1814SOL     OW 6340   0.036   6.158   0.466
 1814SOL    HW1 6341   7.000   6.239   0.449
 1814SOL    HW2 6342   0.113   6.156   0.403
 1815SOL     OW 6343   5.669   6.374   1.484
 1815SOL    HW1 6344   5.700   6.424   1.565
 1815SOL    HW2 6345   5.748   6.349   1.428
 1816SOL     OW 6346   4.028   4.747   5.467
 1816SOL    HW1 6347   3.938   4.720   5.436
 1816SOL    HW2 6348   4.025   4.841   5.502
 1817SOL     OW 6349   0.428   1.622   3.833
 1817SOL    HW1 6350   0.462   1.711   3.863
 1817SOL    HW2 6351   0.330   1.616   3.851
 1818SOL     OW 6352   2.460   1.006   0.493
 1818SOL    HW1 6353   2.511   0.985   0.576
 1818SOL    HW2 6354   2.506   0.965   0.414
 1819SOL     OW 6355   1.915   4.798   3.500
 1819SOL    HW1 6356   1.874   4.734   3.565
 1819SOL    HW2 6357   1.868   4.792   3.412
 1820SOL     OW 6358   3.324   6.863   5.370
 1820SOL    HW1 6359   3.261   6.829   5.440
 1820SOL    HW2 6360   3.344   6.960   5.387
 1821SOL     OW 6361   2.968   2.025   2.873
 1821SOL    HW1 6362   2.987   2.065   2.783
 1821SOL    HW2 6363   2.989   1.928   2.871
 1822SOL     OW 6364   6.968   2.769   2.293
 1822SOL    HW1 6365   6.971   2.812   2.202
 1822SOL    HW2 6366   6.898   2.815   2.348
 1823SOL     OW 6367   3.992   5.740   2.239
 1823SOL    HW1 6368   3.925   5.812   2.223
 1823SOL    HW2 6369   4.062   5.743   2.167
 1824SOL     OW 6370   4.355   3.071   1.732
 1824SOL    HW1 6371   4.323   3.159   1.766
 1824SOL    HW2 6372   4.449   3.055   1.762
 1825SOL     OW 6373   1.631   1.870   5.044
 1825SOL    HW1 6374   1.545   1.821   5.032
 1825SOL    HW2 6375   1.694   1.845   4.970
 1826SOL     OW 6376   3.674   2.252   1.605
 1826SOL    HW1 6377   3.672   2.275   1.702
 1826SOL    HW2 6378   3.585   2.218   1.576
 1827SOL     OW 6379   5.373   4.942   0.708
 1827SOL    HW1 6380   5.411   5.034   0.715
 1827SOL    HW2 6381   5.274   4.948   0.694
 1828SOL     OW 6382   1.321   3.292   4.801
 1828SOL    HW1 6383   1.356   3.252   4.716
 1828SOL    HW2 6384   1.390   3.284   4.872
 1829SOL     OW 6385   4.183   0.574   2.994
 1829SOL    HW1 6386   4.132   0.600   2.912
 1829SOL    HW2 6387   4.273   0.539   2.968
 1830SOL     OW 6388   5.028   0.048   5.310
 1830SOL    HW1 6389   5.046   0.128   5.367
 1830SOL    HW2 6390   5.071   6.988   5.352
 1831SOL     OW 6391   3.998   5.159   0.991
 1831SOL    HW1 6392   4.094   5.168   0.963
 1831SOL    HW2 6393   3.940   5.213   0.930
 1832SOL     OW 6394   2.240   2.893   0.321
 1832SOL    HW1 6395   2.296   2.824   0.275
 1832SOL    HW2 6396   2.242   2.978   0.268
 1833SOL     OW 6397   5.583   0.545   0.343
 1833SOL    HW1 6398   5.547   0.638   0.342
 1833SOL    HW2 6399   5.624   0.526   0.432
 1834SOL     OW 6400   0.949   2.968   5.747
 1834SOL    HW1 6401   1.010   2.894   5.718
 1834SOL    HW2 6402   0.987   3.056   5.718
 1835SOL     OW 6403   0.085   6.513   1.440
 1835SOL    HW1 6404   0.126   6.562   1.362
 1835SOL    HW2 6405   0.019   6.573   1.485
 1836SOL     OW 6406   5.031   2.625   2.237
 1836SOL    HW1 6407   5.032   2.533   2.198
 1836SOL    HW2 6408   4.940   2.646   2.271
 1837SOL     OW 6409   3.269   2.339   6.159
 1837SOL    HW1 6410   3.200   2.387   6.106
 1837SOL    HW2 6411   3.244   2.341   6.256
 1838SOL     OW 6412   5.758   0.700   0.742
 1838SOL    HW1 6413   5.856   0.682   0.736
 1838SOL    HW2 6414   5.735   0.721   0.837
 1839SOL     OW 6415   6.829   1.294   0.132
 1839SOL    HW1 6416   6.890   1.265   0.059
 1839SOL    HW2 6417   6.865   1.264   0.220
 1840SOL     OW 6418   4.647   6.569   3.482
 1840SOL    HW1 6419   4.688   6.540   3.568
 1840SOL    HW2 6420   4.548   6.579   3.493
 1841SOL     OW 6421   2.416   0.640   2.460
 1841SOL    HW1 6422   2.507   0.682   2.461
 1841SOL    HW2 6423   2.407   0.579   2.538
 1842SOL     OW 6424   1.487   5.422   0.561
 1842SOL    HW1 6425   1.559   5.487   0.588
 1842SOL    HW2 6426   1.446   5.383   0.643
 1843SOL     OW 6427   2.637   1.177   5.373
 1843SOL    HW1 6428   2.650   1.125   5.289
 1843SOL    HW2 6429   2.619   1.273   5.350
 1844SOL     OW 6430   5.641   2.359   6.196
 1844SOL    HW1 6431   5.697   2.441   6.204
 1844SOL    HW2 6432   5.700   2.279   6.184
 1845SOL     OW 6433   1.383   1.714   3.672
 1845SOL    HW1 6434   1.472   1.750   3.645
 1845SOL    HW2 6435   1.362   1.632   3.619
 1846SOL     OW 6436   4.127   1.688   1.953
 1846SOL    HW1 6437   4.121   1.707   2.051
 1846SOL    HW2 6438   4.087   1.763   1.901
 1847SOL     OW 6439   2.048   5.837   5.376
 1847SOL    HW1 6440   2.092   5.749   5.363
 1847SOL    HW2 6441   2.039   5.856   5.474
 1848SOL     OW 6442   3.169   6.119   3.220
 1848SOL    HW1 6443   3.191   6.098   3.124
 1848SOL    HW2 6444   3.076   6.156   3.224
 1849SOL     OW 6445   5.011   2.845   2.002
 1849SOL    HW1 6446   4.976   2.774   2.063
 1849SOL    HW2 6447   4.941   2.915   1.989
 1850SOL     OW 6448   5.043   1.656   0.995
 1850SOL    HW1 6449   5.065   1.597   1.073
 1850SOL    HW2 6450   4.945   1.652   0.977
 1851SOL     OW 6451   0.310   4.310   5.133
 1851SOL    HW1 6452   0.297   4.366   5.051
 1851SOL    HW2 6453   0.362   4.228   5.109
 1852SOL     OW 6454   0.047   0.072   3.140
 1852SOL    HW1 6455   7.012   7.011   3.121
 1852SOL    HW2 6456   0.002   0.153   3.102
 1853SOL     OW 6457   0.237   2.705   5.600
 1853SOL    HW1 6458   0.210   2.779   5.662
 1853SOL    HW2 6459   0.219   2.733   5.505
 1854SOL     OW 6460   0.945   7.009   3.355
 1854SOL    HW1 6461   0.930   0.003   3.257
 1854SOL    HW2 6462   0.947   0.078   3.401
 1855SOL     OW 6463   4.793   2.831   4.164
 1855SOL    HW1 6464   4.769   2.928   4.173
 1855SOL    HW2 6465   4.734   2.788   4.096
 1856SOL     OW 6466   3.300   2.755   1.144
 1856SOL    HW1 6467   3.291   2.666   1.190
 1856SOL    HW2 6468   3.382   2.801   1.178
 1857SOL     OW 6469   4.284   1.821   0.236
 1857SOL    HW1 6470   4.305   1.807   0.139
 1857SOL    HW2 6471   4.369   1.844   0.285
 1858SOL     OW 6472   4.505   2.521   3.839
 1858SOL    HW1 6473   4.423   2.479   3.800
 1858SOL    HW2 6474   4.545   2.584   3.773
 1859SOL     OW 6475   7.015   1.748   4.188
 1859SOL    HW1 6476   0.009   1.711   4.280
 1859SOL    HW2 6477   6.919   1.741   4.163
 1860SOL     OW 6478   1.775   1.507   5.285
 1860SOL    HW1 6479   1.761   1.599   5.247
 1860SOL    HW2 6480   1.727   1.500   5.372
 1861SOL     OW 6481   6.714   6.876   3.800
 1861SOL    HW1 6482   6.797   6.823   3.781
 1861SOL    HW2 6483   6.728   6.932   3.881
 1862SOL     OW 6484   2.825   5.765   5.742
 1862SOL    HW1 6485   2.810   5.700   5.816
 1862SOL    HW2 6486   2.894   5.729   5.680
 1863SOL     OW 6487   0.473   2.782   0.607
 1863SOL    HW1 6488   0.410   2.857   0.589
 1863SOL    HW2 6489   0.473   2.719   0.529
 1864SOL     OW 6490   4.195   5.665   2.415
 1864SOL    HW1 6491   4.289   5.665   2.383
 1864SOL    HW2 6492   4.133   5.665   2.336
 1865SOL     OW 6493   5.924   1.625   5.788
 1865SOL    HW1 6494   5.922   1.723   5.808
 1865SOL    HW2 6495   6.019   1.595   5.778
 1866SOL     OW 6496   1.011   5.134   3.815
 1866SOL    HW1 6497   0.971   5.050   3.852
 1866SOL    HW2 6498   1.014   5.203   3.886
 1867SOL     OW 6499   1.546   2.480   1.336
 1867SOL    HW1 6500   1.484   2.442   1.267
 1867SOL    HW2 6501   1.638   2.443   1.322
 1868SOL     OW 6502   5.821   3.623   6.413
 1868SOL    HW1 6503   5.894   3.554   6.408
 1868SOL    HW2 6504   5.733   3.579   6.398
 1869SOL     OW 6505   3.905   1.234   4.108
 1869SOL    HW1 6506   3.829   1.256   4.046
 1869SOL    HW2 6507   3.903   1.296   4.186
 1870SOL     OW 6508   6.940   5.819   4.544
 1870SOL    HW1 6509   6.988   5.826   4.632
 1870SOL    HW2 6510   7.002   5.781   4.475
 1871SOL     OW 6511   0.386   6.874   6.860
 1871SOL    HW1 6512   0.337   6.793   6.828
 1871SOL    HW2 6513   0.389   6.942   6.787
 1872SOL     OW 6514   2.699   2.546   1.762
 1872SOL    HW1 6515   2.778   2.511   1.813
 1872SOL    HW2 6516   2.713   2.643   1.742
 1873SOL     OW 6517   6.383   1.635   0.911
 1873SOL    HW1 6518   6.456   1.671   0.853
 1873SOL    HW2 6519   6.415   1.553   0.958
 1874SOL     OW 6520   0.409   5.291   0.384
 1874SOL    HW1 6521   0.335   5.231   0.354
 1874SOL    HW2 6522   0.440   5.346   0.306
 1875SOL     OW 6523   6.714   4.966   0.358
 1875SOL    HW1 6524   6.722   5.012   0.447
 1875SOL    HW2 6525   6.626   4.988   0.317
 1876SOL     OW 6526   0.449   5.618   0.617
 1876SOL    HW1 6527   0.353   5.639   0.634
 1876SOL    HW2 6528   0.468   5.626   0.519
 1877SOL     OW 6529   0.754   1.637   3.027
 1877SOL    HW1 6530   0.842   1.645   2.980
 1877SOL    HW2 6531   0.723   1.728   3.056
 1878SOL     OW 6532   6.434   3.663   3.479
 1878SOL    HW1 6533   6.421   3.570   3.446
 1878SOL    HW2 6534   6.530   3.690   3.467
 1879SOL     OW 6535   4.891   5.934   4.950
 1879SOL    HW1 6536   4.891   5.927   5.050
 1879SOL    HW2 6537   4.980   5.905   4.915
 1880SOL     OW 6538   0.220   1.774   4.025
 1880SOL    HW1 6539   0.303   1.803   4.072
 1880SOL    HW2 6540   0.142   1.783   4.088
 1881SOL     OW 6541   1.763   1.645   4.248
 1881SOL    HW1 6542   1.693   1.688   4.305
 1881SOL    HW2 6543   1.851   1.689   4.265
 1882SOL     OW 6544   1.819   5.671   0.575
 1882SOL    HW1 6545   1.806   5.580   0.537
 1882SOL    HW2 6546   1.741   5.693   0.634
 1883SOL     OW 6547   1.840   3.049   2.966
 1883SOL    HW1 6548   1.789   3.068   3.050
 1883SOL    HW2 6549   1.933   3.084   2.975
 1884SOL     OW 6550   3.610   1.166   6.737
 1884SOL    HW1 6551   3.689   1.122   6.781
 1884SOL    HW2 6552   3.569   1.232   6.800
 1885SOL     OW 6553   0.538   2.023   1.295
 1885SOL    HW1 6554   0.556   2.103   1.237
 1885SOL    HW2 6555   0.588   2.033   1.381
 1886SOL     OW 6556   2.793   2.652   5.541
 1886SOL    HW1 6557   2.816   2.707   5.621
 1886SOL    HW2 6558   2.721   2.586   5.566
 1887SOL     OW 6559   0.529   6.762   5.772
 1887SOL    HW1 6560   0.618   6.725   5.795
 1887SOL    HW2 6561   0.540   6.855   5.736
 1888SOL     OW 6562   2.394   2.029   5.919
 1888SOL    HW1 6563   2.360   1.976   5.841
 1888SOL    HW2 6564   2.456   2.100   5.887
 1889SOL     OW 6565   3.274   3.163   0.573
 1889SOL    HW1 6566   3.345   3.233   0.561
 1889SOL    HW2 6567   3.240   3.134   0.484
 1890SOL     OW 6568   6.450   5.720   6.660
 1890SOL    HW1 6569   6.402   5.635   6.678
 1890SOL    HW2 6570   6.386   5.797   6.664
 1891SOL     OW 6571   5.872   3.943   5.732
 1891SOL    HW1 6572   5.823   3.875   5.787
 1891SOL    HW2 6573   5.817   4.026   5.726
 1892SOL     OW 6574   3.792   6.443   1.935
 1892SOL    HW1 6575   3.824   6.397   1.853
 1892SOL    HW2 6576   3.755   6.374   1.999
 1893SOL     OW 6577   3.255   1.859   4.978
 1893SOL    HW1 6578   3.255   1.777   5.036
 1893SOL    HW2 6579   3.163   1.898   4.976
 1894SOL     OW 6580   3.998   3.861   0.805
 1894SOL    HW1 6581   3.969   3.837   0.898
 1894SOL    HW2 6582   3.980   3.785   0.743
 1895SOL     OW 6583   5.278   0.677   3.047
 1895SOL    HW1 6584   5.331   0.748   3.092
 1895SOL    HW2 6585   5.298   0.589   3.091
 1896SOL     OW 6586   6.166   1.484   6.087
 1896SOL    HW1 6587   6.120   1.402   6.120
 1896SOL    HW2 6588   6.142   1.562   6.145
 1897SOL     OW 6589   6.280   5.118   3.829
 1897SOL    HW1 6590   6.269   5.209   3.866
 1897SOL    HW2 6591   6.355   5.071   3.876
 1898SOL     OW 6592   6.027   6.088   6.921
 1898SOL    HW1 6593   6.046   6.084   6.823
 1898SOL    HW2 6594   6.088   6.024   6.969
 1899SOL     OW 6595   0.762   2.586   3.265
 1899SOL    HW1 6596   0.669   2.573   3.228
 1899SOL    HW2 6597   0.777   2.683   3.284
 1900SOL     OW 6598   2.363   6.472   0.862
 1900SOL    HW1 6599   2.369   6.522   0.949
 1900SOL    HW2 6600   2.363   6.538   0.787
 1901SOL     OW 6601   1.534   1.588   6.699
 1901SOL    HW1 6602   1.579   1.653   6.761
 1901SOL    HW2 6603   1.569   1.601   6.606
 1902SOL     OW 6604   1.859   2.817   5.535
 1902SOL    HW1 6605   1.941   2.765   5.512
 1902SOL    HW2 6606   1.778   2.764   5.512
 1903SOL     OW 6607   6.624   3.500   3.714
 1903SOL    HW1 6608   6.578   3.504   3.803
 1903SOL    HW2 6609   6.575   3.558   3.649
 1904SOL     OW 6610   0.409   6.823   4.504
 1904SOL    HW1 6611   0.342   6.785   4.440
 1904SOL    HW2 6612   0.431   6.917   4.477
 1905SOL     OW 6613   6.546   2.953   4.412
 1905SOL    HW1 6614   6.612   3.021   4.382
 1905SOL    HW2 6615   6.484   2.994   4.479
 1906SOL     OW 6616   2.545   7.013   0.415
 1906SOL    HW1 6617   2.471   6.987   0.353
 1906SOL    HW2 6618   2.538   0.091   0.436
 1907SOL     OW 6619   3.558   5.949   3.156
 1907SOL    HW1 6620   3.459   5.934   3.158
 1907SOL    HW2 6621   3.604   5.878   3.210
 1908SOL     OW 6622   4.940   1.137   6.639
 1908SOL    HW1 6623   4.985   1.109   6.724
 1908SOL    HW2 6624   4.842   1.119   6.645
 1909SOL     OW 6625   4.156   5.031   4.296
 1909SOL    HW1 6626   4.129   4.936   4.283
 1909SOL    HW2 6627   4.078   5.091   4.277
 1910SOL     OW 6628   4.866   2.359   5.268
 1910SOL    HW1 6629   4.857   2.353   5.168
 1910SOL    HW2 6630   4.960   2.382   5.292
 1911SOL     OW 6631   0.055   3.635   5.888
 1911SOL    HW1 6632   0.114   3.690   5.948
 1911SOL    HW2 6633   0.087   3.644   5.794
 1912SOL     OW 6634   3.562   6.094   3.389
 1912SOL    HW1 6635   3.589   6.051   3.302
 1912SOL    HW2 6636   3.642   6.098   3.450
 1913SOL     OW 6637   1.388   4.033   5.374
 1913SOL    HW1 6638   1.486   4.050   5.382
 1913SOL    HW2 6639   1.359   4.050   5.280
 1914SOL     OW 6640   4.054   1.437   5.481
 1914SOL    HW1 6641   4.015   1.357   5.437
 1914SOL    HW2 6642   3.980   1.495   5.516
 1915SOL     OW 6643   3.377   0.425   5.271
 1915SOL    HW1 6644   3.400   0.514   5.231
 1915SOL    HW2 6645   3.461   0.383   5.306
 1916SOL     OW 6646   4.439   6.554   1.418
 1916SOL    HW1 6647   4.353   6.518   1.381
 1916SOL    HW2 6648   4.455   6.646   1.381
 1917SOL     OW 6649   3.059   3.119   3.994
 1917SOL    HW1 6650   3.046   3.213   4.026
 1917SOL    HW2 6651   3.118   3.070   4.057
 1918SOL     OW 6652   6.112   6.695   3.952
 1918SOL    HW1 6653   6.034   6.682   3.891
 1918SOL    HW2 6654   6.169   6.612   3.951
 1919SOL     OW 6655   6.255   6.746   2.010
 1919SOL    HW1 6656   6.276   6.837   1.975
 1919SOL    HW2 6657   6.245   6.749   2.109
 1920SOL     OW 6658   6.947   5.525   4.163
 1920SOL    HW1 6659   6.923   5.484   4.251
 1920SOL    HW2 6660   6.993   5.456   4.107
 1921SOL     OW 6661   0.779   6.639   6.397
 1921SOL    HW1 6662   0.705   6.691   6.354
 1921SOL    HW2 6663   0.768   6.542   6.376
 1922SOL     OW 6664   3.535   4.523   0.970
 1922SOL    HW1 6665   3.448   4.508   0.921
 1922SOL    HW2 6666   3.559   4.620   0.965
 1923SOL     OW 6667   1.732   2.224   1.048
 1923SOL    HW1 6668   1.790   2.257   1.123
 1923SOL    HW2 6669   1.754   2.274   0.964
 1924SOL     OW 6670   1.077   4.245   1.886
 1924SOL    HW1 6671   1.096   4.254   1.789
 1924SOL    HW2 6672   0.981   4.219   1.900
 1925SOL     OW 6673   3.314   4.351   0.502
 1925SOL    HW1 6674   3.353   4.269   0.461
 1925SOL    HW2 6675   3.371   4.430   0.477
 1926SOL     OW 6676   0.837   6.845   3.626
 1926SOL    HW1 6677   0.847   6.904   3.546
 1926SOL    HW2 6678   0.927   6.818   3.659
 1927SOL     OW 6679   4.166   3.524   6.641
 1927SOL    HW1 6680   4.202   3.617   6.648
 1927SOL    HW2 6681   4.112   3.504   6.722
 1928SOL     OW 6682   6.361   4.261   5.185
 1928SOL    HW1 6683   6.428   4.325   5.224
 1928SOL    HW2 6684   6.276   4.310   5.165
 1929SOL     OW 6685   1.346   6.993   3.025
 1929SOL    HW1 6686   1.439   7.019   3.002
 1929SOL    HW2 6687   1.293   0.055   3.046
 1930SOL     OW 6688   5.625   4.224   0.028
 1930SOL    HW1 6689   5.707   4.254   6.999
 1930SOL    HW2 6690   5.577   4.156   6.993
 1931SOL     OW 6691   0.832   2.488   5.266
 1931SOL    HW1 6692   0.879   2.419   5.322
 1931SOL    HW2 6693   0.741   2.455   5.241
 1932SOL     OW 6694   5.923   3.212   1.696
 1932SOL    HW1 6695   5.834   3.167   1.699
 1932SOL    HW2 6696   5.910   3.312   1.692
 1933SOL     OW 6697   2.967   4.384   1.374
 1933SOL    HW1 6698   2.917   4.361   1.291
 1933SOL    HW2 6699   2.903   4.395   1.450
 1934SOL     OW 6700   0.620   5.778   4.822
 1934SOL    HW1 6701   0.552   5.709   4.847
 1934SOL    HW2 6702   0.575   5.865   4.803
 1935SOL     OW 6703   2.364   0.571   3.668
 1935SOL    HW1 6704   2.432   0.634   3.705
 1935SOL    HW2 6705   2.311   0.531   3.743
 1936SOL     OW 6706   6.136   5.554   5.549
 1936SOL    HW1 6707   6.107   5.496   5.625
 1936SOL    HW2 6708   6.057   5.605   5.515
 1937SOL     OW 6709   3.941   0.212   2.182
 1937SOL    HW1 6710   3.850   0.199   2.142
 1937SOL    HW2 6711   3.933   0.268   2.265
 1938SOL     OW 6712   4.948   0.396   3.624
 1938SOL    HW1 6713   4.944   0.455   3.704
 1938SOL    HW2 6714   4.856   0.383   3.587
 1939SOL     OW 6715   1.935   0.382   3.610
 1939SOL    HW1 6716   1.853   0.434   3.590
 1939SOL    HW2 6717   1.983   0.423   3.688
 1940SOL     OW 6718   0.309   5.607   6.886
 1940SOL    HW1 6719   0.335   5.591   6.981
 1940SOL    HW2 6720   0.298   5.520   6.839
 1941SOL     OW 6721   5.160   4.642   3.325
 1941SOL    HW1 6722   5.146   4.694   3.241
 1941SOL    HW2 6723   5.225   4.690   3.383
 1942SOL     OW 6724   6.043   5.527   3.183
 1942SOL    HW1 6725   5.974   5.583   3.229
 1942SOL    HW2 6726   6.130   5.576   3.180
 1943SOL     OW 6727   2.493   5.214   2.500
 1943SOL    HW1 6728   2.528   5.285   2.438
 1943SOL    HW2 6729   2.505   5.124   2.458
 1944SOL     OW 6730   6.635   1.075   1.649
 1944SOL    HW1 6731   6.725   1.062   1.607
 1944SOL    HW2 6732   6.566   1.024   1.596
 1945SOL     OW 6733   3.740   5.272   4.353
 1945SOL    HW1 6734   3.724   5.174   4.364
 1945SOL    HW2 6735   3.652   5.318   4.341
 1946SOL     OW 6736   1.123   0.734   0.414
 1946SOL    HW1 6737   1.132   0.826   0.451
 1946SOL    HW2 6738   1.119   0.737   0.314
 1947SOL     OW 6739   5.680   5.777   4.642
 1947SOL    HW1 6740   5.618   5.734   4.576
 1947SOL    HW2 6741   5.767   5.796   4.598
 1948SOL     OW 6742   6.188   5.011   4.763
 1948SOL    HW1 6743   6.101   5.017   4.714
 1948SOL    HW2 6744   6.250   4.950   4.714
 1949SOL     OW 6745   5.019   4.316   6.426
 1949SOL    HW1 6746   5.008   4.403   6.378
 1949SOL    HW2 6747   4.930   4.273   6.439
 1950SOL     OW 6748   3.037   3.866   6.772
 1950SOL    HW1 6749   3.073   3.954   6.741
 1950SOL    HW2 6750   2.969   3.882   6.844
 1951SOL     OW 6751   6.728   2.466   0.067
 1951SOL    HW1 6752   6.732   2.566   0.066
 1951SOL    HW2 6753   6.705   2.434   0.159
 1952SOL     OW 6754   4.031   1.766   5.829
 1952SOL    HW1 6755   3.950   1.816   5.860
 1952SOL    HW2 6756   4.100   1.830   5.797
 1953SOL     OW 6757   0.622   3.381   5.960
 1953SOL    HW1 6758   0.640   3.325   6.041
 1953SOL    HW2 6759   0.547   3.445   5.979
 1954SOL     OW 6760   3.357   2.072   4.053
 1954SOL    HW1 6761   3.375   2.108   4.145
 1954SOL    HW2 6762   3.265   2.098   4.025
 1955SOL     OW 6763   6.738   6.560   2.838
 1955SOL    HW1 6764   6.825   6.561   2.886
 1955SOL    HW2 6765   6.665   6.534   2.901
 1956SOL     OW 6766   5.787   5.531   2.284
 1956SOL    HW1 6767   5.774   5.559   2.380
 1956SOL    HW2 6768   5.874   5.482   2.276
 1957SOL     OW 6769   0.736   6.757   5.419
 1957SOL    HW1 6770   0.644   6.723   5.401
 1957SOL    HW2 6771   0.801   6.707   5.362
 1958SOL     OW 6772   5.630   3.639   5.641
 1958SOL    HW1 6773   5.548   3.587   5.617
 1958SOL    HW2 6774   5.632   3.723   5.587
 1959SOL     OW 6775   1.763   1.826   6.637
 1959SOL    HW1 6776   1.710   1.877   6.705
 1959SOL    HW2 6777   1.774   1.732   6.668
 1960SOL     OW 6778   5.658   6.019   0.831
 1960SOL    HW1 6779   5.584   6.013   0.899
 1960SOL    HW2 6780   5.739   6.061   0.873
 1961SOL     OW 6781   5.677   4.382   3.968
 1961SOL    HW1 6782   5.591   4.339   3.995
 1961SOL    HW2 6783   5.743   4.312   3.942
 1962SOL     OW 6784   6.915   6.572   3.035
 1962SOL    HW1 6785   6.865   6.576   3.122
 1962SOL    HW2 6786   6.992   6.510   3.043
 1963SOL     OW 6787   1.639   0.430   3.270
 1963SOL    HW1 6788   1.736   0.448   3.290
 1963SOL    HW2 6789   1.623   0.331   3.267
 1964SOL     OW 6790   5.429   3.255   2.434
 1964SOL    HW1 6791   5.517   3.273   2.389
 1964SOL    HW2 6792   5.435   3.172   2.488
 1965SOL     OW 6793   1.902   4.613   3.695
 1965SOL    HW1 6794   1.989   4.657   3.715
 1965SOL    HW2 6795   1.917   4.515   3.682
 1966SOL     OW 6796   6.516   5.604   5.945
 1966SOL    HW1 6797   6.548   5.611   5.850
 1966SOL    HW2 6798   6.543   5.515   5.982
 1967SOL     OW 6799   4.832   2.374   4.788
 1967SOL    HW1 6800   4.868   2.300   4.730
 1967SOL    HW2 6801   4.838   2.346   4.884
 1968SOL     OW 6802   3.086   6.123   6.062
 1968SOL    HW1 6803   3.159   6.181   6.026
 1968SOL    HW2 6804   3.003   6.179   6.075
 1969SOL     OW 6805   6.818   2.508   1.002
 1969SOL    HW1 6806   6.839   2.600   1.034
 1969SOL    HW2 6807   6.746   2.512   0.932
 1970SOL     OW 6808   1.775   0.476   4.049
 1970SOL    HW1 6809   1.772   0.385   4.007
 1970SOL    HW2 6810   1.701   0.532   4.012
 1971SOL     OW 6811   0.212   6.356   6.796
 1971SOL    HW1 6812   0.177   6.280   6.741
 1971SOL    HW2 6813   0.304   6.379   6.767
 1972SOL     OW 6814   0.590   5.188   3.946
 1972SOL    HW1 6815   0.643   5.268   3.918
 1972SOL    HW2 6816   0.641   5.105   3.923
 1973SOL     OW 6817   2.905   3.209   1.060
 1973SOL    HW1 6818   2.893   3.112   1.038
 1973SOL    HW2 6819   2.915   3.261   0.975
 1974SOL     OW 6820   5.467   0.923   3.965
 1974SOL    HW1 6821   5.537   0.961   4.026
 1974SOL    HW2 6822   5.377   0.948   3.999
 1975SOL     OW 6823   3.655   0.260   3.480
 1975SOL    HW1 6824   3.571   0.314   3.476
 1975SOL    HW2 6825   3.715   0.297   3.552
 1976SOL     OW 6826   0.780   5.690   0.534
 1976SOL    HW1 6827   0.874   5.725   0.528
 1976SOL    HW2 6828   0.716   5.767   0.538
 1977SOL     OW 6829   1.453   2.734   4.994
 1977SOL    HW1 6830   1.470   2.791   4.914
 1977SOL    HW2 6831   1.355   2.728   5.011
 1978SOL     OW 6832   6.665   2.032   4.833
 1978SOL    HW1 6833   6.683   2.067   4.741
 1978SOL    HW2 6834   6.744   1.981   4.865
 1979SOL     OW 6835   6.184   4.535   3.408
 1979SOL    HW1 6836   6.146   4.480   3.333
 1979SOL    HW2 6837   6.250   4.480   3.459
 1980SOL     OW 6838   4.316   0.330   1.406
 1980SOL    HW1 6839   4.384   0.338   1.479
 1980SOL    HW2 6840   4.281   0.421   1.384
 1981SOL     OW 6841   4.627   3.212   1.613
 1981SOL    HW1 6842   4.680   3.172   1.688
 1981SOL    HW2 6843   4.625   3.148   1.537
 1982SOL     OW 6844   5.791   6.392   4.987
 1982SOL    HW1 6845   5.885   6.368   4.962
 1982SOL    HW2 6846   5.777   6.490   4.969
 1983SOL     OW 6847   1.031   3.399   3.264
 1983SOL    HW1 6848   1.065   3.428   3.175
 1983SOL    HW2 6849   1.024   3.478   3.325
 1984SOL     OW 6850   4.254   0.484   5.833
 1984SOL    HW1 6851   4.159   0.476   5.802
 1984SOL    HW2 6852   4.259   0.464   5.930
 1985SOL     OW 6853   0.873   1.073   1.357
 1985SOL    HW1 6854   0.925   1.030   1.283
 1985SOL    HW2 6855   0.785   1.104   1.322
 1986SOL     OW 6856   1.732   1.378   6.129
 1986SOL    HW1 6857   1.757   1.384   6.225
 1986SOL    HW2 6858   1.774   1.454   6.079
 1987SOL     OW 6859   2.214   3.492   6.961
 1987SOL    HW1 6860   2.274   3.431   7.013
 1987SOL    HW2 6861   2.143   3.439   6.915
 1988SOL     OW 6862   4.214   4.039   0.387
 1988SOL    HW1 6863   4.269   3.960   0.363
 1988SOL    HW2 6864   4.249   4.120   0.339
 1989SOL     OW 6865   2.152   0.163   4.391
 1989SOL    HW1 6866   2.109   0.201   4.310
 1989SOL    HW2 6867   2.237   0.116   4.365
 1990SOL     OW 6868   3.015   0.840   1.629
 1990SOL    HW1 6869   3.017   0.740   1.641
 1990SOL    HW2 6870   3.092   0.867   1.571
 1991SOL     OW 6871   2.857   5.610   4.440
 1991SOL    HW1 6872   2.898   5.556   4.513
 1991SOL    HW2 6873   2.883   5.573   4.352
 1992SOL     OW 6874   2.264   6.466   5.061
 1992SOL    HW1 6875   2.364   6.468   5.062
 1992SOL    HW2 6876   2.231   6.473   4.967
 1993SOL     OW 6877   4.193   3.296   5.659
 1993SOL    HW1 6878   4.147   3.349   5.587
 1993SOL    HW2 6879   4.199   3.351   5.742
 1994SOL     OW 6880   6.556   2.246   2.078
 1994SOL    HW1 6881   6.601   2.173   2.028
 1994SOL    HW2 6882   6.625   2.307   2.117
 1995SOL     OW 6883   5.666   2.358   1.792
 1995SOL    HW1 6884   5.668   2.277   1.851
 1995SOL    HW2 6885   5.725   2.429   1.831
 1996SOL     OW 6886   3.608   4.818   0.352
 1996SOL    HW1 6887   3.595   4.916   0.363
 1996SOL    HW2 6888   3.520   4.774   0.336
 1997SOL     OW 6889   5.417   0.634   3.539
 1997SOL    HW1 6890   5.476   0.652   3.618
 1997SOL    HW2 6891   5.472   0.637   3.456
 1998SOL     OW 6892   2.741   4.500   5.434
 1998SOL    HW1 6893   2.698   4.583   5.469
 1998SOL    HW2 6894   2.776   4.518   5.342
 1999SOL     OW 6895   2.661   0.475   1.808
 1999SOL    HW1 6896   2.689   0.482   1.903
 1999SOL    HW2 6897   2.639   0.566   1.772
 2000SOL     OW 6898   3.676   1.728   4.668
 2000SOL    HW1 6899   3.606   1.660   4.648
 2000SOL    HW2 6900   3.639   1.799   4.728
 2001SOL     OW 6901   2.935   1.802   1.062
 2001SOL    HW1 6902   2.983   1.721   1.029
 2001SOL    HW2 6903   2.880   1.841   0.987
 2002SOL     OW 6904   1.886   5.160   5.403
 2002SOL    HW1 6905   1.790   5.176   5.379
 2002SOL    HW2 6906   1.891   5.094   5.478
 2003SOL     OW 6907   6.001   5.955   4.193
 2003SOL    HW1 6908   6.034   6.017   4.122
 2003SOL    HW2 6909   5.981   6.008   4.276
 2004SOL     OW 6910   2.659   0.508   5.502
 2004SOL    HW1 6911   2.579   0.503   5.562
 2004SOL    HW2 6912   2.734   0.554   5.549
 2005SOL     OW 6913   2.499   5.947   5.885
 2005SOL    HW1 6914   2.491   5.907   5.794
 2005SOL    HW2 6915   2.427   5.910   5.944
 2006SOL     OW 6916   4.322   5.109   4.066
 2006SOL    HW1 6917   4.365   5.198   4.051
 2006SOL    HW2 6918   4.272   5.111   4.153
 2007SOL     OW 6919   5.379   5.779   0.549
 2007SOL    HW1 6920   5.325   5.769   0.466
 2007SOL    HW2 6921   5.321   5.814   0.622
 2008SOL     OW 6922   0.104   5.953   4.175
 2008SOL    HW1 6923   0.187   5.992   4.215
 2008SOL    HW2 6924   0.113   5.950   4.076
 2009SOL     OW 6925   0.133   6.995   2.295
 2009SOL    HW1 6926   0.213   0.028   2.264
 2009SOL    HW2 6927   0.148   6.964   2.389
 2010SOL     OW 6928   1.277   0.932   0.586
 2010SOL    HW1 6929   1.339   1.003   0.552
 2010SOL    HW2 6930   1.325   0.874   0.651
 2011SOL     OW 6931   0.133   2.088   5.110
 2011SOL    HW1 6932   0.107   2.080   5.014
 2011SOL    HW2 6933   0.054   2.120   5.163
 2012SOL     OW 6934   1.042   4.015   0.668
 2012SOL    HW1 6935   1.017   4.077   0.594
 2012SOL    HW2 6936   1.101   3.943   0.633
 2013SOL     OW 6937   5.156   1.457   1.961
 2013SOL    HW1 6938   5.209   1.513   1.897
 2013SOL    HW2 6939   5.058   1.474   1.947
 2014SOL     OW 6940   2.144   5.546   2.692
 2014SOL    HW1 6941   2.177   5.453   2.671
 2014SOL    HW2 6942   2.051   5.556   2.659
 2015SOL     OW 6943   3.265   0.661   6.871
 2015SOL    HW1 6944   3.246   0.565   6.887
 2015SOL    HW2 6945   3.189   0.716   6.905
 2016SOL     OW 6946   0.386   4.701   4.153
 2016SOL    HW1 6947   0.376   4.628   4.086
 2016SOL    HW2 6948   0.479   4.702   4.189
 2017SOL     OW 6949   2.424   5.996   2.912
 2017SOL    HW1 6950   2.482   5.920   2.880
 2017SOL    HW2 6951   2.399   6.053   2.834
 2018SOL     OW 6952   0.400   5.293   6.340
 2018SOL    HW1 6953   0.398   5.261   6.245
 2018SOL    HW2 6954   0.318   5.262   6.387
 2019SOL     OW 6955   6.023   1.848   2.017
 2019SOL    HW1 6956   6.108   1.803   1.989
 2019SOL    HW2 6957   5.961   1.780   2.056
 2020SOL     OW 6958   2.924   5.876   3.062
 2020SOL    HW1 6959   2.915   5.976   3.066
 2020SOL    HW2 6960   2.956   5.849   2.972
 2021SOL     OW 6961   1.339   0.673   2.789
 2021SOL    HW1 6962   1.377   0.679   2.882
 2021SOL    HW2 6963   1.242   0.699   2.791
 2022SOL     OW 6964   1.803   3.969   1.511
 2022SOL    HW1 6965   1.729   3.914   1.473
 2022SOL    HW2 6966   1.873   3.982   1.440
 2023SOL     OW 6967   6.414   0.934   5.869
 2023SOL    HW1 6968   6.470   1.003   5.917
 2023SOL    HW2 6969   6.445   0.926   5.775
 2024SOL     OW 6970   5.541   1.158   3.772
 2024SOL    HW1 6971   5.529   1.060   3.756
 2024SOL    HW2 6972   5.549   1.205   3.684
 2025SOL     OW 6973   0.159   1.335   1.725
 2025SOL    HW1 6974   0.107   1.376   1.800
 2025SOL    HW2 6975   0.214   1.406   1.681
 2026SOL     OW 6976   1.687   1.774   5.496
 2026SOL    HW1 6977   1.754   1.743   5.563
 2026SOL    HW2 6978   1.727   1.770   5.404
 2027SOL     OW 6979   0.603   1.486   2.843
 2027SOL    HW1 6980   0.671   1.415   2.821
 2027SOL    HW2 6981   0.648   1.560   2.894
 2028SOL     OW 6982   4.025   3.160   6.821
 2028SOL    HW1 6983   4.058   3.088   6.882
 2028SOL    HW2 6984   3.950   3.124   6.766
 2029SOL     OW 6985   0.593   0.938   0.093
 2029SOL    HW1 6986   0.640   0.857   0.058
 2029SOL    HW2 6987   0.638   0.970   0.176
 2030SOL     OW 6988   1.622   1.505   3.700
 2030SOL    HW1 6989   1.651   1.600   3.688
 2030SOL    HW2 6990   1.703   1.446   3.704
 2031SOL     OW 6991   5.887   7.008   1.671
 2031SOL    HW1 6992   5.907   6.919   1.631
 2031SOL    HW2 6993   5.913   7.008   1.768
 2032SOL     OW 6994   5.065   6.809   1.220
 2032SOL    HW1 6995   5.080   6.769   1.311
 2032SOL    HW2 6996   5.047   6.907   1.229
 2033SOL     OW 6997   5.566   5.264   6.842
 2033SOL    HW1 6998   5.475   5.223   6.853
 2033SOL    HW2 6999   5.583   5.329   6.916
 2034SOL     OW 7000   2.281   6.803   3.086
 2034SOL    HW1 7001   2.296   6.739   3.010
 2034SOL    HW2 7002   2.235   6.885   3.051
 2035SOL     OW 7003   1.200   2.486   2.631
 2035SOL    HW1 7004   1.233   2.466   2.723
 2035SOL    HW2 7005   1.249   2.430   2.565
 2036SOL     OW 7006   1.152   4.660   0.059
 2036SOL    HW1 7007   1.184   4.701   0.144
 2036SOL    HW2 7008   1.154   4.561   0.066
 2037SOL     OW 7009   0.176   1.747   5.895
 2037SOL    HW1 7010   0.162   1.658   5.853
 2037SOL    HW2 7011   0.166   1.819   5.827
 2038SOL     OW 7012   0.437   0.957   4.598
 2038SOL    HW1 7013   0.411   1.011   4.519
 2038SOL    HW2 7014   0.457   1.018   4.675
 2039SOL     OW 7015   6.924   5.317   2.564
 2039SOL    HW1 7016   6.961   5.226   2.583
 2039SOL    HW2 7017   6.998   5.384   2.567
 2040SOL     OW 7018   4.008   3.499   4.512
 2040SOL    HW1 7019   4.001   3.508   4.612
 2040SOL    HW2 7020   3.924   3.458   4.477
 2041SOL     OW 7021   5.899   4.052   5.436
 2041SOL    HW1 7022   5.933   4.057   5.530
 2041SOL    HW2 7023   5.862   4.141   5.409
 2042SOL     OW 7024   4.262   5.674   0.148
 2042SOL    HW1 7025   4.298   5.584   0.172
 2042SOL    HW2 7026   4.308   5.707   0.066
 2043SOL     OW 7027   5.724   4.248   1.970
 2043SOL    HW1 7028   5.721   4.172   2.034
 2043SOL    HW2 7029   5.742   4.333   2.019
 2044SOL     OW 7030   6.420   0.230   1.765
 2044SOL    HW1 7031   6.329   0.266   1.787
 2044SOL    HW2 7032   6.464   0.197   1.849
 2045SOL     OW 7033   2.201   5.127   5.927
 2045SOL    HW1 7034   2.105   5.149   5.910
 2045SOL    HW2 7035   2.227   5.162   6.017
 2046SOL     OW 7036   6.685   0.147   5.025
 2046SOL    HW1 7037   6.723   0.054   5.025
 2046SOL    HW2 7038   6.593   0.145   5.064
 2047SOL     OW 7039   5.160   2.543   0.210
 2047SOL    HW1 7040   5.138   2.452   0.174
 2047SOL    HW2 7041   5.086   2.607   0.188
 2048SOL     OW 7042   4.666   0.278   6.225
 2048SOL    HW1 7043   4.637   0.342   6.296
 2048SOL    HW2 7044   4.588   0.222   6.197
 2049SOL     OW 7045   4.504   0.995   0.388
 2049SOL    HW1 7046   4.525   0.931   0.461
 2049SOL    HW2 7047   4.476   0.945   0.306
 2050SOL     OW 7048   5.824   2.994   3.897
 2050SOL    HW1 7049   5.886   2.919   3.918
 2050SOL    HW2 7050   5.862   3.049   3.823
 2051SOL     OW 7051   1.635   5.539   0.858
 2051SOL    HW1 7052   1.705   5.494   0.802
 2051SOL    HW2 7053   1.662   5.533   0.954
 2052SOL     OW 7054   0.967   2.567   6.912
 2052SOL    HW1 7055   0.876   2.528   6.922
 2052SOL    HW2 7056   0.971   2.657   6.956
 2053SOL     OW 7057   6.577   0.521   0.546
 2053SOL    HW1 7058   6.566   0.422   0.533
 2053SOL    HW2 7059   6.492   0.560   0.582
 2054SOL     OW 7060   6.029   2.320   0.342
 2054SOL    HW1 7061   6.075   2.385   0.281
 2054SOL    HW2 7062   6.003   2.366   0.426
 2055SOL     OW 7063   5.487   2.825   4.173
 2055SOL    HW1 7064   5.576   2.870   4.168
 2055SOL    HW2 7065   5.500   2.726   4.167
 2056SOL     OW 7066   2.354   0.463   3.113
 2056SOL    HW1 7067   2.278   0.526   3.131
 2056SOL    HW2 7068   2.406   0.448   3.197
 2057SOL     OW 7069   0.076   2.835   4.225
 2057SOL    HW1 7070   0.159   2.801   4.180
 2057SOL    HW2 7071   0.006   2.855   4.157
 2058SOL     OW 7072   0.067   1.949   2.380
 2058SOL    HW1 7073   0.011   1.943   2.297
 2058SOL    HW2 7074   0.021   2.007   2.448
 2059SOL     OW 7075   2.205   1.570   6.963
 2059SOL    HW1 7076   2.187   1.475   6.986
 2059SOL    HW2 7077   2.122   1.624   6.975
 2060SOL     OW 7078   0.242   4.688   2.688
 2060SOL    HW1 7079   0.297   4.695   2.605
 2060SOL    HW2 7080   0.232   4.591   2.713
 2061SOL     OW 7081   6.530   1.699   2.225
 2061SOL    HW1 7082   6.439   1.720   2.261
 2061SOL    HW2 7083   6.527   1.612   2.176
 2062SOL     OW 7084   4.961   0.421   2.565
 2062SOL    HW1 7085   4.895   0.489   2.535
 2062SOL    HW2 7086   4.968   0.349   2.496
 2063SOL     OW 7087   1.606   3.004   6.663
 2063SOL    HW1 7088   1.675   2.975   6.729
 2063SOL    HW2 7089   1.521   2.955   6.679
 2064SOL     OW 7090   1.024   2.171   6.916
 2064SOL    HW1 7091   1.096   2.200   6.978
 2064SOL    HW2 7092   0.946   2.234   6.924
 2065SOL     OW 7093   6.333   3.593   1.788
 2065SOL    HW1 7094   6.272   3.655   1.739
 2065SOL    HW2 7095   6.407   3.564   1.727
 2066SOL     OW 7096   0.094   0.508   4.744
 2066SOL    HW1 7097   0.090   0.423   4.796
 2066SOL    HW2 7098   0.182   0.512   4.695
 2067SOL     OW 7099   6.494   6.309   1.356
 2067SOL    HW1 7100   6.431   6.244   1.313
 2067SOL    HW2 7101   6.549   6.354   1.286
 2068SOL     OW 7102   2.075   1.971   5.085
 2068SOL    HW1 7103   2.029   1.883   5.094
 2068SOL    HW2 7104   2.007   2.042   5.064
 2069SOL     OW 7105   0.991   2.323   2.156
 2069SOL    HW1 7106   0.941   2.408   2.175
 2069SOL    HW2 7107   0.950   2.248   2.207
 2070SOL     OW 7108   1.256   1.743   2.574
 2070SOL    HW1 7109   1.326   1.800   2.617
 2070SOL    HW2 7110   1.273   1.647   2.595
 2071SOL     OW 7111   0.957   0.111   4.355
 2071SOL    HW1 7112   0.966   0.011   4.363
 2071SOL    HW2 7113   0.860   0.135   4.351
 2072SOL     OW 7114   5.114   5.626   1.777
 2072SOL    HW1 7115   5.169   5.697   1.822
 2072SOL    HW2 7116   5.135   5.624   1.679
 2073SOL     OW 7117   3.146   6.857   5.848
 2073SOL    HW1 7118   3.113   6.951   5.839
 2073SOL    HW2 7119   3.213   6.853   5.922
 2074SOL     OW 7120   5.800   1.373   1.461
 2074SOL    HW1 7121   5.745   1.430   1.523
 2074SOL    HW2 7122   5.889   1.417   1.447
 2075SOL     OW 7123   4.213   3.432   0.017
 2075SOL    HW1 7124   4.218   3.501   0.090
 2075SOL    HW2 7125   4.306   3.400   7.016
 2076SOL     OW 7126   5.269   6.626   1.351
 2076SOL    HW1 7127   5.207   6.686   1.402
 2076SOL    HW2 7128   5.278   6.660   1.257
 2077SOL     OW 7129   5.256   1.423   2.551
 2077SOL    HW1 7130   5.278   1.441   2.647
 2077SOL    HW2 7131   5.160   1.397   2.543
 2078SOL     OW 7132   3.377   4.753   6.559
 2078SOL    HW1 7133   3.434   4.671   6.551
 2078SOL    HW2 7134   3.281   4.726   6.566
 2079SOL     OW 7135   5.559   1.313   4.021
 2079SOL    HW1 7136   5.496   1.312   4.098
 2079SOL    HW2 7137   5.524   1.254   3.948
 2080SOL     OW 7138   2.933   2.230   4.590
 2080SOL    HW1 7139   2.925   2.218   4.491
 2080SOL    HW2 7140   2.852   2.277   4.624
 2081SOL     OW 7141   0.745   6.296   5.336
 2081SOL    HW1 7142   0.724   6.342   5.423
 2081SOL    HW2 7143   0.831   6.331   5.300
 2082SOL     OW 7144   5.894   1.201   1.215
 2082SOL    HW1 7145   5.901   1.230   1.120
 2082SOL    HW2 7146   5.803   1.225   1.250
 2083SOL     OW 7147   3.332   4.625   6.266
 2083SOL    HW1 7148   3.272   4.564   6.317
 2083SOL    HW2 7149   3.329   4.716   6.307
 2084SOL     OW 7150   6.861   2.768   2.823
 2084SOL    HW1 7151   6.910   2.837   2.770
 2084SOL    HW2 7152   6.920   2.688   2.837
 2085SOL     OW 7153   4.667   0.565   5.779
 2085SOL    HW1 7154   4.761   0.535   5.796
 2085SOL    HW2 7155   4.641   0.633   5.849
 2086SOL     OW 7156   3.037   5.286   0.217
 2086SOL    HW1 7157   2.989   5.199   0.225
 2086SOL    HW2 7158   2.987   5.357   0.267
 2087SOL     OW 7159   5.585   0.271   2.815
 2087SOL    HW1 7160   5.520   0.234   2.749
 2087SOL    HW2 7161   5.644   0.198   2.848
 2088SOL     OW 7162   3.525   6.440   0.906
 2088SOL    HW1 7163   3.606   6.403   0.952
 2088SOL    HW2 7164   3.554   6.497   0.828
 2089SOL     OW 7165   4.872   1.209   6.955
 2089SOL    HW1 7166   4.928   1.170   0.008
 2089SOL    HW2 7167   4.880   1.309   6.955
 2090SOL     OW 7168   3.361   3.934   4.971
 2090SOL    HW1 7169   3.425   3.978   4.908
 2090SOL    HW2 7170   3.341   3.841   4.938
 2091SOL     OW 7171   1.673   5.404   1.360
 2091SOL    HW1 7172   1.747   5.419   1.425
 2091SOL    HW2 7173   1.595   5.364   1.407
 2092SOL     OW 7174   6.245   5.945   1.120
 2092SOL    HW1 7175   6.285   5.873   1.178
 2092SOL    HW2 7176   6.243   5.915   1.025
 2093SOL     OW 7177   0.885   2.983   1.881
 2093SOL    HW1 7178   0.835   3.070   1.879
 2093SOL    HW2 7179   0.982   3.001   1.865
 2094SOL     OW 7180   5.713   0.352   1.960
 2094SOL    HW1 7181   5.772   0.272   1.966
 2094SOL    HW2 7182   5.671   0.356   1.869
 2095SOL     OW 7183   5.475   5.686   4.474
 2095SOL    HW1 7184   5.519   5.672   4.386
 2095SOL    HW2 7185   5.427   5.602   4.500
 2096SOL     OW 7186   5.014   4.213   2.748
 2096SOL    HW1 7187   5.060   4.245   2.830
 2096SOL    HW2 7188   4.931   4.162   2.774
 2097SOL     OW 7189   0.265   2.569   0.133
 2097SOL    HW1 7190   0.321   2.580   0.051
 2097SOL    HW2 7191   0.171   2.548   0.106
 2098SOL     OW 7192   4.456   6.888   4.367
 2098SOL    HW1 7193   4.436   6.942   4.448
 2098SOL    HW2 7194   4.547   6.847   4.375
 2099SOL     OW 7195   2.864   0.663   4.051
 2099SOL    HW1 7196   2.879   0.565   4.038
 2099SOL    HW2 7197   2.881   0.687   4.146
 2100SOL     OW 7198   4.682   4.269   6.017
 2100SOL    HW1 7199   4.761   4.210   6.002
 2100SOL    HW2 7200   4.610   4.247   5.951
 2101SOL     OW 7201   0.257   0.154   3.309
 2101SOL    HW1 7202   0.200   0.124   3.233
 2101SOL    HW2 7203   0.206   0.144   3.395
 2102SOL     OW 7204   7.001   5.220   3.241
 2102SOL    HW1 7205   0.049   5.250   3.308
 2102SOL    HW2 7206   6.915   5.199   3.288
 2103SOL     OW 7207   3.339   3.537   6.774
 2103SOL    HW1 7208   3.414   3.580   6.724
 2103SOL    HW2 7209   3.252   3.575   6.743
 2104SOL     OW 7210   1.676   3.294   5.536
 2104SOL    HW1 7211   1.627   3.323   5.454
 2104SOL    HW2 7212   1.742   3.222   5.513
 2105SOL     OW 7213   6.106   5.645   2.059
 2105SOL    HW1 7214   6.012   5.641   2.094
 2105SOL    HW2 7215   6.168   5.605   2.127
 2106SOL     OW 7216   4.781   5.533   6.777
 2106SOL    HW1 7217   4.753   5.522   6.682
 2106SOL    HW2 7218   4.722   5.600   6.822
 2107SOL     OW 7219   4.104   3.987   5.553
 2107SOL    HW1 7220   4.014   3.962   5.590
 2107SOL    HW2 7221   4.093   4.054   5.480
 2108SOL     OW 7222   6.091   5.417   5.791
 2108SOL    HW1 7223   6.178   5.406   5.841
 2108SOL    HW2 7224   6.017   5.429   5.857
 2109SOL     OW 7225   5.822   6.005   2.328
 2109SOL    HW1 7226   5.807   5.959   2.415
 2109SOL    HW2 7227   5.734   6.022   2.285
 2110SOL     OW 7228   2.719   4.411   6.321
 2110SOL    HW1 7229   2.737   4.496   6.370
 2110SOL    HW2 7230   2.792   4.393   6.255
 2111SOL     OW 7231   1.127   2.808   6.470
 2111SOL    HW1 7232   1.175   2.876   6.526
 2111SOL    HW2 7233   1.080   2.743   6.528
 2112SOL     OW 7234   4.501   2.877   1.410
 2112SOL    HW1 7235   4.424   2.865   1.473
 2112SOL    HW2 7236   4.514   2.793   1.357
 2113SOL     OW 7237   1.203   0.937   2.993
 2113SOL    HW1 7238   1.172   0.848   2.960
 2113SOL    HW2 7239   1.238   0.991   2.916
 2114SOL     OW 7240   1.675   4.347   0.192
 2114SOL    HW1 7241   1.740   4.344   0.116
 2114SOL    HW2 7242   1.583   4.366   0.156
 2115SOL     OW 7243   1.813   4.501   2.297
 2115SOL    HW1 7244   1.864   4.418   2.320
 2115SOL    HW2 7245   1.718   4.490   2.325
 2116SOL     OW 7246   0.378   4.011   3.867
 2116SOL    HW1 7247   0.438   3.996   3.946
 2116SOL    HW2 7248   0.427   3.993   3.783
 2117SOL     OW 7249   1.003   5.154   1.544
 2117SOL    HW1 7250   0.972   5.067   1.506
 2117SOL    HW2 7251   1.050   5.137   1.631
 2118SOL     OW 7252   0.311   3.645   2.254
 2118SOL    HW1 7253   0.269   3.559   2.281
 2118SOL    HW2 7254   0.410   3.634   2.249
 2119SOL     OW 7255   2.602   6.036   0.984
 2119SOL    HW1 7256   2.583   6.079   1.072
 2119SOL    HW2 7257   2.529   5.972   0.962
 2120SOL     OW 7258   6.758   4.879   2.008
 2120SOL    HW1 7259   6.725   4.962   1.962
 2120SOL    HW2 7260   6.685   4.811   2.010
 2121SOL     OW 7261   0.348   5.163   5.409
 2121SOL    HW1 7262   0.293   5.089   5.447
 2121SOL    HW2 7263   0.413   5.125   5.343
 2122SOL     OW 7264   4.595   4.427   4.970
 2122SOL    HW1 7265   4.624   4.332   4.965
 2122SOL    HW2 7266   4.527   4.446   4.900
 2123SOL     OW 7267   6.530   4.718   3.149
 2123SOL    HW1 7268   6.453   4.697   3.089
 2123SOL    HW2 7269   6.495   4.740   3.240
 2124SOL     OW 7270   2.400   2.021   1.370
 2124SOL    HW1 7271   2.411   1.923   1.382
 2124SOL    HW2 7272   2.326   2.054   1.429
 2125SOL     OW 7273   2.773   0.806   0.399
 2125SOL    HW1 7274   2.721   0.862   0.336
 2125SOL    HW2 7275   2.714   0.777   0.475
 2126SOL     OW 7276   2.897   0.886   6.504
 2126SOL    HW1 7277   2.954   0.805   6.519
 2126SOL    HW2 7278   2.948   0.953   6.451
 2127SOL     OW 7279   5.694   3.161   4.509
 2127SOL    HW1 7280   5.641   3.169   4.594
 2127SOL    HW2 7281   5.668   3.234   4.446
 2128SOL     OW 7282   0.782   4.118   4.664
 2128SOL    HW1 7283   0.813   4.037   4.614
 2128SOL    HW2 7284   0.810   4.201   4.615
 2129SOL     OW 7285   4.570   2.027   5.801
 2129SOL    HW1 7286   4.631   2.051   5.876
 2129SOL    HW2 7287   4.528   1.938   5.819
 2130SOL     OW 7288   5.130   6.436   2.333
 2130SOL    HW1 7289   5.226   6.409   2.341
 2130SOL    HW2 7290   5.122   6.513   2.269
 2131SOL     OW 7291   6.908   1.058   0.888
 2131SOL    HW1 7292   6.907   1.143   0.835
 2131SOL    HW2 7293   6.922   0.981   0.826
 2132SOL     OW 7294   2.252   2.937   0.604
 2132SOL    HW1 7295   2.307   2.877   0.662
 2132SOL    HW2 7296   2.263   2.910   0.508
 2133SOL     OW 7297   2.788   2.496   5.889
 2133SOL    HW1 7298   2.779   2.531   5.983
 2133SOL    HW2 7299   2.881   2.464   5.874
 2134SOL     OW 7300   0.360   0.657   1.049
 2134SOL    HW1 7301   0.379   0.563   1.023
 2134SOL    HW2 7302   0.337   0.661   1.147
 2135SOL     OW 7303   0.446   3.619   4.571
 2135SOL    HW1 7304   0.441   3.626   4.671
 2135SOL    HW2 7305   0.541   3.622   4.542
 2136SOL     OW 7306   1.993   5.890   1.742
 2136SOL    HW1 7307   2.074   5.943   1.715
 2136SOL    HW2 7308   1.976   5.903   1.840
 2137SOL     OW 7309   2.666   5.344   4.507
 2137SOL    HW1 7310   2.761   5.366   4.529
 2137SOL    HW2 7311   2.660   5.310   4.413
 2138SOL     OW 7312   5.522   1.412   2.429
 2138SOL    HW1 7313   5.545   1.350   2.503
 2138SOL    HW2 7314   5.424   1.434   2.431
 2139SOL     OW 7315   3.202   0.595   5.487
 2139SOL    HW1 7316   3.186   0.502   5.454
 2139SOL    HW2 7317   3.226   0.655   5.410
 2140SOL     OW 7318   2.677   1.359   5.125
 2140SOL    HW1 7319   2.720   1.271   5.104
 2140SOL    HW2 7320   2.603   1.377   5.060
 2141SOL     OW 7321   6.129   4.421   2.070
 2141SOL    HW1 7322   6.180   4.492   2.118
 2141SOL    HW2 7323   6.192   4.348   2.042
 2142SOL     OW 7324   1.812   2.231   3.606
 2142SOL    HW1 7325   1.780   2.138   3.628
 2142SOL    HW2 7326   1.895   2.225   3.550
 2143SOL     OW 7327   2.342   4.838   0.703
 2143SOL    HW1 7328   2.439   4.831   0.678
 2143SOL    HW2 7329   2.286   4.796   0.632
 2144SOL     OW 7330   6.526   5.643   4.219
 2144SOL    HW1 7331   6.582   5.697   4.282
 2144SOL    HW2 7332   6.438   5.689   4.204
 2145SOL     OW 7333   4.093   6.267   4.209
 2145SOL    HW1 7334   4.074   6.325   4.129
 2145SOL    HW2 7335   4.025   6.285   4.280
 2146SOL     OW 7336   2.163   3.037   1.176
 2146SOL    HW1 7337   2.235   2.986   1.223
 2146SOL    HW2 7338   2.107   2.975   1.123
 2147SOL     OW 7339   6.118   1.065   5.569
 2147SOL    HW1 7340   6.162   1.054   5.479
 2147SOL    HW2 7341   6.145   0.990   5.629
 2148SOL     OW 7342   0.034   3.504   6.776
 2148SOL    HW1 7343   0.005   3.510   6.680
 2148SOL    HW2 7344   6.973   3.506   6.835
 2149SOL     OW 7345   0.547   0.578   6.804
 2149SOL    HW1 7346   0.612   0.527   6.748
 2149SOL    HW2 7347   0.467   0.522   6.822
 2150SOL     OW 7348   2.229   3.294   1.479
 2150SOL    HW1 7349   2.247   3.392   1.490
 2150SOL    HW2 7350   2.220   3.251   1.569
 2151SOL     OW 7351   1.251   5.662   6.968
 2151SOL    HW1 7352   1.214   5.754   6.955
 2151SOL    HW2 7353   1.323   5.665   0.018
 2152SOL     OW 7354   4.222   6.011   3.247
 2152SOL    HW1 7355   4.172   5.939   3.295
 2152SOL    HW2 7356   4.226   6.093   3.305
 2153SOL     OW 7357   5.101   1.225   3.208
 2153SOL    HW1 7358   5.132   1.131   3.197
 2153SOL    HW2 7359   5.049   1.233   3.293
 2154SOL     OW 7360   3.181   6.621   3.173
 2154SOL    HW1 7361   3.198   6.573   3.260
 2154SOL    HW2 7362   3.089   6.659   3.175
 2155SOL     OW 7363   4.619   6.670   0.820
 2155SOL    HW1 7364   4.567   6.663   0.735
 2155SOL    HW2 7365   4.559   6.700   0.894
 2156SOL     OW 7366   5.562   1.666   4.439
 2156SOL    HW1 7367   5.659   1.645   4.450
 2156SOL    HW2 7368   5.537   1.739   4.502
 2157SOL     OW 7369   3.743   5.554   3.992
 2157SOL    HW1 7370   3.829   5.574   3.944
 2157SOL    HW2 7371   3.689   5.491   3.936
 2158SOL     OW 7372   3.212   1.003   0.132
 2158SOL    HW1 7373   3.131   0.951   0.162
 2158SOL    HW2 7374   3.293   0.969   0.181
 2159SOL     OW 7375   1.115   0.203   5.940
 2159SOL    HW1 7376   1.192   0.240   5.990
 2159SOL    HW2 7377   1.087   0.269   5.869
 2160SOL     OW 7378   4.867   6.180   0.450
 2160SOL    HW1 7379   4.807   6.250   0.489
 2160SOL    HW2 7380   4.941   6.224   0.400
 2161SOL     OW 7381   1.367   3.372   2.440
 2161SOL    HW1 7382   1.365   3.316   2.523
 2161SOL    HW2 7383   1.274   3.389   2.409
 2162SOL     OW 7384   1.903   0.307   3.035
 2162SOL    HW1 7385   1.946   0.271   3.118
 2162SOL    HW2 7386   1.939   0.259   2.955
 2163SOL     OW 7387   1.238   3.097   1.581
 2163SOL    HW1 7388   1.156   3.138   1.622
 2163SOL    HW2 7389   1.298   3.169   1.548
 2164SOL     OW 7390   1.914   2.563   2.316
 2164SOL    HW1 7391   1.819   2.539   2.334
 2164SOL    HW2 7392   1.918   2.654   2.274
 2165SOL     OW 7393   0.170   1.585   3.838
 2165SOL    HW1 7394   0.179   1.617   3.933
 2165SOL    HW2 7395   0.077   1.604   3.805
 2166SOL     OW 7396   0.017   4.287   3.351
 2166SOL    HW1 7397   0.076   4.243   3.284
 2166SOL    HW2 7398   0.071   4.314   3.431
 2167SOL     OW 7399   2.048   2.713   4.326
 2167SOL    HW1 7400   2.055   2.760   4.414
 2167SOL    HW2 7401   1.979   2.642   4.332
 2168SOL     OW 7402   1.378   1.854   3.425
 2168SOL    HW1 7403   1.329   1.868   3.339
 2168SOL    HW2 7404   1.322   1.799   3.487
 2169SOL     OW 7405   0.302   0.554   1.920
 2169SOL    HW1 7406   0.235   0.560   1.994
 2169SOL    HW2 7407   0.255   0.567   1.832
 2170SOL     OW 7408   0.991   3.963   5.821
 2170SOL    HW1 7409   0.960   3.977   5.915
 2170SOL    HW2 7410   1.044   3.879   5.816
 2171SOL     OW 7411   0.633   5.524   1.108
 2171SOL    HW1 7412   0.610   5.434   1.072
 2171SOL    HW2 7413   0.560   5.589   1.086
 2172SOL     OW 7414   0.410   1.826   4.845
 2172SOL    HW1 7415   0.467   1.753   4.808
 2172SOL    HW2 7416   0.467   1.895   4.889
 2173SOL     OW 7417   6.089   0.488   5.160
 2173SOL    HW1 7418   6.117   0.468   5.254
 2173SOL    HW2 7419   6.043   0.577   5.157
 2174SOL     OW 7420   0.060   5.944   5.079
 2174SOL    HW1 7421   0.026   5.872   5.140
 2174SOL    HW2 7422   0.122   6.004   5.130
 2175SOL     OW 7423   3.058   3.560   5.421
 2175SOL    HW1 7424   3.043   3.527   5.328
 2175SOL    HW2 7425   2.981   3.617   5.449
 2176SOL     OW 7426   5.358   2.814   1.113
 2176SOL    HW1 7427   5.378   2.832   1.209
 2176SOL    HW2 7428   5.350   2.901   1.064
 2177SOL     OW 7429   0.016   0.738   3.803
 2177SOL    HW1 7430   6.947   0.782   3.800
 2177SOL    HW2 7431   0.049   0.735   3.898
 2178SOL     OW 7432   1.073   1.962   2.821
 2178SOL    HW1 7433   0.992   1.923   2.778
 2178SOL    HW2 7434   1.055   1.979   2.918
 2179SOL     OW 7435   1.946   4.952   6.641
 2179SOL    HW1 7436   1.858   4.922   6.678
 2179SOL    HW2 7437   2.019   4.923   6.703
 2180SOL     OW 7438   0.747   4.878   1.976
 2180SOL    HW1 7439   0.774   4.784   1.957
 2180SOL    HW2 7440   0.750   4.931   1.891
 2181SOL     OW 7441   4.498   4.882   4.088
 2181SOL    HW1 7442   4.544   4.861   4.002
 2181SOL    HW2 7443   4.428   4.952   4.071
 2182SOL     OW 7444   7.018   5.571   3.171
 2182SOL    HW1 7445   7.010   5.632   3.093
 2182SOL    HW2 7446   6.935   5.578   3.228
 2183SOL     OW 7447   3.578   3.094   0.190
 2183SOL    HW1 7448   3.598   3.062   0.283
 2183SOL    HW2 7449   3.606   3.190   0.181
 2184SOL     OW 7450   6.591   0.513   0.156
 2184SOL    HW1 7451   6.652   0.445   0.116
 2184SOL    HW2 7452   6.643   0.571   0.219
 2185SOL     OW 7453   0.108   1.358   6.643
 2185SOL    HW1 7454   0.182   1.343   6.708
 2185SOL    HW2 7455   0.028   1.395   6.691
 2186SOL     OW 7456   6.783   5.468   4.709
 2186SOL    HW1 7457   6.805   5.427   4.621
 2186SOL    HW2 7458   6.751   5.397   4.772
 2187SOL     OW 7459   0.326   5.554   2.919
 2187SOL    HW1 7460   0.367   5.507   2.998
 2187SOL    HW2 7461   0.334   5.653   2.932
 2188SOL     OW 7462   2.023   0.267   0.848
 2188SOL    HW1 7463   2.062   0.223   0.929
 2188SOL    HW2 7464   2.074   0.350   0.826
 2189SOL     OW 7465   2.947   1.534   1.924
 2189SOL    HW1 7466   3.042   1.547   1.898
 2189SOL    HW2 7467   2.941   1.487   2.012
 2190SOL     OW 7468   6.529   4.346   2.613
 2190SOL    HW1 7469   6.603   4.411   2.599
 2190SOL    HW2 7470   6.483   4.328   2.526
 2191SOL     OW 7471   2.102   0.727   6.169
 2191SOL    HW1 7472   2.200   0.745   6.173
 2191SOL    HW2 7473   2.051   0.809   6.198
 2192SOL     OW 7474   4.899   1.186   2.156
 2192SOL    HW1 7475   4.833   1.258   2.136
 2192SOL    HW2 7476   4.988   1.227   2.177
 2193SOL     OW 7477   6.964   6.932   5.911
 2193SOL    HW1 7478   6.892   6.876   5.951
 2193SOL    HW2 7479   0.015   6.948   5.980
 2194SOL     OW 7480   0.807   4.656   5.525
 2194SOL    HW1 7481   0.727   4.716   5.524
 2194SOL    HW2 7482   0.857   4.665   5.439
 2195SOL     OW 7483   0.783   4.391   6.596
 2195SOL    HW1 7484   0.708   4.339   6.637
 2195SOL    HW2 7485   0.746   4.454   6.527
 2196SOL     OW 7486   2.444   5.855   5.640
 2196SOL    HW1 7487   2.353   5.876   5.605
 2196SOL    HW2 7488   2.508   5.927   5.611
 2197SOL     OW 7489   2.885   4.311   5.634
 2197SOL    HW1 7490   2.974   4.354   5.650
 2197SOL    HW2 7491   2.813   4.369   5.673
 2198SOL     OW 7492   0.462   0.259   6.301
 2198SOL    HW1 7493   0.470   0.302   6.391
 2198SOL    HW2 7494   0.540   0.286   6.245
 2199SOL     OW 7495   4.558   6.737   4.739
 2199SOL    HW1 7496   4.649   6.738   4.780
 2199SOL    HW2 7497   4.556   6.670   4.665
 2200SOL     OW 7498   2.820   1.425   4.126
 2200SOL    HW1 7499   2.900   1.465   4.170
 2200SOL    HW2 7500   2.778   1.493   4.066
 2201SOL     OW 7501   6.604   2.724   3.956
 2201SOL    HW1 7502   6.529   2.660   3.974
 2201SOL    HW2 7503   6.639   2.761   4.042
 2202SOL     OW 7504   3.770   5.331   2.418
 2202SOL    HW1 7505   3.849   5.270   2.407
 2202SOL    HW2 7506   3.799   5.426   2.407
 2203SOL     OW 7507   1.968   3.778   0.904
 2203SOL    HW1 7508   1.946   3.875   0.898
 2203SOL    HW2 7509   1.889   3.727   0.938
 2204SOL     OW 7510   4.295   2.892   0.691
 2204SOL    HW1 7511   4.367   2.823   0.694
 2204SOL    HW2 7512   4.241   2.887   0.775
 2205SOL     OW 7513   1.821   5.990   0.452
 2205SOL    HW1 7514   1.796   5.907   0.503
 2205SOL    HW2 7515   1.859   6.058   0.516
 2206SOL     OW 7516   2.439   2.949   6.503
 2206SOL    HW1 7517   2.484   3.038   6.507
 2206SOL    HW2 7518   2.407   2.933   6.410
 2207SOL     OW 7519   4.585   5.714   1.078
 2207SOL    HW1 7520   4.658   5.685   1.016
 2207SOL    HW2 7521   4.618   5.788   1.137
 2208SOL     OW 7522   0.946   5.788   3.558
 2208SOL    HW1 7523   0.862   5.774   3.610
 2208SOL    HW2 7524   0.942   5.735   3.473
 2209SOL     OW 7525   2.675   5.359   5.101
 2209SOL    HW1 7526   2.591   5.399   5.139
 2209SOL    HW2 7527   2.689   5.268   5.139
 2210SOL     OW 7528   5.898   6.341   1.333
 2210SOL    HW1 7529   5.914   6.287   1.251
 2210SOL    HW2 7530   5.984   6.383   1.362
 2211SOL     OW 7531   6.125   0.533   0.583
 2211SOL    HW1 7532   6.163   0.441   0.569
 2211SOL    HW2 7533   6.097   0.570   0.495
 2212SOL     OW 7534   2.587   5.900   6.823
 2212SOL    HW1 7535   2.671   5.876   6.773
 2212SOL    HW2 7536   2.583   5.999   6.835
 2213SOL     OW 7537   3.933   2.179   4.044
 2213SOL    HW1 7538   3.974   2.265   4.072
 2213SOL    HW2 7539   3.978   2.103   4.091
 2214SOL     OW 7540   3.931   2.818   5.738
 2214SOL    HW1 7541   3.880   2.878   5.676
 2214SOL    HW2 7542   4.018   2.861   5.762
 2215SOL     OW 7543   5.041   0.476   6.400
 2215SOL    HW1 7544   5.035   0.568   6.439
 2215SOL    HW2 7545   5.116   0.426   6.443
 2216SOL     OW 7546   0.446   6.568   6.524
 2216SOL    HW1 7547   0.353   6.592   6.497
 2216SOL    HW2 7548   0.510   6.628   6.476
 2217SOL     OW 7549   4.419   0.895   2.902
 2217SOL    HW1 7550   4.460   0.846   2.979
 2217SOL    HW2 7551   4.439   0.846   2.817
 2218SOL     OW 7552   0.379   5.173   6.099
 2218SOL    HW1 7553   0.408   5.185   6.004
 2218SOL    HW2 7554   0.396   5.079   6.128
 2219SOL     OW 7555   5.109   1.494   0.654
 2219SOL    HW1 7556   5.134   1.572   0.711
 2219SOL    HW2 7557   5.100   1.524   0.559
 2220SOL     OW 7558   1.298   6.624   5.626
 2220SOL    HW1 7559   1.271   6.719   5.644
 2220SOL    HW2 7560   1.290   6.571   5.710
 2221SOL     OW 7561   6.881   1.408   5.037
 2221SOL    HW1 7562   6.890   1.389   4.939
 2221SOL    HW2 7563   6.967   1.443   5.072
 2222SOL     OW 7564   5.862   6.458   0.976
 2222SOL    HW1 7565   5.852   6.539   0.919
 2222SOL    HW2 7566   5.786   6.452   1.041
 2223SOL     OW 7567   6.944   0.300   5.493
 2223SOL    HW1 7568   6.912   0.211   5.525
 2223SOL    HW2 7569   6.866   0.363   5.489
 2224SOL     OW 7570   5.638   4.101   1.518
 2224SOL    HW1 7571   5.661   4.007   1.494
 2224SOL    HW2 7572   5.578   4.102   1.597
 2225SOL     OW 7573   0.679   6.581   3.460
 2225SOL    HW1 7574   0.709   6.654   3.398
 2225SOL    HW2 7575   0.596   6.539   3.424
 2226SOL     OW 7576   2.603   5.302   0.763
 2226SOL    HW1 7577   2.547   5.252   0.830
 2226SOL    HW2 7578   2.627   5.392   0.799
 2227SOL     OW 7579   4.109   2.321   1.738
 2227SOL    HW1 7580   4.113   2.420   1.726
 2227SOL    HW2 7581   4.050   2.281   1.668
 2228SOL     OW 7582   4.622   4.716   0.145
 2228SOL    HW1 7583   4.539   4.749   0.190
 2228SOL    HW2 7584   4.664   4.792   0.095
 2229SOL     OW 7585   3.341   3.590   4.579
 2229SOL    HW1 7586   3.371   3.527   4.508
 2229SOL    HW2 7587   3.316   3.678   4.538
 2230SOL     OW 7588   5.227   6.330   0.585
 2230SOL    HW1 7589   5.177   6.290   0.508
 2230SOL    HW2 7590   5.309   6.275   0.603
 2231SOL     OW 7591   0.141   0.856   0.068
 2231SOL    HW1 7592   0.217   0.792   0.057
 2231SOL    HW2 7593   0.126   0.905   7.002
 2232SOL     OW 7594   1.533   0.602   5.783
 2232SOL    HW1 7595   1.441   0.601   5.744
 2232SOL    HW2 7596   1.526   0.606   5.883
 2233SOL     OW 7597   3.366   3.607   0.759
 2233SOL    HW1 7598   3.442   3.672   0.764
 2233SOL    HW2 7599   3.376   3.537   0.829
 2234SOL     OW 7600   3.807   1.488   0.572
 2234SOL    HW1 7601   3.873   1.430   0.620
 2234SOL    HW2 7602   3.845   1.579   0.558
 2235SOL     OW 7603   2.787   0.658   2.250
 2235SOL    HW1 7604   2.750   0.719   2.320
 2235SOL    HW2 7605   2.870   0.698   2.211
 2236SOL     OW 7606   1.928   4.144   5.908
 2236SOL    HW1 7607   1.959   4.097   5.826
 2236SOL    HW2 7608   1.829   4.132   5.918
 2237SOL     OW 7609   5.774   5.213   5.076
 2237SOL    HW1 7610   5.837   5.263   5.016
 2237SOL    HW2 7611   5.809   5.122   5.093
 2238SOL     OW 7612   4.950   4.500   2.917
 2238SOL    HW1 7613   5.042   4.463   2.933
 2238SOL    HW2 7614   4.882   4.431   2.941
 2239SOL     OW 7615   3.603   6.653   3.756
 2239SOL    HW1 7616   3.693   6.673   3.795
 2239SOL    HW2 7617   3.536   6.643   3.829
 2240SOL     OW 7618   4.892   6.089   3.246
 2240SOL    HW1 7619   4.866   6.156   3.177
 2240SOL    HW2 7620   4.973   6.039   3.216
 2241SOL     OW 7621   0.209   6.898   1.504
 2241SOL    HW1 7622   0.246   6.826   1.564
 2241SOL    HW2 7623   0.268   6.979   1.509
 2242SOL     OW 7624   5.259   2.928   3.246
 2242SOL    HW1 7625   5.265   3.005   3.310
 2242SOL    HW2 7626   5.196   2.859   3.283
 2243SOL     OW 7627   2.344   6.677   0.589
 2243SOL    HW1 7628   2.349   6.611   0.514
 2243SOL    HW2 7629   2.250   6.682   0.623
 2244SOL     OW 7630   2.684   0.857   1.068
 2244SOL    HW1 7631   2.614   0.917   1.030
 2244SOL    HW2 7632   2.695   0.777   1.010
 2245SOL     OW 7633   0.864   1.296   0.525
 2245SOL    HW1 7634   0.929   1.298   0.449
 2245SOL    HW2 7635   0.892   1.363   0.594
 2246SOL     OW 7636   2.265   0.528   4.749
 2246SOL    HW1 7637   2.213   0.589   4.688
 2246SOL    HW2 7638   2.269   0.569   4.840
 2247SOL     OW 7639   3.447   4.013   2.351
 2247SOL    HW1 7640   3.450   4.058   2.262
 2247SOL    HW2 7641   3.394   3.928   2.344
 2248SOL     OW 7642   5.954   4.579   4.969
 2248SOL    HW1 7643   5.980   4.647   5.038
 2248SOL    HW2 7644   5.925   4.495   5.015
 2249SOL     OW 7645   2.771   6.480   3.657
 2249SOL    HW1 7646   2.863   6.452   3.629
 2249SOL    HW2 7647   2.708   6.404   3.641
 2250SOL     OW 7648   3.811   3.643   5.807
 2250SOL    HW1 7649   3.902   3.634   5.767
 2250SOL    HW2 7650   3.781   3.555   5.844
 2251SOL     OW 7651   5.136   6.162   6.352
 2251SOL    HW1 7652   5.081   6.217   6.289
 2251SOL    HW2 7653   5.233   6.170   6.327
 2252SOL     OW 7654   5.301   1.797   2.891
 2252SOL    HW1 7655   5.226   1.861   2.872
 2252SOL    HW2 7656   5.318   1.740   2.810
 2253SOL     OW 7657   0.538   3.126   0.467
 2253SOL    HW1 7658   0.571   3.132   0.561
 2253SOL    HW2 7659   0.552   3.033   0.432
 2254SOL     OW 7660   3.416   4.115   2.641
 2254SOL    HW1 7661   3.426   4.109   2.541
 2254SOL    HW2 7662   3.507   4.116   2.683
 2255SOL     OW 7663   2.867   4.279   5.316
 2255SOL    HW1 7664   2.860   4.350   5.247
 2255SOL    HW2 7665   2.828   4.313   5.402
 2256SOL     OW 7666   4.913   6.023   2.095
 2256SOL    HW1 7667   4.815   6.023   2.074
 2256SOL    HW2 7668   4.927   5.994   2.190
 2257SOL     OW 7669   0.786   1.848   4.385
 2257SOL    HW1 7670   0.806   1.749   4.383
 2257SOL    HW2 7671   0.688   1.862   4.376
 2258SOL     OW 7672   1.703   6.770   4.747
 2258SOL    HW1 7673   1.668   6.781   4.840
 2258SOL    HW2 7674   1.708   6.673   4.725
 2259SOL     OW 7675   6.607   2.414   4.582
 2259SOL    HW1 7676   6.581   2.445   4.491
 2259SOL    HW2 7677   6.620   2.493   4.642
 2260SOL     OW 7678   1.268   3.793   1.684
 2260SOL    HW1 7679   1.168   3.798   1.676
 2260SOL    HW2 7680   1.295   3.698   1.702
 2261SOL     OW 7681   6.166   3.616   0.063
 2261SOL    HW1 7682   6.160   3.715   0.046
 2261SOL    HW2 7683   6.128   3.596   0.153
 2262SOL     OW 7684   6.051   0.887   4.248
 2262SOL    HW1 7685   5.977   0.862   4.310
 2262SOL    HW2 7686   6.091   0.804   4.208
 2263SOL     OW 7687   1.066   5.098   0.552
 2263SOL    HW1 7688   0.968   5.087   0.537
 2263SOL    HW2 7689   1.084   5.183   0.601
 2264SOL     OW 7690   2.675   6.656   6.635
 2264SOL    HW1 7691   2.668   6.650   6.536
 2264SOL    HW2 7692   2.622   6.734   6.668
 2265SOL     OW 7693   1.568   0.249   4.495
 2265SOL    HW1 7694   1.607   0.219   4.408
 2265SOL    HW2 7695   1.497   0.317   4.478
 2266SOL     OW 7696   5.134   1.591   6.081
 2266SOL    HW1 7697   5.128   1.527   6.005
 2266SOL    HW2 7698   5.149   1.541   6.166
 2267SOL     OW 7699   4.624   2.598   5.022
 2267SOL    HW1 7700   4.663   2.682   4.983
 2267SOL    HW2 7701   4.574   2.620   5.106
 2268SOL     OW 7702   6.365   4.339   6.239
 2268SOL    HW1 7703   6.340   4.248   6.273
 2268SOL    HW2 7704   6.374   4.402   6.316
 2269SOL     OW 7705   0.983   3.260   5.632
 2269SOL    HW1 7706   1.083   3.262   5.644
 2269SOL    HW2 7707   0.940   3.251   5.722
 2270SOL     OW 7708   4.391   3.051   6.004
 2270SOL    HW1 7709   4.319   2.997   5.959
 2270SOL    HW2 7710   4.475   3.045   5.951
 2271SOL     OW 7711   5.855   4.082   6.722
 2271SOL    HW1 7712   5.761   4.097   6.752
 2271SOL    HW2 7713   5.862   3.995   6.673
 2272SOL     OW 7714   6.071   0.812   6.348
 2272SOL    HW1 7715   5.993   0.874   6.355
 2272SOL    HW2 7716   6.124   0.816   6.433
 2273SOL     OW 7717   2.103   2.291   2.363
 2273SOL    HW1 7718   2.004   2.277   2.364
 2273SOL    HW2 7719   2.127   2.350   2.286
 2274SOL     OW 7720   0.588   1.346   6.904
 2274SOL    HW1 7721   0.589   1.402   6.987
 2274SOL    HW2 7722   0.531   1.265   6.919
 2275SOL     OW 7723   5.766   5.127   1.955
 2275SOL    HW1 7724   5.769   5.142   1.856
 2275SOL    HW2 7725   5.736   5.211   2.001
 2276SOL     OW 7726   1.582   0.754   1.190
 2276SOL    HW1 7727   1.618   0.837   1.148
 2276SOL    HW2 7728   1.596   0.677   1.129
 2277SOL     OW 7729   2.954   3.703   3.265
 2277SOL    HW1 7730   3.047   3.736   3.281
 2277SOL    HW2 7731   2.922   3.653   3.345
 2278SOL     OW 7732   0.714   3.037   3.864
 2278SOL    HW1 7733   0.663   3.011   3.782
 2278SOL    HW2 7734   0.810   3.053   3.839
 2279SOL     OW 7735   6.973   5.772   5.980
 2279SOL    HW1 7736   6.883   5.810   5.960
 2279SOL    HW2 7737   6.980   5.754   6.078
 2280SOL     OW 7738   5.768   0.774   5.368
 2280SOL    HW1 7739   5.752   0.699   5.304
 2280SOL    HW2 7740   5.693   0.778   5.434
 2281SOL     OW 7741   4.518   6.458   2.425
 2281SOL    HW1 7742   4.534   6.359   2.428
 2281SOL    HW2 7743   4.440   6.481   2.483
 2282SOL     OW 7744   4.812   5.230   5.554
 2282SOL    HW1 7745   4.830   5.145   5.504
 2282SOL    HW2 7746   4.889   5.249   5.615
 2283SOL     OW 7747   1.781   0.724   3.228
 2283SOL    HW1 7748   1.700   0.698   3.280
 2283SOL    HW2 7749   1.854   0.657   3.244
 2284SOL     OW 7750   0.545   3.348   6.248
 2284SOL    HW1 7751   0.509   3.290   6.320
 2284SOL    HW2 7752   0.645   3.350   6.252
 2285SOL     OW 7753   1.044   3.852   6.996
 2285SOL    HW1 7754   0.967   3.827   6.936
 2285SOL    HW2 7755   1.120   3.884   6.940
 2286SOL     OW 7756   5.250   7.017   3.285
 2286SOL    HW1 7757   5.174   6.974   3.236
 2286SOL    HW2 7758   5.215   0.049   3.362
 2287SOL     OW 7759   2.648   0.944   3.421
 2287SOL    HW1 7760   2.684   0.855   3.448
 2287SOL    HW2 7761   2.673   0.963   3.326
 2288SOL     OW 7762   0.141   4.901   3.604
 2288SOL    HW1 7763   0.144   4.890   3.504
 2288SOL    HW2 7764   0.046   4.901   3.634
 2289SOL     OW 7765   0.400   5.116   1.562
 2289SOL    HW1 7766   0.456   5.097   1.482
 2289SOL    HW2 7767   0.459   5.120   1.643
 2290SOL     OW 7768   1.209   4.233   1.259
 2290SOL    HW1 7769   1.155   4.165   1.308
 2290SOL    HW2 7770   1.184   4.325   1.291
 2291SOL     OW 7771   3.295   1.466   5.734
 2291SOL    HW1 7772   3.378   1.423   5.697
 2291SOL    HW2 7773   3.280   1.434   5.828
 2292SOL     OW 7774   1.512   0.945   5.137
 2292SOL    HW1 7775   1.486   0.955   5.041
 2292SOL    HW2 7776   1.432   0.921   5.191
 2293SOL     OW 7777   5.225   5.373   1.435
 2293SOL    HW1 7778   5.234   5.298   1.369
 2293SOL    HW2 7779   5.224   5.336   1.528
 2294SOL     OW 7780   3.674   7.015   6.906
 2294SOL    HW1 7781   3.763   0.007   6.949
 2294SOL    HW2 7782   3.613   6.967   6.969
 2295SOL     OW 7783   0.151   1.807   2.094
 2295SOL    HW1 7784   0.119   1.805   2.189
 2295SOL    HW2 7785   0.072   1.805   2.032
 2296SOL     OW 7786   3.238   0.814   0.422
 2296SOL    HW1 7787   3.299   0.831   0.345
 2296SOL    HW2 7788   3.154   0.867   0.411
 2297SOL     OW 7789   4.169   4.179   5.760
 2297SOL    HW1 7790   4.125   4.097   5.724
 2297SOL    HW2 7791   4.211   4.230   5.685
 2298SOL     OW 7792   3.392   2.368   1.048
 2298SOL    HW1 7793   3.490   2.388   1.050
 2298SOL    HW2 7794   3.378   2.274   1.018
 2299SOL     OW 7795   5.043   6.139   6.907
 2299SOL    HW1 7796   5.095   6.099   6.832
 2299SOL    HW2 7797   5.062   6.237   6.913
 2300SOL     OW 7798   1.492   5.656   1.485
 2300SOL    HW1 7799   1.399   5.667   1.450
 2300SOL    HW2 7800   1.522   5.742   1.527
 2301SOL     OW 7801   3.264   3.279   3.163
 2301SOL    HW1 7802   3.200   3.222   3.110
 2301SOL    HW2 7803   3.279   3.238   3.252
 2302SOL     OW 7804   3.847   5.914   2.565
 2302SOL    HW1 7805   3.883   5.926   2.472
 2302SOL    HW2 7806   3.911   5.954   2.630
 2303SOL     OW 7807   1.222   3.345   5.208
 2303SOL    HW1 7808   1.140   3.348   5.264
 2303SOL    HW2 7809   1.269   3.433   5.212
 2304SOL     OW 7810   2.704   0.040   3.734
 2304SOL    HW1 7811   2.648   0.070   3.657
 2304SOL    HW2 7812   2.793   0.087   3.730
 2305SOL     OW 7813   4.126   5.631   2.714
 2305SOL    HW1 7814   4.202   5.680   2.757
 2305SOL    HW2 7815   4.146   5.617   2.617
 2306SOL     OW 7816   1.996   4.934   1.824
 2306SOL    HW1 7817   1.928   4.924   1.751
 2306SOL    HW2 7818   2.057   4.856   1.823
 2307SOL     OW 7819   1.637   3.893   2.839
 2307SOL    HW1 7820   1.545   3.872   2.807
 2307SOL    HW2 7821   1.673   3.972   2.788
 2308SOL     OW 7822   0.720   0.883   6.705
 2308SOL    HW1 7823   0.621   0.870   6.713
 2308SOL    HW2 7824   0.739   0.975   6.670
 2309SOL     OW 7825   3.484   5.684   0.210
 2309SOL    HW1 7826   3.534   5.728   0.284
 2309SOL    HW2 7827   3.455   5.753   0.144
 2310SOL     OW 7828   6.107   0.145   1.680
 2310SOL    HW1 7829   6.156   0.155   1.593
 2310SOL    HW2 7830   6.019   0.101   1.664
 2311SOL     OW 7831   2.744   6.935   2.439
 2311SOL    HW1 7832   2.734   6.838   2.420
 2311SOL    HW2 7833   2.823   6.971   2.390
 2312SOL     OW 7834   3.362   6.823   2.800
 2312SOL    HW1 7835   3.422   6.897   2.830
 2312SOL    HW2 7836   3.339   6.836   2.704
 2313SOL     OW 7837   5.053   4.378   2.107
 2313SOL    HW1 7838   5.116   4.443   2.064
 2313SOL    HW2 7839   5.008   4.324   2.036
 2314SOL     OW 7840   6.068   0.545   3.744
 2314SOL    HW1 7841   6.109   0.503   3.825
 2314SOL    HW2 7842   6.130   0.613   3.706
 2315SOL     OW 7843   4.972   3.775   5.899
 2315SOL    HW1 7844   5.016   3.750   5.985
 2315SOL    HW2 7845   4.929   3.865   5.908
 2316SOL     OW 7846   2.749   0.707   5.996
 2316SOL    HW1 7847   2.739   0.801   6.029
 2316SOL    HW2 7848   2.841   0.694   5.959
 2317SOL     OW 7849   6.515   6.217   4.080
 2317SOL    HW1 7850   6.538   6.120   4.087
 2317SOL    HW2 7851   6.433   6.237   4.133
 2318SOL     OW 7852   2.218   3.964   4.447
 2318SOL    HW1 7853   2.278   4.044   4.456
 2318SOL    HW2 7854   2.186   3.935   4.537
 2319SOL     OW 7855   3.011   5.098   4.688
 2319SOL    HW1 7856   2.928   5.043   4.686
 2319SOL    HW2 7857   3.078   5.062   4.622
 2320SOL     OW 7858   0.864   2.897   6.009
 2320SOL    HW1 7859   0.786   2.835   6.020
 2320SOL    HW2 7860   0.864   2.935   5.916
 2321SOL     OW 7861   2.664   5.128   6.670
 2321SOL    HW1 7862   2.657   5.158   6.765
 2321SOL    HW2 7863   2.662   5.028   6.666
 2322SOL     OW 7864   1.864   4.087   1.984
 2322SOL    HW1 7865   1.839   4.077   2.081
 2322SOL    HW2 7866   1.887   4.183   1.966
 2323SOL     OW 7867   3.222   5.037   2.047
 2323SOL    HW1 7868   3.245   4.956   1.994
 2323SOL    HW2 7869   3.139   5.078   2.011
 2324SOL     OW 7870   0.072   6.007   1.897
 2324SOL    HW1 7871   0.048   5.945   1.822
 2324SOL    HW2 7872   0.157   5.975   1.939
 2325SOL     OW 7873   6.984   4.934   1.684
 2325SOL    HW1 7874   6.988   4.861   1.752
 2325SOL    HW2 7875   6.916   5.002   1.711
 2326SOL     OW 7876   1.484   6.035   6.766
 2326SOL    HW1 7877   1.522   5.966   6.828
 2326SOL    HW2 7878   1.480   6.123   6.812
 2327SOL     OW 7879   0.284   0.507   3.314
 2327SOL    HW1 7880   0.215   0.435   3.304
 2327SOL    HW2 7881   0.336   0.516   3.229
 2328SOL     OW 7882   1.521   1.927   2.342
 2328SOL    HW1 7883   1.532   2.017   2.384
 2328SOL    HW2 7884   1.507   1.858   2.414
 2329SOL     OW 7885   0.800   4.437   4.818
 2329SOL    HW1 7886   0.790   4.488   4.903
 2329SOL    HW2 7887   0.751   4.484   4.744
 2330SOL     OW 7888   0.110   2.952   0.245
 2330SOL    HW1 7889   0.107   3.047   0.275
 2330SOL    HW2 7890   0.017   2.914   0.245
 2331SOL     OW 7891   3.064   5.104   6.587
 2331SOL    HW1 7892   3.082   5.201   6.603
 2331SOL    HW2 7893   3.110   5.076   6.502
 2332SOL     OW 7894   6.683   0.194   5.734
 2332SOL    HW1 7895   6.727   0.262   5.792
 2332SOL    HW2 7896   6.709   0.102   5.764
 2333SOL     OW 7897   6.761   4.647   2.995
 2333SOL    HW1 7898   6.687   4.680   3.053
 2333SOL    HW2 7899   6.780   4.714   2.923
 2334SOL     OW 7900   1.247   1.613   6.678
 2334SOL    HW1 7901   1.340   1.599   6.712
 2334SOL    HW2 7902   1.250   1.657   6.588
 2335SOL     OW 7903   5.490   0.604   4.091
 2335SOL    HW1 7904   5.412   0.588   4.031
 2335SOL    HW2 7905   5.486   0.542   4.169
 2336SOL     OW 7906   2.670   1.626   4.006
 2336SOL    HW1 7907   2.571   1.640   3.996
 2336SOL    HW2 7908   2.707   1.697   4.066
 2337SOL     OW 7909   4.060   1.499   1.767
 2337SOL    HW1 7910   3.968   1.472   1.797
 2337SOL    HW2 7911   4.099   1.564   1.831
 2338SOL     OW 7912   0.569   3.280   4.323
 2338SOL    HW1 7913   0.540   3.278   4.227
 2338SOL    HW2 7914   0.626   3.200   4.342
 2339SOL     OW 7915   3.084   3.080   3.048
 2339SOL    HW1 7916   3.050   3.058   3.140
 2339SOL    HW2 7917   3.012   3.126   2.997
 2340SOL     OW 7918   0.337   4.692   0.329
 2340SOL    HW1 7919   0.313   4.722   0.237
 2340SOL    HW2 7920   0.433   4.665   0.331
 2341SOL     OW 7921   2.674   5.087   2.087
 2341SOL    HW1 7922   2.638   5.140   2.010
 2341SOL    HW2 7923   2.757   5.131   2.121
 2342SOL     OW 7924   2.033   6.737   4.544
 2342SOL    HW1 7925   2.127   6.712   4.566
 2342SOL    HW2 7926   2.032   6.823   4.494
 2343SOL     OW 7927   2.184   5.911   2.797
 2343SOL    HW1 7928   2.163   5.990   2.854
 2343SOL    HW2 7929   2.227   5.840   2.852
 2344SOL     OW 7930   6.817   5.746   0.167
 2344SOL    HW1 7931   6.846   5.670   0.224
 2344SOL    HW2 7932   6.877   5.753   0.087
 2345SOL     OW 7933   2.663   5.691   4.721
 2345SOL    HW1 7934   2.718   5.774   4.719
 2345SOL    HW2 7935   2.590   5.701   4.788
 2346SOL     OW 7936   3.926   3.139   5.528
 2346SOL    HW1 7937   3.959   3.125   5.435
 2346SOL    HW2 7938   3.874   3.224   5.533
 2347SOL     OW 7939   1.849   1.906   1.413
 2347SOL    HW1 7940   1.946   1.895   1.393
 2347SOL    HW2 7941   1.822   1.842   1.485
 2348SOL     OW 7942   2.292   6.141   3.685
 2348SOL    HW1 7943   2.328   6.181   3.770
 2348SOL    HW2 7944   2.240   6.058   3.706
 2349SOL     OW 7945   0.715   4.413   6.187
 2349SOL    HW1 7946   0.689   4.326   6.145
 2349SOL    HW2 7947   0.786   4.456   6.132
 2350SOL     OW 7948   5.838   4.589   5.975
 2350SOL    HW1 7949   5.800   4.533   6.050
 2350SOL    HW2 7950   5.938   4.584   5.978
 2351SOL     OW 7951   3.649   4.979   3.805
 2351SOL    HW1 7952   3.556   4.988   3.771
 2351SOL    HW2 7953   3.666   5.047   3.876
 2352SOL     OW 7954   0.310   3.313   2.910
 2352SOL    HW1 7955   0.342   3.269   2.994
 2352SOL    HW2 7956   0.334   3.410   2.912
 2353SOL     OW 7957   3.917   5.074   4.582
 2353SOL    HW1 7958   3.920   5.003   4.652
 2353SOL    HW2 7959   4.009   5.111   4.568
 2354SOL     OW 7960   2.080   2.169   4.667
 2354SOL    HW1 7961   2.087   2.181   4.568
 2354SOL    HW2 7962   2.124   2.246   4.713
 2355SOL     OW 7963   2.150   6.838   5.838
 2355SOL    HW1 7964   2.067   6.831   5.781
 2355SOL    HW2 7965   2.137   6.912   5.905
 2356SOL     OW 7966   0.918   2.733   6.241
 2356SOL    HW1 7967   0.918   2.816   6.185
 2356SOL    HW2 7968   0.849   2.741   6.313
 2357SOL     OW 7969   4.180   0.978   1.681
 2357SOL    HW1 7970   4.188   1.074   1.707
 2357SOL    HW2 7971   4.200   0.920   1.760
 2358SOL     OW 7972   2.736   5.465   5.546
 2358SOL    HW1 7973   2.727   5.368   5.569
 2358SOL    HW2 7974   2.683   5.520   5.612
 2359SOL     OW 7975   0.307   0.855   6.158
 2359SOL    HW1 7976   0.247   0.911   6.100
 2359SOL    HW2 7977   0.393   0.838   6.110
 2360SOL     OW 7978   6.114   3.944   0.589
 2360SOL    HW1 7979   6.193   3.972   0.536
 2360SOL    HW2 7980   6.042   4.012   0.581
 2361SOL     OW 7981   2.949   1.145   6.314
 2361SOL    HW1 7982   2.938   1.223   6.377
 2361SOL    HW2 7983   2.897   1.162   6.231
 2362SOL     OW 7984   2.760   5.775   3.645
 2362SOL    HW1 7985   2.787   5.848   3.582
 2362SOL    HW2 7986   2.671   5.797   3.686
 2363SOL     OW 7987   3.531   1.714   4.221
 2363SOL    HW1 7988   3.599   1.753   4.159
 2363SOL    HW2 7989   3.464   1.784   4.245
 2364SOL     OW 7990   1.607   2.720   2.568
 2364SOL    HW1 7991   1.525   2.760   2.609
 2364SOL    HW2 7992   1.655   2.665   2.636
 2365SOL     OW 7993   6.630   1.834   6.854
 2365SOL    HW1 7994   6.691   1.910   6.831
 2365SOL    HW2 7995   6.535   1.866   6.854
 2366SOL     OW 7996   2.664   5.219   6.927
 2366SOL    HW1 7997   2.742   5.273   6.958
 2366SOL    HW2 7998   2.584   5.279   6.920
 2367SOL     OW 7999   2.098   3.488   0.862
 2367SOL    HW1 8000   2.065   3.534   0.779
 2367SOL    HW2 8001   2.026   3.427   0.897
 2368SOL     OW 8002   5.594   6.553   4.655
 2368SOL    HW1 8003   5.689   6.578   4.677
 2368SOL    HW2 8004   5.567   6.475   4.712
 2369SOL     OW 8005   1.863   7.004   4.710
 2369SOL    HW1 8006   1.811   6.919   4.721
 2369SOL    HW2 8007   1.811   0.060   4.749
 2370SOL     OW 8008   5.844   3.065   0.053
 2370SOL    HW1 8009   5.869   2.970   0.072
 2370SOL    HW2 8010   5.841   3.080   6.974
 2371SOL     OW 8011   2.181   0.002   1.792
 2371SOL    HW1 8012   2.152   7.003   1.886
 2371SOL    HW2 8013   2.244   0.079   1.792
 2372SOL     OW 8014   6.673   2.605   1.787
 2372SOL    HW1 8015   6.733   2.673   1.828
 2372SOL    HW2 8016   6.707   2.514   1.806
 2373SOL     OW 8017   1.295   3.406   6.024
 2373SOL    HW1 8018   1.248   3.334   5.971
 2373SOL    HW2 8019   1.304   3.488   5.967
 2374SOL     OW 8020   6.764   1.775   4.588
 2374SOL    HW1 8021   6.693   1.768   4.658
 2374SOL    HW2 8022   6.726   1.819   4.507
 2375SOL     OW 8023   3.189   5.749   5.701
 2375SOL    HW1 8024   3.149   5.665   5.666
 2375SOL    HW2 8025   3.288   5.746   5.688
 2376SOL     OW 8026   6.685   2.792   4.231
 2376SOL    HW1 8027   6.632   2.857   4.285
 2376SOL    HW2 8028   6.697   2.708   4.284
 2377SOL     OW 8029   3.475   4.152   3.714
 2377SOL    HW1 8030   3.564   4.113   3.738
 2377SOL    HW2 8031   3.441   4.108   3.630
 2378SOL     OW 8032   5.094   1.793   0.197
 2378SOL    HW1 8033   4.999   1.792   0.165
 2378SOL    HW2 8034   5.143   1.868   0.151
 2379SOL     OW 8035   6.667   0.904   0.394
 2379SOL    HW1 8036   6.710   0.832   0.340
 2379SOL    HW2 8037   6.638   0.867   0.482
 2380SOL     OW 8038   6.680   2.380   0.318
 2380SOL    HW1 8039   6.622   2.431   0.382
 2380SOL    HW2 8040   6.764   2.353   0.365
 2381SOL     OW 8041   2.828   5.626   3.138
 2381SOL    HW1 8042   2.761   5.659   3.204
 2381SOL    HW2 8043   2.901   5.694   3.129
 2382SOL     OW 8044   1.926   4.240   4.339
 2382SOL    HW1 8045   1.968   4.200   4.258
 2382SOL    HW2 8046   1.869   4.172   4.385
 2383SOL     OW 8047   6.242   6.964   0.862
 2383SOL    HW1 8048   6.252   0.032   0.816
 2383SOL    HW2 8049   6.156   6.921   0.834
 2384SOL     OW 8050   5.553   1.129   2.621
 2384SOL    HW1 8051   5.480   1.072   2.659
 2384SOL    HW2 8052   5.617   1.071   2.571
 2385SOL     OW 8053   6.998   0.436   0.430
 2385SOL    HW1 8054   0.008   0.388   0.512
 2385SOL    HW2 8055   6.989   0.533   0.449
 2386SOL     OW 8056   5.404   5.909   4.642
 2386SOL    HW1 8057   5.308   5.898   4.615
 2386SOL    HW2 8058   5.458   5.834   4.605
 2387SOL     OW 8059   2.364   1.523   4.144
 2387SOL    HW1 8060   2.401   1.577   4.068
 2387SOL    HW2 8061   2.428   1.451   4.167
 2388SOL     OW 8062   6.969   2.174   3.367
 2388SOL    HW1 8063   6.925   2.084   3.361
 2388SOL    HW2 8064   6.909   2.237   3.415
 2389SOL     OW 8065   4.283   4.665   3.588
 2389SOL    HW1 8066   4.243   4.576   3.562
 2389SOL    HW2 8067   4.373   4.674   3.546
 2390SOL     OW 8068   3.749   3.201   3.963
 2390SOL    HW1 8069   3.717   3.277   4.019
 2390SOL    HW2 8070   3.671   3.140   3.943
 2391SOL     OW 8071   5.416   4.545   6.218
 2391SOL    HW1 8072   5.393   4.574   6.311
 2391SOL    HW2 8073   5.434   4.446   6.218
 2392SOL     OW 8074   2.947   6.501   6.136
 2392SOL    HW1 8075   2.917   6.410   6.107
 2392SOL    HW2 8076   2.948   6.563   6.057
 2393SOL     OW 8077   5.203   3.944   6.442
 2393SOL    HW1 8078   5.243   4.035   6.433
 2393SOL    HW2 8079   5.114   3.943   6.396
 2394SOL     OW 8080   0.918   3.968   4.912
 2394SOL    HW1 8081   0.938   3.951   5.008
 2394SOL    HW2 8082   0.832   3.923   4.887
 2395SOL     OW 8083   5.195   0.243   5.831
 2395SOL    HW1 8084   5.232   0.313   5.769
 2395SOL    HW2 8085   5.161   0.166   5.777
 2396SOL     OW 8086   4.055   4.912   1.069
 2396SOL    HW1 8087   4.043   5.003   1.030
 2396SOL    HW2 8088   4.070   4.919   1.168
 2397SOL     OW 8089   0.499   4.102   5.110
 2397SOL    HW1 8090   0.483   4.006   5.132
 2397SOL    HW2 8091   0.570   4.109   5.040
 2398SOL     OW 8092   4.487   4.447   6.694
 2398SOL    HW1 8093   4.431   4.380   6.743
 2398SOL    HW2 8094   4.535   4.505   6.759
 2399SOL     OW 8095   4.894   0.947   0.705
 2399SOL    HW1 8096   4.795   0.959   0.717
 2399SOL    HW2 8097   4.911   0.866   0.649
 2400SOL     OW 8098   2.925   3.774   0.866
 2400SOL    HW1 8099   3.007   3.730   0.828
 2400SOL    HW2 8100   2.891   3.719   0.942
 2401SOL     OW 8101   5.282   6.060   0.392
 2401SOL    HW1 8102   5.279   5.987   0.324
 2401SOL    HW2 8103   5.258   6.022   0.482
 2402SOL     OW 8104   0.458   0.158   3.947
 2402SOL    HW1 8105   0.443   0.109   3.861
 2402SOL    HW2 8106   0.461   0.256   3.930
 2403SOL     OW 8107   1.619   1.950   6.425
 2403SOL    HW1 8108   1.664   1.905   6.502
 2403SOL    HW2 8109   1.688   1.989   6.363
 2404SOL     OW 8110   2.831   1.074   1.164
 2404SOL    HW1 8111   2.786   1.007   1.104
 2404SOL    HW2 8112   2.848   1.033   1.254
 2405SOL     OW 8113   3.552   3.532   2.280
 2405SOL    HW1 8114   3.618   3.458   2.269
 2405SOL    HW2 8115   3.567   3.577   2.368
 2406SOL     OW 8116   3.321   0.804   1.080
 2406SOL    HW1 8117   3.358   0.806   0.987
 2406SOL    HW2 8118   3.257   0.880   1.093
 2407SOL     OW 8119   5.742   2.085   3.017
 2407SOL    HW1 8120   5.734   2.060   2.920
 2407SOL    HW2 8121   5.656   2.122   3.049
 2408SOL     OW 8122   4.479   4.464   2.251
 2408SOL    HW1 8123   4.463   4.389   2.187
 2408SOL    HW2 8124   4.560   4.444   2.305
 2409SOL     OW 8125   2.365   4.336   2.116
 2409SOL    HW1 8126   2.428   4.373   2.048
 2409SOL    HW2 8127   2.280   4.308   2.072
 2410SOL     OW 8128   3.645   2.918   4.762
 2410SOL    HW1 8129   3.567   2.893   4.819
 2410SOL    HW2 8130   3.725   2.933   4.820
 2411SOL     OW 8131   5.504   6.155   4.264
 2411SOL    HW1 8132   5.515   6.249   4.296
 2411SOL    HW2 8133   5.435   6.109   4.320
 2412SOL     OW 8134   5.519   4.433   1.561
 2412SOL    HW1 8135   5.475   4.448   1.649
 2412SOL    HW2 8136   5.608   4.390   1.574
 2413SOL     OW 8137   6.597   1.053   1.177
 2413SOL    HW1 8138   6.501   1.079   1.163
 2413SOL    HW2 8139   6.653   1.136   1.183
 2414SOL     OW 8140   4.901   4.296   3.465
 2414SOL    HW1 8141   4.847   4.327   3.386
 2414SOL    HW2 8142   4.853   4.221   3.510
 2415SOL     OW 8143   5.992   1.687   2.821
 2415SOL    HW1 8144   6.042   1.615   2.870
 2415SOL    HW2 8145   5.937   1.646   2.749
 2416SOL     OW 8146   5.153   2.388   4.970
 2416SOL    HW1 8147   5.069   2.437   4.990
 2416SOL    HW2 8148   5.142   2.292   4.995
 2417SOL     OW 8149   3.283   3.680   4.880
 2417SOL    HW1 8150   3.294   3.612   4.952
 2417SOL    HW2 8151   3.312   3.641   4.793
 2418SOL     OW 8152   3.895   3.064   4.431
 2418SOL    HW1 8153   3.817   3.004   4.450
 2418SOL    HW2 8154   3.914   3.065   4.333
 2419SOL     OW 8155   0.078   6.459   3.617
 2419SOL    HW1 8156   0.118   6.369   3.632
 2419SOL    HW2 8157   0.137   6.528   3.660
 2420SOL     OW 8158   3.383   0.226   2.370
 2420SOL    HW1 8159   3.352   0.295   2.305
 2420SOL    HW2 8160   3.307   0.165   2.392
 2421SOL     OW 8161   1.800   2.795   4.820
 2421SOL    HW1 8162   1.890   2.763   4.852
 2421SOL    HW2 8163   1.730   2.730   4.848
 2422SOL     OW 8164   4.806   1.810   0.475
 2422SOL    HW1 8165   4.839   1.822   0.381
 2422SOL    HW2 8166   4.882   1.816   0.539
 2423SOL     OW 8167   1.953   6.507   2.211
 2423SOL    HW1 8168   1.909   6.596   2.228
 2423SOL    HW2 8169   1.944   6.484   2.114
 2424SOL     OW 8170   6.452   0.006   0.195
 2424SOL    HW1 8171   6.389   6.959   0.237
 2424SOL    HW2 8172   6.400   0.083   0.159
 2425SOL     OW 8173   5.580   0.367   3.884
 2425SOL    HW1 8174   5.600   0.458   3.849
 2425SOL    HW2 8175   5.484   0.345   3.868
 2426SOL     OW 8176   1.640   5.378   5.546
 2426SOL    HW1 8177   1.641   5.320   5.464
 2426SOL    HW2 8178   1.592   5.331   5.620
 2427SOL     OW 8179   5.738   5.626   5.585
 2427SOL    HW1 8180   5.685   5.560   5.531
 2427SOL    HW2 8181   5.833   5.626   5.554
 2428SOL     OW 8182   0.674   0.574   1.769
 2428SOL    HW1 8183   0.681   0.630   1.851
 2428SOL    HW2 8184   0.622   0.491   1.789
 2429SOL     OW 8185   5.698   5.571   1.759
 2429SOL    HW1 8186   5.606   5.540   1.782
 2429SOL    HW2 8187   5.700   5.671   1.758
 2430SOL     OW 8188   6.535   1.111   1.915
 2430SOL    HW1 8189   6.597   1.135   1.990
 2430SOL    HW2 8190   6.588   1.085   1.835
 2431SOL     OW 8191   4.345   1.495   2.088
 2431SOL    HW1 8192   4.288   1.449   2.156
 2431SOL    HW2 8193   4.376   1.582   2.125
 2432SOL     OW 8194   4.535   6.336   1.930
 2432SOL    HW1 8195   4.514   6.377   2.019
 2432SOL    HW2 8196   4.624   6.370   1.898
 2433SOL     OW 8197   4.594   1.097   7.006
 2433SOL    HW1 8198   4.651   1.148   6.941
 2433SOL    HW2 8199   4.645   1.082   0.071
 2434SOL     OW 8200   3.786   0.814   5.685
 2434SOL    HW1 8201   3.802   0.863   5.599
 2434SOL    HW2 8202   3.689   0.820   5.709
 2435SOL     OW 8203   5.657   5.457   5.019
 2435SOL    HW1 8204   5.564   5.470   5.053
 2435SOL    HW2 8205   5.683   5.361   5.027
 2436SOL     OW 8206   2.219   5.760   6.701
 2436SOL    HW1 8207   2.261   5.671   6.721
 2436SOL    HW2 8208   2.215   5.772   6.601
 2437SOL     OW 8209   6.353   6.685   6.115
 2437SOL    HW1 8210   6.355   6.634   6.029
 2437SOL    HW2 8211   6.438   6.669   6.165
 2438SOL     OW 8212   3.056   2.228   1.004
 2438SOL    HW1 8213   3.013   2.265   1.086
 2438SOL    HW2 8214   3.110   2.148   1.028
 2439SOL     OW 8215   0.047   4.235   6.050
 2439SOL    HW1 8216   0.011   4.327   6.067
 2439SOL    HW2 8217   0.009   4.172   6.118
 2440SOL     OW 8218   5.095   5.255   5.657
 2440SOL    HW1 8219   5.123   5.315   5.732
 2440SOL    HW2 8220   5.105   5.160   5.686
 2441SOL     OW 8221   6.921   2.116   0.866
 2441SOL    HW1 8222   6.843   2.135   0.806
 2441SOL    HW2 8223   6.972   2.201   0.881
 2442SOL     OW 8224   1.271   3.597   5.346
 2442SOL    HW1 8225   1.330   3.668   5.385
 2442SOL    HW2 8226   1.178   3.610   5.379
 2443SOL     OW 8227   2.813   3.842   6.445
 2443SOL    HW1 8228   2.873   3.914   6.409
 2443SOL    HW2 8229   2.820   3.761   6.387
 2444SOL     OW 8230   2.343   4.708   6.219
 2444SOL    HW1 8231   2.357   4.628   6.277
 2444SOL    HW2 8232   2.252   4.704   6.178
 2445SOL     OW 8233   0.301   1.015   0.708
 2445SOL    HW1 8234   0.277   1.112   0.705
 2445SOL    HW2 8235   0.365   0.994   0.634
 2446SOL     OW 8236   6.122   4.541   4.519
 2446SOL    HW1 8237   6.079   4.457   4.553
 2446SOL    HW2 8238   6.147   4.599   4.596
 2447SOL     OW 8239   1.183   1.635   0.625
 2447SOL    HW1 8240   1.087   1.662   0.633
 2447SOL    HW2 8241   1.190   1.550   0.574
 2448SOL     OW 8242   0.718   0.059   4.791
 2448SOL    HW1 8243   0.769   7.016   4.732
 2448SOL    HW2 8244   0.738   0.038   4.887
 2449SOL     OW 8245   7.017   3.784   6.587
 2449SOL    HW1 8246   6.973   3.706   6.543
 2449SOL    HW2 8247   0.018   3.854   6.519
 2450SOL     OW 8248   2.498   4.486   2.956
 2450SOL    HW1 8249   2.493   4.517   3.051
 2450SOL    HW2 8250   2.478   4.388   2.952
 2451SOL     OW 8251   2.270   5.870   3.812
 2451SOL    HW1 8252   2.201   5.867   3.740
 2451SOL    HW2 8253   2.233   5.826   3.894
 2452SOL     OW 8254   1.208   3.160   3.017
 2452SOL    HW1 8255   1.241   3.213   2.939
 2452SOL    HW2 8256   1.284   3.106   3.054
 2453SOL     OW 8257   6.510   4.820   1.470
 2453SOL    HW1 8258   6.412   4.803   1.462
 2453SOL    HW2 8259   6.551   4.751   1.530
 2454SOL     OW 8260   3.403   0.631   1.470
 2454SOL    HW1 8261   3.326   0.606   1.412
 2454SOL    HW2 8262   3.412   0.566   1.545
 2455SOL     OW 8263   4.879   5.703   0.315
 2455SOL    HW1 8264   4.845   5.796   0.328
 2455SOL    HW2 8265   4.864   5.650   0.398
 2456SOL     OW 8266   4.987   5.989   1.643
 2456SOL    HW1 8267   5.075   6.013   1.683
 2456SOL    HW2 8268   4.913   6.018   1.704
 2457SOL     OW 8269   5.479   6.568   1.578
 2457SOL    HW1 8270   5.418   6.572   1.499
 2457SOL    HW2 8271   5.522   6.478   1.582
 2458SOL     OW 8272   1.121   5.132   2.819
 2458SOL    HW1 8273   1.204   5.186   2.835
 2458SOL    HW2 8274   1.070   5.171   2.743
 2459SOL     OW 8275   2.219   0.672   0.664
 2459SOL    HW1 8276   2.217   0.572   0.664
 2459SOL    HW2 8277   2.251   0.705   0.753
 2460SOL     OW 8278   3.313   6.013   1.401
 2460SOL    HW1 8279   3.282   5.989   1.493
 2460SOL    HW2 8280   3.334   6.111   1.397
 2461SOL     OW 8281   5.386   0.462   1.981
 2461SOL    HW1 8282   5.395   0.524   1.903
 2461SOL    HW2 8283   5.443   0.381   1.967
 2462SOL     OW 8284   2.131   5.610   6.403
 2462SOL    HW1 8285   2.229   5.591   6.396
 2462SOL    HW2 8286   2.081   5.525   6.414
 2463SOL     OW 8287   6.139   1.941   3.387
 2463SOL    HW1 8288   6.053   1.971   3.429
 2463SOL    HW2 8289   6.120   1.894   3.302
 2464SOL     OW 8290   1.097   3.391   1.329
 2464SOL    HW1 8291   1.180   3.336   1.318
 2464SOL    HW2 8292   1.017   3.331   1.320
 2465SOL     OW 8293   6.605   6.125   3.083
 2465SOL    HW1 8294   6.701   6.148   3.098
 2465SOL    HW2 8295   6.589   6.030   3.109
 2466SOL     OW 8296   3.347   1.585   2.449
 2466SOL    HW1 8297   3.315   1.678   2.430
 2466SOL    HW2 8298   3.416   1.587   2.521
 2467SOL     OW 8299   6.627   1.039   6.032
 2467SOL    HW1 8300   6.594   1.106   6.099
 2467SOL    HW2 8301   6.724   1.022   6.047
 2468SOL     OW 8302   0.104   5.170   1.301
 2468SOL    HW1 8303   0.159   5.108   1.357
 2468SOL    HW2 8304   0.028   5.206   1.356
 2469SOL     OW 8305   2.316   3.025   5.449
 2469SOL    HW1 8306   2.365   2.940   5.466
 2469SOL    HW2 8307   2.325   3.051   5.353
 2470SOL     OW 8308   4.856   2.527   0.259
 2470SOL    HW1 8309   4.828   2.443   0.305
 2470SOL    HW2 8310   4.868   2.600   0.327
 2471SOL     OW 8311   0.927   0.047   3.085
 2471SOL    HW1 8312   0.841   0.036   3.035
 2471SOL    HW2 8313   0.990   6.994   3.058
 2472SOL     OW 8314   5.613   1.871   3.636
 2472SOL    HW1 8315   5.596   1.923   3.552
 2472SOL    HW2 8316   5.578   1.778   3.625
 2473SOL     OW 8317   0.870   6.097   4.251
 2473SOL    HW1 8318   0.849   6.055   4.339
 2473SOL    HW2 8319   0.967   6.119   4.247
 2474SOL     OW 8320   6.947   4.473   5.091
 2474SOL    HW1 8321   6.937   4.376   5.114
 2474SOL    HW2 8322   6.870   4.524   5.128
 2475SOL     OW 8323   4.854   2.331   0.040
 2475SOL    HW1 8324   4.858   2.398   0.114
 2475SOL    HW2 8325   4.945   2.320   7.020
 2476SOL     OW 8326   1.343   1.885   4.576
 2476SOL    HW1 8327   1.304   1.866   4.486
 2476SOL    HW2 8328   1.396   1.970   4.573
 2477SOL     OW 8329   4.729   4.687   0.894
 2477SOL    HW1 8330   4.679   4.725   0.971
 2477SOL    HW2 8331   4.818   4.654   0.925
 2478SOL     OW 8332   6.741   0.057   3.030
 2478SOL    HW1 8333   6.748   7.006   3.101
 2478SOL    HW2 8334   6.788   0.140   3.061
 2479SOL     OW 8335   0.155   3.233   0.234
 2479SOL    HW1 8336   0.254   3.240   0.229
 2479SOL    HW2 8337   0.123   3.281   0.316
 2480SOL     OW 8338   0.260   3.237   1.377
 2480SOL    HW1 8339   0.338   3.215   1.435
 2480SOL    HW2 8340   0.269   3.331   1.345
 2481SOL     OW 8341   4.427   4.882   2.107
 2481SOL    HW1 8342   4.460   4.860   2.015
 2481SOL    HW2 8343   4.376   4.804   2.144
 2482SOL     OW 8344   4.866   2.198   4.590
 2482SOL    HW1 8345   4.928   2.121   4.604
 2482SOL    HW2 8346   4.807   2.180   4.512
 2483SOL     OW 8347   0.874   2.106   6.565
 2483SOL    HW1 8348   0.916   2.030   6.615
 2483SOL    HW2 8349   0.778   2.084   6.546
 2484SOL     OW 8350   3.370   2.042   6.386
 2484SOL    HW1 8351   3.300   2.111   6.402
 2484SOL    HW2 8352   3.431   2.073   6.313
 2485SOL     OW 8353   0.121   5.792   2.299
 2485SOL    HW1 8354   0.030   5.751   2.297
 2485SOL    HW2 8355   0.119   5.879   2.248
 2486SOL     OW 8356   1.327   5.271   3.186
 2486SOL    HW1 8357   1.341   5.323   3.270
 2486SOL    HW2 8358   1.268   5.192   3.205
 2487SOL     OW 8359   3.320   1.108   0.971
 2487SOL    HW1 8360   3.285   1.125   0.879
 2487SOL    HW2 8361   3.289   1.180   1.033
 2488SOL     OW 8362   2.986   6.119   0.286
 2488SOL    HW1 8363   2.983   6.219   0.286
 2488SOL    HW2 8364   2.914   6.083   0.226
 2489SOL     OW 8365   0.740   5.481   4.703
 2489SOL    HW1 8366   0.732   5.421   4.624
 2489SOL    HW2 8367   0.656   5.534   4.713
 2490SOL     OW 8368   5.155   3.311   1.478
 2490SOL    HW1 8369   5.139   3.225   1.429
 2490SOL    HW2 8370   5.068   3.348   1.510
 2491SOL     OW 8371   1.827   4.730   2.150
 2491SOL    HW1 8372   1.836   4.660   2.221
 2491SOL    HW2 8373   1.866   4.695   2.064
 2492SOL     OW 8374   4.212   3.145   6.614
 2492SOL    HW1 8375   4.128   3.128   6.665
 2492SOL    HW2 8376   4.197   3.221   6.550
 2493SOL     OW 8377   6.509   2.007   3.246
 2493SOL    HW1 8378   6.435   2.059   3.204
 2493SOL    HW2 8379   6.593   2.018   3.192
 2494SOL     OW 8380   4.944   3.433   1.941
 2494SOL    HW1 8381   4.903   3.352   1.899
 2494SOL    HW2 8382   4.888   3.513   1.921
 2495SOL     OW 8383   6.069   1.268   4.635
 2495SOL    HW1 8384   6.002   1.332   4.672
 2495SOL    HW2 8385   6.157   1.281   4.680
 2496SOL     OW 8386   1.183   6.309   0.324
 2496SOL    HW1 8387   1.206   6.222   0.367
 2496SOL    HW2 8388   1.171   6.296   0.226
 2497SOL     OW 8389   5.611   1.932   6.006
 2497SOL    HW1 8390   5.560   2.000   5.954
 2497SOL    HW2 8391   5.547   1.880   6.063
 2498SOL     OW 8392   1.546   3.620   4.820
 2498SOL    HW1 8393   1.488   3.694   4.786
 2498SOL    HW2 8394   1.496   3.534   4.818
 2499SOL     OW 8395   6.029   0.117   5.097
 2499SOL    HW1 8396   6.117   0.108   5.050
 2499SOL    HW2 8397   6.045   0.125   5.196
 2500SOL     OW 8398   4.466   3.528   6.621
 2500SOL    HW1 8399   4.367   3.517   6.617
 2500SOL    HW2 8400   4.510   3.438   6.629
 2501SOL     OW 8401   6.632   4.538   0.072
 2501SOL    HW1 8402   6.542   4.504   0.043
 2501SOL    HW2 8403   6.695   4.537   7.015
 2502SOL     OW 8404   2.271   6.328   3.493
 2502SOL    HW1 8405   2.268   6.292   3.399
 2502SOL    HW2 8406   2.303   6.256   3.555
 2503SOL     OW 8407   4.590   5.137   4.699
 2503SOL    HW1 8408   4.563   5.233   4.691
 2503SOL    HW2 8409   4.676   5.132   4.750
 2504SOL     OW 8410   1.643   4.200   3.880
 2504SOL    HW1 8411   1.699   4.281   3.901
 2504SOL    HW2 8412   1.561   4.200   3.937
 2505SOL     OW 8413   4.714   5.799   3.785
 2505SOL    HW1 8414   4.623   5.814   3.822
 2505SOL    HW2 8415   4.766   5.741   3.848
 2506SOL     OW 8416   0.184   2.092   6.605
 2506SOL    HW1 8417   0.195   2.114   6.508
 2506SOL    HW2 8418   0.258   2.031   6.633
 2507SOL     OW 8419   6.940   5.931   0.363
 2507SOL    HW1 8420   6.841   5.945   0.365
 2507SOL    HW2 8421   6.987   6.016   0.389
 2508SOL     OW 8422   2.236   2.352   2.912
 2508SOL    HW1 8423   2.178   2.301   2.849
 2508SOL    HW2 8424   2.304   2.291   2.952
 2509SOL     OW 8425   5.042   2.543   3.750
 2509SOL    HW1 8426   4.943   2.555   3.746
 2509SOL    HW2 8427   5.077   2.524   3.659
 2510SOL     OW 8428   4.092   6.007   0.880
 2510SOL    HW1 8429   3.995   6.030   0.871
 2510SOL    HW2 8430   4.137   6.078   0.934
 2511SOL     OW 8431   1.552   7.013   4.844
 2511SOL    HW1 8432   1.507   0.082   4.839
 2511SOL    HW2 8433   1.520   6.956   4.767
 2512SOL     OW 8434   4.898   3.042   4.876
 2512SOL    HW1 8435   4.993   3.055   4.905
 2512SOL    HW2 8436   4.877   3.105   4.801
 2513SOL     OW 8437   0.535   3.881   0.750
 2513SOL    HW1 8438   0.632   3.859   0.759
 2513SOL    HW2 8439   0.524   3.965   0.696
 2514SOL     OW 8440   1.455   1.060   3.629
 2514SOL    HW1 8441   1.416   1.116   3.556
 2514SOL    HW2 8442   1.386   1.047   3.701
 2515SOL     OW 8443   0.947   5.298   0.301
 2515SOL    HW1 8444   0.918   5.318   0.395
 2515SOL    HW2 8445   1.047   5.293   0.297
 2516SOL     OW 8446   5.434   6.170   3.981
 2516SOL    HW1 8447   5.476   6.133   3.898
 2516SOL    HW2 8448   5.497   6.161   4.058
 2517SOL     OW 8449   2.447   4.871   0.098
 2517SOL    HW1 8450   2.364   4.827   0.132
 2517SOL    HW2 8451   2.527   4.818   0.127
 2518SOL     OW 8452   2.527   2.305   6.547
 2518SOL    HW1 8453   2.625   2.319   6.533
 2518SOL    HW2 8454   2.494   2.364   6.621
 2519SOL     OW 8455   4.871   4.061   4.200
 2519SOL    HW1 8456   4.835   3.971   4.224
 2519SOL    HW2 8457   4.921   4.099   4.278
 2520SOL     OW 8458   2.045   4.250   2.282
 2520SOL    HW1 8459   2.143   4.244   2.301
 2520SOL    HW2 8460   2.003   4.160   2.295
 2521SOL     OW 8461   5.619   6.362   5.208
 2521SOL    HW1 8462   5.698   6.349   5.149
 2521SOL    HW2 8463   5.591   6.458   5.207
 2522SOL     OW 8464   1.219   3.025   4.759
 2522SOL    HW1 8465   1.169   3.029   4.846
 2522SOL    HW2 8466   1.245   3.118   4.732
 2523SOL     OW 8467   0.426   2.978   6.695
 2523SOL    HW1 8468   0.367   2.988   6.776
 2523SOL    HW2 8469   0.400   3.047   6.627
 2524SOL     OW 8470   0.899   6.588   5.243
 2524SOL    HW1 8471   0.822   6.613   5.184
 2524SOL    HW2 8472   0.983   6.582   5.188
 2525SOL     OW 8473   1.528   3.754   3.192
 2525SOL    HW1 8474   1.545   3.751   3.290
 2525SOL    HW2 8475   1.613   3.736   3.142
 2526SOL     OW 8476   6.756   1.454   5.390
 2526SOL    HW1 8477   6.656   1.448   5.388
 2526SOL    HW2 8478   6.793   1.378   5.444
 2527SOL     OW 8479   6.435   6.681   4.139
 2527SOL    HW1 8480   6.413   6.742   4.063
 2527SOL    HW2 8481   6.513   6.623   4.113
 2528SOL     OW 8482   6.367   5.664   0.403
 2528SOL    HW1 8483   6.333   5.675   0.309
 2528SOL    HW2 8484   6.449   5.607   0.402
 2529SOL     OW 8485   5.046   3.630   4.637
 2529SOL    HW1 8486   5.028   3.583   4.723
 2529SOL    HW2 8487   4.980   3.704   4.624
 2530SOL     OW 8488   0.078   0.900   4.349
 2530SOL    HW1 8489   7.016   0.858   4.387
 2530SOL    HW2 8490   0.073   0.999   4.359
 2531SOL     OW 8491   4.579   1.401   6.541
 2531SOL    HW1 8492   4.602   1.326   6.479
 2531SOL    HW2 8493   4.480   1.408   6.551
 2532SOL     OW 8494   1.654   4.671   6.247
 2532SOL    HW1 8495   1.699   4.582   6.250
 2532SOL    HW2 8496   1.557   4.660   6.267
 2533SOL     OW 8497   5.762   6.793   5.441
 2533SOL    HW1 8498   5.834   6.781   5.374
 2533SOL    HW2 8499   5.693   6.722   5.430
 2534SOL     OW 8500   0.876   2.022   4.056
 2534SOL    HW1 8501   0.899   2.106   4.105
 2534SOL    HW2 8502   0.841   1.955   4.121
 2535SOL     OW 8503   1.983   1.080   2.860
 2535SOL    HW1 8504   2.031   1.041   2.781
 2535SOL    HW2 8505   2.051   1.118   2.924
 2536SOL     OW 8506   6.407   0.622   3.800
 2536SOL    HW1 8507   6.438   0.639   3.893
 2536SOL    HW2 8508   6.458   0.545   3.762
 2537SOL     OW 8509   4.305   5.306   1.280
 2537SOL    HW1 8510   4.398   5.344   1.281
 2537SOL    HW2 8511   4.243   5.374   1.241
 2538SOL     OW 8512   2.087   4.411   5.008
 2538SOL    HW1 8513   2.036   4.461   4.938
 2538SOL    HW2 8514   2.056   4.440   5.099
 2539SOL     OW 8515   2.495   0.288   5.186
 2539SOL    HW1 8516   2.473   0.375   5.141
 2539SOL    HW2 8517   2.492   0.214   5.119
 2540SOL     OW 8518   5.809   2.092   2.285
 2540SOL    HW1 8519   5.797   2.002   2.326
 2540SOL    HW2 8520   5.789   2.088   2.187
 2541SOL     OW 8521   1.248   6.493   5.831
 2541SOL    HW1 8522   1.259   6.402   5.792
 2541SOL    HW2 8523   1.323   6.512   5.894
 2542SOL     OW 8524   3.867   1.868   4.161
 2542SOL    HW1 8525   3.824   1.856   4.071
 2542SOL    HW2 8526   3.809   1.826   4.231
 2543SOL     OW 8527   0.325   2.057   4.640
 2543SOL    HW1 8528   0.375   2.111   4.707
 2543SOL    HW2 8529   0.311   1.964   4.674
 2544SOL     OW 8530   6.539   5.523   2.054
 2544SOL    HW1 8531   6.632   5.523   2.089
 2544SOL    HW2 8532   6.533   5.461   1.975
 2545SOL     OW 8533   6.682   1.974   1.037
 2545SOL    HW1 8534   6.749   2.046   1.057
 2545SOL    HW2 8535   6.730   1.886   1.026
 2546SOL     OW 8536   6.616   4.121   2.760
 2546SOL    HW1 8537   6.623   4.207   2.709
 2546SOL    HW2 8538   6.609   4.045   2.695
 2547SOL     OW 8539   6.004   3.652   1.214
 2547SOL    HW1 8540   5.955   3.646   1.127
 2547SOL    HW2 8541   6.020   3.559   1.249
 2548SOL     OW 8542   0.299   6.769   5.473
 2548SOL    HW1 8543   0.331   6.864   5.470
 2548SOL    HW2 8544   0.369   6.710   5.433
 2549SOL     OW 8545   2.611   2.860   0.581
 2549SOL    HW1 8546   2.646   2.766   0.585
 2549SOL    HW2 8547   2.669   2.919   0.637
 2550SOL     OW 8548   4.072   6.465   6.355
 2550SOL    HW1 8549   4.064   6.470   6.256
 2550SOL    HW2 8550   4.019   6.540   6.397
 2551SOL     OW 8551   3.097   5.229   0.740
 2551SOL    HW1 8552   3.000   5.216   0.721
 2551SOL    HW2 8553   3.148   5.229   0.654
 2552SOL     OW 8554   2.428   6.124   1.208
 2552SOL    HW1 8555   2.340   6.093   1.171
 2552SOL    HW2 8556   2.482   6.045   1.236
 2553SOL     OW 8557   4.443   1.399   6.904
 2553SOL    HW1 8558   4.506   1.474   6.881
 2553SOL    HW2 8559   4.478   1.350   6.984
 2554SOL     OW 8560   1.501   6.053   1.964
 2554SOL    HW1 8561   1.547   6.077   1.879
 2554SOL    HW2 8562   1.563   6.069   2.041
 2555SOL     OW 8563   5.362   6.732   5.285
 2555SOL    HW1 8564   5.419   6.661   5.326
 2555SOL    HW2 8565   5.315   6.694   5.206
 2556SOL     OW 8566   4.210   0.896   0.464
 2556SOL    HW1 8567   4.277   0.925   0.396
 2556SOL    HW2 8568   4.157   0.820   0.428
 2557SOL     OW 8569   3.248   0.164   6.912
 2557SOL    HW1 8570   3.227   0.070   6.885
 2557SOL    HW2 8571   3.347   0.179   6.903
 2558SOL     OW 8572   5.553   3.688   6.694
 2558SOL    HW1 8573   5.512   3.719   6.608
 2558SOL    HW2 8574   5.498   3.719   6.771
 2559SOL     OW 8575   1.145   4.615   4.871
 2559SOL    HW1 8576   1.093   4.621   4.786
 2559SOL    HW2 8577   1.110   4.540   4.927
 2560SOL     OW 8578   4.927   2.206   3.587
 2560SOL    HW1 8579   4.881   2.120   3.567
 2560SOL    HW2 8580   5.020   2.187   3.619
 2561SOL     OW 8581   3.810   0.609   4.214
 2561SOL    HW1 8582   3.904   0.612   4.249
 2561SOL    HW2 8583   3.800   0.675   4.139
 2562SOL     OW 8584   3.829   6.235   3.773
 2562SOL    HW1 8585   3.744   6.286   3.762
 2562SOL    HW2 8586   3.881   6.272   3.850
 2563SOL     OW 8587   3.402   1.824   0.241
 2563SOL    HW1 8588   3.321   1.794   0.292
 2563SOL    HW2 8589   3.474   1.852   0.306
 2564SOL     OW 8590   2.524   2.046   0.340
 2564SOL    HW1 8591   2.573   1.962   0.364
 2564SOL    HW2 8592   2.450   2.024   0.276
 2565SOL     OW 8593   1.134   1.968   0.377
 2565SOL    HW1 8594   1.203   1.949   0.307
 2565SOL    HW2 8595   1.163   2.046   0.432
 2566SOL     OW 8596   2.493   0.999   0.938
 2566SOL    HW1 8597   2.469   1.089   0.901
 2566SOL    HW2 8598   2.425   0.973   1.007
 2567SOL     OW 8599   1.918   0.366   0.290
 2567SOL    HW1 8600   1.971   0.313   0.357
 2567SOL    HW2 8601   1.842   0.310   0.256
 2568SOL     OW 8602   3.097   6.242   0.848
 2568SOL    HW1 8603   3.145   6.159   0.823
 2568SOL    HW2 8604   3.138   6.320   0.801
 2569SOL     OW 8605   1.456   7.006   1.116
 2569SOL    HW1 8606   1.546   6.982   1.078
 2569SOL    HW2 8607   1.393   0.007   1.042
 2570SOL     OW 8608   6.618   6.889   5.874
 2570SOL    HW1 8609   6.579   6.829   5.805
 2570SOL    HW2 8610   6.683   6.838   5.930
 2571SOL     OW 8611   3.640   2.931   3.919
 2571SOL    HW1 8612   3.631   2.890   4.010
 2571SOL    HW2 8613   3.571   3.003   3.908
 2572SOL     OW 8614   1.909   6.402   1.680
 2572SOL    HW1 8615   1.823   6.353   1.673
 2572SOL    HW2 8616   1.984   6.336   1.690
 2573SOL     OW 8617   0.033   2.075   4.068
 2573SOL    HW1 8618   0.086   2.157   4.046
 2573SOL    HW2 8619   0.094   2.002   4.098
 2574SOL     OW 8620   0.746   3.866   2.152
 2574SOL    HW1 8621   0.663   3.903   2.109
 2574SOL    HW2 8622   0.823   3.876   2.089
 2575SOL     OW 8623   6.105   3.568   0.329
 2575SOL    HW1 8624   6.104   3.490   0.393
 2575SOL    HW2 8625   6.065   3.647   0.374
 2576SOL     OW 8626   2.225   0.161   3.754
 2576SOL    HW1 8627   2.277   0.151   3.838
 2576SOL    HW2 8628   2.229   0.075   3.702
 2577SOL     OW 8629   2.826   6.049   2.100
 2577SOL    HW1 8630   2.783   6.109   2.168
 2577SOL    HW2 8631   2.925   6.062   2.101
 2578SOL     OW 8632   4.821   2.028   3.895
 2578SOL    HW1 8633   4.794   2.083   3.816
 2578SOL    HW2 8634   4.883   2.081   3.953
 2579SOL     OW 8635   6.976   2.163   6.465
 2579SOL    HW1 8636   0.001   2.170   6.375
 2579SOL    HW2 8637   0.005   2.096   6.521
 2580SOL     OW 8638   1.287   2.689   6.219
 2580SOL    HW1 8639   1.204   2.663   6.269
 2580SOL    HW2 8640   1.329   2.767   6.264
 2581SOL     OW 8641   6.692   6.618   4.082
 2581SOL    HW1 8642   6.737   6.673   4.152
 2581SOL    HW2 8643   6.743   6.534   4.067
 2582SOL     OW 8644   0.450   5.545   2.646
 2582SOL    HW1 8645   0.407   5.548   2.736
 2582SOL    HW2 8646   0.535   5.493   2.651
 2583SOL     OW 8647   2.025   0.850   0.639
 2583SOL    HW1 8648   2.086   0.921   0.603
 2583SOL    HW2 8649   2.072   0.762   0.636
 2584SOL     OW 8650   4.985   6.940   1.953
 2584SOL    HW1 8651   4.937   0.008   1.947
 2584SOL    HW2 8652   4.949   6.889   2.031
 2585SOL     OW 8653   3.758   0.861   1.584
 2585SOL    HW1 8654   3.812   0.932   1.538
 2585SOL    HW2 8655   3.712   0.804   1.516
 2586SOL     OW 8656   6.651   2.503   4.318
 2586SOL    HW1 8657   6.749   2.492   4.300
 2586SOL    HW2 8658   6.602   2.421   4.287
 2587SOL     OW 8659   5.787   6.609   3.129
 2587SOL    HW1 8660   5.723   6.686   3.135
 2587SOL    HW2 8661   5.738   6.523   3.142
 2588SOL     OW 8662   5.394   1.424   1.436
 2588SOL    HW1 8663   5.324   1.378   1.490
 2588SOL    HW2 8664   5.475   1.440   1.494
 2589SOL     OW 8665   6.706   6.612   0.250
 2589SOL    HW1 8666   6.643   6.603   0.327
 2589SOL    HW2 8667   6.777   6.679   0.274
 2590SOL     OW 8668   4.356   6.520   2.644
 2590SOL    HW1 8669   4.363   6.619   2.628
 2590SOL    HW2 8670   4.291   6.503   2.717
 2591SOL     OW 8671   5.765   0.302   1.341
 2591SOL    HW1 8672   5.698   0.363   1.299
 2591SOL    HW2 8673   5.845   0.355   1.370
 2592SOL     OW 8674   3.626   6.035   1.630
 2592SOL    HW1 8675   3.613   5.960   1.566
 2592SOL    HW2 8676   3.720   6.067   1.625
 2593SOL     OW 8677   3.158   6.378   2.757
 2593SOL    HW1 8678   3.248   6.367   2.799
 2593SOL    HW2 8679   3.106   6.448   2.806
 2594SOL     OW 8680   1.107   6.504   6.213
 2594SOL    HW1 8681   1.023   6.480   6.261
 2594SOL    HW2 8682   1.085   6.539   6.122
 2595SOL     OW 8683   6.253   3.506   3.927
 2595SOL    HW1 8684   6.317   3.535   3.997
 2595SOL    HW2 8685   6.220   3.585   3.876
 2596SOL     OW 8686   3.923   2.077   2.160
 2596SOL    HW1 8687   3.906   2.119   2.071
 2596SOL    HW2 8688   3.844   2.094   2.220
 2597SOL     OW 8689   2.226   3.071   0.110
 2597SOL    HW1 8690   2.274   3.151   0.073
 2597SOL    HW2 8691   2.155   3.043   0.046
 2598SOL     OW 8692   6.861   3.127   2.957
 2598SOL    HW1 8693   6.932   3.188   2.993
 2598SOL    HW2 8694   6.825   3.070   3.031
 2599SOL     OW 8695   4.355   5.407   0.171
 2599SOL    HW1 8696   4.404   5.383   0.255
 2599SOL    HW2 8697   4.411   5.384   0.092
 2600SOL     OW 8698   6.704   3.660   3.456
 2600SOL    HW1 8699   6.693   3.564   3.429
 2600SOL    HW2 8700   6.797   3.675   3.489
 2601SOL     OW 8701   3.794   3.074   5.815
 2601SOL    HW1 8702   3.714   3.018   5.838
 2601SOL    HW2 8703   3.794   3.093   5.716
 2602SOL     OW 8704   6.462   5.830   4.573
 2602SOL    HW1 8705   6.378   5.868   4.532
 2602SOL    HW2 8706   6.453   5.829   4.672
 2603SOL     OW 8707   3.018   3.144   1.314
 2603SOL    HW1 8708   3.012   3.174   1.219
 2603SOL    HW2 8709   3.114   3.144   1.343
 2604SOL     OW 8710   6.217   0.694   1.062
 2604SOL    HW1 8711   6.237   0.758   0.989
 2604SOL    HW2 8712   6.286   0.622   1.064
 2605SOL     OW 8713   4.443   4.977   4.422
 2605SOL    HW1 8714   4.517   4.912   4.440
 2605SOL    HW2 8715   4.363   4.928   4.387
 2606SOL     OW 8716   0.120   4.560   0.809
 2606SOL    HW1 8717   0.056   4.483   0.810
 2606SOL    HW2 8718   0.070   4.645   0.825
 2607SOL     OW 8719   0.827   1.549   4.407
 2607SOL    HW1 8720   0.765   1.543   4.485
 2607SOL    HW2 8721   0.911   1.497   4.426
 2608SOL     OW 8722   4.870   0.774   1.108
 2608SOL    HW1 8723   4.828   0.842   1.049
 2608SOL    HW2 8724   4.911   0.819   1.188
 2609SOL     OW 8725   0.750   2.286   3.541
 2609SOL    HW1 8726   0.709   2.265   3.452
 2609SOL    HW2 8727   0.839   2.241   3.548
 2610SOL     OW 8728   6.061   5.450   4.676
 2610SOL    HW1 8729   5.984   5.461   4.613
 2610SOL    HW2 8730   6.091   5.540   4.707
 2611SOL     OW 8731   3.888   6.106   1.602
 2611SOL    HW1 8732   3.963   6.077   1.661
 2611SOL    HW2 8733   3.919   6.110   1.507
 2612SOL     OW 8734   6.365   6.543   4.370
 2612SOL    HW1 8735   6.313   6.615   4.416
 2612SOL    HW2 8736   6.382   6.569   4.275
 2613SOL     OW 8737   4.172   0.407   1.783
 2613SOL    HW1 8738   4.156   0.473   1.711
 2613SOL    HW2 8739   4.246   0.345   1.756
 2614SOL     OW 8740   0.182   6.685   6.856
 2614SOL    HW1 8741   0.153   6.619   6.787
 2614SOL    HW2 8742   0.143   6.660   6.945
 2615SOL     OW 8743   5.406   5.044   2.111
 2615SOL    HW1 8744   5.365   5.086   2.192
 2615SOL    HW2 8745   5.468   5.109   2.068
 2616SOL     OW 8746   4.112   3.287   2.972
 2616SOL    HW1 8747   4.047   3.218   2.940
 2616SOL    HW2 8748   4.120   3.281   3.072
 2617SOL     OW 8749   4.073   0.001   1.160
 2617SOL    HW1 8750   4.158   0.045   1.192
 2617SOL    HW2 8751   4.017   0.068   1.111
 2618SOL     OW 8752   1.051   0.719   0.979
 2618SOL    HW1 8753   1.040   0.692   1.075
 2618SOL    HW2 8754   0.991   0.797   0.960
 2619SOL     OW 8755   4.745   2.344   1.406
 2619SOL    HW1 8756   4.842   2.337   1.386
 2619SOL    HW2 8757   4.708   2.253   1.425
 2620SOL     OW 8758   1.555   4.271   4.477
 2620SOL    HW1 8759   1.618   4.196   4.455
 2620SOL    HW2 8760   1.523   4.314   4.393
 2621SOL     OW 8761   0.942   5.362   3.715
 2621SOL    HW1 8762   0.951   5.265   3.737
 2621SOL    HW2 8763   0.991   5.417   3.782
 2622SOL     OW 8764   2.394   2.908   6.756
 2622SOL    HW1 8765   2.393   2.910   6.656
 2622SOL    HW2 8766   2.471   2.962   6.790
 2623SOL     OW 8767   2.929   0.570   5.629
 2623SOL    HW1 8768   2.997   0.591   5.558
 2623SOL    HW2 8769   2.969   0.587   5.719
 2624SOL     OW 8770   6.158   1.627   3.477
 2624SOL    HW1 8771   6.076   1.591   3.522
 2624SOL    HW2 8772   6.133   1.703   3.418
 2625SOL     OW 8773   3.645   1.379   5.439
 2625SOL    HW1 8774   3.685   1.466   5.410
 2625SOL    HW2 8775   3.595   1.338   5.362
 2626SOL     OW 8776   2.173   6.649   2.654
 2626SOL    HW1 8777   2.229   6.671   2.734
 2626SOL    HW2 8778   2.165   6.729   2.595
 2627SOL     OW 8779   6.722   0.073   4.442
 2627SOL    HW1 8780   6.647   0.073   4.508
 2627SOL    HW2 8781   6.796   0.131   4.477
 2628SOL     OW 8782   4.094   5.968   6.449
 2628SOL    HW1 8783   4.122   5.945   6.356
 2628SOL    HW2 8784   4.092   6.068   6.459
 2629SOL     OW 8785   3.730   3.870   1.233
 2629SOL    HW1 8786   3.783   3.874   1.317
 2629SOL    HW2 8787   3.637   3.902   1.251
 2630SOL     OW 8788   2.850   2.299   2.577
 2630SOL    HW1 8789   2.833   2.297   2.478
 2630SOL    HW2 8790   2.944   2.271   2.595
 2631SOL     OW 8791   4.901   6.245   4.255
 2631SOL    HW1 8792   4.920   6.287   4.166
 2631SOL    HW2 8793   4.977   6.186   4.281
 2632SOL     OW 8794   3.916   2.435   0.375
 2632SOL    HW1 8795   3.985   2.463   0.441
 2632SOL    HW2 8796   3.955   2.432   0.284
 2633SOL     OW 8797   5.677   1.881   6.891
 2633SOL    HW1 8798   5.680   1.981   6.891
 2633SOL    HW2 8799   5.768   1.845   6.909
 2634SOL     OW 8800   2.490   4.706   1.097
 2634SOL    HW1 8801   2.445   4.698   1.186
 2634SOL    HW2 8802   2.561   4.777   1.102
 2635SOL     OW 8803   5.422   4.424   4.569
 2635SOL    HW1 8804   5.324   4.446   4.564
 2635SOL    HW2 8805   5.455   4.437   4.662
 2636SOL     OW 8806   5.832   0.282   5.190
 2636SOL    HW1 8807   5.903   0.229   5.143
 2636SOL    HW2 8808   5.868   0.316   5.276
 2637SOL     OW 8809   5.724   0.006   2.723
 2637SOL    HW1 8810   5.779   0.043   2.649
 2637SOL    HW2 8811   5.762   0.035   2.811
 2638SOL     OW 8812   5.456   6.166   0.686
 2638SOL    HW1 8813   5.536   6.109   0.703
 2638SOL    HW2 8814   5.390   6.153   0.760
 2639SOL     OW 8815   6.231   5.895   0.498
 2639SOL    HW1 8816   6.283   5.819   0.457
 2639SOL    HW2 8817   6.237   5.890   0.597
 2640SOL     OW 8818   0.143   6.222   5.417
 2640SOL    HW1 8819   0.195   6.272   5.487
 2640SOL    HW2 8820   0.055   6.266   5.403
 2641SOL     OW 8821   5.367   4.768   0.314
 2641SOL    HW1 8822   5.281   4.760   0.264
 2641SOL    HW2 8823   5.374   4.859   0.353
 2642SOL     OW 8824   5.070   6.859   4.200
 2642SOL    HW1 8825   4.977   6.826   4.216
 2642SOL    HW2 8826   5.083   6.877   4.102
 2643SOL     OW 8827   0.960   0.613   2.316
 2643SOL    HW1 8828   1.007   0.658   2.391
 2643SOL    HW2 8829   0.866   0.594   2.342
 2644SOL     OW 8830   0.032   4.424   6.381
 2644SOL    HW1 8831   0.122   4.424   6.337
 2644SOL    HW2 8832   0.038   4.471   6.469
 2645SOL     OW 8833   5.545   5.709   6.016
 2645SOL    HW1 8834   5.489   5.659   6.083
 2645SOL    HW2 8835   5.489   5.776   5.969
 2646SOL     OW 8836   6.736   6.550   6.996
 2646SOL    HW1 8837   6.743   6.608   6.914
 2646SOL    HW2 8838   6.738   6.607   0.058
 2647SOL     OW 8839   3.636   1.801   1.368
 2647SOL    HW1 8840   3.591   1.873   1.315
 2647SOL    HW2 8841   3.566   1.749   1.419
 2648SOL     OW 8842   4.891   0.569   2.303
 2648SOL    HW1 8843   4.887   0.648   2.364
 2648SOL    HW2 8844   4.810   0.511   2.318
 2649SOL     OW 8845   3.595   1.725   5.961
 2649SOL    HW1 8846   3.687   1.760   5.978
 2649SOL    HW2 8847   3.530   1.771   6.022
 2650SOL     OW 8848   0.173   6.230   2.889
 2650SOL    HW1 8849   0.259   6.222   2.939
 2650SOL    HW2 8850   0.182   6.298   2.816
 2651SOL     OW 8851   6.568   1.221   2.949
 2651SOL    HW1 8852   6.538   1.305   2.995
 2651SOL    HW2 8853   6.539   1.223   2.853
 2652SOL     OW 8854   3.422   3.133   2.903
 2652SOL    HW1 8855   3.359   3.211   2.901
 2652SOL    HW2 8856   3.393   3.064   2.837
 2653SOL     OW 8857   6.707   6.277   6.266
 2653SOL    HW1 8858   6.773   6.328   6.212
 2653SOL    HW2 8859   6.708   6.311   6.360
 2654SOL     OW 8860   5.597   2.900   5.669
 2654SOL    HW1 8861   5.514   2.864   5.626
 2654SOL    HW2 8862   5.597   2.875   5.766
 2655SOL     OW 8863   5.085   6.455   4.587
 2655SOL    HW1 8864   5.017   6.383   4.592
 2655SOL    HW2 8865   5.073   6.507   4.502
 2656SOL     OW 8866   5.163   3.372   4.028
 2656SOL    HW1 8867   5.086   3.357   3.967
 2656SOL    HW2 8868   5.248   3.351   3.980
 2657SOL     OW 8869   1.778   3.912   6.741
 2657SOL    HW1 8870   1.816   3.918   6.649
 2657SOL    HW2 8871   1.745   3.819   6.758
 2658SOL     OW 8872   6.253   3.858   5.977
 2658SOL    HW1 8873   6.201   3.896   5.900
 2658SOL    HW2 8874   6.344   3.900   5.980
 2659SOL     OW 8875   6.969   2.563   3.934
 2659SOL    HW1 8876   6.943   2.657   3.956
 2659SOL    HW2 8877   6.889   2.514   3.899
 2660SOL     OW 8878   0.068   2.313   2.472
 2660SOL    HW1 8879   0.012   2.255   2.531
 2660SOL    HW2 8880   0.084   2.266   2.385
 2661SOL     OW 8881   4.381   6.539   1.102
 2661SOL    HW1 8882   4.292   6.528   1.146
 2661SOL    HW2 8883   4.392   6.633   1.071
 2662SOL     OW 8884   3.786   6.388   4.083
 2662SOL    HW1 8885   3.700   6.346   4.053
 2662SOL    HW2 8886   3.772   6.431   4.172
 2663SOL     OW 8887   1.408   4.378   2.701
 2663SOL    HW1 8888   1.331   4.376   2.636
 2663SOL    HW2 8889   1.472   4.450   2.673
 2664SOL     OW 8890   4.035   3.670   2.183
 2664SOL    HW1 8891   4.014   3.729   2.261
 2664SOL    HW2 8892   4.052   3.577   2.215
 2665SOL     OW 8893   4.048   1.292   4.445
 2665SOL    HW1 8894   3.960   1.315   4.404
 2665SOL    HW2 8895   4.122   1.334   4.393
 2666SOL     OW 8896   5.222   4.983   1.035
 2666SOL    HW1 8897   5.233   4.883   1.035
 2666SOL    HW2 8898   5.175   5.011   0.952
 2667SOL     OW 8899   2.303   5.389   3.996
 2667SOL    HW1 8900   2.324   5.418   4.089
 2667SOL    HW2 8901   2.278   5.292   3.996
 2668SOL     OW 8902   0.177   2.880   5.786
 2668SOL    HW1 8903   0.129   2.963   5.815
 2668SOL    HW2 8904   0.273   2.886   5.811
 2669SOL     OW 8905   4.397   4.802   5.193
 2669SOL    HW1 8906   4.347   4.856   5.126
 2669SOL    HW2 8907   4.467   4.858   5.237
 2670SOL     OW 8908   1.391   1.084   6.773
 2670SOL    HW1 8909   1.432   1.168   6.736
 2670SOL    HW2 8910   1.292   1.095   6.776
 2671SOL     OW 8911   2.358   3.488   6.423
 2671SOL    HW1 8912   2.448   3.490   6.379
 2671SOL    HW2 8913   2.338   3.395   6.452
 2672SOL     OW 8914   1.715   5.524   1.104
 2672SOL    HW1 8915   1.710   5.471   1.189
 2672SOL    HW2 8916   1.740   5.618   1.125
 2673SOL     OW 8917   3.309   2.106   2.821
 2673SOL    HW1 8918   3.403   2.133   2.842
 2673SOL    HW2 8919   3.310   2.019   2.771
 2674SOL     OW 8920   5.801   4.930   5.152
 2674SOL    HW1 8921   5.883   4.876   5.167
 2674SOL    HW2 8922   5.764   4.961   5.240
 2675SOL     OW 8923   0.016   4.671   5.668
 2675SOL    HW1 8924   0.008   4.622   5.581
 2675SOL    HW2 8925   0.112   4.692   5.686
 2676SOL     OW 8926   4.247   1.315   1.395
 2676SOL    HW1 8927   4.319   1.373   1.357
 2676SOL    HW2 8928   4.271   1.218   1.380
 2677SOL     OW 8929   2.379   5.065   1.948
 2677SOL    HW1 8930   2.374   5.024   2.040
 2677SOL    HW2 8931   2.456   5.024   1.898
 2678SOL     OW 8932   0.424   5.005   5.686
 2678SOL    HW1 8933   0.388   5.097   5.702
 2678SOL    HW2 8934   0.357   4.937   5.715
 2679SOL     OW 8935   3.070   4.684   1.084
 2679SOL    HW1 8936   3.064   4.584   1.083
 2679SOL    HW2 8937   3.154   4.712   1.038
 2680SOL     OW 8938   1.620   1.736   1.501
 2680SOL    HW1 8939   1.560   1.754   1.423
 2680SOL    HW2 8940   1.596   1.648   1.542
 2681SOL     OW 8941   1.666   2.484   3.204
 2681SOL    HW1 8942   1.699   2.441   3.120
 2681SOL    HW2 8943   1.728   2.463   3.279
 2682SOL     OW 8944   5.663   2.490   2.605
 2682SOL    HW1 8945   5.711   2.531   2.683
 2682SOL    HW2 8946   5.566   2.513   2.610
 2683SOL     OW 8947   1.156   5.810   1.459
 2683SOL    HW1 8948   1.182   5.900   1.493
 2683SOL    HW2 8949   1.210   5.788   1.378
 2684SOL     OW 8950   2.388   6.499   3.322
 2684SOL    HW1 8951   2.334   6.480   3.404
 2684SOL    HW2 8952   2.461   6.565   3.344
 2685SOL     OW 8953   5.494   6.037   4.867
 2685SOL    HW1 8954   5.525   5.970   4.935
 2685SOL    HW2 8955   5.482   5.992   4.779
 2686SOL     OW 8956   2.197   3.152   4.306
 2686SOL    HW1 8957   2.132   3.207   4.358
 2686SOL    HW2 8958   2.180   3.164   4.208
 2687SOL     OW 8959   4.214   5.372   2.747
 2687SOL    HW1 8960   4.172   5.462   2.737
 2687SOL    HW2 8961   4.151   5.311   2.795
 2688SOL     OW 8962   3.833   4.800   6.152
 2688SOL    HW1 8963   3.899   4.750   6.096
 2688SOL    HW2 8964   3.787   4.869   6.097
 2689SOL     OW 8965   0.035   3.122   4.240
 2689SOL    HW1 8966   0.038   3.023   4.230
 2689SOL    HW2 8967   0.040   3.165   4.150
 2690SOL     OW 8968   3.853   3.895   3.755
 2690SOL    HW1 8969   3.774   3.877   3.813
 2690SOL    HW2 8970   3.934   3.851   3.794
 2691SOL     OW 8971   1.610   6.085   2.435
 2691SOL    HW1 8972   1.588   5.997   2.477
 2691SOL    HW2 8973   1.526   6.139   2.426
 2692SOL     OW 8974   0.237   6.633   3.811
 2692SOL    HW1 8975   0.336   6.619   3.807
 2692SOL    HW2 8976   0.216   6.731   3.807
 2693SOL     OW 8977   1.775   3.886   3.595
 2693SOL    HW1 8978   1.830   3.816   3.641
 2693SOL    HW2 8979   1.697   3.842   3.551
 2694SOL     OW 8980   1.769   6.890   3.797
 2694SOL    HW1 8981   1.820   6.818   3.751
 2694SOL    HW2 8982   1.827   6.971   3.808
 2695SOL     OW 8983   4.357   2.371   2.816
 2695SOL    HW1 8984   4.335   2.299   2.882
 2695SOL    HW2 8985   4.456   2.388   2.817
 2696SOL     OW 8986   4.007   3.842   5.287
 2696SOL    HW1 8987   3.933   3.798   5.339
 2696SOL    HW2 8988   3.985   3.938   5.273
 2697SOL     OW 8989   2.811   1.770   4.209
 2697SOL    HW1 8990   2.856   1.843   4.157
 2697SOL    HW2 8991   2.872   1.690   4.214
 2698SOL     OW 8992   1.661   3.951   0.311
 2698SOL    HW1 8993   1.756   3.980   0.300
 2698SOL    HW2 8994   1.656   3.877   0.378
 2699SOL     OW 8995   3.508   6.619   1.568
 2699SOL    HW1 8996   3.461   6.661   1.646
 2699SOL    HW2 8997   3.607   6.622   1.584
 2700SOL     OW 8998   2.018   3.513   2.718
 2700SOL    HW1 8999   2.052   3.420   2.730
 2700SOL    HW2 9000   1.925   3.510   2.681
 2701SOL     OW 9001   3.794   6.912   6.684
 2701SOL    HW1 9002   3.855   6.977   6.640
 2701SOL    HW2 9003   3.753   6.954   6.766
 2702SOL     OW 9004   6.738   0.734   3.750
 2702SOL    HW1 9005   6.656   0.783   3.722
 2702SOL    HW2 9006   6.714   0.642   3.779
 2703SOL     OW 9007   1.728   1.965   2.699
 2703SOL    HW1 9008   1.815   1.936   2.660
 2703SOL    HW2 9009   1.653   1.915   2.655
 2704SOL     OW 9010   2.417   5.197   1.677
 2704SOL    HW1 9011   2.494   5.243   1.721
 2704SOL    HW2 9012   2.370   5.139   1.744
 2705SOL     OW 9013   6.388   5.262   3.262
 2705SOL    HW1 9014   6.364   5.165   3.264
 2705SOL    HW2 9015   6.433   5.287   3.348
 2706SOL     OW 9016   6.532   1.625   1.752
 2706SOL    HW1 9017   6.604   1.606   1.686
 2706SOL    HW2 9018   6.514   1.543   1.807
 2707SOL     OW 9019   1.964   1.197   6.136
 2707SOL    HW1 9020   1.875   1.217   6.096
 2707SOL    HW2 9021   2.007   1.282   6.166
 2708SOL     OW 9022   1.430   2.717   1.396
 2708SOL    HW1 9023   1.478   2.633   1.370
 2708SOL    HW2 9024   1.381   2.753   1.317
 2709SOL     OW 9025   4.637   5.902   0.618
 2709SOL    HW1 9026   4.575   5.855   0.681
 2709SOL    HW2 9027   4.584   5.943   0.543
 2710SOL     OW 9028   0.211   4.137   3.196
 2710SOL    HW1 9029   0.155   4.093   3.126
 2710SOL    HW2 9030   0.276   4.199   3.153
 2711SOL     OW 9031   1.351   0.661   2.168
 2711SOL    HW1 9032   1.325   0.579   2.217
 2711SOL    HW2 9033   1.421   0.639   2.099
 2712SOL     OW 9034   3.073   4.515   0.361
 2712SOL    HW1 9035   3.145   4.574   0.324
 2712SOL    HW2 9036   3.028   4.466   0.286
 2713SOL     OW 9037   2.214   3.352   5.573
 2713SOL    HW1 9038   2.175   3.294   5.644
 2713SOL    HW2 9039   2.199   3.448   5.596
 2714SOL     OW 9040   4.819   0.219   5.884
 2714SOL    HW1 9041   4.864   0.269   5.958
 2714SOL    HW2 9042   4.888   0.187   5.818
 2715SOL     OW 9043   5.605   1.147   6.797
 2715SOL    HW1 9044   5.644   1.096   6.873
 2715SOL    HW2 9045   5.531   1.094   6.756
 2716SOL     OW 9046   0.281   6.358   2.508
 2716SOL    HW1 9047   0.307   6.273   2.553
 2716SOL    HW2 9048   0.328   6.365   2.420
 2717SOL     OW 9049   1.167   0.161   3.051
 2717SOL    HW1 9050   1.161   0.235   2.984
 2717SOL    HW2 9051   1.075   0.137   3.082
 2718SOL     OW 9052   2.507   4.584   3.560
 2718SOL    HW1 9053   2.582   4.649   3.569
 2718SOL    HW2 9054   2.491   4.564   3.463
 2719SOL     OW 9055   4.185   5.152   1.855
 2719SOL    HW1 9056   4.124   5.073   1.847
 2719SOL    HW2 9057   4.257   5.131   1.921
 2720SOL     OW 9058   1.920   6.696   3.690
 2720SOL    HW1 9059   1.946   6.602   3.667
 2720SOL    HW2 9060   1.961   6.721   3.778
 2721SOL     OW 9061   3.695   0.160   4.246
 2721SOL    HW1 9062   3.777   0.216   4.252
 2721SOL    HW2 9063   3.615   0.219   4.239
 2722SOL     OW 9064   1.332   6.342   2.649
 2722SOL    HW1 9065   1.233   6.334   2.655
 2722SOL    HW2 9066   1.360   6.433   2.678
 2723SOL     OW 9067   1.601   1.453   5.508
 2723SOL    HW1 9068   1.621   1.381   5.574
 2723SOL    HW2 9069   1.556   1.529   5.555
 2724SOL     OW 9070   3.968   6.048   6.183
 2724SOL    HW1 9071   4.066   6.032   6.194
 2724SOL    HW2 9072   3.919   5.961   6.187
 2725SOL     OW 9073   3.947   5.234   3.878
 2725SOL    HW1 9074   4.018   5.165   3.886
 2725SOL    HW2 9075   3.949   5.274   3.786
 2726SOL     OW 9076   4.853   5.493   2.132
 2726SOL    HW1 9077   4.813   5.446   2.211
 2726SOL    HW2 9078   4.882   5.585   2.160
 2727SOL     OW 9079   1.409   5.566   2.710
 2727SOL    HW1 9080   1.461   5.522   2.637
 2727SOL    HW2 9081   1.433   5.526   2.798
 2728SOL     OW 9082   3.066   6.746   5.260
 2728SOL    HW1 9083   3.089   6.749   5.357
 2728SOL    HW2 9084   3.017   6.830   5.235
 2729SOL     OW 9085   5.791   5.197   2.348
 2729SOL    HW1 9086   5.882   5.167   2.318
 2729SOL    HW2 9087   5.798   5.236   2.440
 2730SOL     OW 9088   1.874   6.528   1.152
 2730SOL    HW1 9089   1.920   6.541   1.064
 2730SOL    HW2 9090   1.839   6.616   1.185
 2731SOL     OW 9091   2.974   3.796   1.873
 2731SOL    HW1 9092   2.962   3.789   1.972
 2731SOL    HW2 9093   3.058   3.749   1.846
 2732SOL     OW 9094   5.709   1.527   2.285
 2732SOL    HW1 9095   5.767   1.449   2.260
 2732SOL    HW2 9096   5.638   1.497   2.348
 2733SOL     OW 9097   1.428   6.993   5.991
 2733SOL    HW1 9098   1.507   6.947   6.032
 2733SOL    HW2 9099   1.344   6.955   6.030
 2734SOL     OW 9100   1.947   5.877   4.052
 2734SOL    HW1 9101   1.996   5.822   3.984
 2734SOL    HW2 9102   1.959   5.837   4.143
 2735SOL     OW 9103   1.586   5.147   2.653
 2735SOL    HW1 9104   1.626   5.156   2.745
 2735SOL    HW2 9105   1.657   5.161   2.584
 2736SOL     OW 9106   4.732   0.198   5.195
 2736SOL    HW1 9107   4.755   0.131   5.266
 2736SOL    HW2 9108   4.634   0.215   5.196
 2737SOL     OW 9109   4.635   3.541   6.400
 2737SOL    HW1 9110   4.595   3.450   6.412
 2737SOL    HW2 9111   4.623   3.594   6.484
 2738SOL     OW 9112   5.548   5.095   4.885
 2738SOL    HW1 9113   5.596   5.111   4.799
 2738SOL    HW2 9114   5.578   5.008   4.925
 2739SOL     OW 9115   5.650   3.495   1.111
 2739SOL    HW1 9116   5.695   3.478   1.024
 2739SOL    HW2 9117   5.552   3.479   1.103
 2740SOL     OW 9118   6.086   2.247   2.966
 2740SOL    HW1 9119   6.078   2.280   3.060
 2740SOL    HW2 9120   5.996   2.239   2.925
 2741SOL     OW 9121   0.636   2.466   6.003
 2741SOL    HW1 9122   0.664   2.426   5.916
 2741SOL    HW2 9123   0.640   2.566   5.997
 2742SOL     OW 9124   2.200   0.132   6.596
 2742SOL    HW1 9125   2.295   0.102   6.584
 2742SOL    HW2 9126   2.190   0.175   6.686
 2743SOL     OW 9127   5.485   5.044   1.094
 2743SOL    HW1 9128   5.393   5.033   1.057
 2743SOL    HW2 9129   5.491   4.995   1.181
 2744SOL     OW 9130   4.453   1.400   5.847
 2744SOL    HW1 9131   4.515   1.419   5.770
 2744SOL    HW2 9132   4.373   1.351   5.813
 2745SOL     OW 9133   3.016   6.561   0.855
 2745SOL    HW1 9134   3.090   6.499   0.829
 2745SOL    HW2 9135   2.935   6.508   0.881
 2746SOL     OW 9136   1.867   2.395   6.579
 2746SOL    HW1 9137   1.907   2.376   6.669
 2746SOL    HW2 9138   1.777   2.352   6.573
 2747SOL     OW 9139   4.781   6.399   4.449
 2747SOL    HW1 9140   4.805   6.368   4.357
 2747SOL    HW2 9141   4.828   6.342   4.516
 2748SOL     OW 9142   4.028   1.164   2.946
 2748SOL    HW1 9143   4.121   1.129   2.955
 2748SOL    HW2 9144   4.028   1.263   2.957
 2749SOL     OW 9145   4.731   5.521   3.685
 2749SOL    HW1 9146   4.708   5.478   3.772
 2749SOL    HW2 9147   4.828   5.504   3.665
 2750SOL     OW 9148   0.381   6.074   2.599
 2750SOL    HW1 9149   0.446   6.030   2.660
 2750SOL    HW2 9150   0.298   6.020   2.593
 2751SOL     OW 9151   1.574   0.105   6.438
 2751SOL    HW1 9152   1.519   0.037   6.389
 2751SOL    HW2 9153   1.621   0.163   6.372
 2752SOL     OW 9154   6.263   5.970   5.980
 2752SOL    HW1 9155   6.334   5.946   5.914
 2752SOL    HW2 9156   6.174   5.972   5.934
 2753SOL     OW 9157   3.082   5.639   6.199
 2753SOL    HW1 9158   3.078   5.593   6.110
 2753SOL    HW2 9159   3.177   5.661   6.221
 2754SOL     OW 9160   1.033   0.744   4.732
 2754SOL    HW1 9161   0.964   0.799   4.686
 2754SOL    HW2 9162   0.998   0.717   4.822
 2755SOL     OW 9163   3.285   6.218   2.062
 2755SOL    HW1 9164   3.262   6.306   2.020
 2755SOL    HW2 9165   3.319   6.155   1.992
 2756SOL     OW 9166   0.434   2.873   5.921
 2756SOL    HW1 9167   0.480   2.961   5.908
 2756SOL    HW2 9168   0.361   2.882   5.988
 2757SOL     OW 9169   4.393   3.177   6.818
 2757SOL    HW1 9170   4.475   3.216   6.778
 2757SOL    HW2 9171   4.321   3.172   6.749
 2758SOL     OW 9172   6.565   6.216   2.321
 2758SOL    HW1 9173   6.624   6.146   2.362
 2758SOL    HW2 9174   6.605   6.246   2.234
 2759SOL     OW 9175   3.021   3.654   5.977
 2759SOL    HW1 9176   2.945   3.718   5.970
 2759SOL    HW2 9177   2.989   3.561   5.961
 2760SOL     OW 9178   5.354   6.433   3.415
 2760SOL    HW1 9179   5.337   6.504   3.346
 2760SOL    HW2 9180   5.312   6.347   3.386
 2761SOL     OW 9181   1.646   3.124   3.205
 2761SOL    HW1 9182   1.620   3.221   3.205
 2761SOL    HW2 9183   1.666   3.095   3.299
 2762SOL     OW 9184   2.785   2.620   0.589
 2762SOL    HW1 9185   2.781   2.561   0.669
 2762SOL    HW2 9186   2.876   2.615   0.548
 2763SOL     OW 9187   5.384   2.120   4.703
 2763SOL    HW1 9188   5.304   2.139   4.646
 2763SOL    HW2 9189   5.394   2.191   4.772
 2764SOL     OW 9190   0.988   3.430   2.208
 2764SOL    HW1 9191   0.933   3.359   2.163
 2764SOL    HW2 9192   0.953   3.520   2.184
 2765SOL     OW 9193   6.754   6.707   6.549
 2765SOL    HW1 9194   6.771   6.798   6.513
 2765SOL    HW2 9195   6.672   6.708   6.606
 2766SOL     OW 9196   4.935   1.339   6.471
 2766SOL    HW1 9197   4.845   1.360   6.432
 2766SOL    HW2 9198   4.925   1.273   6.545
 2767SOL     OW 9199   6.800   5.052   6.272
 2767SOL    HW1 9200   6.851   5.012   6.196
 2767SOL    HW2 9201   6.705   5.065   6.244
 2768SOL     OW 9202   4.536   0.013   0.864
 2768SOL    HW1 9203   4.449   0.061   0.858
 2768SOL    HW2 9204   4.607   0.076   0.895
 2769SOL     OW 9205   1.237   4.323   5.805
 2769SOL    HW1 9206   1.248   4.248   5.739
 2769SOL    HW2 9207   1.315   4.384   5.798
 2770SOL     OW 9208   2.993   6.802   0.691
 2770SOL    HW1 9209   3.085   6.766   0.675
 2770SOL    HW2 9210   2.942   6.740   0.749
 2771SOL     OW 9211   4.849   6.738   4.348
 2771SOL    HW1 9212   4.787   6.720   4.272
 2771SOL    HW2 9213   4.862   6.655   4.402
 2772SOL     OW 9214   4.364   6.959   3.146
 2772SOL    HW1 9215   4.446   7.002   3.184
 2772SOL    HW2 9216   4.318   0.003   3.085
 2773SOL     OW 9217   5.724   2.627   4.753
 2773SOL    HW1 9218   5.808   2.617   4.806
 2773SOL    HW2 9219   5.741   2.598   4.658
 2774SOL     OW 9220   5.345   1.766   4.060
 2774SOL    HW1 9221   5.334   1.865   4.066
 2774SOL    HW2 9222   5.433   1.745   4.016
 2775SOL     OW 9223   0.684   3.580   4.161
 2775SOL    HW1 9224   0.690   3.545   4.254
 2775SOL    HW2 9225   0.733   3.518   4.099
 2776SOL     OW 9226   4.949   4.436   6.046
 2776SOL    HW1 9227   4.863   4.385   6.046
 2776SOL    HW2 9228   4.983   4.445   6.139
 2777SOL     OW 9229   3.269   1.877   5.891
 2777SOL    HW1 9230   3.279   1.869   5.792
 2777SOL    HW2 9231   3.245   1.788   5.930
 2778SOL     OW 9232   2.931   6.674   5.905
 2778SOL    HW1 9233   2.978   6.755   5.871
 2778SOL    HW2 9234   2.910   6.613   5.829
 2779SOL     OW 9235   5.624   0.540   1.319
 2779SOL    HW1 9236   5.532   0.509   1.298
 2779SOL    HW2 9237   5.636   0.634   1.287
 2780SOL     OW 9238   6.672   1.602   4.826
 2780SOL    HW1 9239   6.659   1.594   4.924
 2780SOL    HW2 9240   6.770   1.593   4.804
 2781SOL     OW 9241   5.806   1.332   3.113
 2781SOL    HW1 9242   5.858   1.250   3.089
 2781SOL    HW2 9243   5.709   1.309   3.121
 2782SOL     OW 9244   4.556   0.494   6.357
 2782SOL    HW1 9245   4.635   0.527   6.304
 2782SOL    HW2 9246   4.473   0.538   6.324
 2783SOL     OW 9247   5.769   4.329   1.623
 2783SOL    HW1 9248   5.740   4.235   1.606
 2783SOL    HW2 9249   5.784   4.342   1.721
 2784SOL     OW 9250   1.313   1.778   1.026
 2784SOL    HW1 9251   1.331   1.869   0.988
 2784SOL    HW2 9252   1.232   1.739   0.984
 2785SOL     OW 9253   6.020   2.715   1.701
 2785SOL    HW1 9254   6.032   2.804   1.745
 2785SOL    HW2 9255   6.101   2.659   1.717
 2786SOL     OW 9256   6.993   6.254   0.149
 2786SOL    HW1 9257   6.900   6.226   0.124
 2786SOL    HW2 9258   6.989   6.317   0.227
 2787SOL     OW 9259   6.402   5.003   6.457
 2787SOL    HW1 9260   6.456   5.075   6.414
 2787SOL    HW2 9261   6.354   5.040   6.536
 2788SOL     OW 9262   2.970   5.997   5.805
 2788SOL    HW1 9263   2.978   5.987   5.904
 2788SOL    HW2 9264   2.918   5.920   5.768
 2789SOL     OW 9265   1.068   2.334   5.335
 2789SOL    HW1 9266   1.040   2.242   5.364
 2789SOL    HW2 9267   1.092   2.388   5.416
 2790SOL     OW 9268   1.793   5.581   1.943
 2790SOL    HW1 9269   1.871   5.640   1.962
 2790SOL    HW2 9270   1.819   5.512   1.875
 2791SOL     OW 9271   0.230   3.739   3.063
 2791SOL    HW1 9272   0.189   3.824   3.029
 2791SOL    HW2 9273   0.158   3.680   3.100
 2792SOL     OW 9274   3.195   1.464   5.497
 2792SOL    HW1 9275   3.231   1.446   5.588
 2792SOL    HW2 9276   3.098   1.437   5.493
 2793SOL     OW 9277   3.674   4.183   0.934
 2793SOL    HW1 9278   3.627   4.118   0.874
 2793SOL    HW2 9279   3.609   4.221   1.000
 2794SOL     OW 9280   0.893   2.323   0.108
 2794SOL    HW1 9281   0.819   2.347   0.046
 2794SOL    HW2 9282   0.857   2.271   0.185
 2795SOL     OW 9283   1.054   4.911   1.739
 2795SOL    HW1 9284   1.108   4.897   1.656
 2795SOL    HW2 9285   1.091   4.856   1.813
 2796SOL     OW 9286   2.003   6.466   6.450
 2796SOL    HW1 9287   2.085   6.497   6.401
 2796SOL    HW2 9288   1.939   6.425   6.384
 2797SOL     OW 9289   5.320   6.791   3.483
 2797SOL    HW1 9290   5.354   6.706   3.442
 2797SOL    HW2 9291   5.226   6.778   3.515
 2798SOL     OW 9292   5.137   0.405   1.865
 2798SOL    HW1 9293   5.084   0.477   1.821
 2798SOL    HW2 9294   5.222   0.444   1.901
 2799SOL     OW 9295   3.339   6.189   4.978
 2799SOL    HW1 9296   3.383   6.106   4.942
 2799SOL    HW2 9297   3.357   6.266   4.916
 2800SOL     OW 9298   5.743   6.867   6.795
 2800SOL    HW1 9299   5.759   6.916   6.880
 2800SOL    HW2 9300   5.792   6.780   6.797
 2801SOL     OW 9301   0.544   4.662   4.819
 2801SOL    HW1 9302   0.541   4.742   4.879
 2801SOL    HW2 9303   0.610   4.679   4.745
 2802SOL     OW 9304   1.008   5.284   5.722
 2802SOL    HW1 9305   1.099   5.320   5.744
 2802SOL    HW2 9306   0.969   5.336   5.646
 2803SOL     OW 9307   3.749   2.314   6.232
 2803SOL    HW1 9308   3.730   2.405   6.268
 2803SOL    HW2 9309   3.773   2.320   6.135
 2804SOL     OW 9310   0.299   2.695   3.938
 2804SOL    HW1 9311   0.344   2.610   3.913
 2804SOL    HW2 9312   0.276   2.746   3.855
 2805SOL     OW 9313   4.309   3.483   1.116
 2805SOL    HW1 9314   4.284   3.552   1.184
 2805SOL    HW2 9315   4.338   3.399   1.163
 2806SOL     OW 9316   0.633   4.181   6.002
 2806SOL    HW1 9317   0.648   4.251   5.932
 2806SOL    HW2 9318   0.721   4.139   6.026
 2807SOL     OW 9319   4.016   0.026   3.696
 2807SOL    HW1 9320   3.922   0.031   3.730
 2807SOL    HW2 9321   4.015   7.014   3.602
 2808SOL     OW 9322   6.934   5.412   6.198
 2808SOL    HW1 9323   6.994   5.389   6.120
 2808SOL    HW2 9324   6.976   5.487   6.249
 2809SOL     OW 9325   6.848   5.199   1.853
 2809SOL    HW1 9326   6.853   5.287   1.806
 2809SOL    HW2 9327   6.757   5.160   1.840
 2810SOL     OW 9328   2.892   6.232   3.163
 2810SOL    HW1 9329   2.849   6.291   3.232
 2810SOL    HW2 9330   2.821   6.183   3.113
 2811SOL     OW 9331   0.672   0.855   1.449
 2811SOL    HW1 9332   0.646   0.922   1.379
 2811SOL    HW2 9333   0.743   0.894   1.507
 2812SOL     OW 9334   0.519   2.088   0.978
 2812SOL    HW1 9335   0.444   2.088   0.912
 2812SOL    HW2 9336   0.493   2.138   1.060
 2813SOL     OW 9337   0.831   2.000   1.814
 2813SOL    HW1 9338   0.900   2.048   1.868
 2813SOL    HW2 9339   0.740   2.031   1.841
 2814SOL     OW 9340   2.256   4.736   0.219
 2814SOL    HW1 9341   2.174   4.709   0.168
 2814SOL    HW2 9342   2.267   4.677   0.299
 2815SOL     OW 9343   0.419   5.246   5.796
 2815SOL    HW1 9344   0.350   5.300   5.746
 2815SOL    HW2 9345   0.510   5.272   5.764
 2816SOL     OW 9346   0.830   6.279   6.108
 2816SOL    HW1 9347   0.923   6.251   6.084
 2816SOL    HW2 9348   0.777   6.197   6.131
 2817SOL     OW 9349   4.337   0.588   1.981
 2817SOL    HW1 9350   4.376   0.501   1.950
 2817SOL    HW2 9351   4.374   0.610   2.072
 2818SOL     OW 9352   1.470   0.683   0.427
 2818SOL    HW1 9353   1.394   0.719   0.481
 2818SOL    HW2 9354   1.445   0.684   0.330
 2819SOL     OW 9355   0.625   0.626   0.582
 2819SOL    HW1 9356   0.723   0.645   0.588
 2819SOL    HW2 9357   0.610   0.547   0.522
 2820SOL     OW 9358   1.729   2.524   0.834
 2820SOL    HW1 9359   1.725   2.554   0.929
 2820SOL    HW2 9360   1.788   2.586   0.782
 2821SOL     OW 9361   2.597   3.467   6.314
 2821SOL    HW1 9362   2.664   3.541   6.305
 2821SOL    HW2 9363   2.608   3.404   6.237
 2822SOL     OW 9364   4.385   2.572   0.660
 2822SOL    HW1 9365   4.358   2.479   0.686
 2822SOL    HW2 9366   4.350   2.594   0.569
 2823SOL     OW 9367   5.430   2.389   1.645
 2823SOL    HW1 9368   5.517   2.384   1.694
 2823SOL    HW2 9369   5.412   2.483   1.617
 2824SOL     OW 9370   1.146   3.180   4.498
 2824SOL    HW1 9371   1.060   3.155   4.543
 2824SOL    HW2 9372   1.200   3.097   4.481
 2825SOL     OW 9373   5.069   1.725   5.489
 2825SOL    HW1 9374   5.087   1.634   5.525
 2825SOL    HW2 9375   5.091   1.793   5.559
 2826SOL     OW 9376   2.491   2.932   0.112
 2826SOL    HW1 9377   2.392   2.936   0.098
 2826SOL    HW2 9378   2.520   2.836   0.112
 2827SOL     OW 9379   5.908   1.039   6.403
 2827SOL    HW1 9380   5.809   1.050   6.407
 2827SOL    HW2 9381   5.952   1.128   6.413
 2828SOL     OW 9382   1.411   3.602   0.319
 2828SOL    HW1 9383   1.477   3.552   0.264
 2828SOL    HW2 9384   1.393   3.691   0.278
 2829SOL     OW 9385   3.109   3.870   2.794
 2829SOL    HW1 9386   3.082   3.920   2.876
 2829SOL    HW2 9387   3.118   3.934   2.718
 2830SOL     OW 9388   3.323   5.056   5.612
 2830SOL    HW1 9389   3.374   5.017   5.535
 2830SOL    HW2 9390   3.380   5.125   5.657
 2831SOL     OW 9391   5.704   1.942   1.120
 2831SOL    HW1 9392   5.775   1.993   1.169
 2831SOL    HW2 9393   5.693   1.979   1.028
 2832SOL     OW 9394   0.832   4.157   1.899
 2832SOL    HW1 9395   0.782   4.163   1.812
 2832SOL    HW2 9396   0.833   4.063   1.931
 2833SOL     OW 9397   2.337   2.214   2.248
 2833SOL    HW1 9398   2.359   2.275   2.172
 2833SOL    HW2 9399   2.268   2.257   2.306
 2834SOL     OW 9400   3.370   5.624   5.132
 2834SOL    HW1 9401   3.401   5.680   5.209
 2834SOL    HW2 9402   3.277   5.649   5.107
 2835SOL     OW 9403   6.803   0.539   0.732
 2835SOL    HW1 9404   6.861   0.619   0.720
 2835SOL    HW2 9405   6.727   0.543   0.666
 2836SOL     OW 9406   3.789   5.589   2.283
 2836SOL    HW1 9407   3.798   5.541   2.196
 2836SOL    HW2 9408   3.870   5.646   2.298
 2837SOL     OW 9409   5.347   4.455   1.778
 2837SOL    HW1 9410   5.275   4.498   1.832
 2837SOL    HW2 9411   5.313   4.370   1.738
 2838SOL     OW 9412   5.815   4.313   6.483
 2838SOL    HW1 9413   5.767   4.386   6.531
 2838SOL    HW2 9414   5.850   4.349   6.396
 2839SOL     OW 9415   5.943   3.025   4.980
 2839SOL    HW1 9416   5.861   3.004   4.926
 2839SOL    HW2 9417   5.918   3.084   5.057
 2840SOL     OW 9418   6.946   6.154   3.853
 2840SOL    HW1 9419   6.971   6.063   3.887
 2840SOL    HW2 9420   0.005   6.196   3.810
 2841SOL     OW 9421   6.365   3.710   2.517
 2841SOL    HW1 9422   6.433   3.648   2.477
 2841SOL    HW2 9423   6.354   3.790   2.458
 2842SOL     OW 9424   1.322   6.805   3.989
 2842SOL    HW1 9425   1.409   6.824   4.037
 2842SOL    HW2 9426   1.307   6.875   3.920
 2843SOL     OW 9427   1.966   2.688   3.669
 2843SOL    HW1 9428   1.942   2.783   3.685
 2843SOL    HW2 9429   2.023   2.681   3.587
 2844SOL     OW 9430   4.687   4.493   0.490
 2844SOL    HW1 9431   4.657   4.448   0.574
 2844SOL    HW2 9432   4.633   4.576   0.475
 2845SOL     OW 9433   3.144   2.147   3.039
 2845SOL    HW1 9434   3.076   2.079   3.015
 2845SOL    HW2 9435   3.208   2.159   2.963
 2846SOL     OW 9436   6.245   0.304   0.469
 2846SOL    HW1 9437   6.285   0.349   0.390
 2846SOL    HW2 9438   6.176   0.238   0.438
 2847SOL     OW 9439   4.429   4.551   1.554
 2847SOL    HW1 9440   4.467   4.511   1.638
 2847SOL    HW2 9441   4.402   4.477   1.492
 2848SOL     OW 9442   0.375   4.334   5.549
 2848SOL    HW1 9443   0.369   4.275   5.631
 2848SOL    HW2 9444   0.445   4.298   5.488
 2849SOL     OW 9445   4.961   0.188   1.842
 2849SOL    HW1 9446   4.963   0.175   1.743
 2849SOL    HW2 9447   5.031   0.254   1.868
 2850SOL     OW 9448   2.091   0.290   2.071
 2850SOL    HW1 9449   2.122   0.195   2.064
 2850SOL    HW2 9450   1.991   0.292   2.071
 2851SOL     OW 9451   3.666   3.108   0.989
 2851SOL    HW1 9452   3.649   3.071   1.080
 2851SOL    HW2 9453   3.756   3.152   0.988
 2852SOL     OW 9454   6.293   4.945   0.059
 2852SOL    HW1 9455   6.301   4.847   0.079
 2852SOL    HW2 9456   6.196   4.968   0.045
 2853SOL     OW 9457   0.006   4.171   5.764
 2853SOL    HW1 9458   0.082   4.107   5.756
 2853SOL    HW2 9459   7.005   4.187   5.860
 2854SOL     OW 9460   3.898   1.230   5.314
 2854SOL    HW1 9461   3.847   1.238   5.400
 2854SOL    HW2 9462   3.976   1.168   5.327
 2855SOL     OW 9463   2.275   1.875   5.728
 2855SOL    HW1 9464   2.272   1.872   5.628
 2855SOL    HW2 9465   2.185   1.853   5.765
 2856SOL     OW 9466   1.061   5.330   3.988
 2856SOL    HW1 9467   1.063   5.412   4.044
 2856SOL    HW2 9468   1.151   5.287   3.989
 2857SOL     OW 9469   0.275   3.753   0.429
 2857SOL    HW1 9470   0.328   3.671   0.406
 2857SOL    HW2 9471   0.280   3.768   0.528
 2858SOL     OW 9472   4.550   4.830   2.536
 2858SOL    HW1 9473   4.497   4.746   2.549
 2858SOL    HW2 9474   4.492   4.900   2.494
 2859SOL     OW 9475   5.003   4.687   0.875
 2859SOL    HW1 9476   5.040   4.682   0.969
 2859SOL    HW2 9477   5.040   4.768   0.829
 2860SOL     OW 9478   0.576   0.264   2.413
 2860SOL    HW1 9479   0.573   0.354   2.457
 2860SOL    HW2 9480   0.581   0.193   2.483
 2861SOL     OW 9481   4.661   5.608   6.255
 2861SOL    HW1 9482   4.721   5.686   6.239
 2861SOL    HW2 9483   4.682   5.535   6.190
 2862SOL     OW 9484   4.113   3.019   0.092
 2862SOL    HW1 9485   4.150   3.000   0.183
 2862SOL    HW2 9486   4.110   3.118   0.077
 2863SOL     OW 9487   5.745   0.044   5.419
 2863SOL    HW1 9488   5.697   0.062   5.333
 2863SOL    HW2 9489   5.757   6.965   5.430
 2864SOL     OW 9490   3.468   4.497   6.965
 2864SOL    HW1 9491   3.421   4.457   6.887
 2864SOL    HW2 9492   3.566   4.488   6.954
 2865SOL     OW 9493   5.632   5.657   4.266
 2865SOL    HW1 9494   5.604   5.644   4.171
 2865SOL    HW2 9495   5.728   5.684   4.269
 2866SOL     OW 9496   4.319   4.310   0.565
 2866SOL    HW1 9497   4.394   4.248   0.586
 2866SOL    HW2 9498   4.235   4.276   0.605
 2867SOL     OW 9499   5.361   6.444   1.797
 2867SOL    HW1 9500   5.307   6.484   1.723
 2867SOL    HW2 9501   5.455   6.430   1.767
 2868SOL     OW 9502   1.097   0.706   5.781
 2868SOL    HW1 9503   1.159   0.645   5.829
 2868SOL    HW2 9504   1.020   0.730   5.841
 2869SOL     OW 9505   6.146   5.330   5.132
 2869SOL    HW1 9506   6.121   5.426   5.141
 2869SOL    HW2 9507   6.131   5.284   5.219
 2870SOL     OW 9508   6.839   2.373   1.692
 2870SOL    HW1 9509   6.893   2.455   1.712
 2870SOL    HW2 9510   6.891   2.311   1.635
 2871SOL     OW 9511   5.491   1.324   2.132
 2871SOL    HW1 9512   5.509   1.394   2.201
 2871SOL    HW2 9513   5.408   1.274   2.156
 2872SOL     OW 9514   2.719   2.271   2.237
 2872SOL    HW1 9515   2.772   2.276   2.153
 2872SOL    HW2 9516   2.671   2.358   2.252
 2873SOL     OW 9517   0.955   6.820   1.569
 2873SOL    HW1 9518   1.013   6.742   1.592
 2873SOL    HW2 9519   0.889   6.792   1.499
 2874SOL     OW 9520   2.865   0.498   2.460
 2874SOL    HW1 9521   2.834   0.544   2.377
 2874SOL    HW2 9522   2.788   0.450   2.503
 2875SOL     OW 9523   2.634   6.696   3.076
 2875SOL    HW1 9524   2.603   6.739   2.991
 2875SOL    HW2 9525   2.578   6.615   3.094
 2876SOL     OW 9526   1.482   0.202   2.537
 2876SOL    HW1 9527   1.411   0.249   2.589
 2876SOL    HW2 9528   1.545   0.156   2.599
 2877SOL     OW 9529   1.411   2.078   6.807
 2877SOL    HW1 9530   1.365   2.143   6.869
 2877SOL    HW2 9531   1.366   2.081   6.718
 2878SOL     OW 9532   4.107   3.472   3.893
 2878SOL    HW1 9533   4.118   3.491   3.990
 2878SOL    HW2 9534   4.103   3.373   3.879
 2879SOL     OW 9535   3.997   4.078   7.015
 2879SOL    HW1 9536   4.092   4.047   7.017
 2879SOL    HW2 9537   3.944   4.021   6.952
 2880SOL     OW 9538   2.128   1.181   3.970
 2880SOL    HW1 9539   2.046   1.146   3.923
 2880SOL    HW2 9540   2.132   1.142   4.062
 2881SOL     OW 9541   4.635   5.969   6.714
 2881SOL    HW1 9542   4.668   6.019   6.634
 2881SOL    HW2 9543   4.624   5.872   6.689
 2882SOL     OW 9544   4.616   6.316   0.517
 2882SOL    HW1 9545   4.549   6.275   0.456
 2882SOL    HW2 9546   4.578   6.399   0.558
 2883SOL     OW 9547   6.186   6.090   4.019
 2883SOL    HW1 9548   6.183   6.104   3.920
 2883SOL    HW2 9549   6.235   6.005   4.040
 2884SOL     OW 9550   6.898   4.854   3.647
 2884SOL    HW1 9551   6.848   4.887   3.727
 2884SOL    HW2 9552   6.894   4.754   3.644
 2885SOL     OW 9553   1.307   2.830   3.351
 2885SOL    HW1 9554   1.218   2.835   3.307
 2885SOL    HW2 9555   1.307   2.758   3.421
 2886SOL     OW 9556   1.943   4.420   5.872
 2886SOL    HW1 9557   1.932   4.321   5.871
 2886SOL    HW2 9558   2.033   4.443   5.909
 2887SOL     OW 9559   0.257   5.576   3.288
 2887SOL    HW1 9560   0.178   5.551   3.231
 2887SOL    HW2 9561   0.339   5.529   3.253
 2888SOL     OW 9562   6.416   6.733   0.176
 2888SOL    HW1 9563   6.446   6.816   0.128
 2888SOL    HW2 9564   6.497   6.681   0.204
 2889SOL     OW 9565   3.248   6.571   2.310
 2889SOL    HW1 9566   3.277   6.614   2.225
 2889SOL    HW2 9567   3.177   6.626   2.353
 2890SOL     OW 9568   1.899   1.305   1.389
 2890SOL    HW1 9569   1.890   1.379   1.456
 2890SOL    HW2 9570   1.992   1.306   1.352
 2891SOL     OW 9571   0.760   2.108   4.667
 2891SOL    HW1 9572   0.857   2.124   4.685
 2891SOL    HW2 9573   0.723   2.044   4.735
 2892SOL     OW 9574   6.290   4.189   2.843
 2892SOL    HW1 9575   6.367   4.137   2.880
 2892SOL    HW2 9576   6.304   4.287   2.861
 2893SOL     OW 9577   6.770   5.095   4.897
 2893SOL    HW1 9578   6.674   5.080   4.921
 2893SOL    HW2 9579   6.807   5.014   4.852
 2894SOL     OW 9580   1.891   6.058   2.542
 2894SOL    HW1 9581   1.794   6.075   2.528
 2894SOL    HW2 9582   1.940   6.144   2.554
 2895SOL     OW 9583   4.096   6.892   6.412
 2895SOL    HW1 9584   4.116   6.871   6.508
 2895SOL    HW2 9585   4.163   6.847   6.353
 2896SOL     OW 9586   5.215   6.112   4.889
 2896SOL    HW1 9587   5.310   6.084   4.882
 2896SOL    HW2 9588   5.179   6.088   4.980
 2897SOL     OW 9589   3.927   5.123   3.436
 2897SOL    HW1 9590   3.910   5.041   3.491
 2897SOL    HW2 9591   3.871   5.119   3.353
 2898SOL     OW 9592   5.555   2.961   2.903
 2898SOL    HW1 9593   5.477   2.923   2.853
 2898SOL    HW2 9594   5.571   2.907   2.986
 2899SOL     OW 9595   0.074   3.745   1.070
 2899SOL    HW1 9596   0.052   3.780   0.979
 2899SOL    HW2 9597   0.121   3.816   1.122
 2900SOL     OW 9598   2.658   2.847   6.208
 2900SOL    HW1 9599   2.663   2.921   6.140
 2900SOL    HW2 9600   2.725   2.864   6.280
 2901SOL     OW 9601   0.841   4.142   3.718
 2901SOL    HW1 9602   0.839   4.148   3.817
 2901SOL    HW2 9603   0.899   4.065   3.690
 2902SOL     OW 9604   6.713   6.062   3.730
 2902SOL    HW1 9605   6.806   6.098   3.733
 2902SOL    HW2 9606   6.715   5.962   3.730
 2903SOL     OW 9607   4.238   5.112   0.414
 2903SOL    HW1 9608   4.196   5.202   0.415
 2903SOL    HW2 9609   4.328   5.118   0.371
 2904SOL     OW 9610   2.366   4.193   5.318
 2904SOL    HW1 9611   2.422   4.276   5.306
 2904SOL    HW2 9612   2.395   4.124   5.253
 2905SOL     OW 9613   0.651   5.874   1.516
 2905SOL    HW1 9614   0.741   5.877   1.472
 2905SOL    HW2 9615   0.603   5.960   1.499
 2906SOL     OW 9616   6.252   6.423   3.949
 2906SOL    HW1 9617   6.254   6.348   3.884
 2906SOL    HW2 9618   6.299   6.397   4.033
 2907SOL     OW 9619   0.305   0.975   3.980
 2907SOL    HW1 9620   0.346   1.062   3.951
 2907SOL    HW2 9621   0.271   0.926   3.900
 2908SOL     OW 9622   4.084   6.270   2.926
 2908SOL    HW1 9623   4.129   6.359   2.917
 2908SOL    HW2 9624   4.152   6.200   2.947
 2909SOL     OW 9625   0.432   6.402   2.150
 2909SOL    HW1 9626   0.375   6.359   2.079
 2909SOL    HW2 9627   0.464   6.331   2.213
 2910SOL     OW 9628   6.429   0.708   4.069
 2910SOL    HW1 9629   6.478   0.795   4.070
 2910SOL    HW2 9630   6.467   0.647   4.139
 2911SOL     OW 9631   6.887   4.180   5.117
 2911SOL    HW1 9632   6.798   4.151   5.153
 2911SOL    HW2 9633   6.941   4.099   5.092
 2912SOL     OW 9634   0.362   0.724   1.349
 2912SOL    HW1 9635   0.298   0.800   1.363
 2912SOL    HW2 9636   0.456   0.756   1.363
 2913SOL     OW 9637   2.746   6.781   1.464
 2913SOL    HW1 9638   2.667   6.725   1.439
 2913SOL    HW2 9639   2.725   6.878   1.449
 2914SOL     OW 9640   4.326   5.407   0.483
 2914SOL    HW1 9641   4.374   5.492   0.460
 2914SOL    HW2 9642   4.393   5.334   0.498
 2915SOL     OW 9643   2.600   0.203   2.263
 2915SOL    HW1 9644   2.697   0.201   2.239
 2915SOL    HW2 9645   2.548   0.249   2.192
 2916SOL     OW 9646   2.199   6.084   0.995
 2916SOL    HW1 9647   2.222   6.158   0.932
 2916SOL    HW2 9648   2.100   6.068   0.992
 2917SOL     OW 9649   2.477   6.050   4.280
 2917SOL    HW1 9650   2.557   6.055   4.220
 2917SOL    HW2 9651   2.458   6.141   4.317
 2918SOL     OW 9652   5.100   3.070   1.695
 2918SOL    HW1 9653   5.187   3.038   1.731
 2918SOL    HW2 9654   5.100   3.059   1.595
 2919SOL     OW 9655   1.002   5.507   4.636
 2919SOL    HW1 9656   0.921   5.517   4.694
 2919SOL    HW2 9657   0.977   5.457   4.553
 2920SOL     OW 9658   1.096   2.818   2.494
 2920SOL    HW1 9659   1.086   2.724   2.460
 2920SOL    HW2 9660   1.104   2.817   2.593
 2921SOL     OW 9661   1.120   0.112   4.132
 2921SOL    HW1 9662   1.053   0.146   4.198
 2921SOL    HW2 9663   1.161   0.028   4.166
 2922SOL     OW 9664   3.877   6.371   3.521
 2922SOL    HW1 9665   3.783   6.375   3.486
 2922SOL    HW2 9666   3.881   6.309   3.599
 2923SOL     OW 9667   6.654   5.992   4.841
 2923SOL    HW1 9668   6.639   5.896   4.816
 2923SOL    HW2 9669   6.595   6.016   4.918
 2924SOL     OW 9670   5.973   2.228   4.992
 2924SOL    HW1 9671   5.929   2.283   4.921
 2924SOL    HW2 9672   6.043   2.170   4.950
 2925SOL     OW 9673   4.857   6.969   6.363
 2925SOL    HW1 9674   4.847   6.992   6.459
 2925SOL    HW2 9675   4.951   6.938   6.346
 2926SOL     OW 9676   6.805   2.598   3.574
 2926SOL    HW1 9677   6.770   2.530   3.510
 2926SOL    HW2 9678   6.812   2.557   3.665
 2927SOL     OW 9679   1.266   2.340   2.221
 2927SOL    HW1 9680   1.166   2.334   2.226
 2927SOL    HW2 9681   1.302   2.253   2.186
 2928SOL     OW 9682   6.744   2.726   6.828
 2928SOL    HW1 9683   6.834   2.746   6.866
 2928SOL    HW2 9684   6.754   2.682   6.739
 2929SOL     OW 9685   2.686   2.384   4.561
 2929SOL    HW1 9686   2.663   2.481   4.560
 2929SOL    HW2 9687   2.627   2.336   4.626
 2930SOL     OW 9688   7.017   4.425   4.810
 2930SOL    HW1 9689   0.064   4.495   4.787
 2930SOL    HW2 9690   6.984   4.440   4.904
 2931SOL     OW 9691   5.286   4.210   5.567
 2931SOL    HW1 9692   5.267   4.165   5.654
 2931SOL    HW2 9693   5.199   4.224   5.518
 2932SOL     OW 9694   6.666   5.462   0.830
 2932SOL    HW1 9695   6.710   5.426   0.912
 2932SOL    HW2 9696   6.586   5.406   0.809
 2933SOL     OW 9697   1.158   0.467   0.514
 2933SOL    HW1 9698   1.248   0.464   0.558
 2933SOL    HW2 9699   1.131   0.562   0.500
 2934SOL     OW 9700   4.120   4.591   0.235
 2934SOL    HW1 9701   4.144   4.636   0.149
 2934SOL    HW2 9702   4.083   4.500   0.216
 2935SOL     OW 9703   6.709   2.194   6.415
 2935SOL    HW1 9704   6.725   2.159   6.322
 2935SOL    HW2 9705   6.797   2.216   6.457
 2936SOL     OW 9706   4.388   6.271   0.891
 2936SOL    HW1 9707   4.300   6.247   0.931
 2936SOL    HW2 9708   4.413   6.364   0.917
 2937SOL     OW 9709   4.744   4.768   2.351
 2937SOL    HW1 9710   4.673   4.811   2.408
 2937SOL    HW2 9711   4.793   4.839   2.301
 2938SOL     OW 9712   6.683   5.485   6.817
 2938SOL    HW1 9713   6.675   5.541   6.734
 2938SOL    HW2 9714   6.774   5.445   6.821
 2939SOL     OW 9715   0.489   5.773   1.780
 2939SOL    HW1 9716   0.407   5.830   1.789
 2939SOL    HW2 9717   0.552   5.816   1.715
 2940SOL     OW 9718   4.381   6.565   3.472
 2940SOL    HW1 9719   4.382   6.517   3.385
 2940SOL    HW2 9720   4.307   6.632   3.473
 2941SOL     OW 9721   1.883   4.096   3.737
 2941SOL    HW1 9722   1.802   4.135   3.781
 2941SOL    HW2 9723   1.859   4.009   3.693
 2942SOL     OW 9724   3.357   1.676   1.468
 2942SOL    HW1 9725   3.343   1.682   1.369
 2942SOL    HW2 9726   3.268   1.676   1.514
 2943SOL     OW 9727   6.043   3.758   3.175
 2943SOL    HW1 9728   6.091   3.844   3.158
 2943SOL    HW2 9729   6.037   3.706   3.090
 2944SOL     OW 9730   2.038   5.845   2.557
 2944SOL    HW1 9731   2.089   5.851   2.643
 2944SOL    HW2 9732   1.986   5.929   2.542
 2945SOL     OW 9733   5.089   4.337   1.499
 2945SOL    HW1 9734   5.051   4.260   1.447
 2945SOL    HW2 9735   5.153   4.303   1.567
 2946SOL     OW 9736   3.857   3.710   5.496
 2946SOL    HW1 9737   3.914   3.644   5.546
 2946SOL    HW2 9738   3.761   3.687   5.511
 2947SOL     OW 9739   6.289   6.496   0.556
 2947SOL    HW1 9740   6.291   6.396   0.568
 2947SOL    HW2 9741   6.207   6.533   0.601
 2948SOL     OW 9742   6.736   3.817   1.590
 2948SOL    HW1 9743   6.656   3.843   1.645
 2948SOL    HW2 9744   6.708   3.799   1.496
 2949SOL     OW 9745   1.007   0.260   0.463
 2949SOL    HW1 9746   1.070   0.331   0.496
 2949SOL    HW2 9747   0.914   0.295   0.468
 2950SOL     OW 9748   6.326   4.686   2.968
 2950SOL    HW1 9749   6.365   4.613   2.912
 2950SOL    HW2 9750   6.250   4.650   3.022
 2951SOL     OW 9751   6.895   1.133   2.053
 2951SOL    HW1 9752   6.964   1.115   2.122
 2951SOL    HW2 9753   6.806   1.146   2.097
 2952SOL     OW 9754   5.948   2.023   3.760
 2952SOL    HW1 9755   5.980   1.966   3.836
 2952SOL    HW2 9756   5.884   2.092   3.794
 2953SOL     OW 9757   0.951   5.286   4.442
 2953SOL    HW1 9758   0.898   5.355   4.393
 2953SOL    HW2 9759   1.037   5.270   4.395
 2954SOL     OW 9760   6.870   4.209   6.285
 2954SOL    HW1 9761   6.776   4.216   6.253
 2954SOL    HW2 9762   6.912   4.300   6.283
 2955SOL     OW 9763   1.833   4.474   6.248
 2955SOL    HW1 9764   1.840   4.376   6.230
 2955SOL    HW2 9765   1.913   4.521   6.209
 2956SOL     OW 9766   5.933   4.819   3.034
 2956SOL    HW1 9767   5.869   4.822   2.957
 2956SOL    HW2 9768   6.001   4.891   3.023
 2957SOL     OW 9769   2.263   5.417   1.125
 2957SOL    HW1 9770   2.244   5.514   1.114
 2957SOL    HW2 9771   2.340   5.405   1.188
 2958SOL     OW 9772   1.642   5.672   2.323
 2958SOL    HW1 9773   1.609   5.583   2.354
 2958SOL    HW2 9774   1.739   5.665   2.298
 2959SOL     OW 9775   0.001   3.697   2.814
 2959SOL    HW1 9776   7.004   3.663   2.722
 2959SOL    HW2 9777   0.086   3.750   2.815
 2960SOL     OW 9778   5.356   0.261   0.544
 2960SOL    HW1 9779   5.343   0.358   0.523
 2960SOL    HW2 9780   5.357   0.208   0.459
 2961SOL     OW 9781   5.371   4.197   1.915
 2961SOL    HW1 9782   5.338   4.131   1.982
 2961SOL    HW2 9783   5.399   4.281   1.961
 2962SOL     OW 9784   6.887   0.280   3.142
 2962SOL    HW1 9785   6.915   0.323   3.228
 2962SOL    HW2 9786   6.843   0.349   3.083
 2963SOL     OW 9787   2.244   1.169   5.217
 2963SOL    HW1 9788   2.174   1.109   5.179
 2963SOL    HW2 9789   2.235   1.172   5.317
 2964SOL     OW 9790   1.816   1.646   0.170
 2964SOL    HW1 9791   1.829   1.601   0.258
 2964SOL    HW2 9792   1.788   1.579   0.102
 2965SOL     OW 9793   0.478   6.909   5.201
 2965SOL    HW1 9794   0.395   6.946   5.161
 2965SOL    HW2 9795   0.483   6.935   5.298
 2966SOL     OW 9796   3.306   6.345   2.466
 2966SOL    HW1 9797   3.307   6.421   2.401
 2966SOL    HW2 9798   3.213   6.332   2.501
 2967SOL     OW 9799   5.817   0.354   5.473
 2967SOL    HW1 9800   5.801   0.356   5.571
 2967SOL    HW2 9801   5.805   0.260   5.439
 2968SOL     OW 9802   1.904   3.280   1.270
 2968SOL    HW1 9803   1.887   3.369   1.312
 2968SOL    HW2 9804   1.984   3.238   1.312
 2969SOL     OW 9805   5.108   3.385   4.527
 2969SOL    HW1 9806   5.095   3.482   4.547
 2969SOL    HW2 9807   5.202   3.370   4.496
 2970SOL     OW 9808   2.195   1.742   4.119
 2970SOL    HW1 9809   2.265   1.671   4.131
 2970SOL    HW2 9810   2.171   1.749   4.022
 2971SOL     OW 9811   5.334   2.833   6.286
 2971SOL    HW1 9812   5.242   2.875   6.284
 2971SOL    HW2 9813   5.329   2.746   6.334
 2972SOL     OW 9814   5.834   5.752   6.849
 2972SOL    HW1 9815   5.932   5.754   6.830
 2972SOL    HW2 9816   5.786   5.815   6.788
 2973SOL     OW 9817   4.674   1.550   2.927
 2973SOL    HW1 9818   4.703   1.560   2.832
 2973SOL    HW2 9819   4.724   1.474   2.969
 2974SOL     OW 9820   5.017   6.238   2.622
 2974SOL    HW1 9821   5.063   6.184   2.551
 2974SOL    HW2 9822   4.939   6.286   2.582
 2975SOL     OW 9823   4.550   4.343   3.512
 2975SOL    HW1 9824   4.535   4.303   3.603
 2975SOL    HW2 9825   4.648   4.348   3.494
 2976SOL     OW 9826   4.244   1.992   1.859
 2976SOL    HW1 9827   4.243   2.086   1.894
 2976SOL    HW2 9828   4.176   1.938   1.908
 2977SOL     OW 9829   1.481   1.075   1.497
 2977SOL    HW1 9830   1.497   1.135   1.575
 2977SOL    HW2 9831   1.495   0.980   1.525
 2978SOL     OW 9832   4.653   5.287   6.492
 2978SOL    HW1 9833   4.635   5.385   6.499
 2978SOL    HW2 9834   4.732   5.272   6.433
 2979SOL     OW 9835   3.467   0.554   4.388
 2979SOL    HW1 9836   3.392   0.515   4.442
 2979SOL    HW2 9837   3.549   0.498   4.400
 2980SOL     OW 9838   3.888   3.423   5.308
 2980SOL    HW1 9839   3.892   3.336   5.258
 2980SOL    HW2 9840   3.798   3.465   5.293
 2981SOL     OW 9841   1.962   1.449   1.619
 2981SOL    HW1 9842   1.967   1.547   1.636
 2981SOL    HW2 9843   2.039   1.404   1.664
 2982SOL     OW 9844   1.148   0.491   1.740
 2982SOL    HW1 9845   1.106   0.444   1.663
 2982SOL    HW2 9846   1.081   0.551   1.783
 2983SOL     OW 9847   6.225   3.249   5.751
 2983SOL    HW1 9848   6.256   3.338   5.785
 2983SOL    HW2 9849   6.205   3.189   5.829
 2984SOL     OW 9850   0.873   4.951   1.428
 2984SOL    HW1 9851   0.786   4.967   1.383
 2984SOL    HW2 9852   0.868   4.866   1.482
 2985SOL     OW 9853   0.448   7.001   5.446
 2985SOL    HW1 9854   0.399   0.069   5.443
 2985SOL    HW2 9855   0.506   6.998   5.527
 2986SOL     OW 9856   3.807   3.354   2.363
 2986SOL    HW1 9857   3.849   3.432   2.317
 2986SOL    HW2 9858   3.833   3.354   2.459
 2987SOL     OW 9859   2.010   0.011   5.163
 2987SOL    HW1 9860   1.933   6.968   5.157
 2987SOL    HW2 9861   2.067   0.002   5.081
 2988SOL     OW 9862   0.374   1.552   6.442
 2988SOL    HW1 9863   0.457   1.591   6.403
 2988SOL    HW2 9864   0.396   1.496   6.521
 2989SOL     OW 9865   4.936   3.812   4.338
 2989SOL    HW1 9866   4.869   3.802   4.412
 2989SOL    HW2 9867   4.954   3.722   4.298
 2990SOL     OW 9868   5.322   1.681   4.322
 2990SOL    HW1 9869   5.326   1.733   4.236
 2990SOL    HW2 9870   5.415   1.673   4.360
 2991SOL     OW 9871   0.390   4.098   1.597
 2991SOL    HW1 9872   0.400   4.105   1.498
 2991SOL    HW2 9873   0.400   4.189   1.638
 2992SOL     OW 9874   0.406   3.361   5.549
 2992SOL    HW1 9875   0.464   3.416   5.609
 2992SOL    HW2 9876   0.463   3.310   5.485
 2993SOL     OW 9877   1.508   4.288   0.514
 2993SOL    HW1 9878   1.506   4.364   0.579
 2993SOL    HW2 9879   1.598   4.283   0.471
 2994SOL     OW 9880   4.202   5.900   6.197
 2994SOL    HW1 9881   4.268   5.831   6.226
 2994SOL    HW2 9882   4.183   5.889   6.099
 2995SOL     OW 9883   5.125   0.741   0.807
 2995SOL    HW1 9884   5.158   0.778   0.720
 2995SOL    HW2 9885   5.037   0.784   0.829
 2996SOL     OW 9886   6.463   0.581   4.377
 2996SOL    HW1 9887   6.471   0.680   4.391
 2996SOL    HW2 9888   6.550   0.537   4.402
 2997SOL     OW 9889   5.333   6.809   4.143
 2997SOL    HW1 9890   5.328   6.718   4.102
 2997SOL    HW2 9891   5.242   6.839   4.171
 2998SOL     OW 9892   2.794   1.299   3.492
 2998SOL    HW1 9893   2.796   1.216   3.548
 2998SOL    HW2 9894   2.796   1.379   3.552
 2999SOL     OW 9895   2.857   4.260   0.789
 2999SOL    HW1 9896   2.802   4.177   0.786
 2999SOL    HW2 9897   2.905   4.272   0.701
 3000SOL     OW 9898   3.076   4.060   5.452
 3000SOL    HW1 9899   3.113   4.075   5.544
 3000SOL    HW2 9900   3.003   4.126   5.435
 3001SOL     OW 9901   5.741   0.319   5.766
 3001SOL    HW1 9902   5.757   0.417   5.770
 3001SOL    HW2 9903   5.729   0.283   5.858
 3002SOL     OW 9904   1.662   2.115   1.671
 3002SOL    HW1 9905   1.617   2.160   1.748
 3002SOL    HW2 9906   1.598   2.112   1.593
 3003SOL     OW 9907   1.782   6.363   0.529
 3003SOL    HW1 9908   1.746   6.438   0.473
 3003SOL    HW2 9909   1.881   6.356   0.515
 3004SOL     OW 9910   2.652   6.218   3.915
 3004SOL    HW1 9911   2.603   6.139   3.951
 3004SOL    HW2 9912   2.734   6.187   3.866
 3005SOL     OW 9913   0.894   2.317   6.366
 3005SOL    HW1 9914   0.886   2.258   6.447
 3005SOL    HW2 9915   0.803   2.351   6.341
 3006SOL     OW 9916   5.084   1.365   5.367
 3006SOL    HW1 9917   5.105   1.300   5.440
 3006SOL    HW2 9918   4.989   1.352   5.338
 3007SOL     OW 9919   4.889   5.678   0.045
 3007SOL    HW1 9920   4.887   5.694   0.144
 3007SOL    HW2 9921   4.907   5.581   0.027
 3008SOL     OW 9922   4.874   3.559   5.727
 3008SOL    HW1 9923   4.800   3.527   5.787
 3008SOL    HW2 9924   4.927   3.629   5.775
 3009SOL     OW 9925   0.138   3.415   2.345
 3009SOL    HW1 9926   0.067   3.450   2.284
 3009SOL    HW2 9927   0.095   3.371   2.424
 3010SOL     OW 9928   3.650   5.805   0.417
 3010SOL    HW1 9929   3.709   5.792   0.496
 3010SOL    HW2 9930   3.684   5.881   0.361
 3011SOL     OW 9931   6.710   0.203   1.357
 3011SOL    HW1 9932   6.645   0.138   1.395
 3011SOL    HW2 9933   6.772   0.156   1.294
 3012SOL     OW 9934   2.337   2.065   5.505
 3012SOL    HW1 9935   2.408   2.121   5.462
 3012SOL    HW2 9936   2.250   2.081   5.459
 3013SOL     OW 9937   1.040   4.429   5.333
 3013SOL    HW1 9938   1.053   4.361   5.261
 3013SOL    HW2 9939   1.130   4.458   5.368
 3014SOL     OW 9940   5.136   6.578   6.411
 3014SOL    HW1 9941   5.230   6.557   6.436
 3014SOL    HW2 9942   5.074   6.518   6.461
 3015SOL     OW 9943   1.086   0.535   6.956
 3015SOL    HW1 9944   1.058   0.449   6.912
 3015SOL    HW2 9945   1.041   0.612   6.909
 3016SOL     OW 9946   1.837   6.099   4.475
 3016SOL    HW1 9947   1.883   6.156   4.406
 3016SOL    HW2 9948   1.829   6.005   4.441
 3017SOL     OW 9949   0.546   5.119   0.773
 3017SOL    HW1 9950   0.538   5.205   0.723
 3017SOL    HW2 9951   0.460   5.070   0.769
 3018SOL     OW 9952   3.470   6.994   0.986
 3018SOL    HW1 9953   3.373   6.981   1.008
 3018SOL    HW2 9954   3.483   0.064   0.944
 3019SOL     OW 9955   2.279   1.232   6.026
 3019SOL    HW1 9956   2.246   1.299   6.092
 3019SOL    HW2 9957   2.358   1.183   6.065
 3020SOL     OW 9958   6.425   4.035   6.799
 3020SOL    HW1 9959   6.510   3.982   6.795
 3020SOL    HW2 9960   6.406   4.074   6.709
 3021SOL     OW 9961   4.428   6.978   4.658
 3021SOL    HW1 9962   4.458   6.890   4.694
 3021SOL    HW2 9963   4.504   0.023   4.659
 3022SOL     OW 9964   3.629   5.805   3.936
 3022SOL    HW1 9965   3.687   5.883   3.958
 3022SOL    HW2 9966   3.677   5.720   3.959
 3023SOL     OW 9967   5.248   5.783   3.738
 3023SOL    HW1 9968   5.159   5.743   3.717
 3023SOL    HW2 9969   5.237   5.863   3.796
 3024SOL     OW 9970   0.221   6.569   0.365
 3024SOL    HW1 9971   0.190   6.638   0.431
 3024SOL    HW2 9972   0.276   6.614   0.295
 3025SOL     OW 9973   3.606   5.092   0.146
 3025SOL    HW1 9974   3.686   5.143   0.176
 3025SOL    HW2 9975   3.580   5.122   0.054
 3026SOL     OW 9976   6.921   1.084   1.649
 3026SOL    HW1 9977   6.964   1.119   1.566
 3026SOL    HW2 9978   6.972   1.115   1.729
 3027SOL     OW 9979   4.778   1.200   0.926
 3027SOL    HW1 9980   4.683   1.223   0.904
 3027SOL    HW2 9981   4.797   1.225   1.021
 3028SOL     OW 9982   2.937   3.385   5.667
 3028SOL    HW1 9983   2.875   3.461   5.690
 3028SOL    HW2 9984   2.957   3.388   5.569
 3029SOL     OW 9985   0.323   2.954   4.343
 3029SOL    HW1 9986   0.245   2.929   4.400
 3029SOL    HW2 9987   0.308   3.045   4.304
 3030SOL     OW 9988   2.419   3.158   0.497
 3030SOL    HW1 9989   2.399   3.070   0.541
 3030SOL    HW2 9990   2.336   3.214   0.494
 3031SOL     OW 9991   1.323   6.224   0.735
 3031SOL    HW1 9992   1.354   6.269   0.819
 3031SOL    HW2 9993   1.354   6.277   0.656
 3032SOL     OW 9994   2.447   0.473   2.666
 3032SOL    HW1 9995   2.498   0.408   2.610
 3032SOL    HW2 9996   2.438   0.438   2.759
 3033SOL     OW 9997   6.982   1.950   4.636
 3033SOL    HW1 9998   6.930   2.016   4.581
 3033SOL    HW2 9999   6.926   1.869   4.652
 3034SOL     OW10000   6.803   4.827   3.252
 3034SOL    HW110001   6.794   4.735   3.289
 3034SOL    HW210002   6.741   4.889   3.301
 3035SOL     OW10003   1.037   2.823   0.309
 3035SOL    HW110004   1.134   2.802   0.316
 3035SOL    HW210005   1.010   2.885   0.383
 3036SOL     OW10006   3.139   2.086   5.994
 3036SOL    HW110007   3.188   2.118   6.075
 3036SOL    HW210008   3.191   2.012   5.951
 3037SOL     OW10009   0.492   6.127   6.854
 3037SOL    HW110010   0.430   6.053   6.826
 3037SOL    HW210011   0.461   6.214   6.816
 3038SOL     OW10012   6.019   4.510   6.781
 3038SOL    HW110013   5.939   4.568   6.765
 3038SOL    HW210014   6.041   4.510   6.878
 3039SOL     OW10015   6.974   3.441   6.509
 3039SOL    HW110016   7.004   3.467   6.417
 3039SOL    HW210017   6.986   3.342   6.521
 3040SOL     OW10018   5.121   4.474   5.837
 3040SOL    HW110019   5.213   4.444   5.860
 3040SOL    HW210020   5.062   4.469   5.918
 3041SOL     OW10021   1.497   4.417   5.781
 3041SOL    HW110022   1.563   4.491   5.773
 3041SOL    HW210023   1.496   4.382   5.875
 3042SOL     OW10024   6.743   5.224   3.348
 3042SOL    HW110025   6.703   5.151   3.403
 3042SOL    HW210026   6.733   5.311   3.395
 3043SOL     OW10027   2.835   5.162   0.661
 3043SOL    HW110028   2.827   5.084   0.723
 3043SOL    HW210029   2.751   5.217   0.666
 3044SOL     OW10030   3.913   3.616   4.749
 3044SOL    HW110031   3.901   3.539   4.812
 3044SOL    HW210032   3.836   3.618   4.684
 3045SOL     OW10033   4.473   1.906   1.965
 3045SOL    HW110034   4.438   1.848   2.039
 3045SOL    HW210035   4.400   1.923   1.899
 3046SOL     OW10036   4.943   6.281   0.924
 3046SOL    HW110037   4.856   6.330   0.939
 3046SOL    HW210038   4.923   6.188   0.893
 3047SOL     OW10039   5.890   1.369   5.002
 3047SOL    HW110040   5.828   1.389   5.078
 3047SOL    HW210041   5.966   1.313   5.035
 3048SOL     OW10042   3.779   4.477   0.861
 3048SOL    HW110043   3.795   4.527   0.776
 3048SOL    HW210044   3.682   4.486   0.887
 3049SOL     OW10045   1.241   1.493   3.338
 3049SOL    HW110046   1.176   1.523   3.408
 3049SOL    HW210047   1.197   1.500   3.248
 3050SOL     OW10048   3.390   1.945   0.881
 3050SOL    HW110049   3.406   2.018   0.815
 3050SOL    HW210050   3.351   1.866   0.835
 3051SOL     OW10051   2.322   5.460   5.552
 3051SOL    HW110052   2.352   5.380   5.500
 3051SOL    HW210053   2.255   5.511   5.499
 3052SOL     OW10054   6.781   6.607   2.041
 3052SOL    HW110055   6.706   6.639   2.099
 3052SOL    HW210056   6.863   6.660   2.062
 3053SOL     OW10057   0.860   4.432   6.991
 3053SOL    HW110058   0.959   4.434   7.007
 3053SOL    HW210059   0.827   4.338   7.002
 3054SOL     OW10060   5.528   0.770   2.406
 3054SOL    HW110061   5.522   0.673   2.431
 3054SOL    HW210062   5.443   0.799   2.363
 3055SOL     OW10063   5.796   6.069   6.586
 3055SOL    HW110064   5.844   6.014   6.518
 3055SOL    HW210065   5.741   6.010   6.645
 3056SOL     OW10066   5.130   1.680   5.206
 3056SOL    HW110067   5.103   1.680   5.302
 3056SOL    HW210068   5.151   1.587   5.177
 3057SOL     OW10069   5.548   3.934   3.155
 3057SOL    HW110070   5.528   4.030   3.177
 3057SOL    HW210071   5.637   3.909   3.193
 3058SOL     OW10072   0.122   4.298   6.661
 3058SOL    HW110073   0.091   4.234   6.590
 3058SOL    HW210074   0.072   4.384   6.653
 3059SOL     OW10075   1.730   2.006   3.751
 3059SOL    HW110076   1.691   1.933   3.696
 3059SOL    HW210077   1.758   1.970   3.840
 3060SOL     OW10078   5.511   5.211   5.143
 3060SOL    HW110079   5.468   5.167   5.064
 3060SOL    HW210080   5.610   5.214   5.129
 3061SOL     OW10081   5.997   6.245   4.848
 3061SOL    HW110082   5.928   6.198   4.793
 3061SOL    HW210083   6.073   6.275   4.789
 3062SOL     OW10084   4.035   4.281   1.336
 3062SOL    HW110085   4.026   4.232   1.423
 3062SOL    HW210086   4.004   4.375   1.348
 3063SOL     OW10087   0.362   4.316   2.010
 3063SOL    HW110088   0.442   4.290   2.064
 3063SOL    HW210089   0.318   4.396   2.051
 3064SOL     OW10090   4.992   2.075   6.148
 3064SOL    HW110091   5.001   1.976   6.157
 3064SOL    HW210092   5.013   2.119   6.235
 3065SOL     OW10093   6.187   1.324   0.044
 3065SOL    HW110094   6.096   1.331   0.086
 3065SOL    HW210095   6.238   1.250   0.088
 3066SOL     OW10096   5.160   6.084   5.633
 3066SOL    HW110097   5.231   6.136   5.679
 3066SOL    HW210098   5.122   6.138   5.558
 3067SOL     OW10099   1.317   2.090   5.944
 3067SOL    HW110100   1.403   2.091   5.893
 3067SOL    HW210101   1.335   2.062   6.039
 3068SOL     OW10102   0.513   1.201   0.412
 3068SOL    HW110103   0.507   1.126   0.478
 3068SOL    HW210104   0.421   1.226   0.383
 3069SOL     OW10105   5.240   0.112   2.872
 3069SOL    HW110106   5.307   0.091   2.801
 3069SOL    HW210107   5.284   0.162   2.946
 3070SOL     OW10108   2.186   1.162   1.025
 3070SOL    HW110109   2.248   1.219   0.971
 3070SOL    HW210110   2.121   1.117   0.965
 3071SOL     OW10111   6.505   4.098   4.319
 3071SOL    HW110112   6.593   4.137   4.344
 3071SOL    HW210113   6.479   4.028   4.386
 3072SOL     OW10114   1.964   7.015   6.559
 3072SOL    HW110115   1.890   0.061   6.544
 3072SOL    HW210116   2.052   0.043   6.550
 3073SOL     OW10117   6.278   5.125   1.184
 3073SOL    HW110118   6.357   5.164   1.136
 3073SOL    HW210119   6.276   5.026   1.170
 3074SOL     OW10120   2.239   3.216   1.742
 3074SOL    HW110121   2.208   3.167   1.823
 3074SOL    HW210122   2.290   3.297   1.770
 3075SOL     OW10123   3.220   5.514   2.052
 3075SOL    HW110124   3.259   5.429   2.086
 3075SOL    HW210125   3.154   5.550   2.118
 3076SOL     OW10126   0.711   0.518   5.313
 3076SOL    HW110127   0.698   0.461   5.395
 3076SOL    HW210128   0.747   0.462   5.239
 3077SOL     OW10129   6.914   3.965   2.796
 3077SOL    HW110130   6.901   3.867   2.814
 3077SOL    HW210131   6.826   4.006   2.771
 3078SOL     OW10132   0.073   3.632   1.956
 3078SOL    HW110133   0.115   3.555   1.908
 3078SOL    HW210134   0.120   3.717   1.930
 3079SOL     OW10135   2.197   3.354   5.100
 3079SOL    HW110136   2.294   3.380   5.092
 3079SOL    HW210137   2.179   3.326   5.194
 3080SOL     OW10138   3.747   4.658   0.512
 3080SOL    HW110139   3.847   4.660   0.514
 3080SOL    HW210140   3.714   4.716   0.437
 3081SOL     OW10141   0.947   3.776   0.384
 3081SOL    HW110142   0.895   3.861   0.375
 3081SOL    HW210143   0.971   3.742   0.293
 3082SOL     OW10144   4.455   5.222   4.327
 3082SOL    HW110145   4.371   5.267   4.358
 3082SOL    HW210146   4.455   5.127   4.360
 3083SOL     OW10147   3.577   6.185   1.858
 3083SOL    HW110148   3.627   6.131   1.790
 3083SOL    HW210149   3.633   6.193   1.941
 3084SOL     OW10150   0.372   3.882   4.253
 3084SOL    HW110151   0.277   3.913   4.260
 3084SOL    HW210152   0.414   3.884   4.344
 3085SOL     OW10153   5.431   5.036   0.355
 3085SOL    HW110154   5.480   5.084   0.283
 3085SOL    HW210155   5.336   5.069   0.360
 3086SOL     OW10156   6.617   6.682   6.249
 3086SOL    HW110157   6.556   6.710   6.323
 3086SOL    HW210158   6.687   6.619   6.285
 3087SOL     OW10159   3.205   6.760   1.706
 3087SOL    HW110160   3.190   6.663   1.721
 3087SOL    HW210161   3.273   6.794   1.772
 3088SOL     OW10162   2.073   2.804   6.006
 3088SOL    HW110163   1.986   2.818   5.958
 3088SOL    HW210164   2.079   2.866   6.084
 3089SOL     OW10165   4.145   5.862   5.016
 3089SOL    HW110166   4.129   5.961   5.016
 3089SOL    HW210167   4.073   5.817   4.965
 3090SOL     OW10168   1.099   2.167   2.426
 3090SOL    HW110169   1.118   2.073   2.397
 3090SOL    HW210170   1.141   2.183   2.515
 3091SOL     OW10171   1.210   2.153   1.050
 3091SOL    HW110172   1.157   2.218   0.994
 3091SOL    HW210173   1.279   2.109   0.993
 3092SOL     OW10174   5.950   1.117   2.797
 3092SOL    HW110175   5.853   1.118   2.823
 3092SOL    HW210176   6.006   1.095   2.877
 3093SOL     OW10177   5.973   5.495   0.190
 3093SOL    HW110178   6.016   5.405   0.183
 3093SOL    HW210179   5.891   5.488   0.248
 3094SOL     OW10180   2.980   1.814   6.597
 3094SOL    HW110181   3.063   1.867   6.614
 3094SOL    HW210182   2.982   1.731   6.653
 3095SOL     OW10183   1.370   3.796   4.765
 3095SOL    HW110184   1.385   3.882   4.716
 3095SOL    HW210185   1.288   3.751   4.730
 3096SOL     OW10186   0.513   3.214   4.067
 3096SOL    HW110187   0.508   3.280   3.992
 3096SOL    HW210188   0.573   3.139   4.041
 3097SOL     OW10189   5.368   2.776   5.575
 3097SOL    HW110190   5.384   2.781   5.477
 3097SOL    HW210191   5.335   2.684   5.599
 3098SOL     OW10192   1.895   3.402   2.313
 3098SOL    HW110193   1.947   3.471   2.364
 3098SOL    HW210194   1.878   3.324   2.373
 3099SOL     OW10195   0.385   6.122   4.270
 3099SOL    HW110196   0.444   6.141   4.191
 3099SOL    HW210197   0.437   6.132   4.354
 3100SOL     OW10198   6.162   4.764   1.751
 3100SOL    HW110199   6.141   4.776   1.848
 3100SOL    HW210200   6.098   4.698   1.711
 3101SOL     OW10201   3.532   6.716   5.436
 3101SOL    HW110202   3.446   6.759   5.407
 3101SOL    HW210203   3.606   6.745   5.375
 3102SOL     OW10204   6.922   4.709   1.041
 3102SOL    HW110205   6.903   4.631   1.101
 3102SOL    HW210206   6.846   4.721   0.978
 3103SOL     OW10207   3.234   1.358   1.100
 3103SOL    HW110208   3.142   1.325   1.122
 3103SOL    HW210209   3.281   1.383   1.184
 3104SOL     OW10210   4.754   1.137   5.446
 3104SOL    HW110211   4.698   1.136   5.529
 3104SOL    HW210212   4.817   1.060   5.447
 3105SOL     OW10213   6.185   3.676   0.632
 3105SOL    HW110214   6.264   3.669   0.570
 3105SOL    HW210215   6.172   3.771   0.659
 3106SOL     OW10216   6.226   0.298   6.404
 3106SOL    HW110217   6.130   0.309   6.378
 3106SOL    HW210218   6.282   0.284   6.322
 3107SOL     OW10219   3.826   1.201   5.581
 3107SOL    HW110220   3.800   1.158   5.668
 3107SOL    HW210221   3.759   1.272   5.557
 3108SOL     OW10222   2.353   4.279   3.980
 3108SOL    HW110223   2.309   4.197   3.943
 3108SOL    HW210224   2.366   4.268   4.078
 3109SOL     OW10225   6.645   5.986   4.317
 3109SOL    HW110226   6.740   5.985   4.349
 3109SOL    HW210227   6.641   5.955   4.222
 3110SOL     OW10228   0.896   4.303   2.923
 3110SOL    HW110229   0.900   4.375   2.992
 3110SOL    HW210230   0.949   4.330   2.843
 3111SOL     OW10231   5.924   4.783   4.115
 3111SOL    HW110232   5.928   4.752   4.210
 3111SOL    HW210233   5.900   4.706   4.056
 3112SOL     OW10234   4.082   1.556   5.993
 3112SOL    HW110235   4.016   1.483   5.973
 3112SOL    HW210236   4.062   1.636   5.937
 3113SOL     OW10237   2.697   6.092   3.064
 3113SOL    HW110238   2.602   6.082   3.095
 3113SOL    HW210239   2.713   6.033   2.985
 3114SOL     OW10240   4.782   1.015   6.025
 3114SOL    HW110241   4.746   1.108   6.013
 3114SOL    HW210242   4.877   1.012   5.993
 3115SOL     OW10243   4.989   5.260   5.131
 3115SOL    HW110244   4.909   5.201   5.123
 3115SOL    HW210245   4.972   5.329   5.202
 3116SOL     OW10246   0.623   1.163   0.791
 3116SOL    HW110247   0.595   1.258   0.776
 3116SOL    HW210248   0.658   1.125   0.705
 3117SOL     OW10249   5.122   1.110   5.506
 3117SOL    HW110250   5.109   1.069   5.416
 3117SOL    HW210251   5.217   1.097   5.535
 3118SOL     OW10252   1.218   0.977   3.420
 3118SOL    HW110253   1.239   1.074   3.423
 3118SOL    HW210254   1.120   0.964   3.404
 3119SOL     OW10255   4.556   5.057   5.036
 3119SOL    HW110256   4.509   5.134   4.992
 3119SOL    HW210257   4.536   5.058   5.134
 3120SOL     OW10258   1.539   5.849   5.508
 3120SOL    HW110259   1.618   5.859   5.568
 3120SOL    HW210260   1.544   5.761   5.460
 3121SOL     OW10261   4.450   1.138   4.230
 3121SOL    HW110262   4.437   1.196   4.311
 3121SOL    HW210263   4.533   1.085   4.239
 3122SOL     OW10264   4.826   5.589   4.506
 3122SOL    HW110265   4.862   5.668   4.458
 3122SOL    HW210266   4.901   5.530   4.535
 3123SOL     OW10267   2.457   1.271   3.536
 3123SOL    HW110268   2.435   1.203   3.466
 3123SOL    HW210269   2.474   1.226   3.623
 3124SOL     OW10270   4.853   6.891   3.866
 3124SOL    HW110271   4.772   6.899   3.808
 3124SOL    HW210272   4.839   6.941   3.951
 3125SOL     OW10273   1.239   0.901   5.264
 3125SOL    HW110274   1.174   0.827   5.281
 3125SOL    HW210275   1.255   0.952   5.348
 3126SOL     OW10276   5.579   5.480   5.414
 3126SOL    HW110277   5.528   5.450   5.495
 3126SOL    HW210278   5.540   5.566   5.380
 3127SOL     OW10279   0.446   1.049   5.037
 3127SOL    HW110280   0.391   1.087   5.111
 3127SOL    HW210281   0.414   0.957   5.015
 3128SOL     OW10282   4.461   0.587   0.544
 3128SOL    HW110283   4.535   0.648   0.515
 3128SOL    HW210284   4.414   0.627   0.623
 3129SOL     OW10285   4.642   3.922   0.029
 3129SOL    HW110286   4.740   3.939   0.038
 3129SOL    HW210287   4.627   3.827   0.001
 3130SOL     OW10288   0.518   4.506   2.326
 3130SOL    HW110289   0.442   4.499   2.260
 3130SOL    HW210290   0.605   4.503   2.276
 3131SOL     OW10291   6.460   4.072   3.355
 3131SOL    HW110292   6.487   4.165   3.329
 3131SOL    HW210293   6.540   4.021   3.386
 3132SOL     OW10294   4.259   5.139   6.908
 3132SOL    HW110295   4.289   5.074   6.978
 3132SOL    HW210296   4.269   5.099   6.818
 3133SOL     OW10297   4.099   0.227   4.344
 3133SOL    HW110298   4.103   0.250   4.441
 3133SOL    HW210299   4.124   0.131   4.331
 3134SOL     OW10300   4.515   5.147   2.717
 3134SOL    HW110301   4.417   5.129   2.727
 3134SOL    HW210302   4.535   5.173   2.622
 3135SOL     OW10303   4.769   6.168   6.863
 3135SOL    HW110304   4.867   6.172   6.884
 3135SOL    HW210305   4.749   6.083   6.816
 3136SOL     OW10306   6.343   1.805   2.590
 3136SOL    HW110307   6.275   1.748   2.636
 3136SOL    HW210308   6.317   1.819   2.495
 3137SOL     OW10309   5.826   6.617   6.820
 3137SOL    HW110310   5.881   6.559   6.879
 3137SOL    HW210311   5.849   6.599   6.724
 3138SOL     OW10312   5.705   5.828   3.460
 3138SOL    HW110313   5.616   5.820   3.505
 3138SOL    HW210314   5.771   5.868   3.524
 3139SOL     OW10315   2.928   5.023   1.719
 3139SOL    HW110316   2.895   4.972   1.799
 3139SOL    HW210317   2.880   4.992   1.638
 3140SOL     OW10318   6.705   6.942   6.461
 3140SOL    HW110319   6.746   0.005   6.500
 3140SOL    HW210320   6.663   6.963   6.373
 3141SOL     OW10321   6.606   2.274   6.145
 3141SOL    HW110322   6.676   2.342   6.164
 3141SOL    HW210323   6.619   2.237   6.053
 3142SOL     OW10324   4.422   1.399   3.060
 3142SOL    HW110325   4.484   1.388   3.138
 3142SOL    HW210326   4.473   1.431   2.981
 3143SOL     OW10327   6.210   1.101   0.609
 3143SOL    HW110328   6.196   1.191   0.566
 3143SOL    HW210329   6.277   1.049   0.556
 3144SOL     OW10330   3.791   3.688   6.126
 3144SOL    HW110331   3.709   3.677   6.184
 3144SOL    HW210332   3.790   3.618   6.054
 3145SOL     OW10333   0.508   6.170   0.967
 3145SOL    HW110334   0.443   6.117   1.021
 3145SOL    HW210335   0.600   6.154   1.002
 3146SOL     OW10336   0.392   0.255   5.462
 3146SOL    HW110337   0.472   0.313   5.469
 3146SOL    HW210338   0.310   0.311   5.449
 3147SOL     OW10339   3.855   5.202   0.100
 3147SOL    HW110340   3.907   5.134   0.047
 3147SOL    HW210341   3.918   5.272   0.134
 3148SOL     OW10342   6.733   5.086   2.558
 3148SOL    HW110343   6.772   5.110   2.647
 3148SOL    HW210344   6.644   5.130   2.547
 3149SOL     OW10345   3.174   1.748   0.385
 3149SOL    HW110346   3.169   1.829   0.443
 3149SOL    HW210347   3.152   1.667   0.439
 3150SOL     OW10348   6.745   5.731   4.877
 3150SOL    HW110349   6.797   5.808   4.840
 3150SOL    HW210350   6.737   5.659   4.808
 3151SOL     OW10351   6.740   1.254   5.884
 3151SOL    HW110352   6.837   1.272   5.900
 3151SOL    HW210353   6.711   1.175   5.938
 3152SOL     OW10354   1.008   3.203   6.160
 3152SOL    HW110355   1.041   3.109   6.151
 3152SOL    HW210356   1.077   3.259   6.205
 3153SOL     OW10357   6.512   5.211   1.097
 3153SOL    HW110358   6.585   5.142   1.094
 3153SOL    HW210359   6.552   5.302   1.090
 3154SOL     OW10360   4.709   1.463   0.144
 3154SOL    HW110361   4.659   1.550   0.145
 3154SOL    HW210362   4.663   1.398   0.204
 3155SOL     OW10363   0.981   4.943   1.047
 3155SOL    HW110364   0.900   4.889   1.068
 3155SOL    HW210365   0.956   5.039   1.040
 3156SOL     OW10366   3.605   4.154   1.879
 3156SOL    HW110367   3.599   4.254   1.883
 3156SOL    HW210368   3.697   4.125   1.905
 3157SOL     OW10369   0.983   1.236   5.540
 3157SOL    HW110370   0.931   1.226   5.455
 3157SOL    HW210371   1.051   1.309   5.530
 3158SOL     OW10372   1.672   1.261   5.700
 3158SOL    HW110373   1.700   1.220   5.786
 3158SOL    HW210374   1.573   1.252   5.689
 3159SOL     OW10375   6.291   6.857   0.524
 3159SOL    HW110376   6.211   6.852   0.583
 3159SOL    HW210377   6.313   6.766   0.489
 3160SOL     OW10378   1.772   0.602   6.779
 3160SOL    HW110379   1.696   0.662   6.752
 3160SOL    HW210380   1.842   0.656   6.826
 3161SOL     OW10381   2.084   2.226   2.727
 3161SOL    HW110382   2.121   2.272   2.647
 3161SOL    HW210383   2.114   2.131   2.729
 3162SOL     OW10384   1.857   5.259   1.015
 3162SOL    HW110385   1.761   5.242   0.994
 3162SOL    HW210386   1.867   5.271   1.114
 3163SOL     OW10387   3.969   4.297   6.867
 3163SOL    HW110388   3.983   4.214   6.921
 3163SOL    HW210389   4.044   4.307   6.802
 3164SOL     OW10390   2.973   6.569   2.836
 3164SOL    HW110391   2.986   6.629   2.757
 3164SOL    HW210392   2.882   6.527   2.832
 3165SOL     OW10393   1.190   6.514   6.629
 3165SOL    HW110394   1.211   6.581   6.699
 3165SOL    HW210395   1.103   6.537   6.585
 3166SOL     OW10396   4.511   0.702   5.274
 3166SOL    HW110397   4.471   0.658   5.355
 3166SOL    HW210398   4.457   0.679   5.193
 3167SOL     OW10399   5.657   3.278   0.561
 3167SOL    HW110400   5.689   3.346   0.496
 3167SOL    HW210401   5.735   3.224   0.593
 3168SOL     OW10402   4.951   2.101   0.477
 3168SOL    HW110403   4.904   2.134   0.558
 3168SOL    HW210404   4.976   2.005   0.490
 3169SOL     OW10405   1.902   4.567   1.916
 3169SOL    HW110406   1.803   4.558   1.932
 3169SOL    HW210407   1.918   4.592   1.821
 3170SOL     OW10408   2.764   4.857   3.116
 3170SOL    HW110409   2.759   4.957   3.121
 3170SOL    HW210410   2.817   4.822   3.193
 3171SOL     OW10411   5.051   2.708   3.373
 3171SOL    HW110412   5.051   2.611   3.347
 3171SOL    HW210413   4.969   2.729   3.425
 3172SOL     OW10414   6.922   4.581   1.451
 3172SOL    HW110415   6.936   4.678   1.470
 3172SOL    HW210416   6.966   4.526   1.522
 3173SOL     OW10417   3.793   2.761   0.654
 3173SOL    HW110418   3.764   2.717   0.740
 3173SOL    HW210419   3.724   2.745   0.584
 3174SOL     OW10420   2.828   3.822   5.898
 3174SOL    HW110421   2.750   3.857   5.950
 3174SOL    HW210422   2.851   3.887   5.825
 3175SOL     OW10423   6.166   0.655   4.148
 3175SOL    HW110424   6.173   0.555   4.154
 3175SOL    HW210425   6.257   0.694   4.133
 3176SOL     OW10426   1.145   4.760   5.117
 3176SOL    HW110427   1.165   4.712   5.032
 3176SOL    HW210428   1.229   4.799   5.154
 3177SOL     OW10429   5.452   3.200   3.717
 3177SOL    HW110430   5.401   3.131   3.768
 3177SOL    HW210431   5.452   3.286   3.768
 3178SOL     OW10432   0.141   0.320   0.976
 3178SOL    HW110433   0.107   0.414   0.967
 3178SOL    HW210434   0.116   0.284   1.066
 3179SOL     OW10435   1.267   1.741   2.205
 3179SOL    HW110436   1.222   1.801   2.271
 3179SOL    HW210437   1.356   1.713   2.241
 3180SOL     OW10438   6.618   5.952   0.130
 3180SOL    HW110439   6.608   5.959   0.229
 3180SOL    HW210440   6.667   5.868   0.108
 3181SOL     OW10441   1.003   0.309   4.881
 3181SOL    HW110442   0.914   0.300   4.837
 3181SOL    HW210443   1.061   0.231   4.856
 3182SOL     OW10444   3.023   0.986   0.867
 3182SOL    HW110445   2.958   0.980   0.791
 3182SOL    HW210446   3.110   0.945   0.838
 3183SOL     OW10447   4.067   4.434   1.667
 3183SOL    HW110448   3.990   4.404   1.612
 3183SOL    HW210449   4.139   4.364   1.666
 3184SOL     OW10450   0.145   1.951   5.714
 3184SOL    HW110451   0.187   2.013   5.648
 3184SOL    HW210452   0.071   1.900   5.669
 3185SOL     OW10453   0.567   5.526   6.225
 3185SOL    HW110454   0.592   5.520   6.128
 3185SOL    HW210455   0.532   5.437   6.255
 3186SOL     OW10456   7.018   1.451   6.415
 3186SOL    HW110457   0.047   1.431   6.500
 3186SOL    HW210458   6.931   1.495   6.435
 3187SOL     OW10459   4.079   6.042   2.377
 3187SOL    HW110460   4.102   6.099   2.456
 3187SOL    HW210461   4.097   5.946   2.398
 3188SOL     OW10462   2.126   4.794   5.637
 3188SOL    HW110463   2.191   4.805   5.712
 3188SOL    HW210464   2.172   4.812   5.550
 3189SOL     OW10465   3.387   1.735   6.242
 3189SOL    HW110466   3.342   1.816   6.281
 3189SOL    HW210467   3.474   1.719   6.289
 3190SOL     OW10468   6.131   5.620   5.062
 3190SOL    HW110469   6.155   5.588   4.971
 3190SOL    HW210470   6.215   5.645   5.111
 3191SOL     OW10471   4.468   5.571   1.961
 3191SOL    HW110472   4.391   5.564   1.898
 3191SOL    HW210473   4.525   5.489   1.952
 3192SOL     OW10474   6.345   2.350   2.191
 3192SOL    HW110475   6.429   2.320   2.144
 3192SOL    HW210476   6.337   2.449   2.182
 3193SOL     OW10477   4.024   0.368   5.450
 3193SOL    HW110478   4.048   0.276   5.483
 3193SOL    HW210479   4.025   0.432   5.527
 3194SOL     OW10480   1.345   1.104   6.321
 3194SOL    HW110481   1.307   1.113   6.228
 3194SOL    HW210482   1.328   1.012   6.355
 3195SOL     OW10483   0.405   2.045   1.663
 3195SOL    HW110484   0.483   2.019   1.606
 3195SOL    HW210485   0.321   2.006   1.625
 3196SOL     OW10486   6.497   0.124   4.576
 3196SOL    HW110487   6.486   0.042   4.632
 3196SOL    HW210488   6.410   0.174   4.573
 3197SOL     OW10489   1.695   0.914   6.478
 3197SOL    HW110490   1.673   0.996   6.424
 3197SOL    HW210491   1.722   0.941   6.570
 3198SOL     OW10492   5.968   3.005   3.220
 3198SOL    HW110493   5.950   3.102   3.208
 3198SOL    HW210494   6.067   2.988   3.221
 3199SOL     OW10495   5.897   4.320   3.359
 3199SOL    HW110496   5.847   4.362   3.284
 3199SOL    HW210497   5.833   4.294   3.431
 3200SOL     OW10498   5.611   3.238   4.146
 3200SOL    HW110499   5.666   3.314   4.110
 3200SOL    HW210500   5.520   3.271   4.168
 3201SOL     OW10501   5.935   4.328   2.900
 3201SOL    HW110502   5.944   4.346   2.802
 3201SOL    HW210503   5.972   4.405   2.952
 3202SOL     OW10504   1.470   4.378   0.022
 3202SOL    HW110505   1.539   4.425   6.987
 3202SOL    HW210506   1.402   4.444   0.055
 3203SOL     OW10507   3.899   0.187   1.018
 3203SOL    HW110508   3.894   0.205   0.919
 3203SOL    HW210509   3.923   0.271   1.066
 3204SOL     OW10510   2.779   1.453   3.763
 3204SOL    HW110511   2.808   1.485   3.854
 3204SOL    HW210512   2.710   1.382   3.773
 3205SOL     OW10513   5.714   3.308   5.474
 3205SOL    HW110514   5.645   3.380   5.464
 3205SOL    HW210515   5.678   3.222   5.437
 3206SOL     OW10516   2.694   3.099   1.709
 3206SOL    HW110517   2.695   3.142   1.619
 3206SOL    HW210518   2.787   3.086   1.742
 3207SOL     OW10519   0.862   6.003   5.344
 3207SOL    HW110520   0.803   6.078   5.375
 3207SOL    HW210521   0.919   5.972   5.420
 3208SOL     OW10522   6.201   5.059   6.110
 3208SOL    HW110523   6.116   5.106   6.132
 3208SOL    HW210524   6.184   4.991   6.039
 3209SOL     OW10525   4.939   5.778   6.570
 3209SOL    HW110526   4.883   5.857   6.544
 3209SOL    HW210527   4.947   5.774   6.669
 3210SOL     OW10528   6.597   5.373   1.538
 3210SOL    HW110529   6.657   5.297   1.512
 3210SOL    HW210530   6.503   5.350   1.516
 3211SOL     OW10531   0.578   5.237   6.526
 3211SOL    HW110532   0.522   5.266   6.449
 3211SOL    HW210533   0.674   5.238   6.499
 3212SOL     OW10534   2.349   0.119   3.122
 3212SOL    HW110535   2.257   0.103   3.086
 3212SOL    HW210536   2.348   0.111   3.221
 3213SOL     OW10537   1.482   0.634   6.058
 3213SOL    HW110538   1.470   0.581   6.142
 3213SOL    HW210539   1.551   0.704   6.072
 3214SOL     OW10540   3.453   0.739   2.614
 3214SOL    HW110541   3.369   0.730   2.560
 3214SOL    HW210542   3.431   0.728   2.711
 3215SOL     OW10543   1.536   3.354   1.024
 3215SOL    HW110544   1.610   3.311   0.973
 3215SOL    HW210545   1.527   3.450   0.995
 3216SOL     OW10546   5.690   4.485   0.467
 3216SOL    HW110547   5.696   4.418   0.540
 3216SOL    HW210548   5.602   4.477   0.421
 3217SOL     OW10549   1.000   5.297   3.341
 3217SOL    HW110550   0.904   5.302   3.368
 3217SOL    HW210551   1.016   5.214   3.288
 3218SOL     OW10552   6.352   0.880   3.161
 3218SOL    HW110553   6.315   0.931   3.239
 3218SOL    HW210554   6.444   0.913   3.141
 3219SOL     OW10555   6.261   0.640   5.580
 3219SOL    HW110556   6.179   0.596   5.543
 3219SOL    HW210557   6.234   0.720   5.633
 3220SOL     OW10558   6.767   4.818   6.904
 3220SOL    HW110559   6.782   4.735   6.849
 3220SOL    HW210560   6.670   4.842   6.901
 3221SOL     OW10561   3.734   0.502   1.652
 3221SOL    HW110562   3.730   0.579   1.716
 3221SOL    HW210563   3.750   0.417   1.702
 3222SOL     OW10564   3.245   1.153   3.211
 3222SOL    HW110565   3.227   1.243   3.251
 3222SOL    HW210566   3.229   1.156   3.113
 3223SOL     OW10567   1.245   0.048   0.907
 3223SOL    HW110568   1.255   0.061   0.808
 3223SOL    HW210569   1.171   7.002   0.923
 3224SOL     OW10570   4.094   2.027   4.260
 3224SOL    HW110571   4.016   1.966   4.246
 3224SOL    HW210572   4.078   2.084   4.340
 3225SOL     OW10573   4.261   0.416   4.154
 3225SOL    HW110574   4.212   0.356   4.217
 3225SOL    HW210575   4.337   0.460   4.201
 3226SOL     OW10576   0.431   0.140   1.227
 3226SOL    HW110577   0.333   0.135   1.248
 3226SOL    HW210578   0.456   0.235   1.208
 3227SOL     OW10579   4.825   3.786   5.293
 3227SOL    HW110580   4.811   3.728   5.213
 3227SOL    HW210581   4.874   3.736   5.363
 3228SOL     OW10582   1.822   4.212   0.367
 3228SOL    HW110583   1.906   4.264   0.351
 3228SOL    HW210584   1.749   4.247   0.308
 3229SOL     OW10585   2.022   1.501   0.790
 3229SOL    HW110586   2.080   1.569   0.835
 3229SOL    HW210587   1.926   1.530   0.797
 3230SOL     OW10588   2.234   5.785   5.927
 3230SOL    HW110589   2.148   5.762   5.971
 3230SOL    HW210590   2.274   5.701   5.888
 3231SOL     OW10591   2.600   0.711   1.682
 3231SOL    HW110592   2.645   0.654   1.612
 3231SOL    HW210593   2.592   0.805   1.648
 3232SOL     OW10594   4.099   5.645   3.994
 3232SOL    HW110595   4.134   5.643   3.900
 3232SOL    HW210596   4.054   5.733   4.011
 3233SOL     OW10597   0.256   2.220   0.393
 3233SOL    HW110598   0.174   2.208   0.336
 3233SOL    HW210599   0.336   2.232   0.334
 3234SOL     OW10600   2.540   3.165   0.765
 3234SOL    HW110601   2.524   3.163   0.667
 3234SOL    HW210602   2.453   3.178   0.813
 3235SOL     OW10603   0.522   6.802   2.149
 3235SOL    HW110604   0.447   6.829   2.090
 3235SOL    HW210605   0.606   6.849   2.121
 3236SOL     OW10606   3.117   3.427   0.231
 3236SOL    HW110607   3.199   3.400   0.281
 3236SOL    HW210608   3.139   3.500   0.167
 3237SOL     OW10609   5.748   1.112   5.053
 3237SOL    HW110610   5.748   1.025   5.003
 3237SOL    HW210611   5.765   1.187   4.989
 3238SOL     OW10612   6.941   5.469   1.638
 3238SOL    HW110613   6.948   5.523   1.722
 3238SOL    HW210614   7.004   5.506   1.570
 3239SOL     OW10615   6.755   0.012   4.075
 3239SOL    HW110616   6.674   0.005   4.134
 3239SOL    HW210617   6.815   0.085   4.108
 3240SOL     OW10618   0.135   1.014   6.875
 3240SOL    HW110619   0.235   1.015   6.873
 3240SOL    HW210620   0.100   0.988   6.785
 3241SOL     OW10621   5.763   1.709   6.112
 3241SOL    HW110622   5.757   1.640   6.039
 3241SOL    HW210623   5.707   1.788   6.087
 3242SOL     OW10624   5.084   4.631   5.239
 3242SOL    HW110625   4.990   4.616   5.270
 3242SOL    HW210626   5.129   4.543   5.224
 3243SOL     OW10627   5.451   5.047   5.396
 3243SOL    HW110628   5.353   5.066   5.405
 3243SOL    HW210629   5.487   5.092   5.314
 3244SOL     OW10630   5.324   6.323   0.202
 3244SOL    HW110631   5.307   6.411   0.158
 3244SOL    HW210632   5.382   6.336   0.282
 3245SOL     OW10633   4.217   1.415   4.234
 3245SOL    HW110634   4.171   1.488   4.183
 3245SOL    HW210635   4.316   1.429   4.228
 3246SOL     OW10636   7.015   0.721   2.695
 3246SOL    HW110637   0.013   0.736   2.792
 3246SOL    HW210638   0.071   0.757   2.641
 3247SOL     OW10639   0.640   4.053   3.187
 3247SOL    HW110640   0.611   3.963   3.154
 3247SOL    HW210641   0.675   4.045   3.281
 3248SOL     OW10642   5.564   2.266   3.189
 3248SOL    HW110643   5.558   2.358   3.152
 3248SOL    HW210644   5.472   2.231   3.209
 3249SOL     OW10645   2.916   3.505   3.446
 3249SOL    HW110646   2.900   3.427   3.506
 3249SOL    HW210647   3.014   3.512   3.426
 3250SOL     OW10648   5.115   5.280   2.401
 3250SOL    HW110649   5.022   5.244   2.398
 3250SOL    HW210650   5.180   5.205   2.391
 3251SOL     OW10651   2.777   1.077   3.651
 3251SOL    HW110652   2.735   1.026   3.575
 3251SOL    HW210653   2.760   1.028   3.737
 3252SOL     OW10654   2.326   1.204   3.790
 3252SOL    HW110655   2.272   1.271   3.739
 3252SOL    HW210656   2.267   1.157   3.855
 3253SOL     OW10657   6.534   3.633   0.776
 3253SOL    HW110658   6.451   3.677   0.811
 3253SOL    HW210659   6.509   3.552   0.723
 3254SOL     OW10660   6.003   0.542   0.834
 3254SOL    HW110661   6.013   0.460   0.890
 3254SOL    HW210662   6.079   0.547   0.769
 3255SOL     OW10663   4.953   5.190   1.017
 3255SOL    HW110664   4.928   5.161   0.925
 3255SOL    HW210665   5.047   5.223   1.017
 3256SOL     OW10666   5.074   2.124   0.834
 3256SOL    HW110667   5.160   2.094   0.792
 3256SOL    HW210668   5.038   2.052   0.892
 3257SOL     OW10669   2.552   2.004   3.100
 3257SOL    HW110670   2.549   1.962   3.009
 3257SOL    HW210671   2.501   2.090   3.099
 3258SOL     OW10672   2.215   6.196   3.263
 3258SOL    HW110673   2.181   6.239   3.179
 3258SOL    HW210674   2.255   6.107   3.241
 3259SOL     OW10675   4.532   4.550   3.920
 3259SOL    HW110676   4.566   4.609   3.847
 3259SOL    HW210677   4.583   4.464   3.921
 3260SOL     OW10678   1.165   4.499   2.005
 3260SOL    HW110679   1.095   4.503   2.076
 3260SOL    HW210680   1.166   4.407   1.965
 3261SOL     OW10681   4.807   6.981   3.000
 3261SOL    HW110682   4.844   6.925   3.074
 3261SOL    HW210683   4.875   0.030   2.974
 3262SOL     OW10684   3.122   2.000   2.402
 3262SOL    HW110685   3.040   1.953   2.434
 3262SOL    HW210686   3.106   2.036   2.310
 3263SOL     OW10687   1.284   1.474   2.615
 3263SOL    HW110688   1.228   1.417   2.556
 3263SOL    HW210689   1.373   1.431   2.628
 3264SOL     OW10690   2.373   5.917   0.598
 3264SOL    HW110691   2.451   5.958   0.551
 3264SOL    HW210692   2.382   5.933   0.697
 3265SOL     OW10693   5.314   4.825   5.647
 3265SOL    HW110694   5.345   4.818   5.552
 3265SOL    HW210695   5.338   4.741   5.696
 3266SOL     OW10696   3.174   5.151   6.324
 3266SOL    HW110697   3.192   5.217   6.251
 3266SOL    HW210698   3.157   5.061   6.284
 3267SOL     OW10699   4.168   6.968   0.397
 3267SOL    HW110700   4.246   6.960   0.334
 3267SOL    HW210701   4.181   0.028   0.456
 3268SOL     OW10702   6.612   5.075   1.917
 3268SOL    HW110703   6.536   5.017   1.886
 3268SOL    HW210704   6.583   5.128   1.997
 3269SOL     OW10705   1.867   5.096   2.434
 3269SOL    HW110706   1.850   5.184   2.389
 3269SOL    HW210707   1.956   5.061   2.405
 3270SOL     OW10708   0.530   2.548   5.323
 3270SOL    HW110709   0.543   2.496   5.239
 3270SOL    HW210710   0.593   2.625   5.325
 3271SOL     OW10711   0.719   3.521   2.523
 3271SOL    HW110712   0.681   3.521   2.615
 3271SOL    HW210713   0.803   3.576   2.522
 3272SOL     OW10714   4.500   6.590   0.340
 3272SOL    HW110715   4.478   6.500   0.302
 3272SOL    HW210716   4.598   6.606   0.334
 3273SOL     OW10717   4.702   2.451   6.651
 3273SOL    HW110718   4.732   2.546   6.639
 3273SOL    HW210719   4.640   2.445   6.729
 3274SOL     OW10720   5.468   0.457   0.062
 3274SOL    HW110721   5.386   0.485   0.112
 3274SOL    HW210722   5.539   0.428   0.127
 3275SOL     OW10723   4.733   0.230   0.970
 3275SOL    HW110724   4.735   0.327   0.995
 3275SOL    HW210725   4.692   0.177   1.045
 3276SOL     OW10726   4.873   6.791   0.057
 3276SOL    HW110727   4.815   6.747   7.009
 3276SOL    HW210728   4.959   6.819   0.014
 3277SOL     OW10729   3.580   1.845   2.412
 3277SOL    HW110730   3.596   1.758   2.365
 3277SOL    HW210731   3.646   1.913   2.379
 3278SOL     OW10732   6.850   0.002   6.910
 3278SOL    HW110733   6.896   6.940   6.944
 3278SOL    HW210734   6.907   0.045   6.839
 3279SOL     OW10735   3.733   6.907   1.019
 3279SOL    HW110736   3.637   6.936   1.019
 3279SOL    HW210737   3.792   6.988   1.020
 3280SOL     OW10738   5.561   3.514   4.700
 3280SOL    HW110739   5.472   3.521   4.744
 3280SOL    HW210740   5.608   3.431   4.732
 3281SOL     OW10741   6.176   3.507   1.505
 3281SOL    HW110742   6.195   3.603   1.484
 3281SOL    HW210743   6.154   3.457   1.421
 3282SOL     OW10744   0.311   4.327   4.630
 3282SOL    HW110745   0.225   4.354   4.588
 3282SOL    HW210746   0.367   4.278   4.564
 3283SOL     OW10747   3.897   1.654   0.937
 3283SOL    HW110748   3.958   1.733   0.933
 3283SOL    HW210749   3.832   1.666   1.012
 3284SOL     OW10750   1.411   5.723   4.532
 3284SOL    HW110751   1.440   5.714   4.627
 3284SOL    HW210752   1.435   5.641   4.481
 3285SOL     OW10753   4.847   1.127   4.884
 3285SOL    HW110754   4.883   1.162   4.971
 3285SOL    HW210755   4.911   1.150   4.810
 3286SOL     OW10756   2.985   1.294   1.154
 3286SOL    HW110757   2.926   1.353   1.210
 3286SOL    HW210758   2.940   1.206   1.139
 3287SOL     OW10759   2.408   0.467   6.508
 3287SOL    HW110760   2.444   0.556   6.537
 3287SOL    HW210761   2.361   0.478   6.420
 3288SOL     OW10762   1.763   6.771   1.269
 3288SOL    HW110763   1.814   6.817   1.341
 3288SOL    HW210764   1.665   6.786   1.283
 3289SOL     OW10765   3.869   1.672   6.674
 3289SOL    HW110766   3.770   1.684   6.676
 3289SOL    HW210767   3.906   1.707   6.588
 3290SOL     OW10768   6.627   4.815   0.871
 3290SOL    HW110769   6.554   4.757   0.907
 3290SOL    HW210770   6.588   4.899   0.834
 3291SOL     OW10771   4.917   6.955   5.091
 3291SOL    HW110772   4.939   6.984   4.997
 3291SOL    HW210773   4.969   7.012   5.156
 3292SOL     OW10774   6.920   2.197   1.500
 3292SOL    HW110775   6.882   2.211   1.409
 3292SOL    HW210776   7.001   2.138   1.494
 3293SOL     OW10777   6.145   5.009   3.091
 3293SOL    HW110778   6.206   4.989   3.168
 3293SOL    HW210779   6.198   5.003   3.006
 3294SOL     OW10780   4.932   2.541   5.022
 3294SOL    HW110781   4.883   2.608   5.078
 3294SOL    HW210782   4.882   2.527   4.936
 3295SOL     OW10783   1.618   3.153   2.195
 3295SOL    HW110784   1.683   3.169   2.120
 3295SOL    HW210785   1.634   3.062   2.233
 3296SOL     OW10786   1.158   0.007   6.371
 3296SOL    HW110787   1.248   6.997   6.340
 3296SOL    HW210788   1.110   6.951   6.415
 3297SOL     OW10789   2.943   1.872   4.717
 3297SOL    HW110790   3.013   1.942   4.732
 3297SOL    HW210791   2.979   1.783   4.745
 3298SOL     OW10792   5.520   4.368   5.453
 3298SOL    HW110793   5.604   4.343   5.503
 3298SOL    HW210794   5.448   4.302   5.472
 3299SOL     OW10795   2.799   4.907   4.658
 3299SOL    HW110796   2.824   4.930   4.564
 3299SOL    HW210797   2.749   4.821   4.659
 3300SOL     OW10798   1.949   6.986   4.436
 3300SOL    HW110799   1.908   7.018   4.521
 3300SOL    HW210800   2.025   0.027   4.411
 3301SOL     OW10801   2.062   2.224   3.461
 3301SOL    HW110802   2.093   2.129   3.457
 3301SOL    HW210803   2.067   2.265   3.370
 3302SOL     OW10804   2.327   5.047   6.237
 3302SOL    HW110805   2.370   5.000   6.160
 3302SOL    HW210806   2.310   5.142   6.213
 3303SOL     OW10807   3.360   3.315   0.249
 3303SOL    HW110808   3.416   3.340   0.328
 3303SOL    HW210809   3.327   3.221   0.260
 3304SOL     OW10810   2.764   4.719   6.089
 3304SOL    HW110811   2.788   4.625   6.066
 3304SOL    HW210812   2.768   4.731   6.189
 3305SOL     OW10813   3.431   1.348   0.509
 3305SOL    HW110814   3.486   1.366   0.427
 3305SOL    HW210815   3.430   1.250   0.528
 3306SOL     OW10816   1.857   0.702   0.380
 3306SOL    HW110817   1.819   0.609   0.384
 3306SOL    HW210818   1.863   0.740   0.472
 3307SOL     OW10819   1.388   0.242   4.781
 3307SOL    HW110820   1.294   0.218   4.804
 3307SOL    HW210821   1.388   0.303   4.701
 3308SOL     OW10822   3.729   4.428   1.136
 3308SOL    HW110823   3.647   4.455   1.087
 3308SOL    HW210824   3.753   4.497   1.204
 3309SOL     OW10825   5.735   3.516   3.657
 3309SOL    HW110826   5.638   3.531   3.639
 3309SOL    HW210827   5.760   3.422   3.634
 3310SOL     OW10828   6.630   5.325   5.687
 3310SOL    HW110829   6.676   5.305   5.601
 3310SOL    HW210830   6.604   5.421   5.689
 3311SOL     OW10831   3.485   3.712   0.265
 3311SOL    HW110832   3.510   3.808   0.256
 3311SOL    HW210833   3.461   3.675   0.175
 3312SOL     OW10834   4.683   2.663   5.965
 3312SOL    HW110835   4.753   2.713   5.914
 3312SOL    HW210836   4.628   2.609   5.901
 3313SOL     OW10837   1.553   0.613   3.468
 3313SOL    HW110838   1.455   0.615   3.491
 3313SOL    HW210839   1.567   0.550   3.391
 3314SOL     OW10840   2.250   5.812   2.318
 3314SOL    HW110841   2.180   5.800   2.388
 3314SOL    HW210842   2.339   5.786   2.355
 3315SOL     OW10843   6.789   4.746   5.386
 3315SOL    HW110844   6.853   4.697   5.445
 3315SOL    HW210845   6.789   4.843   5.409
 3316SOL     OW10846   3.207   1.679   6.042
 3316SOL    HW110847   3.181   1.583   6.049
 3316SOL    HW210848   3.282   1.698   6.105
 3317SOL     OW10849   5.558   2.376   2.871
 3317SOL    HW110850   5.466   2.336   2.867
 3317SOL    HW210851   5.580   2.400   2.965
 3318SOL     OW10852   3.091   2.591   0.558
 3318SOL    HW110853   3.169   2.619   0.614
 3318SOL    HW210854   3.122   2.525   0.489
 3319SOL     OW10855   6.804   6.540   3.300
 3319SOL    HW110856   6.894   6.560   3.338
 3319SOL    HW210857   6.733   6.574   3.361
 3320SOL     OW10858   6.485   0.278   0.924
 3320SOL    HW110859   6.538   0.204   0.966
 3320SOL    HW210860   6.446   0.246   0.838
 3321SOL     OW10861   5.223   1.378   0.082
 3321SOL    HW110862   5.263   1.289   0.106
 3321SOL    HW210863   5.140   1.392   0.137
 3322SOL     OW10864   0.185   3.959   1.203
 3322SOL    HW110865   0.187   3.987   1.298
 3322SOL    HW210866   0.165   4.038   1.145
 3323SOL     OW10867   1.604   1.631   2.075
 3323SOL    HW110868   1.687   1.677   2.042
 3323SOL    HW210869   1.580   1.667   2.166
 3324SOL     OW10870   5.277   5.374   5.845
 3324SOL    HW110871   5.351   5.353   5.781
 3324SOL    HW210872   5.231   5.457   5.815
 3325SOL     OW10873   1.684   3.682   6.820
 3325SOL    HW110874   1.593   3.677   6.779
 3325SOL    HW210875   1.679   3.659   6.917
 3326SOL     OW10876   4.667   1.224   2.847
 3326SOL    HW110877   4.633   1.203   2.938
 3326SOL    HW210878   4.767   1.226   2.849
 3327SOL     OW10879   1.384   6.170   1.513
 3327SOL    HW110880   1.336   6.228   1.447
 3327SOL    HW210881   1.318   6.128   1.575
 3328SOL     OW10882   4.563   2.362   0.541
 3328SOL    HW110883   4.543   2.338   0.636
 3328SOL    HW210884   4.502   2.436   0.512
 3329SOL     OW10885   5.876   5.384   5.977
 3329SOL    HW110886   5.810   5.456   5.957
 3329SOL    HW210887   5.837   5.295   5.955
 3330SOL     OW10888   6.133   3.551   2.547
 3330SOL    HW110889   6.207   3.601   2.502
 3330SOL    HW210890   6.156   3.453   2.548
 3331SOL     OW10891   2.050   2.816   1.672
 3331SOL    HW110892   1.967   2.777   1.634
 3331SOL    HW210893   2.111   2.742   1.700
 3332SOL     OW10894   6.096   4.489   0.607
 3332SOL    HW110895   6.071   4.528   0.696
 3332SOL    HW210896   6.195   4.476   0.603
 3333SOL     OW10897   4.191   5.167   5.555
 3333SOL    HW110898   4.229   5.191   5.465
 3333SOL    HW210899   4.100   5.126   5.543
 3334SOL     OW10900   2.468   4.308   1.816
 3334SOL    HW110901   2.523   4.244   1.763
 3334SOL    HW210902   2.371   4.287   1.804
 3335SOL     OW10903   4.858   4.511   5.410
 3335SOL    HW110904   4.781   4.504   5.473
 3335SOL    HW210905   4.913   4.428   5.416
 3336SOL     OW10906   3.777   5.142   6.143
 3336SOL    HW110907   3.729   5.091   6.214
 3336SOL    HW210908   3.735   5.232   6.132
 3337SOL     OW10909   3.273   2.499   1.268
 3337SOL    HW110910   3.338   2.503   1.343
 3337SOL    HW210911   3.317   2.454   1.189
 3338SOL     OW10912   0.149   4.068   0.764
 3338SOL    HW110913   0.170   3.971   0.776
 3338SOL    HW210914   0.214   4.123   0.815
 3339SOL     OW10915   6.927   5.632   6.560
 3339SOL    HW110916   6.835   5.593   6.550
 3339SOL    HW210917   6.932   5.681   6.647
 3340SOL     OW10918   3.424   6.264   1.296
 3340SOL    HW110919   3.344   6.320   1.278
 3340SOL    HW210920   3.452   6.274   1.391
 3341SOL     OW10921   0.942   0.943   2.853
 3341SOL    HW110922   0.984   0.990   2.776
 3341SOL    HW210923   0.969   0.988   2.939
 3342SOL     OW10924   2.133   6.625   4.117
 3342SOL    HW110925   2.079   6.665   4.042
 3342SOL    HW210926   2.167   6.535   4.088
 3343SOL     OW10927   5.234   2.973   0.714
 3343SOL    HW110928   5.318   3.008   0.672
 3343SOL    HW210929   5.214   2.882   0.677
 3344SOL     OW10930   6.488   3.139   6.073
 3344SOL    HW110931   6.475   3.128   6.172
 3344SOL    HW210932   6.413   3.194   6.036
 3345SOL     OW10933   2.947   3.236   6.341
 3345SOL    HW110934   2.932   3.309   6.274
 3345SOL    HW210935   2.920   3.148   6.301
 3346SOL     OW10936   0.367   0.469   1.502
 3346SOL    HW110937   0.433   0.408   1.544
 3346SOL    HW210938   0.414   0.552   1.471
 3347SOL     OW10939   5.694   3.715   4.889
 3347SOL    HW110940   5.717   3.629   4.934
 3347SOL    HW210941   5.617   3.700   4.826
 3348SOL     OW10942   3.677   2.886   4.191
 3348SOL    HW110943   3.742   2.955   4.160
 3348SOL    HW210944   3.703   2.854   4.282
 3349SOL     OW10945   6.093   3.681   4.379
 3349SOL    HW110946   6.006   3.681   4.329
 3349SOL    HW210947   6.075   3.671   4.477
 3350SOL     OW10948   1.594   1.007   1.031
 3350SOL    HW110949   1.607   1.005   0.932
 3350SOL    HW210950   1.500   1.035   1.051
 3351SOL     OW10951   5.044   1.953   1.338
 3351SOL    HW110952   5.027   2.015   1.415
 3351SOL    HW210953   5.083   1.868   1.372
 3352SOL     OW10954   0.711   3.075   0.751
 3352SOL    HW110955   0.739   3.169   0.771
 3352SOL    HW210956   0.623   3.055   0.793
 3353SOL     OW10957   2.011   6.934   6.243
 3353SOL    HW110958   2.075   6.860   6.262
 3353SOL    HW210959   1.954   6.951   6.324
 3354SOL     OW10960   0.534   2.902   3.683
 3354SOL    HW110961   0.592   2.830   3.721
 3354SOL    HW210962   0.442   2.894   3.722
 3355SOL     OW10963   6.672   1.181   2.220
 3355SOL    HW110964   6.703   1.170   2.314
 3355SOL    HW210965   6.576   1.154   2.213
 3356SOL     OW10966   2.722   3.840   0.346
 3356SOL    HW110967   2.741   3.827   0.444
 3356SOL    HW210968   2.700   3.751   0.305
 3357SOL     OW10969   2.895   5.215   2.157
 3357SOL    HW110970   2.866   5.305   2.123
 3357SOL    HW210971   2.953   5.228   2.238
 3358SOL     OW10972   5.004   5.668   2.336
 3358SOL    HW110973   5.069   5.605   2.293
 3358SOL    HW210974   4.970   5.627   2.421
 3359SOL     OW10975   1.925   0.766   2.803
 3359SOL    HW110976   1.845   0.725   2.759
 3359SOL    HW210977   2.002   0.703   2.797
 3360SOL     OW10978   0.780   0.769   0.299
 3360SOL    HW110979   0.728   0.701   0.247
 3360SOL    HW210980   0.855   0.803   0.242
 3361SOL     OW10981   6.142   6.372   3.116
 3361SOL    HW110982   6.102   6.460   3.090
 3361SOL    HW210983   6.083   6.298   3.084
 3362SOL     OW10984   2.179   1.123   5.501
 3362SOL    HW110985   2.231   1.208   5.512
 3362SOL    HW210986   2.081   1.144   5.497
 3363SOL     OW10987   6.793   1.869   0.101
 3363SOL    HW110988   6.730   1.946   0.111
 3363SOL    HW210989   6.743   1.790   0.067
 3364SOL     OW10990   1.952   5.219   6.207
 3364SOL    HW110991   1.926   5.229   6.111
 3364SOL    HW210992   1.919   5.131   6.242
 3365SOL     OW10993   6.072   2.085   4.793
 3365SOL    HW110994   6.001   2.024   4.760
 3365SOL    HW210995   6.065   2.174   4.747
 3366SOL     OW10996   5.561   0.796   5.564
 3366SOL    HW110997   5.471   0.822   5.527
 3366SOL    HW210998   5.548   0.745   5.649
 3367SOL     OW10999   1.544   1.377   2.723
 3367SOL    HW111000   1.618   1.444   2.732
 3367SOL    HW211001   1.540   1.322   2.807
 3368SOL     OW11002   6.203   5.807   6.360
 3368SOL    HW111003   6.190   5.804   6.261
 3368SOL    HW211004   6.293   5.846   6.381
 3369SOL     OW11005   4.079   0.470   0.063
 3369SOL    HW111006   4.120   0.549   0.018
 3369SOL    HW211007   4.132   0.388   0.040
 3370SOL     OW11008   6.210   6.611   5.519
 3370SOL    HW111009   6.213   6.704   5.557
 3370SOL    HW211010   6.117   6.576   5.524
 3371SOL     OW11011   0.614   5.358   2.265
 3371SOL    HW111012   0.584   5.440   2.313
 3371SOL    HW211013   0.584   5.362   2.170
 3372SOL     OW11014   0.996   0.461   2.957
 3372SOL    HW111015   1.077   0.408   2.936
 3372SOL    HW211016   0.914   0.409   2.931
 3373SOL     OW11017   6.501   2.183   5.058
 3373SOL    HW111018   6.422   2.124   5.039
 3373SOL    HW211019   6.585   2.129   5.052
 3374SOL     OW11020   2.859   5.178   5.786
 3374SOL    HW111021   2.843   5.091   5.834
 3374SOL    HW211022   2.942   5.170   5.730
 3375SOL     OW11023   4.720   4.625   5.205
 3375SOL    HW111024   4.730   4.573   5.120
 3375SOL    HW211025   4.771   4.579   5.278
 3376SOL     OW11026   3.284   3.581   2.199
 3376SOL    HW111027   3.278   3.659   2.136
 3376SOL    HW211028   3.380   3.563   2.221
 3377SOL     OW11029   1.430   6.387   5.469
 3377SOL    HW111030   1.497   6.411   5.539
 3377SOL    HW211031   1.372   6.466   5.449
 3378SOL     OW11032   6.859   1.559   1.230
 3378SOL    HW111033   6.952   1.584   1.258
 3378SOL    HW211034   6.847   1.575   1.132
 3379SOL     OW11035   0.497   4.518   5.696
 3379SOL    HW111036   0.523   4.597   5.639
 3379SOL    HW211037   0.443   4.455   5.642
 3380SOL     OW11038   6.708   4.284   6.734
 3380SOL    HW111039   6.716   4.294   6.833
 3380SOL    HW211040   6.799   4.270   6.695
 3381SOL     OW11041   3.370   2.670   0.541
 3381SOL    HW111042   3.327   2.708   0.459
 3381SOL    HW211043   3.425   2.741   0.585
 3382SOL     OW11044   0.306   1.716   1.127
 3382SOL    HW111045   0.373   1.657   1.172
 3382SOL    HW211046   0.322   1.715   1.028
 3383SOL     OW11047   5.835   5.004   2.639
 3383SOL    HW111048   5.874   4.947   2.567
 3383SOL    HW211049   5.821   5.096   2.603
 3384SOL     OW11050   3.684   2.862   4.498
 3384SOL    HW111051   3.637   2.774   4.499
 3384SOL    HW211052   3.696   2.895   4.592
 3385SOL     OW11053   6.410   3.953   3.659
 3385SOL    HW111054   6.480   3.933   3.590
 3385SOL    HW211055   6.364   3.869   3.686
 3386SOL     OW11056   6.009   4.742   5.202
 3386SOL    HW111057   5.930   4.735   5.264
 3386SOL    HW211058   6.069   4.815   5.232
 3387SOL     OW11059   2.359   1.903   3.269
 3387SOL    HW111060   2.358   1.806   3.244
 3387SOL    HW211061   2.432   1.949   3.218
 3388SOL     OW11062   5.619   1.949   1.372
 3388SOL    HW111063   5.534   2.000   1.384
 3388SOL    HW211064   5.644   1.949   1.275
 3389SOL     OW11065   5.004   4.861   3.524
 3389SOL    HW111066   4.929   4.872   3.589
 3389SOL    HW211067   5.002   4.768   3.487
 3390SOL     OW11068   4.959   3.051   5.475
 3390SOL    HW111069   4.873   3.060   5.425
 3390SOL    HW211070   4.952   2.973   5.538
 3391SOL     OW11071   3.784   2.136   4.816
 3391SOL    HW111072   3.774   2.188   4.901
 3391SOL    HW211073   3.880   2.136   4.788
 3392SOL     OW11074   3.362   0.599   4.011
 3392SOL    HW111075   3.374   0.501   4.027
 3392SOL    HW211076   3.266   0.619   3.991
 3393SOL     OW11077   6.855   6.403   6.785
 3393SOL    HW111078   6.933   6.465   6.777
 3393SOL    HW211079   6.808   6.417   6.872
 3394SOL     OW11080   5.911   2.571   1.253
 3394SOL    HW111081   5.887   2.559   1.157
 3394SOL    HW211082   5.869   2.498   1.307
 3395SOL     OW11083   0.875   3.048   4.313
 3395SOL    HW111084   0.813   3.017   4.241
 3395SOL    HW211085   0.909   2.969   4.364
 3396SOL     OW11086   0.143   3.855   3.868
 3396SOL    HW111087   0.220   3.918   3.866
 3396SOL    HW211088   0.177   3.761   3.868
 3397SOL     OW11089   3.654   6.366   6.060
 3397SOL    HW111090   3.695   6.310   6.132
 3397SOL    HW211091   3.644   6.311   5.977
 3398SOL     OW11092   1.283   6.954   4.267
 3398SOL    HW111093   1.367   6.955   4.213
 3398SOL    HW211094   1.257   6.860   4.288
 3399SOL     OW11095   5.188   4.803   3.816
 3399SOL    HW111096   5.253   4.736   3.852
 3399SOL    HW211097   5.233   4.859   3.746
 3400SOL     OW11098   4.884   2.273   6.606
 3400SOL    HW111099   4.817   2.343   6.633
 3400SOL    HW211100   4.940   2.248   6.685
 3401SOL     OW11101   6.027   4.235   0.519
 3401SOL    HW111102   5.927   4.233   0.517
 3401SOL    HW211103   6.058   4.328   0.539
 3402SOL     OW11104   5.156   5.782   0.954
 3402SOL    HW111105   5.136   5.864   1.008
 3402SOL    HW211106   5.103   5.705   0.990
 3403SOL     OW11107   3.676   0.631   4.887
 3403SOL    HW111108   3.744   0.664   4.952
 3403SOL    HW211109   3.640   0.709   4.835
 3404SOL     OW11110   4.924   1.158   0.437
 3404SOL    HW111111   4.907   1.204   0.525
 3404SOL    HW211112   5.004   1.100   0.445
 3405SOL     OW11113   6.574   3.710   6.638
 3405SOL    HW111114   6.646   3.647   6.610
 3405SOL    HW211115   6.614   3.785   6.691
 3406SOL     OW11116   2.197   3.989   2.399
 3406SOL    HW111117   2.294   3.979   2.380
 3406SOL    HW211118   2.146   3.919   2.349
 3407SOL     OW11119   1.061   5.502   1.950
 3407SOL    HW111120   1.120   5.482   2.028
 3407SOL    HW211121   0.969   5.525   1.984
 3408SOL     OW11122   5.190   4.175   2.214
 3408SOL    HW111123   5.125   4.244   2.181
 3408SOL    HW211124   5.189   4.174   2.314
 3409SOL     OW11125   3.425   0.041   5.927
 3409SOL    HW111126   3.450   0.024   5.831
 3409SOL    HW211127   3.397   6.975   5.969
 3410SOL     OW11128   6.634   6.345   0.314
 3410SOL    HW111129   6.644   6.398   0.399
 3410SOL    HW211130   6.683   6.392   0.240
 3411SOL     OW11131   4.379   1.491   2.724
 3411SOL    HW111132   4.430   1.444   2.652
 3411SOL    HW211133   4.434   1.567   2.759
 3412SOL     OW11134   3.544   4.249   0.116
 3412SOL    HW111135   3.522   4.217   0.208
 3412SOL    HW211136   3.491   4.331   0.096
 3413SOL     OW11137   3.832   1.444   3.486
 3413SOL    HW111138   3.832   1.462   3.387
 3413SOL    HW211139   3.747   1.398   3.512
 3414SOL     OW11140   2.929   2.360   5.282
 3414SOL    HW111141   2.863   2.401   5.219
 3414SOL    HW211142   3.022   2.385   5.252
 3415SOL     OW11143   0.639   4.774   4.168
 3415SOL    HW111144   0.716   4.710   4.167
 3415SOL    HW211145   0.671   4.865   4.145
 3416SOL     OW11146   0.540   5.061   5.236
 3416SOL    HW111147   0.487   4.983   5.203
 3416SOL    HW211148   0.634   5.032   5.253
 3417SOL     OW11149   6.956   6.927   2.585
 3417SOL    HW111150   6.905   6.975   2.513
 3417SOL    HW211151   0.034   6.946   2.574
 3418SOL     OW11152   2.793   1.569   5.270
 3418SOL    HW111153   2.837   1.623   5.199
 3418SOL    HW211154   2.745   1.491   5.229
 3419SOL     OW11155   4.120   4.614   6.644
 3419SOL    HW111156   4.023   4.626   6.665
 3419SOL    HW211157   4.150   4.688   6.584
 3420SOL     OW11158   4.624   2.269   3.860
 3420SOL    HW111159   4.569   2.353   3.857
 3420SOL    HW211160   4.575   2.196   3.813
 3421SOL     OW11161   0.188   5.896   5.878
 3421SOL    HW111162   0.231   5.853   5.799
 3421SOL    HW211163   0.112   5.839   5.910
 3422SOL     OW11164   3.632   0.759   1.375
 3422SOL    HW111165   3.561   0.691   1.394
 3422SOL    HW211166   3.660   0.752   1.279
 3423SOL     OW11167   2.392   1.264   0.857
 3423SOL    HW111168   2.323   1.289   0.789
 3423SOL    HW211169   2.442   1.346   0.886
 3424SOL     OW11170   4.293   1.233   2.378
 3424SOL    HW111171   4.393   1.235   2.377
 3424SOL    HW211172   4.261   1.203   2.467
 3425SOL     OW11173   4.746   4.404   2.058
 3425SOL    HW111174   4.648   4.383   2.057
 3425SOL    HW211175   4.776   4.416   2.152
 3426SOL     OW11176   4.111   3.642   0.515
 3426SOL    HW111177   4.177   3.691   0.572
 3426SOL    HW211178   4.077   3.703   0.443
 3427SOL     OW11179   6.932   1.054   0.293
 3427SOL    HW111180   6.902   0.974   0.243
 3427SOL    HW211181   0.012   1.055   0.298
 3428SOL     OW11182   4.126   4.801   2.428
 3428SOL    HW111183   4.114   4.790   2.329
 3428SOL    HW211184   4.038   4.792   2.474
 3429SOL     OW11185   1.224   3.264   0.661
 3429SOL    HW111186   1.139   3.290   0.616
 3429SOL    HW211187   1.292   3.239   0.592
 3430SOL     OW11188   1.786   6.789   0.612
 3430SOL    HW111189   1.794   6.885   0.586
 3430SOL    HW211190   1.767   6.734   0.531
 3431SOL     OW11191   1.573   6.058   1.145
 3431SOL    HW111192   1.581   6.033   1.048
 3431SOL    HW211193   1.660   6.043   1.191
 3432SOL     OW11194   3.517   1.342   5.666
 3432SOL    HW111195   3.586   1.359   5.736
 3432SOL    HW211196   3.561   1.332   5.577
 3433SOL     OW11197   3.410   1.193   5.092
 3433SOL    HW111198   3.402   1.269   5.156
 3433SOL    HW211199   3.331   1.133   5.101
 3434SOL     OW11200   4.442   2.681   1.683
 3434SOL    HW111201   4.528   2.726   1.708
 3434SOL    HW211202   4.459   2.586   1.659
 3435SOL     OW11203   0.116   2.224   2.233
 3435SOL    HW111204   0.077   2.253   2.146
 3435SOL    HW211205   0.153   2.132   2.225
 3436SOL     OW11206   4.665   6.941   4.979
 3436SOL    HW111207   4.639   6.883   4.901
 3436SOL    HW211208   4.758   6.918   5.008
 3437SOL     OW11209   4.191   0.105   4.964
 3437SOL    HW111210   4.273   0.074   5.012
 3437SOL    HW211211   4.218   0.161   4.885
 3438SOL     OW11212   1.419   2.882   6.338
 3438SOL    HW111213   1.354   2.925   6.400
 3438SOL    HW211214   1.438   2.944   6.262
 3439SOL     OW11215   2.774   7.005   4.865
 3439SOL    HW111216   2.750   0.030   4.779
 3439SOL    HW211217   2.872   6.986   4.867
 3440SOL     OW11218   4.614   3.229   1.000
 3440SOL    HW111219   4.640   3.246   0.905
 3440SOL    HW211220   4.650   3.140   1.029
 3441SOL     OW11221   3.748   6.866   4.010
 3441SOL    HW111222   3.792   6.778   3.993
 3441SOL    HW211223   3.765   6.927   3.933
 3442SOL     OW11224   2.071   5.176   3.299
 3442SOL    HW111225   2.110   5.266   3.279
 3442SOL    HW211226   2.069   5.162   3.398
 3443SOL     OW11227   5.578   1.850   3.028
 3443SOL    HW111228   5.647   1.779   3.043
 3443SOL    HW211229   5.522   1.860   3.110
 3444SOL     OW11230   5.015   5.122   6.782
 3444SOL    HW111231   4.919   5.114   6.756
 3444SOL    HW211232   5.021   5.148   6.878
 3445SOL     OW11233   6.244   4.494   3.889
 3445SOL    HW111234   6.262   4.590   3.867
 3445SOL    HW211235   6.231   4.484   3.988
 3446SOL     OW11236   4.413   0.432   2.813
 3446SOL    HW111237   4.441   0.355   2.756
 3446SOL    HW211238   4.408   0.514   2.756
 3447SOL     OW11239   5.968   5.856   0.267
 3447SOL    HW111240   5.908   5.804   0.206
 3447SOL    HW211241   6.063   5.826   0.255
 3448SOL     OW11242   3.097   0.941   1.148
 3448SOL    HW111243   3.017   0.969   1.096
 3448SOL    HW211244   3.077   0.857   1.198
 3449SOL     OW11245   6.903   7.013   2.189
 3449SOL    HW111246   6.859   0.032   2.269
 3449SOL    HW211247   6.999   6.994   2.209
 3450SOL     OW11248   1.231   1.685   1.667
 3450SOL    HW111249   1.207   1.782   1.663
 3450SOL    HW211250   1.328   1.674   1.648
 3451SOL     OW11251   1.533   5.484   3.897
 3451SOL    HW111252   1.434   5.473   3.892
 3451SOL    HW211253   1.556   5.580   3.914
 3452SOL     OW11254   6.287   1.110   0.156
 3452SOL    HW111255   6.280   1.049   0.235
 3452SOL    HW211256   6.288   1.056   0.072
 3453SOL     OW11257   5.281   5.614   5.035
 3453SOL    HW111258   5.306   5.600   4.939
 3453SOL    HW211259   5.275   5.526   5.081
 3454SOL     OW11260   1.221   1.413   1.019
 3454SOL    HW111261   1.233   1.364   0.933
 3454SOL    HW211262   1.175   1.354   1.085
 3455SOL     OW11263   1.319   2.979   4.395
 3455SOL    HW111264   1.402   2.924   4.394
 3455SOL    HW211265   1.266   2.961   4.312
 3456SOL     OW11266   5.661   6.773   1.489
 3456SOL    HW111267   5.685   6.678   1.512
 3456SOL    HW211268   5.669   6.786   1.390
 3457SOL     OW11269   2.778   5.018   3.471
 3457SOL    HW111270   2.873   4.987   3.481
 3457SOL    HW211271   2.772   5.114   3.498
 3458SOL     OW11272   6.042   6.727   0.211
 3458SOL    HW111273   5.950   6.743   0.245
 3458SOL    HW211274   6.073   6.636   0.240
 3459SOL     OW11275   0.447   4.276   3.555
 3459SOL    HW111276   0.495   4.295   3.469
 3459SOL    HW211277   0.459   4.180   3.579
 3460SOL     OW11278   3.315   2.751   0.071
 3460SOL    HW111279   3.232   2.751   0.014
 3460SOL    HW211280   3.365   2.836   0.055
 3461SOL     OW11281   3.662   5.248   4.678
 3461SOL    HW111282   3.669   5.149   4.691
 3461SOL    HW211283   3.730   5.279   4.611
 3462SOL     OW11284   5.400   3.374   2.854
 3462SOL    HW111285   5.363   3.347   2.943
 3462SOL    HW211286   5.493   3.341   2.845
 3463SOL     OW11287   1.803   3.163   2.005
 3463SOL    HW111288   1.898   3.193   1.999
 3463SOL    HW211289   1.753   3.193   1.923
 3464SOL     OW11290   5.198   3.101   6.513
 3464SOL    HW111291   5.179   3.030   6.445
 3464SOL    HW211292   5.191   3.191   6.471
 3465SOL     OW11293   2.134   3.745   1.876
 3465SOL    HW111294   2.178   3.668   1.923
 3465SOL    HW211295   2.110   3.719   1.783
 3466SOL     OW11296   5.525   4.427   5.055
 3466SOL    HW111297   5.440   4.438   5.107
 3466SOL    HW211298   5.542   4.330   5.040
 3467SOL     OW11299   2.937   2.675   0.901
 3467SOL    HW111300   2.934   2.594   0.842
 3467SOL    HW211301   2.860   2.673   0.965
 3468SOL     OW11302   4.797   1.248   1.191
 3468SOL    HW111303   4.736   1.174   1.218
 3468SOL    HW211304   4.820   1.303   1.271
 3469SOL     OW11305   4.651   6.854   5.968
 3469SOL    HW111306   4.690   6.895   6.051
 3469SOL    HW211307   4.617   6.925   5.907
 3470SOL     OW11308   0.308   2.455   1.167
 3470SOL    HW111309   0.341   2.440   1.074
 3470SOL    HW211310   0.367   2.520   1.214
 3471SOL     OW11311   4.295   4.711   3.159
 3471SOL    HW111312   4.322   4.618   3.183
 3471SOL    HW211313   4.325   4.732   3.066
 3472SOL     OW11314   4.328   2.332   3.227
 3472SOL    HW111315   4.356   2.372   3.314
 3472SOL    HW211316   4.229   2.315   3.229
 3473SOL     OW11317   0.244   3.583   3.833
 3473SOL    HW111318   0.321   3.598   3.895
 3473SOL    HW211319   0.264   3.624   3.744
 3474SOL     OW11320   6.770   4.677   4.205
 3474SOL    HW111321   6.709   4.669   4.127
 3474SOL    HW211322   6.752   4.603   4.270
 3475SOL     OW11323   6.877   4.366   4.564
 3475SOL    HW111324   6.850   4.460   4.585
 3475SOL    HW211325   6.881   4.314   4.649
 3476SOL     OW11326   1.864   1.675   3.712
 3476SOL    HW111327   1.872   1.575   3.714
 3476SOL    HW211328   1.927   1.715   3.779
 3477SOL     OW11329   0.164   3.984   1.704
 3477SOL    HW111330   0.253   4.000   1.661
 3477SOL    HW211331   0.133   3.891   1.684
 3478SOL     OW11332   2.326   0.225   0.255
 3478SOL    HW111333   2.337   0.293   0.183
 3478SOL    HW211334   2.401   0.235   0.321
 3479SOL     OW11335   0.594   3.143   3.297
 3479SOL    HW111336   0.516   3.108   3.245
 3479SOL    HW211337   0.565   3.161   3.391
 3480SOL     OW11338   1.294   5.830   6.627
 3480SOL    HW111339   1.342   5.908   6.668
 3480SOL    HW211340   1.336   5.809   6.538
 3481SOL     OW11341   5.702   0.345   0.218
 3481SOL    HW111342   5.782   0.306   0.265
 3481SOL    HW211343   5.662   0.417   0.274
 3482SOL     OW11344   5.978   2.729   4.272
 3482SOL    HW111345   5.997   2.826   4.289
 3482SOL    HW211346   5.924   2.692   4.348
 3483SOL     OW11347   4.721   2.381   3.337
 3483SOL    HW111348   4.727   2.281   3.344
 3483SOL    HW211349   4.634   2.412   3.374
 3484SOL     OW11350   1.888   3.382   6.188
 3484SOL    HW111351   1.974   3.360   6.143
 3484SOL    HW211352   1.813   3.372   6.123
 3485SOL     OW11353   6.660   1.778   5.327
 3485SOL    HW111354   6.660   1.858   5.267
 3485SOL    HW211355   6.657   1.809   5.422
 3486SOL     OW11356   2.232   6.794   4.866
 3486SOL    HW111357   2.178   6.878   4.864
 3486SOL    HW211358   2.175   6.717   4.836
 3487SOL     OW11359   5.590   1.487   6.646
 3487SOL    HW111360   5.628   1.579   6.646
 3487SOL    HW211361   5.632   1.433   6.719
 3488SOL     OW11362   5.834   0.085   4.716
 3488SOL    HW111363   5.822   0.062   4.813
 3488SOL    HW211364   5.832   0.001   4.661
 3489SOL     OW11365   3.034   0.122   1.218
 3489SOL    HW111366   3.103   0.116   1.147
 3489SOL    HW211367   3.020   0.032   1.259
 3490SOL     OW11368   4.301   4.772   0.942
 3490SOL    HW111369   4.213   4.808   0.971
 3490SOL    HW211370   4.344   4.724   1.018
 3491SOL     OW11371   5.208   3.735   6.986
 3491SOL    HW111372   5.292   3.698   0.006
 3491SOL    HW211373   5.143   3.661   6.971
 3492SOL     OW11374   6.575   3.951   2.547
 3492SOL    HW111375   6.487   3.939   2.502
 3492SOL    HW211376   6.631   3.869   2.534
 3493SOL     OW11377   6.321   3.632   4.210
 3493SOL    HW111378   6.253   3.648   4.281
 3493SOL    HW211379   6.308   3.699   4.136
 3494SOL     OW11380   2.927   1.848   2.519
 3494SOL    HW111381   2.908   1.778   2.588
 3494SOL    HW211382   2.841   1.887   2.487
 3495SOL     OW11383   1.142   3.735   2.211
 3495SOL    HW111384   1.203   3.720   2.288
 3495SOL    HW211385   1.179   3.689   2.130
 3496SOL     OW11386   6.108   4.750   0.343
 3496SOL    HW111387   6.061   4.837   0.354
 3496SOL    HW211388   6.045   4.675   0.363
 3497SOL     OW11389   4.136   0.622   3.254
 3497SOL    HW111390   4.143   0.715   3.289
 3497SOL    HW211391   4.155   0.622   3.155
 3498SOL     OW11392   2.469   1.537   2.353
 3498SOL    HW111393   2.543   1.498   2.299
 3498SOL    HW211394   2.381   1.504   2.318
 3499SOL     OW11395   6.127   5.855   5.723
 3499SOL    HW111396   6.131   5.767   5.675
 3499SOL    HW211397   6.058   5.851   5.795
 3500SOL     OW11398   1.587   1.470   4.119
 3500SOL    HW111399   1.631   1.432   4.038
 3500SOL    HW211400   1.656   1.510   4.179
 3501SOL     OW11401   2.491   6.843   6.702
 3501SOL    HW111402   2.446   6.841   6.791
 3501SOL    HW211403   2.493   6.937   6.668
 3502SOL     OW11404   5.700   3.066   1.724
 3502SOL    HW111405   5.605   3.096   1.715
 3502SOL    HW211406   5.710   3.009   1.805
 3503SOL     OW11407   0.330   5.963   6.099
 3503SOL    HW111408   0.268   5.923   6.032
 3503SOL    HW211409   0.414   5.909   6.105
 3504SOL     OW11410   1.551   1.022   2.064
 3504SOL    HW111411   1.536   0.976   1.976
 3504SOL    HW211412   1.518   1.117   2.058
 3505SOL     OW11413   5.488   5.348   5.682
 3505SOL    HW111414   5.472   5.251   5.694
 3505SOL    HW211415   5.564   5.377   5.741
 3506SOL     OW11416   5.664   4.500   4.827
 3506SOL    HW111417   5.608   4.481   4.908
 3506SOL    HW211418   5.755   4.529   4.855
 3507SOL     OW11419   2.420   0.439   1.024
 3507SOL    HW111420   2.475   0.453   0.942
 3507SOL    HW211421   2.327   0.473   1.008
 3508SOL     OW11422   3.054   2.636   5.488
 3508SOL    HW111423   2.955   2.645   5.502
 3508SOL    HW211424   3.084   2.548   5.523
 3509SOL     OW11425   4.765   6.629   0.368
 3509SOL    HW111426   4.803   6.610   0.459
 3509SOL    HW211427   4.762   6.728   0.353
 3510SOL     OW11428   2.224   1.198   1.455
 3510SOL    HW111429   2.200   1.257   1.378
 3510SOL    HW211430   2.309   1.149   1.434
 3511SOL     OW11431   1.817   4.753   1.405
 3511SOL    HW111432   1.896   4.799   1.363
 3511SOL    HW211433   1.803   4.665   1.361
 3512SOL     OW11434   0.805   4.178   7.014
 3512SOL    HW111435   0.852   4.134   0.071
 3512SOL    HW211436   0.711   4.145   7.011
 3513SOL     OW11437   6.393   2.182   1.124
 3513SOL    HW111438   6.416   2.091   1.090
 3513SOL    HW211439   6.419   2.189   1.221
 3514SOL     OW11440   5.417   0.891   2.805
 3514SOL    HW111441   5.375   0.845   2.727
 3514SOL    HW211442   5.477   0.827   2.853
 3515SOL     OW11443   5.890   6.171   3.924
 3515SOL    HW111444   5.875   6.183   4.022
 3515SOL    HW211445   5.845   6.244   3.874
 3516SOL     OW11446   4.881   0.060   0.788
 3516SOL    HW111447   4.854   0.119   0.864
 3516SOL    HW211448   4.893   6.986   0.822
 3517SOL     OW11449   6.807   1.248   1.100
 3517SOL    HW111450   6.874   1.318   1.073
 3517SOL    HW211451   6.830   1.161   1.056
 3518SOL     OW11452   5.826   1.975   4.683
 3518SOL    HW111453   5.772   2.057   4.702
 3518SOL    HW211454   5.840   1.966   4.585
 3519SOL     OW11455   2.867   1.003   6.755
 3519SOL    HW111456   2.928   1.082   6.754
 3519SOL    HW211457   2.877   0.952   6.669
 3520SOL     OW11458   3.318   5.455   5.716
 3520SOL    HW111459   3.328   5.372   5.769
 3520SOL    HW211460   3.308   5.432   5.619
 3521SOL     OW11461   3.265   2.888   6.740
 3521SOL    HW111462   3.362   2.911   6.745
 3521SOL    HW211463   3.211   2.953   6.793
 3522SOL     OW11464   6.493   5.254   6.435
 3522SOL    HW111465   6.469   5.349   6.417
 3522SOL    HW211466   6.550   5.248   6.517
 3523SOL     OW11467   1.000   5.222   5.011
 3523SOL    HW111468   0.975   5.150   4.947
 3523SOL    HW211469   0.992   5.188   5.105
 3524SOL     OW11470   5.541   1.947   2.753
 3524SOL    HW111471   5.452   1.980   2.722
 3524SOL    HW211472   5.534   1.917   2.848
 3525SOL     OW11473   6.045   3.927   4.117
 3525SOL    HW111474   5.996   3.839   4.118
 3525SOL    HW211475   6.081   3.946   4.208
 3526SOL     OW11476   1.423   5.402   3.433
 3526SOL    HW111477   1.479   5.478   3.466
 3526SOL    HW211478   1.327   5.420   3.455
 3527SOL     OW11479   5.838   2.574   6.163
 3527SOL    HW111480   5.858   2.551   6.068
 3527SOL    HW211481   5.859   2.671   6.179
 3528SOL     OW11482   2.557   6.316   5.147
 3528SOL    HW111483   2.582   6.362   5.232
 3528SOL    HW211484   2.559   6.217   5.160
 3529SOL     OW11485   4.057   6.020   6.728
 3529SOL    HW111486   4.149   6.022   6.765
 3529SOL    HW211487   4.060   5.991   6.632
 3530SOL     OW11488   0.116   5.246   1.797
 3530SOL    HW111489   0.179   5.231   1.874
 3530SOL    HW211490   0.029   5.201   1.817
 3531SOL     OW11491   5.100   1.812   1.889
 3531SOL    HW111492   5.057   1.887   1.840
 3531SOL    HW211493   5.076   1.817   1.986
 3532SOL     OW11494   2.294   1.204   2.161
 3532SOL    HW111495   2.373   1.258   2.192
 3532SOL    HW211496   2.315   1.107   2.169
 3533SOL     OW11497   0.076   1.903   2.773
 3533SOL    HW111498   0.089   1.809   2.804
 3533SOL    HW211499   0.165   1.947   2.759
 3534SOL     OW11500   0.598   2.463   2.403
 3534SOL    HW111501   0.693   2.472   2.374
 3534SOL    HW211502   0.538   2.486   2.326
 3535SOL     OW11503   2.708   5.051   5.231
 3535SOL    HW111504   2.774   5.001   5.174
 3535SOL    HW211505   2.615   5.032   5.200
 3536SOL     OW11506   3.494   1.773   3.064
 3536SOL    HW111507   3.539   1.724   2.990
 3536SOL    HW211508   3.399   1.744   3.071
 3537SOL     OW11509   1.274   5.748   2.919
 3537SOL    HW111510   1.287   5.749   2.820
 3537SOL    HW211511   1.337   5.682   2.960
 3538SOL     OW11512   3.058   5.668   5.090
 3538SOL    HW111513   3.077   5.657   5.187
 3538SOL    HW211514   2.964   5.699   5.077
 3539SOL     OW11515   3.634   3.806   4.364
 3539SOL    HW111516   3.633   3.748   4.283
 3539SOL    HW211517   3.570   3.882   4.352
 3540SOL     OW11518   1.970   2.177   3.973
 3540SOL    HW111519   1.982   2.235   4.054
 3540SOL    HW211520   1.877   2.188   3.937
 3541SOL     OW11521   3.080   3.306   5.247
 3541SOL    HW111522   3.022   3.246   5.301
 3541SOL    HW211523   3.023   3.358   5.183
 3542SOL     OW11524   1.734   4.750   2.941
 3542SOL    HW111525   1.766   4.761   2.847
 3542SOL    HW211526   1.694   4.659   2.952
 3543SOL     OW11527   5.174   2.552   4.334
 3543SOL    HW111528   5.244   2.520   4.271
 3543SOL    HW211529   5.126   2.630   4.293
 3544SOL     OW11530   1.857   4.288   6.988
 3544SOL    HW111531   1.815   4.198   6.995
 3544SOL    HW211532   1.795   4.350   6.939
 3545SOL     OW11533   4.180   6.289   6.538
 3545SOL    HW111534   4.130   6.362   6.491
 3545SOL    HW211535   4.127   6.258   6.616
 3546SOL     OW11536   0.076   5.708   3.492
 3546SOL    HW111537   0.070   5.798   3.449
 3546SOL    HW211538   0.115   5.643   3.427
 3547SOL     OW11539   3.942   5.553   4.188
 3547SOL    HW111540   4.004   5.572   4.112
 3547SOL    HW211541   3.848   5.548   4.154
 3548SOL     OW11542   4.943   2.481   5.686
 3548SOL    HW111543   4.883   2.418   5.636
 3548SOL    HW211544   5.026   2.497   5.632
 3549SOL     OW11545   6.510   4.956   3.940
 3549SOL    HW111546   6.501   4.918   4.032
 3549SOL    HW211547   6.596   4.927   3.900
 3550SOL     OW11548   5.345   2.308   3.527
 3550SOL    HW111549   5.360   2.393   3.476
 3550SOL    HW211550   5.324   2.234   3.463
 3551SOL     OW11551   3.599   6.229   3.075
 3551SOL    HW111552   3.619   6.278   3.160
 3551SOL    HW211553   3.607   6.131   3.090
 3552SOL     OW11554   5.686   5.478   3.149
 3552SOL    HW111555   5.678   5.570   3.111
 3552SOL    HW211556   5.720   5.416   3.079
 3553SOL     OW11557   5.514   2.678   2.328
 3553SOL    HW111558   5.452   2.717   2.260
 3553SOL    HW211559   5.595   2.735   2.336
 3554SOL     OW11560   4.085   3.989   6.693
 3554SOL    HW111561   4.019   4.064   6.694
 3554SOL    HW211562   4.175   4.024   6.666
 3555SOL     OW11563   0.638   3.458   2.763
 3555SOL    HW111564   0.564   3.499   2.817
 3555SOL    HW211565   0.695   3.402   2.823
 3556SOL     OW11566   3.123   0.288   5.665
 3556SOL    HW111567   3.190   0.301   5.738
 3556SOL    HW211568   3.039   0.250   5.704
 3557SOL     OW11569   1.120   0.448   5.072
 3557SOL    HW111570   1.073   0.404   4.995
 3557SOL    HW211571   1.165   0.531   5.041
 3558SOL     OW11572   0.346   5.530   1.809
 3558SOL    HW111573   0.421   5.596   1.801
 3558SOL    HW211574   0.319   5.499   1.718
 3559SOL     OW11575   0.354   0.356   5.066
 3559SOL    HW111576   0.391   0.357   5.159
 3559SOL    HW211577   0.370   0.444   5.022
 3560SOL     OW11578   1.304   6.142   1.108
 3560SOL    HW111579   1.244   6.077   1.061
 3560SOL    HW211580   1.381   6.093   1.148
 3561SOL     OW11581   4.625   4.531   5.735
 3561SOL    HW111582   4.586   4.612   5.690
 3561SOL    HW211583   4.609   4.451   5.677
 3562SOL     OW11584   5.071   0.225   3.808
 3562SOL    HW111585   5.032   0.293   3.746
 3562SOL    HW211586   5.079   0.137   3.761
 3563SOL     OW11587   5.684   1.409   1.194
 3563SOL    HW111588   5.704   1.400   1.291
 3563SOL    HW211589   5.665   1.505   1.172
 3564SOL     OW11590   0.599   4.167   4.854
 3564SOL    HW111591   0.606   4.267   4.856
 3564SOL    HW211592   0.674   4.129   4.799
 3565SOL     OW11593   2.744   0.100   4.597
 3565SOL    HW111594   2.707   0.034   4.532
 3565SOL    HW211595   2.676   0.171   4.615
 3566SOL     OW11596   0.040   3.254   5.694
 3566SOL    HW111597   0.115   3.221   5.751
 3566SOL    HW211598   0.075   3.320   5.627
 3567SOL     OW11599   0.483   3.036   0.885
 3567SOL    HW111600   0.490   2.943   0.922
 3567SOL    HW211601   0.499   3.101   0.959
 3568SOL     OW11602   4.940   4.809   2.588
 3568SOL    HW111603   4.895   4.802   2.677
 3568SOL    HW211604   4.872   4.817   2.516
 3569SOL     OW11605   3.046   3.206   4.409
 3569SOL    HW111606   2.967   3.163   4.365
 3569SOL    HW211607   3.052   3.302   4.382
 3570SOL     OW11608   6.171   1.918   5.647
 3570SOL    HW111609   6.224   1.832   5.647
 3570SOL    HW211610   6.179   1.961   5.557
 3571SOL     OW11611   2.027   0.568   5.307
 3571SOL    HW111612   2.046   0.524   5.219
 3571SOL    HW211613   1.999   0.498   5.373
 3572SOL     OW11614   5.158   3.999   2.001
 3572SOL    HW111615   5.224   3.935   1.964
 3572SOL    HW211616   5.166   4.001   2.101
 3573SOL     OW11617   6.254   3.911   2.094
 3573SOL    HW111618   6.211   3.923   2.005
 3573SOL    HW211619   6.187   3.872   2.158
 3574SOL     OW11620   2.635   3.337   6.065
 3574SOL    HW111621   2.536   3.351   6.064
 3574SOL    HW211622   2.654   3.240   6.051
 3575SOL     OW11623   4.821   6.042   0.843
 3575SOL    HW111624   4.852   5.963   0.791
 3575SOL    HW211625   4.780   6.011   0.929
 3576SOL     OW11626   0.116   3.278   6.911
 3576SOL    HW111627   0.182   3.276   6.986
 3576SOL    HW211628   0.131   3.360   6.856
 3577SOL     OW11629   2.037   2.743   4.963
 3577SOL    HW111630   2.109   2.675   4.943
 3577SOL    HW211631   2.058   2.789   5.049
 3578SOL     OW11632   3.009   2.981   0.135
 3578SOL    HW111633   2.954   3.028   0.205
 3578SOL    HW211634   2.954   2.911   0.091
 3579SOL     OW11635   0.331   3.342   2.167
 3579SOL    HW111636   0.263   3.362   2.238
 3579SOL    HW211637   0.409   3.405   2.177
 3580SOL     OW11638   0.603   3.392   1.399
 3580SOL    HW111639   0.565   3.484   1.405
 3580SOL    HW211640   0.542   3.328   1.445
 3581SOL     OW11641   0.703   0.351   2.821
 3581SOL    HW111642   0.632   0.365   2.890
 3581SOL    HW211643   0.713   0.254   2.802
 3582SOL     OW11644   3.488   3.988   5.599
 3582SOL    HW111645   3.423   3.913   5.605
 3582SOL    HW211646   3.512   4.020   5.691
 3583SOL     OW11647   0.100   4.837   0.905
 3583SOL    HW111648   0.047   4.881   0.833
 3583SOL    HW211649   0.037   4.796   0.971
 3584SOL     OW11650   5.329   4.542   4.850
 3584SOL    HW111651   5.296   4.461   4.898
 3584SOL    HW211652   5.429   4.538   4.843
 3585SOL     OW11653   2.531   2.098   4.306
 3585SOL    HW111654   2.443   2.062   4.275
 3585SOL    HW211655   2.561   2.047   4.387
 3586SOL     OW11656   6.698   3.102   3.635
 3586SOL    HW111657   6.755   3.058   3.566
 3586SOL    HW211658   6.648   3.033   3.686
 3587SOL     OW11659   3.590   6.806   6.046
 3587SOL    HW111660   3.663   6.803   5.978
 3587SOL    HW211661   3.530   6.727   6.033
 3588SOL     OW11662   6.319   3.983   4.754
 3588SOL    HW111663   6.417   3.985   4.775
 3588SOL    HW211664   6.269   4.033   4.825
 3589SOL     OW11665   6.939   0.127   6.107
 3589SOL    HW111666   6.939   0.073   6.023
 3589SOL    HW211667   0.009   0.168   6.120
 3590SOL     OW11668   0.470   4.101   0.565
 3590SOL    HW111669   0.476   4.063   0.473
 3590SOL    HW211670   0.397   4.170   0.568
 3591SOL     OW11671   5.499   2.358   6.728
 3591SOL    HW111672   5.595   2.331   6.718
 3591SOL    HW211673   5.443   2.307   6.663
 3592SOL     OW11674   1.349   0.324   2.120
 3592SOL    HW111675   1.329   0.285   2.030
 3592SOL    HW211676   1.283   0.395   2.141
 3593SOL     OW11677   5.843   3.523   5.812
 3593SOL    HW111678   5.907   3.586   5.767
 3593SOL    HW211679   5.763   3.509   5.753
 3594SOL     OW11680   3.942   5.351   4.716
 3594SOL    HW111681   4.012   5.406   4.762
 3594SOL    HW211682   3.947   5.367   4.617
 3595SOL     OW11683   5.589   5.932   6.395
 3595SOL    HW111684   5.670   5.877   6.378
 3595SOL    HW211685   5.604   5.991   6.475
 3596SOL     OW11686   3.573   1.103   2.833
 3596SOL    HW111687   3.660   1.147   2.809
 3596SOL    HW211688   3.585   1.004   2.836
 3597SOL     OW11689   1.560   3.210   4.930
 3597SOL    HW111690   1.587   3.137   4.867
 3597SOL    HW211691   1.639   3.236   4.987
 3598SOL     OW11692   1.523   5.713   4.771
 3598SOL    HW111693   1.494   5.631   4.821
 3598SOL    HW211694   1.516   5.793   4.831
 3599SOL     OW11695   4.810   1.724   5.428
 3599SOL    HW111696   4.900   1.734   5.471
 3599SOL    HW211697   4.747   1.791   5.466
 3600SOL     OW11698   3.671   3.697   0.768
 3600SOL    HW111699   3.653   3.773   0.831
 3600SOL    HW211700   3.762   3.660   0.785
 3601SOL     OW11701   4.786   0.861   5.413
 3601SOL    HW111702   4.687   0.849   5.417
 3601SOL    HW211703   4.826   0.838   5.502
 3602SOL     OW11704   1.937   2.542   1.417
 3602SOL    HW111705   1.880   2.558   1.497
 3602SOL    HW211706   1.911   2.454   1.375
 3603SOL     OW11707   3.232   0.693   5.735
 3603SOL    HW111708   3.226   0.662   5.641
 3603SOL    HW211709   3.148   0.668   5.783
 3604SOL     OW11710   6.634   0.373   3.510
 3604SOL    HW111711   6.650   0.314   3.431
 3604SOL    HW211712   6.591   0.459   3.480
 3605SOL     OW11713   0.731   5.233   3.395
 3605SOL    HW111714   0.696   5.170   3.464
 3605SOL    HW211715   0.674   5.228   3.313
 3606SOL     OW11716   2.073   6.625   1.654
 3606SOL    HW111717   2.010   6.547   1.657
 3606SOL    HW211718   2.106   6.638   1.561
 3607SOL     OW11719   5.274   2.329   2.755
 3607SOL    HW111720   5.230   2.341   2.844
 3607SOL    HW211721   5.222   2.377   2.685
 3608SOL     OW11722   3.959   2.161   4.471
 3608SOL    HW111723   3.892   2.213   4.417
 3608SOL    HW211724   3.963   2.198   4.563
 3609SOL     OW11725   2.125   0.020   4.887
 3609SOL    HW111726   2.045   0.034   4.829
 3609SOL    HW211727   2.175   0.105   4.896
 3610SOL     OW11728   2.048   0.253   5.277
 3610SOL    HW111729   2.086   0.291   5.193
 3610SOL    HW211730   2.015   0.161   5.260
 3611SOL     OW11731   4.541   4.660   3.489
 3611SOL    HW111732   4.572   4.624   3.576
 3611SOL    HW211733   4.611   4.719   3.449
 3612SOL     OW11734   5.380   1.711   6.707
 3612SOL    HW111735   5.429   1.735   6.791
 3612SOL    HW211736   5.321   1.633   6.725
 3613SOL     OW11737   3.386   5.217   1.088
 3613SOL    HW111738   3.320   5.148   1.117
 3613SOL    HW211739   3.454   5.230   1.160
 3614SOL     OW11740   3.376   4.232   6.315
 3614SOL    HW111741   3.447   4.299   6.334
 3614SOL    HW211742   3.378   4.208   6.218
 3615SOL     OW11743   6.433   2.698   5.267
 3615SOL    HW111744   6.504   2.737   5.326
 3615SOL    HW211745   6.447   2.599   5.260
 3616SOL     OW11746   1.917   2.040   6.976
 3616SOL    HW111747   1.999   2.043   6.918
 3616SOL    HW211748   1.839   2.076   6.924
 3617SOL     OW11749   4.138   6.800   5.790
 3617SOL    HW111750   4.107   6.724   5.733
 3617SOL    HW211751   4.152   6.768   5.884
 3618SOL     OW11752   1.731   4.128   4.707
 3618SOL    HW111753   1.748   4.030   4.699
 3618SOL    HW211754   1.655   4.154   4.647
 3619SOL     OW11755   6.532   2.782   1.134
 3619SOL    HW111756   6.519   2.686   1.157
 3619SOL    HW211757   6.604   2.821   1.191
 3620SOL     OW11758   6.512   6.536   5.057
 3620SOL    HW111759   6.486   6.531   5.153
 3620SOL    HW211760   6.560   6.622   5.039
 3621SOL     OW11761   3.841   2.986   3.758
 3621SOL    HW111762   3.775   2.937   3.814
 3621SOL    HW211763   3.911   3.028   3.817
 3622SOL     OW11764   1.079   6.996   0.413
 3622SOL    HW111765   1.056   0.073   0.427
 3622SOL    HW211766   0.996   6.941   0.422
 3623SOL     OW11767   1.111   5.229   6.146
 3623SOL    HW111768   1.026   5.270   6.180
 3623SOL    HW211769   1.155   5.178   6.220
 3624SOL     OW11770   3.190   0.706   1.907
 3624SOL    HW111771   3.210   0.759   1.989
 3624SOL    HW211772   3.120   0.637   1.927
 3625SOL     OW11773   6.749   2.563   6.592
 3625SOL    HW111774   6.797   2.480   6.621
 3625SOL    HW211775   6.651   2.551   6.604
 3626SOL     OW11776   0.975   2.646   5.094
 3626SOL    HW111777   0.915   2.725   5.076
 3626SOL    HW211778   0.930   2.585   5.160
 3627SOL     OW11779   4.017   2.906   1.183
 3627SOL    HW111780   3.944   2.893   1.115
 3627SOL    HW211781   4.106   2.898   1.137
 3628SOL     OW11782   6.992   1.279   2.646
 3628SOL    HW111783   6.980   1.218   2.724
 3628SOL    HW211784   0.058   1.331   2.658
 3629SOL     OW11785   1.535   1.264   4.314
 3629SOL    HW111786   1.616   1.267   4.372
 3629SOL    HW211787   1.558   1.215   4.229
 3630SOL     OW11788   6.831   2.852   3.484
 3630SOL    HW111789   6.802   2.769   3.532
 3630SOL    HW211790   6.822   2.838   3.385
 3631SOL     OW11791   1.627   6.916   2.495
 3631SOL    HW111792   1.668   6.996   2.451
 3631SOL    HW211793   1.670   6.833   2.461
 3632SOL     OW11794   4.503   3.472   0.653
 3632SOL    HW111795   4.468   3.495   0.744
 3632SOL    HW211796   4.583   3.413   0.662
 3633SOL     OW11797   3.747   2.800   6.260
 3633SOL    HW111798   3.756   2.703   6.285
 3633SOL    HW211799   3.825   2.827   6.204
 3634SOL     OW11800   3.078   5.525   5.955
 3634SOL    HW111801   3.020   5.544   5.876
 3634SOL    HW211802   3.108   5.429   5.952
 3635SOL     OW11803   2.638   1.009   1.557
 3635SOL    HW111804   2.709   1.020   1.488
 3635SOL    HW211805   2.644   1.084   1.623
 3636SOL     OW11806   0.973   5.544   7.010
 3636SOL    HW111807   0.913   5.469   0.020
 3636SOL    HW211808   0.990   5.604   0.068
 3637SOL     OW11809   6.978   2.880   6.920
 3637SOL    HW111810   0.050   2.885   6.880
 3637SOL    HW211811   6.966   2.954   6.986
 3638SOL     OW11812   5.713   4.636   2.387
 3638SOL    HW111813   5.624   4.664   2.423
 3638SOL    HW211814   5.706   4.542   2.353
 3639SOL     OW11815   3.243   4.078   4.188
 3639SOL    HW111816   3.289   4.103   4.103
 3639SOL    HW211817   3.146   4.063   4.170
 3640SOL     OW11818   5.498   2.150   0.658
 3640SOL    HW111819   5.580   2.140   0.601
 3640SOL    HW211820   5.433   2.210   0.611
 3641SOL     OW11821   6.704   4.173   2.132
 3641SOL    HW111822   6.658   4.255   2.166
 3641SOL    HW211823   6.800   4.175   2.158
 3642SOL     OW11824   6.065   2.701   6.719
 3642SOL    HW111825   5.973   2.690   6.682
 3642SOL    HW211826   6.110   2.612   6.723
 3643SOL     OW11827   3.588   5.470   5.498
 3643SOL    HW111828   3.638   5.429   5.575
 3643SOL    HW211829   3.555   5.561   5.524
 3644SOL     OW11830   3.335   0.949   1.743
 3644SOL    HW111831   3.313   0.927   1.648
 3644SOL    HW211832   3.308   0.873   1.802
 3645SOL     OW11833   1.687   4.482   4.255
 3645SOL    HW111834   1.730   4.569   4.232
 3645SOL    HW211835   1.757   4.414   4.274
 3646SOL     OW11836   2.412   4.511   4.918
 3646SOL    HW111837   2.483   4.517   4.988
 3646SOL    HW211838   2.359   4.427   4.931
 3647SOL     OW11839   2.621   0.439   0.375
 3647SOL    HW111840   2.621   0.527   0.327
 3647SOL    HW211841   2.669   0.371   0.319
 3648SOL     OW11842   4.340   5.394   3.840
 3648SOL    HW111843   4.412   5.361   3.779
 3648SOL    HW211844   4.369   5.383   3.935
 3649SOL     OW11845   5.960   2.825   0.469
 3649SOL    HW111846   5.993   2.782   0.553
 3649SOL    HW211847   5.907   2.758   0.417
 3650SOL     OW11848   5.579   5.444   0.051
 3650SOL    HW111849   5.488   5.482   0.031
 3650SOL    HW211850   5.618   5.492   0.129
 3651SOL     OW11851   0.999   2.572   5.965
 3651SOL    HW111852   1.000   2.626   6.049
 3651SOL    HW211853   0.972   2.478   5.986
 3652SOL     OW11854   4.881   1.523   1.944
 3652SOL    HW111855   4.876   1.618   1.972
 3652SOL    HW211856   4.798   1.475   1.973
 3653SOL     OW11857   0.296   1.302   1.405
 3653SOL    HW111858   0.327   1.231   1.469
 3653SOL    HW211859   0.281   1.260   1.315
 3654SOL     OW11860   6.309   0.146   0.706
 3654SOL    HW111861   6.286   0.200   0.625
 3654SOL    HW211862   6.398   0.103   0.693
 3655SOL     OW11863   1.799   2.274   4.515
 3655SOL    HW111864   1.801   2.232   4.605
 3655SOL    HW211865   1.827   2.208   4.446
 3656SOL     OW11866   0.327   6.258   1.307
 3656SOL    HW111867   0.381   6.330   1.351
 3656SOL    HW211868   0.299   6.289   1.216
 3657SOL     OW11869   4.834   5.980   4.664
 3657SOL    HW111870   4.830   5.975   4.763
 3657SOL    HW211871   4.911   5.925   4.631
 3658SOL     OW11872   1.554   5.104   6.298
 3658SOL    HW111873   1.609   5.162   6.357
 3658SOL    HW211874   1.602   5.090   6.211
 3659SOL     OW11875   6.603   1.624   6.227
 3659SOL    HW111876   6.547   1.566   6.168
 3659SOL    HW211877   6.549   1.702   6.259
 3660SOL     OW11878   5.510   5.205   6.017
 3660SOL    HW111879   5.434   5.141   6.000
 3660SOL    HW211880   5.474   5.288   6.060
 3661SOL     OW11881   0.189   1.779   4.415
 3661SOL    HW111882   0.266   1.760   4.354
 3661SOL    HW211883   0.167   1.877   4.411
 3662SOL     OW11884   3.260   0.737   5.221
 3662SOL    HW111885   3.329   0.719   5.151
 3662SOL    HW211886   3.176   0.770   5.178
 3663SOL     OW11887   2.207   2.679   6.351
 3663SOL    HW111888   2.228   2.776   6.335
 3663SOL    HW211889   2.292   2.629   6.367
 3664SOL     OW11890   3.714   1.638   2.238
 3664SOL    HW111891   3.700   1.554   2.185
 3664SOL    HW211892   3.695   1.717   2.181
 3665SOL     OW11893   1.161   5.861   5.937
 3665SOL    HW111894   1.092   5.892   5.872
 3665SOL    HW211895   1.245   5.837   5.888
 3666SOL     OW11896   2.401   2.096   4.799
 3666SOL    HW111897   2.485   2.127   4.844
 3666SOL    HW211898   2.404   2.120   4.702
 3667SOL     OW11899   2.420   0.325   2.885
 3667SOL    HW111900   2.346   0.274   2.841
 3667SOL    HW211901   2.398   0.342   2.981
 3668SOL     OW11902   0.516   0.766   1.671
 3668SOL    HW111903   0.532   0.677   1.714
 3668SOL    HW211904   0.598   0.795   1.621
 3669SOL     OW11905   6.856   1.289   3.867
 3669SOL    HW111906   6.829   1.369   3.814
 3669SOL    HW211907   6.953   1.269   3.850
 3670SOL     OW11908   3.188   5.341   1.827
 3670SOL    HW111909   3.276   5.297   1.810
 3670SOL    HW211910   3.196   5.400   1.907
 3671SOL     OW11911   0.022   0.389   3.349
 3671SOL    HW111912   7.016   0.445   3.428
 3671SOL    HW211913   0.045   0.297   3.380
 3672SOL     OW11914   4.734   6.679   2.508
 3672SOL    HW111915   4.702   6.748   2.573
 3672SOL    HW211916   4.655   6.633   2.466
 3673SOL     OW11917   4.709   5.864   1.375
 3673SOL    HW111918   4.740   5.943   1.321
 3673SOL    HW211919   4.769   5.786   1.356
 3674SOL     OW11920   1.459   5.168   5.947
 3674SOL    HW111921   1.359   5.160   5.947
 3674SOL    HW211922   1.500   5.077   5.956
 3675SOL     OW11923   0.611   0.756   3.775
 3675SOL    HW111924   0.657   0.806   3.849
 3675SOL    HW211925   0.515   0.743   3.798
 3676SOL     OW11926   3.972   1.846   3.530
 3676SOL    HW111927   4.057   1.898   3.521
 3676SOL    HW211928   3.955   1.795   3.446
 3677SOL     OW11929   1.971   0.029   4.014
 3677SOL    HW111930   1.908   0.101   3.985
 3677SOL    HW211931   2.036   0.067   4.080
 3678SOL     OW11932   1.315   0.481   3.918
 3678SOL    HW111933   1.374   0.517   3.846
 3678SOL    HW211934   1.227   0.453   3.879
 3679SOL     OW11935   4.830   0.933   2.286
 3679SOL    HW111936   4.861   1.012   2.232
 3679SOL    HW211937   4.730   0.935   2.292
 3680SOL     OW11938   4.378   1.249   3.979
 3680SOL    HW111939   4.278   1.249   3.969
 3680SOL    HW211940   4.401   1.221   4.072
 3681SOL     OW11941   1.153   6.406   4.898
 3681SOL    HW111942   1.168   6.373   4.805
 3681SOL    HW211943   1.166   6.330   4.962
 3682SOL     OW11944   5.582   2.348   1.414
 3682SOL    HW111945   5.566   2.433   1.363
 3682SOL    HW211946   5.522   2.345   1.493
 3683SOL     OW11947   6.303   0.841   6.120
 3683SOL    HW111948   6.207   0.826   6.143
 3683SOL    HW211949   6.310   0.877   6.027
 3684SOL     OW11950   2.302   6.763   5.145
 3684SOL    HW111951   2.274   6.800   5.056
 3684SOL    HW211952   2.398   6.784   5.162
 3685SOL     OW11953   2.246   6.368   5.731
 3685SOL    HW111954   2.310   6.415   5.791
 3685SOL    HW211955   2.217   6.283   5.774
 3686SOL     OW11956   0.974   4.686   3.948
 3686SOL    HW111957   0.880   4.651   3.941
 3686SOL    HW211958   1.026   4.629   4.010
 3687SOL     OW11959   5.897   5.797   3.954
 3687SOL    HW111960   5.928   5.841   4.038
 3687SOL    HW211961   5.844   5.862   3.899
 3688SOL     OW11962   5.826   3.083   0.483
 3688SOL    HW111963   5.869   3.144   0.417
 3688SOL    HW211964   5.870   2.993   0.478
 3689SOL     OW11965   1.808   0.012   6.026
 3689SOL    HW111966   1.755   0.094   6.006
 3689SOL    HW211967   1.887   0.037   6.083
 3690SOL     OW11968   4.799   4.399   1.101
 3690SOL    HW111969   4.809   4.483   1.154
 3690SOL    HW211970   4.868   4.333   1.130
 3691SOL     OW11971   2.540   2.426   0.429
 3691SOL    HW111972   2.565   2.344   0.480
 3691SOL    HW211973   2.620   2.486   0.421
 3692SOL     OW11974   0.553   3.631   6.328
 3692SOL    HW111975   0.644   3.615   6.366
 3692SOL    HW211976   0.519   3.545   6.289
 3693SOL     OW11977   0.308   1.454   2.681
 3693SOL    HW111978   0.322   1.483   2.776
 3693SOL    HW211979   0.306   1.535   2.622
 3694SOL     OW11980   6.929   0.192   1.515
 3694SOL    HW111981   6.964   0.109   1.471
 3694SOL    HW211982   6.842   0.218   1.473
 3695SOL     OW11983   6.594   2.705   2.243
 3695SOL    HW111984   6.601   2.614   2.203
 3695SOL    HW211985   6.623   2.702   2.338
 3696SOL     OW11986   4.824   0.689   4.230
 3696SOL    HW111987   4.815   0.590   4.241
 3696SOL    HW211988   4.835   0.731   4.321
 3697SOL     OW11989   0.034   6.592   3.374
 3697SOL    HW111990   0.060   6.548   3.459
 3697SOL    HW211991   0.109   6.586   3.308
 3698SOL     OW11992   2.130   0.624   3.136
 3698SOL    HW111993   2.077   0.698   3.094
 3698SOL    HW211994   2.083   0.593   3.219
 3699SOL     OW11995   2.644   2.416   3.747
 3699SOL    HW111996   2.697   2.448   3.668
 3699SOL    HW211997   2.620   2.320   3.733
 3700SOL     OW11998   0.929   4.858   4.985
 3700SOL    HW111999   1.013   4.818   5.022
 3700SOL    HW212000   0.931   4.851   4.885
 3701SOL     OW12001   1.742   0.727   2.601
 3701SOL    HW112002   1.772   0.816   2.566
 3701SOL    HW212003   1.648   0.710   2.573
 3702SOL     OW12004   5.368   4.524   3.835
 3702SOL    HW112005   5.354   4.436   3.880
 3702SOL    HW212006   5.383   4.595   3.904
 3703SOL     OW12007   1.328   2.007   4.114
 3703SOL    HW112008   1.279   1.943   4.055
 3703SOL    HW212009   1.418   2.026   4.076
 3704SOL     OW12010   7.003   1.962   0.639
 3704SOL    HW112011   6.949   1.881   0.613
 3704SOL    HW212012   6.961   2.005   0.719
 3705SOL     OW12013   5.279   5.245   3.262
 3705SOL    HW112014   5.275   5.267   3.164
 3705SOL    HW212015   5.318   5.153   3.274
 3706SOL     OW12016   0.413   3.757   0.027
 3706SOL    HW112017   0.377   3.840   7.005
 3706SOL    HW212018   0.340   3.690   0.036
 3707SOL     OW12019   1.408   5.198   3.689
 3707SOL    HW112020   1.350   5.120   3.713
 3707SOL    HW212021   1.452   5.181   3.601
 3708SOL     OW12022   3.388   6.937   0.505
 3708SOL    HW112023   3.485   6.912   0.503
 3708SOL    HW212024   3.363   6.979   0.418
 3709SOL     OW12025   1.693   0.910   2.866
 3709SOL    HW112026   1.701   0.999   2.911
 3709SOL    HW212027   1.784   0.875   2.843
 3710SOL     OW12028   6.657   4.887   5.734
 3710SOL    HW112029   6.718   4.881   5.655
 3710SOL    HW212030   6.688   4.822   5.804
 3711SOL     OW12031   1.495   5.529   4.352
 3711SOL    HW112032   1.479   5.437   4.385
 3711SOL    HW212033   1.448   5.542   4.264
 3712SOL     OW12034   1.999   5.467   4.875
 3712SOL    HW112035   1.989   5.406   4.797
 3712SOL    HW212036   1.966   5.559   4.851
 3713SOL     OW12037   6.233   6.407   4.558
 3713SOL    HW112038   6.302   6.449   4.499
 3713SOL    HW212039   6.221   6.311   4.532
 3714SOL     OW12040   0.650   4.550   0.239
 3714SOL    HW112041   0.679   4.465   0.195
 3714SOL    HW212042   0.657   4.540   0.339
 3715SOL     OW12043   6.531   5.386   3.727
 3715SOL    HW112044   6.613   5.394   3.784
 3715SOL    HW212045   6.450   5.385   3.786
 3716SOL     OW12046   5.046   5.435   3.934
 3716SOL    HW112047   4.995   5.409   3.852
 3716SOL    HW212048   5.141   5.453   3.910
 3717SOL     OW12049   4.395   1.194   1.110
 3717SOL    HW112050   4.416   1.097   1.119
 3717SOL    HW212051   4.478   1.248   1.123
 3718SOL     OW12052   0.302   6.609   5.733
 3718SOL    HW112053   0.282   6.645   5.642
 3718SOL    HW212054   0.393   6.639   5.761
 3719SOL     OW12055   3.452   4.156   6.065
 3719SOL    HW112056   3.463   4.057   6.058
 3719SOL    HW212057   3.487   4.199   5.981
 3720SOL     OW12058   0.178   2.320   1.347
 3720SOL    HW112059   0.247   2.359   1.286
 3720SOL    HW212060   0.122   2.255   1.297
 3721SOL     OW12061   6.160   4.906   5.893
 3721SOL    HW112062   6.245   4.925   5.844
 3721SOL    HW212063   6.087   4.961   5.855
 3722SOL     OW12064   4.661   6.781   3.285
 3722SOL    HW112065   4.577   6.793   3.231
 3722SOL    HW212066   4.650   6.703   3.346
 3723SOL     OW12067   4.459   4.436   0.176
 3723SOL    HW112068   4.551   4.417   0.142
 3723SOL    HW212069   4.462   4.514   0.238
 3724SOL     OW12070   1.413   4.905   5.167
 3724SOL    HW112071   1.413   4.887   5.068
 3724SOL    HW212072   1.338   4.968   5.189
 3725SOL     OW12073   1.010   5.950   6.594
 3725SOL    HW112074   0.989   5.873   6.533
 3725SOL    HW212075   1.106   5.944   6.622
 3726SOL     OW12076   6.217   3.744   3.764
 3726SOL    HW112077   6.171   3.753   3.676
 3726SOL    HW212078   6.225   3.835   3.807
 3727SOL     OW12079   6.734   3.132   4.329
 3727SOL    HW112080   6.707   3.211   4.273
 3727SOL    HW212081   6.833   3.120   4.324
 3728SOL     OW12082   2.857   3.423   0.324
 3728SOL    HW112083   2.810   3.484   0.261
 3728SOL    HW212084   2.955   3.426   0.308
 3729SOL     OW12085   0.671   6.948   5.602
 3729SOL    HW112086   0.720   6.968   5.687
 3729SOL    HW212087   0.726   6.885   5.546
 3730SOL     OW12088   3.438   5.850   4.918
 3730SOL    HW112089   3.449   5.759   4.877
 3730SOL    HW212090   3.483   5.851   5.007
 3731SOL     OW12091   0.406   2.563   6.406
 3731SOL    HW112092   0.431   2.593   6.499
 3731SOL    HW212093   0.392   2.464   6.407
 3732SOL     OW12094   3.070   2.273   0.025
 3732SOL    HW112095   3.024   2.228   6.968
 3732SOL    HW212096   3.127   2.206   0.073
 3733SOL     OW12097   1.863   1.396   3.761
 3733SOL    HW112098   1.872   1.412   3.859
 3733SOL    HW212099   1.953   1.382   3.721
 3734SOL     OW12100   4.048   6.860   0.769
 3734SOL    HW112101   4.040   6.951   0.728
 3734SOL    HW212102   4.099   6.866   0.854
 3735SOL     OW12103   4.590   6.786   2.187
 3735SOL    HW112104   4.586   6.697   2.142
 3735SOL    HW212105   4.497   6.815   2.210
 3736SOL     OW12106   6.736   1.345   1.353
 3736SOL    HW112107   6.758   1.274   1.286
 3736SOL    HW212108   6.766   1.434   1.317
 3737SOL     OW12109   0.334   2.904   3.150
 3737SOL    HW112110   0.304   2.869   3.239
 3737SOL    HW212111   0.254   2.927   3.094
 3738SOL     OW12112   6.825   6.886   0.948
 3738SOL    HW112113   6.769   6.890   1.031
 3738SOL    HW212114   6.913   6.929   0.966
 3739SOL     OW12115   3.062   4.413   1.059
 3739SOL    HW112116   2.972   4.416   1.103
 3739SOL    HW212117   3.050   4.412   0.960
 3740SOL     OW12118   5.102   5.328   6.616
 3740SOL    HW112119   5.077   5.246   6.666
 3740SOL    HW212120   5.021   5.368   6.574
 3741SOL     OW12121   5.115   3.240   6.732
 3741SOL    HW112122   5.114   3.170   6.661
 3741SOL    HW212123   5.122   3.197   6.822
 3742SOL     OW12124   3.658   5.382   6.983
 3742SOL    HW112125   3.581   5.318   6.975
 3742SOL    HW212126   3.735   5.336   0.007
 3743SOL     OW12127   4.250   3.315   1.773
 3743SOL    HW112128   4.244   3.364   1.686
 3743SOL    HW212129   4.171   3.341   1.830
 3744SOL     OW12130   0.694   6.790   2.449
 3744SOL    HW112131   0.636   6.715   2.417
 3744SOL    HW212132   0.690   6.796   2.548
 3745SOL     OW12133   5.000   3.898   2.417
 3745SOL    HW112134   4.941   3.907   2.337
 3745SOL    HW212135   4.965   3.825   2.476
 3746SOL     OW12136   6.518   0.416   4.620
 3746SOL    HW112137   6.456   0.471   4.564
 3746SOL    HW212138   6.551   0.338   4.567
 3747SOL     OW12139   3.802   6.418   5.597
 3747SOL    HW112140   3.712   6.460   5.613
 3747SOL    HW212141   3.795   6.355   5.520
 3748SOL     OW12142   5.369   1.649   2.676
 3748SOL    HW112143   5.316   1.628   2.595
 3748SOL    HW212144   5.465   1.661   2.651
 3749SOL     OW12145   0.081   6.646   2.825
 3749SOL    HW112146   7.006   6.659   2.853
 3749SOL    HW212147   0.087   6.570   2.761
 3750SOL     OW12148   5.719   3.951   0.405
 3750SOL    HW112149   5.749   3.999   0.323
 3750SOL    HW212150   5.689   4.017   0.474
 3751SOL     OW12151   2.065   4.007   1.813
 3751SOL    HW112152   2.095   3.921   1.854
 3751SOL    HW212153   1.981   4.038   1.858
 3752SOL     OW12154   1.243   6.461   0.031
 3752SOL    HW112155   1.157   6.485   0.075
 3752SOL    HW212156   1.308   6.536   0.041
 3753SOL     OW12157   6.894   6.583   4.591
 3753SOL    HW112158   6.840   6.556   4.511
 3753SOL    HW212159   6.930   6.501   4.636
 3754SOL     OW12160   6.793   5.916   1.849
 3754SOL    HW112161   6.835   5.902   1.759
 3754SOL    HW212162   6.694   5.925   1.839
 3755SOL     OW12163   5.099   3.904   3.647
 3755SOL    HW112164   5.058   3.876   3.559
 3755SOL    HW212165   5.036   3.879   3.721
 3756SOL     OW12166   2.543   0.905   6.645
 3756SOL    HW112167   2.626   0.961   6.645
 3756SOL    HW212168   2.480   0.939   6.715
 3757SOL     OW12169   2.957   5.860   6.350
 3757SOL    HW112170   3.007   5.818   6.274
 3757SOL    HW212171   2.863   5.826   6.350
 3758SOL     OW12172   2.128   1.034   4.246
 3758SOL    HW112173   2.150   0.938   4.229
 3758SOL    HW212174   2.090   1.043   4.339
 3759SOL     OW12175   4.831   4.687   6.087
 3759SOL    HW112176   4.889   4.608   6.067
 3759SOL    HW212177   4.735   4.661   6.081
 3760SOL     OW12178   1.655   2.564   4.945
 3760SOL    HW112179   1.557   2.582   4.953
 3760SOL    HW212180   1.698   2.572   5.034
 3761SOL     OW12181   0.427   6.418   4.103
 3761SOL    HW112182   0.458   6.440   4.196
 3761SOL    HW212183   0.330   6.442   4.094
 3762SOL     OW12184   0.497   3.985   0.299
 3762SOL    HW112185   0.509   3.925   0.220
 3762SOL    HW212186   0.412   4.036   0.290
 3763SOL     OW12187   6.890   2.718   6.425
 3763SOL    HW112188   6.819   2.664   6.470
 3763SOL    HW212189   6.849   2.803   6.390
 3764SOL     OW12190   2.925   6.710   3.437
 3764SOL    HW112191   2.957   6.633   3.493
 3764SOL    HW212192   2.831   6.731   3.459
 3765SOL     OW12193   5.641   0.642   3.831
 3765SOL    HW112194   5.600   0.692   3.907
 3765SOL    HW212195   5.734   0.677   3.814
 3766SOL     OW12196   0.721   0.541   4.399
 3766SOL    HW112197   0.671   0.619   4.362
 3766SOL    HW212198   0.671   0.501   4.475
 3767SOL     OW12199   1.943   5.011   0.521
 3767SOL    HW112200   1.962   5.108   0.536
 3767SOL    HW212201   1.931   4.965   0.608
 3768SOL     OW12202   5.083   6.301   0.346
 3768SOL    HW112203   5.168   6.286   0.294
 3768SOL    HW212204   5.049   6.393   0.327
 3769SOL     OW12205   4.861   6.392   5.676
 3769SOL    HW112206   4.943   6.363   5.627
 3769SOL    HW212207   4.873   6.486   5.709
 3770SOL     OW12208   2.297   1.614   6.698
 3770SOL    HW112209   2.209   1.625   6.653
 3770SOL    HW212210   2.283   1.606   6.797
 3771SOL     OW12211   5.755   2.127   6.167
 3771SOL    HW112212   5.833   2.172   6.125
 3771SOL    HW212213   5.722   2.053   6.107
 3772SOL     OW12214   5.441   0.965   1.608
 3772SOL    HW112215   5.410   1.014   1.689
 3772SOL    HW212216   5.520   0.909   1.631
 3773SOL     OW12217   6.718   2.503   6.249
 3773SOL    HW112218   6.730   2.498   6.348
 3773SOL    HW212219   6.737   2.596   6.218
 3774SOL     OW12220   0.198   0.781   0.516
 3774SOL    HW112221   0.266   0.765   0.445
 3774SOL    HW212222   0.228   0.738   0.601
 3775SOL     OW12223   6.361   3.407   3.426
 3775SOL    HW112224   6.298   3.417   3.349
 3775SOL    HW212225   6.330   3.331   3.484
 3776SOL     OW12226   2.342   3.277   1.227
 3776SOL    HW112227   2.298   3.210   1.167
 3776SOL    HW212228   2.306   3.268   1.319
 3777SOL     OW12229   2.335   4.627   4.180
 3777SOL    HW112230   2.304   4.582   4.263
 3777SOL    HW212231   2.277   4.600   4.103
 3778SOL     OW12232   3.013   5.658   1.871
 3778SOL    HW112233   3.093   5.606   1.900
 3778SOL    HW212234   2.973   5.615   1.790
 3779SOL     OW12235   2.532   4.776   6.533
 3779SOL    HW112236   2.515   4.682   6.563
 3779SOL    HW212237   2.451   4.809   6.484
 3780SOL     OW12238   3.067   6.222   5.050
 3780SOL    HW112239   2.987   6.163   5.054
 3780SOL    HW212240   3.146   6.169   5.020
 3781SOL     OW12241   3.265   6.395   4.423
 3781SOL    HW112242   3.302   6.485   4.445
 3781SOL    HW212243   3.169   6.404   4.395
 3782SOL     OW12244   2.580   1.283   3.826
 3782SOL    HW112245   2.623   1.193   3.838
 3782SOL    HW212246   2.483   1.276   3.847
 3783SOL     OW12247   5.617   6.311   4.775
 3783SOL    HW112248   5.533   6.263   4.800
 3783SOL    HW212249   5.673   6.326   4.856
 3784SOL     OW12250   5.402   1.564   3.028
 3784SOL    HW112251   5.360   1.646   2.991
 3784SOL    HW212252   5.498   1.583   3.051
 3785SOL     OW12253   2.417   2.330   1.576
 3785SOL    HW112254   2.489   2.317   1.643
 3785SOL    HW212255   2.447   2.295   1.487
 3786SOL     OW12256   3.361   5.104   2.834
 3786SOL    HW112257   3.372   5.114   2.933
 3786SOL    HW212258   3.277   5.151   2.806
 3787SOL     OW12259   4.054   1.356   3.588
 3787SOL    HW112260   3.987   1.385   3.520
 3787SOL    HW212261   4.023   1.271   3.631
 3788SOL     OW12262   5.690   2.925   2.514
 3788SOL    HW112263   5.752   2.951   2.440
 3788SOL    HW212264   5.730   2.849   2.565
 3789SOL     OW12265   2.020   5.374   3.877
 3789SOL    HW112266   2.063   5.425   3.803
 3789SOL    HW212267   2.090   5.327   3.931
 3790SOL     OW12268   1.957   3.491   4.253
 3790SOL    HW112269   1.992   3.524   4.166
 3790SOL    HW212270   1.993   3.548   4.327
 3791SOL     OW12271   4.798   6.954   1.127
 3791SOL    HW112272   4.814   6.909   1.039
 3791SOL    HW212273   4.702   6.984   1.131
 3792SOL     OW12274   6.547   6.281   5.473
 3792SOL    HW112275   6.458   6.265   5.429
 3792SOL    HW212276   6.547   6.372   5.514
 3793SOL     OW12277   2.122   1.386   3.046
 3793SOL    HW112278   2.182   1.309   3.027
 3793SOL    HW212279   2.033   1.351   3.077
 3794SOL     OW12280   4.181   5.757   2.044
 3794SOL    HW112281   4.245   5.815   2.095
 3794SOL    HW212282   4.194   5.772   1.946
 3795SOL     OW12283   5.189   0.076   6.652
 3795SOL    HW112284   5.233   0.057   6.739
 3795SOL    HW212285   5.221   0.163   6.616
 3796SOL     OW12286   1.488   2.458   1.818
 3796SOL    HW112287   1.511   2.379   1.874
 3796SOL    HW212288   1.566   2.520   1.813
 3797SOL     OW12289   0.961   4.781   2.834
 3797SOL    HW112290   0.975   4.876   2.805
 3797SOL    HW212291   0.865   4.768   2.858
 3798SOL     OW12292   2.190   5.300   2.583
 3798SOL    HW112293   2.287   5.275   2.578
 3798SOL    HW212294   2.152   5.305   2.491
 3799SOL     OW12295   1.866   1.132   5.523
 3799SOL    HW112296   1.919   1.066   5.575
 3799SOL    HW212297   1.813   1.189   5.585
 3800SOL     OW12298   4.555   2.579   4.445
 3800SOL    HW112299   4.550   2.591   4.544
 3800SOL    HW212300   4.465   2.554   4.410
 3801SOL     OW12301   0.051   6.164   5.750
 3801SOL    HW112302   0.095   6.110   5.679
 3801SOL    HW212303   6.987   6.119   5.780
 3802SOL     OW12304   1.315   1.867   5.703
 3802SOL    HW112305   1.388   1.934   5.685
 3802SOL    HW212306   1.247   1.872   5.630
 3803SOL     OW12307   3.538   1.012   1.304
 3803SOL    HW112308   3.568   0.930   1.353
 3803SOL    HW212309   3.553   1.001   1.206
 3804SOL     OW12310   4.644   2.045   4.449
 3804SOL    HW112311   4.638   1.945   4.448
 3804SOL    HW212312   4.579   2.082   4.383
 3805SOL     OW12313   2.805   4.390   1.604
 3805SOL    HW112314   2.850   4.422   1.687
 3805SOL    HW212315   2.744   4.313   1.626
 3806SOL     OW12316   2.768   2.045   0.191
 3806SOL    HW112317   2.856   2.062   0.233
 3806SOL    HW212318   2.696   2.088   0.245
 3807SOL     OW12319   1.437   6.437   3.903
 3807SOL    HW112320   1.504   6.509   3.886
 3807SOL    HW212321   1.484   6.356   3.938
 3808SOL     OW12322   3.736   6.983   1.433
 3808SOL    HW112323   3.783   0.015   1.362
 3808SOL    HW212324   3.646   6.956   1.401
 3809SOL     OW12325   5.459   0.907   0.210
 3809SOL    HW112326   5.534   0.841   0.215
 3809SOL    HW212327   5.390   0.874   0.146
 3810SOL     OW12328   2.917   3.077   5.357
 3810SOL    HW112329   2.833   3.042   5.315
 3810SOL    HW212330   2.996   3.032   5.314
 3811SOL     OW12331   0.228   5.085   5.013
 3811SOL    HW112332   0.138   5.120   4.989
 3811SOL    HW212333   0.296   5.157   5.002
 3812SOL     OW12334   5.972   1.795   5.406
 3812SOL    HW112335   5.935   1.784   5.498
 3812SOL    HW212336   5.904   1.838   5.347
 3813SOL     OW12337   3.267   5.322   0.096
 3813SOL    HW112338   3.181   5.324   0.147
 3813SOL    HW212339   3.256   5.267   0.013
 3814SOL     OW12340   6.936   5.906   2.131
 3814SOL    HW112341   6.917   5.997   2.167
 3814SOL    HW212342   6.926   5.906   2.031
 3815SOL     OW12343   5.280   1.995   1.617
 3815SOL    HW112344   5.259   2.077   1.563
 3815SOL    HW212345   5.270   2.016   1.714
 3816SOL     OW12346   0.930   0.059   1.545
 3816SOL    HW112347   0.861   0.073   1.474
 3816SOL    HW212348   0.941   6.981   1.562
 3817SOL     OW12349   4.792   1.832   4.685
 3817SOL    HW112350   4.784   1.766   4.760
 3817SOL    HW212351   4.751   1.919   4.712
 3818SOL     OW12352   4.607   5.864   2.212
 3818SOL    HW112353   4.643   5.871   2.305
 3818SOL    HW212354   4.546   5.941   2.194
 3819SOL     OW12355   5.041   5.167   0.032
 3819SOL    HW112356   5.053   5.238   0.101
 3819SOL    HW212357   5.102   5.090   0.053
 3820SOL     OW12358   5.230   6.003   3.938
 3820SOL    HW112359   5.294   6.052   3.997
 3820SOL    HW212360   5.140   6.002   3.980
 3821SOL     OW12361   1.546   3.720   1.691
 3821SOL    HW112362   1.467   3.778   1.671
 3821SOL    HW212363   1.561   3.716   1.790
 3822SOL     OW12364   2.568   5.888   1.285
 3822SOL    HW112365   2.578   5.824   1.209
 3822SOL    HW212366   2.653   5.893   1.337
 3823SOL     OW12367   3.224   2.840   5.846
 3823SOL    HW112368   3.217   2.823   5.747
 3823SOL    HW212369   3.203   2.936   5.865
 3824SOL     OW12370   6.315   2.203   5.787
 3824SOL    HW112371   6.295   2.108   5.761
 3824SOL    HW212372   6.401   2.232   5.744
 3825SOL     OW12373   6.935   6.348   6.060
 3825SOL    HW112374   6.980   6.425   6.014
 3825SOL    HW212375   7.004   6.279   6.084
 3826SOL     OW12376   6.855   3.091   1.718
 3826SOL    HW112377   6.835   3.126   1.627
 3826SOL    HW212378   6.869   3.169   1.780
 3827SOL     OW12379   4.211   3.241   0.747
 3827SOL    HW112380   4.300   3.268   0.710
 3827SOL    HW212381   4.225   3.185   0.829
 3828SOL     OW12382   5.080   1.940   2.828
 3828SOL    HW112383   5.011   1.873   2.801
 3828SOL    HW212384   5.035   2.016   2.876
 3829SOL     OW12385   2.597   4.689   4.245
 3829SOL    HW112386   2.499   4.687   4.225
 3829SOL    HW212387   2.612   4.673   4.342
 3830SOL     OW12388   2.553   0.987   5.122
 3830SOL    HW112389   2.552   0.915   5.192
 3830SOL    HW212390   2.461   0.996   5.083
 3831SOL     OW12391   3.780   1.607   2.494
 3831SOL    HW112392   3.815   1.700   2.510
 3831SOL    HW212393   3.746   1.601   2.400
 3832SOL     OW12394   6.794   0.786   2.071
 3832SOL    HW112395   6.811   0.866   2.129
 3832SOL    HW212396   6.881   0.751   2.036
 3833SOL     OW12397   0.703   4.901   0.103
 3833SOL    HW112398   0.674   4.926   0.196
 3833SOL    HW212399   0.634   4.844   0.061
 3834SOL     OW12400   3.191   1.960   0.580
 3834SOL    HW112401   3.177   2.052   0.617
 3834SOL    HW212402   3.227   1.900   0.652
 3835SOL     OW12403   3.787   5.369   5.165
 3835SOL    HW112404   3.878   5.391   5.199
 3835SOL    HW212405   3.747   5.296   5.220
 3836SOL     OW12406   1.410   4.110   6.135
 3836SOL    HW112407   1.388   4.015   6.154
 3836SOL    HW212408   1.398   4.164   6.219
 3837SOL     OW12409   3.925   3.590   0.739
 3837SOL    HW112410   3.975   3.566   0.656
 3837SOL    HW212411   3.948   3.525   0.812
 3838SOL     OW12412   6.687   2.629   4.901
 3838SOL    HW112413   6.619   2.558   4.917
 3838SOL    HW212414   6.677   2.666   4.809
 3839SOL     OW12415   5.966   5.734   5.400
 3839SOL    HW112416   6.012   5.823   5.393
 3839SOL    HW212417   5.876   5.740   5.358
 3840SOL     OW12418   1.752   0.884   3.968
 3840SOL    HW112419   1.727   0.946   4.042
 3840SOL    HW212420   1.747   0.932   3.880
 3841SOL     OW12421   0.837   3.495   5.504
 3841SOL    HW112422   0.797   3.461   5.419
 3841SOL    HW212423   0.767   3.495   5.576
 3842SOL     OW12424   0.978   5.021   6.974
 3842SOL    HW112425   0.920   4.973   6.907
 3842SOL    HW212426   0.921   5.058   0.027
 3843SOL     OW12427   5.886   3.115   1.017
 3843SOL    HW112428   5.857   3.045   0.952
 3843SOL    HW212429   5.966   3.082   1.067
 3844SOL     OW12430   1.657   4.880   6.449
 3844SOL    HW112431   1.596   4.930   6.389
 3844SOL    HW212432   1.700   4.805   6.398
 3845SOL     OW12433   3.216   3.815   3.301
 3845SOL    HW112434   3.297   3.768   3.265
 3845SOL    HW212435   3.201   3.899   3.249
 3846SOL     OW12436   0.069   4.688   5.019
 3846SOL    HW112437   0.097   4.686   4.923
 3846SOL    HW212438   0.020   4.604   5.042
 3847SOL     OW12439   0.756   6.989   0.149
 3847SOL    HW112440   0.757   6.982   0.248
 3847SOL    HW212441   0.674   0.019   0.119
 3848SOL     OW12442   2.353   5.219   1.424
 3848SOL    HW112443   2.364   5.125   1.390
 3848SOL    HW212444   2.373   5.221   1.522
 3849SOL     OW12445   0.961   2.154   5.681
 3849SOL    HW112446   0.954   2.071   5.736
 3849SOL    HW212447   0.969   2.129   5.584
 3850SOL     OW12448   3.284   3.827   1.568
 3850SOL    HW112449   3.202   3.882   1.557
 3850SOL    HW212450   3.302   3.776   1.484
 3851SOL     OW12451   2.339   2.646   2.619
 3851SOL    HW112452   2.338   2.707   2.698
 3851SOL    HW212453   2.391   2.563   2.641
 3852SOL     OW12454   3.944   1.024   4.581
 3852SOL    HW112455   3.861   1.040   4.633
 3852SOL    HW212456   3.999   1.108   4.577
 3853SOL     OW12457   1.048   3.266   1.696
 3853SOL    HW112458   1.086   3.257   1.788
 3853SOL    HW212459   1.012   3.358   1.683
 3854SOL     OW12460   1.319   3.618   4.450
 3854SOL    HW112461   1.280   3.529   4.427
 3854SOL    HW212462   1.277   3.651   4.535
 3855SOL     OW12463   6.475   2.757   5.721
 3855SOL    HW112464   6.402   2.707   5.767
 3855SOL    HW212465   6.535   2.800   5.788
 3856SOL     OW12466   0.745   6.503   5.968
 3856SOL    HW112467   0.771   6.413   6.001
 3856SOL    HW212468   0.648   6.503   5.942
 3857SOL     OW12469   0.430   6.675   5.068
 3857SOL    HW112470   0.375   6.649   4.988
 3857SOL    HW212471   0.429   6.774   5.078
 3858SOL     OW12472   2.618   5.474   0.106
 3858SOL    HW112473   2.630   5.566   0.069
 3858SOL    HW212474   2.690   5.456   0.173
 3859SOL     OW12475   0.639   2.823   2.341
 3859SOL    HW112476   0.715   2.847   2.281
 3859SOL    HW212477   0.667   2.835   2.436
 3860SOL     OW12478   2.437   6.799   5.518
 3860SOL    HW112479   2.445   6.847   5.605
 3860SOL    HW212480   2.520   6.746   5.501
 3861SOL     OW12481   4.513   4.360   1.066
 3861SOL    HW112482   4.481   4.446   1.105
 3861SOL    HW212483   4.611   4.364   1.051
 3862SOL     OW12484   1.502   5.993   6.312
 3862SOL    HW112485   1.565   5.920   6.338
 3862SOL    HW212486   1.500   6.062   6.384
 3863SOL     OW12487   3.426   3.391   1.260
 3863SOL    HW112488   3.390   3.320   1.200
 3863SOL    HW212489   3.504   3.436   1.216
 3864SOL     OW12490   3.108   2.404   0.323
 3864SOL    HW112491   3.205   2.395   0.301
 3864SOL    HW212492   3.054   2.389   0.241
 3865SOL     OW12493   4.942   6.926   2.416
 3865SOL    HW112494   4.904   6.937   2.508
 3865SOL    HW212495   5.034   6.888   2.422
 3866SOL     OW12496   4.088   6.755   6.685
 3866SOL    HW112497   4.145   6.713   6.756
 3866SOL    HW212498   3.999   6.711   6.683
 3867SOL     OW12499   1.858   2.939   3.708
 3867SOL    HW112500   1.884   3.024   3.661
 3867SOL    HW212501   1.802   2.960   3.788
 3868SOL     OW12502   1.590   5.985   2.808
 3868SOL    HW112503   1.546   5.933   2.734
 3868SOL    HW212504   1.593   6.082   2.784
 3869SOL     OW12505   1.057   2.908   3.575
 3869SOL    HW112506   1.029   2.950   3.489
 3869SOL    HW212507   1.027   2.812   3.577
 3870SOL     OW12508   2.897   4.795   0.354
 3870SOL    HW112509   2.909   4.706   0.398
 3870SOL    HW212510   2.985   4.842   0.348
 3871SOL     OW12511   2.605   0.285   3.953
 3871SOL    HW112512   2.689   0.337   3.969
 3871SOL    HW212513   2.573   0.300   3.859
 3872SOL     OW12514   3.959   3.996   0.310
 3872SOL    HW112515   3.959   4.018   0.213
 3872SOL    HW212516   4.050   4.011   0.348
 3873SOL     OW12517   4.973   4.734   2.124
 3873SOL    HW112518   4.917   4.788   2.187
 3873SOL    HW212519   4.914   4.690   2.056
 3874SOL     OW12520   4.247   6.956   6.032
 3874SOL    HW112521   4.235   6.927   5.937
 3874SOL    HW212522   4.229   6.879   6.093
 3875SOL     OW12523   1.272   4.594   0.839
 3875SOL    HW112524   1.242   4.688   0.853
 3875SOL    HW212525   1.286   4.549   0.927
 3876SOL     OW12526   5.008   3.559   2.745
 3876SOL    HW112527   4.939   3.559   2.673
 3876SOL    HW212528   5.049   3.468   2.751
 3877SOL     OW12529   5.243   1.212   2.026
 3877SOL    HW112530   5.219   1.294   1.974
 3877SOL    HW212531   5.219   1.226   2.122
 3878SOL     OW12532   3.089   5.940   5.316
 3878SOL    HW112533   3.137   5.948   5.229
 3878SOL    HW212534   3.085   6.029   5.361
 3879SOL     OW12535   4.027   6.136   1.370
 3879SOL    HW112536   4.012   6.058   1.309
 3879SOL    HW212537   4.124   6.159   1.372
 3880SOL     OW12538   5.694   2.988   4.120
 3880SOL    HW112539   5.745   2.979   4.034
 3880SOL    HW212540   5.652   3.078   4.125
 3881SOL     OW12541   1.209   4.154   0.870
 3881SOL    HW112542   1.181   4.105   0.787
 3881SOL    HW212543   1.308   4.144   0.883
 3882SOL     OW12544   0.185   0.223   6.232
 3882SOL    HW112545   0.126   0.303   6.243
 3882SOL    HW212546   0.279   0.253   6.216
 3883SOL     OW12547   3.008   0.582   5.894
 3883SOL    HW112548   2.977   0.491   5.924
 3883SOL    HW212549   3.086   0.611   5.949
 3884SOL     OW12550   1.660   4.762   5.970
 3884SOL    HW112551   1.645   4.723   6.061
 3884SOL    HW212552   1.699   4.692   5.910
 3885SOL     OW12553   0.565   1.483   4.488
 3885SOL    HW112554   0.488   1.545   4.507
 3885SOL    HW212555   0.531   1.389   4.479
 3886SOL     OW12556   6.767   5.729   5.171
 3886SOL    HW112557   6.731   5.822   5.163
 3886SOL    HW212558   6.777   5.689   5.080
 3887SOL     OW12559   4.657   2.681   5.519
 3887SOL    HW112560   4.742   2.661   5.568
 3887SOL    HW212561   4.588   2.612   5.541
 3888SOL     OW12562   5.883   2.102   1.219
 3888SOL    HW112563   5.977   2.083   1.249
 3888SOL    HW212564   5.839   2.163   1.285
 3889SOL     OW12565   0.939   5.723   6.774
 3889SOL    HW112566   0.936   5.655   6.847
 3889SOL    HW212567   1.009   5.699   6.708
 3890SOL     OW12568   5.942   3.921   2.253
 3890SOL    HW112569   5.988   3.893   2.337
 3890SOL    HW212570   5.957   3.853   2.182
 3891SOL     OW12571   5.714   4.986   5.447
 3891SOL    HW112572   5.747   4.978   5.541
 3891SOL    HW212573   5.615   4.999   5.447
 3892SOL     OW12574   5.076   6.820   3.597
 3892SOL    HW112575   5.033   6.730   3.593
 3892SOL    HW212576   5.012   6.889   3.567
 3893SOL     OW12577   3.027   6.624   4.002
 3893SOL    HW112578   3.120   6.647   3.975
 3893SOL    HW212579   2.963   6.656   3.932
 3894SOL     OW12580   5.105   4.689   0.202
 3894SOL    HW112581   5.023   4.688   0.260
 3894SOL    HW212582   5.108   4.606   0.146
 3895SOL     OW12583   1.888   2.165   5.819
 3895SOL    HW112584   1.971   2.183   5.768
 3895SOL    HW212585   1.899   2.195   5.914
 3896SOL     OW12586   6.685   2.195   5.902
 3896SOL    HW112587   6.720   2.125   5.841
 3896SOL    HW212588   6.720   2.285   5.875
 3897SOL     OW12589   3.754   6.433   2.428
 3897SOL    HW112590   3.789   6.426   2.521
 3897SOL    HW212591   3.658   6.459   2.430
 3898SOL     OW12592   3.680   4.154   4.324
 3898SOL    HW112593   3.713   4.113   4.238
 3898SOL    HW212594   3.711   4.249   4.329
 3899SOL     OW12595   5.113   1.554   4.833
 3899SOL    HW112596   5.059   1.531   4.752
 3899SOL    HW212597   5.144   1.471   4.878
 3900SOL     OW12598   6.729   2.478   3.828
 3900SOL    HW112599   6.678   2.554   3.869
 3900SOL    HW212600   6.665   2.414   3.787
 3901SOL     OW12601   2.516   5.665   5.378
 3901SOL    HW112602   2.523   5.762   5.400
 3901SOL    HW212603   2.590   5.616   5.423
 3902SOL     OW12604   4.040   4.913   1.720
 3902SOL    HW112605   4.114   4.854   1.685
 3902SOL    HW212606   4.001   4.872   1.803
 3903SOL     OW12607   3.558   2.985   6.163
 3903SOL    HW112608   3.476   2.993   6.219
 3903SOL    HW212609   3.620   2.918   6.203
 3904SOL     OW12610   2.040   6.338   0.517
 3904SOL    HW112611   2.076   6.428   0.494
 3904SOL    HW212612   2.057   6.274   0.442
 3905SOL     OW12613   0.154   0.393   5.389
 3905SOL    HW112614   0.125   0.477   5.343
 3905SOL    HW212615   0.074   0.342   5.421
 3906SOL     OW12616   0.319   5.367   4.971
 3906SOL    HW112617   0.285   5.362   5.065
 3906SOL    HW212618   0.354   5.459   4.953
 3907SOL     OW12619   1.268   0.897   4.683
 3907SOL    HW112620   1.226   0.983   4.655
 3907SOL    HW212621   1.198   0.836   4.721
 3908SOL     OW12622   2.013   0.276   4.668
 3908SOL    HW112623   1.920   0.242   4.678
 3908SOL    HW212624   2.064   0.217   4.605
 3909SOL     OW12625   5.804   2.528   1.019
 3909SOL    HW112626   5.721   2.583   1.010
 3909SOL    HW212627   5.779   2.435   1.044
 3910SOL     OW12628   2.827   2.982   1.409
 3910SOL    HW112629   2.754   3.046   1.386
 3910SOL    HW212630   2.915   3.021   1.382
 3911SOL     OW12631   6.409   0.834   0.905
 3911SOL    HW112632   6.497   0.817   0.950
 3911SOL    HW212633   6.388   0.931   0.909
 3912SOL     OW12634   4.017   3.457   6.853
 3912SOL    HW112635   3.994   3.361   6.835
 3912SOL    HW212636   4.104   3.462   6.903
 3913SOL     OW12637   4.593   5.645   1.446
 3913SOL    HW112638   4.609   5.731   1.398
 3913SOL    HW212639   4.587   5.662   1.544
 3914SOL     OW12640   6.941   1.282   0.709
 3914SOL    HW112641   6.986   1.208   0.659
 3914SOL    HW212642   6.898   1.345   0.645
 3915SOL     OW12643   5.131   5.601   5.796
 3915SOL    HW112644   5.052   5.644   5.752
 3915SOL    HW212645   5.150   5.648   5.883
 3916SOL     OW12646   2.559   1.644   3.238
 3916SOL    HW112647   2.575   1.548   3.259
 3916SOL    HW212648   2.477   1.653   3.182
 3917SOL     OW12649   3.745   4.698   1.283
 3917SOL    HW112650   3.689   4.769   1.325
 3917SOL    HW212651   3.769   4.725   1.190
 3918SOL     OW12652   5.061   1.099   0.169
 3918SOL    HW112653   5.159   1.092   0.153
 3918SOL    HW212654   5.031   1.024   0.227
 3919SOL     OW12655   4.521   6.190   2.448
 3919SOL    HW112656   4.450   6.191   2.518
 3919SOL    HW212657   4.609   6.166   2.489
 3920SOL     OW12658   3.273   1.770   5.286
 3920SOL    HW112659   3.236   1.715   5.360
 3920SOL    HW212660   3.220   1.854   5.276
 3921SOL     OW12661   7.019   3.050   6.177
 3921SOL    HW112662   6.960   2.976   6.208
 3921SOL    HW212663   0.004   3.120   6.248
 3922SOL     OW12664   5.039   3.872   2.851
 3922SOL    HW112665   4.994   3.795   2.805
 3922SOL    HW212666   5.136   3.874   2.825
 3923SOL     OW12667   4.855   1.080   1.646
 3923SOL    HW112668   4.896   0.998   1.686
 3923SOL    HW212669   4.916   1.118   1.577
 3924SOL     OW12670   5.951   5.123   3.937
 3924SOL    HW112671   5.934   5.043   3.994
 3924SOL    HW212672   5.930   5.101   3.841
 3925SOL     OW12673   5.283   4.588   0.609
 3925SOL    HW112674   5.361   4.647   0.629
 3925SOL    HW212675   5.300   4.497   0.646
 3926SOL     OW12676   0.922   5.598   5.186
 3926SOL    HW112677   0.856   5.666   5.216
 3926SOL    HW212678   0.888   5.552   5.104
 3927SOL     OW12679   5.288   2.224   6.058
 3927SOL    HW112680   5.260   2.302   6.001
 3927SOL    HW212681   5.220   2.151   6.049
 3928SOL     OW12682   3.410   5.691   1.974
 3928SOL    HW112683   3.355   5.609   1.988
 3928SOL    HW212684   3.450   5.720   2.061
 3929SOL     OW12685   0.523   2.072   5.526
 3929SOL    HW112686   0.423   2.076   5.527
 3929SOL    HW212687   0.558   2.086   5.618
 3930SOL     OW12688   2.404   4.794   3.736
 3930SOL    HW112689   2.306   4.809   3.725
 3930SOL    HW212690   2.419   4.706   3.782
 3931SOL     OW12691   2.035   2.783   1.074
 3931SOL    HW112692   2.074   2.694   1.097
 3931SOL    HW212693   1.959   2.803   1.136
 3932SOL     OW12694   2.480   4.576   3.917
 3932SOL    HW112695   2.433   4.620   3.993
 3932SOL    HW212696   2.451   4.480   3.912
 3933SOL     OW12697   1.678   6.374   1.293
 3933SOL    HW112698   1.702   6.278   1.305
 3933SOL    HW212699   1.761   6.430   1.289
 3934SOL     OW12700   0.820   0.050   1.811
 3934SOL    HW112701   0.838   0.069   1.715
 3934SOL    HW212702   0.732   0.090   1.837
 3935SOL     OW12703   6.625   3.833   5.690
 3935SOL    HW112704   6.607   3.859   5.785
 3935SOL    HW212705   6.719   3.856   5.666
 3936SOL     OW12706   6.320   4.164   5.485
 3936SOL    HW112707   6.371   4.133   5.405
 3936SOL    HW212708   6.372   4.142   5.568
 3937SOL     OW12709   0.495   6.446   1.442
 3937SOL    HW112710   0.590   6.468   1.466
 3937SOL    HW212711   0.446   6.417   1.524
 3938SOL     OW12712   0.903   3.492   1.602
 3938SOL    HW112713   0.943   3.475   1.512
 3938SOL    HW212714   0.864   3.584   1.605
 3939SOL     OW12715   0.960   0.900   3.371
 3939SOL    HW112716   0.875   0.858   3.401
 3939SOL    HW212717   0.988   0.860   3.284
 3940SOL     OW12718   3.448   6.386   0.512
 3940SOL    HW112719   3.499   6.301   0.522
 3940SOL    HW212720   3.512   6.460   0.489
 3941SOL     OW12721   5.367   5.651   2.065
 3941SOL    HW112722   5.312   5.590   2.121
 3941SOL    HW212723   5.457   5.664   2.108
 3942SOL     OW12724   0.044   5.818   5.530
 3942SOL    HW112725   7.016   5.730   5.538
 3942SOL    HW212726   7.001   5.892   5.555
 3943SOL     OW12727   1.785   3.217   0.537
 3943SOL    HW112728   1.870   3.186   0.581
 3943SOL    HW212729   1.752   3.299   0.583
 3944SOL     OW12730   4.874   2.644   6.922
 3944SOL    HW112731   4.792   2.606   6.967
 3944SOL    HW212732   4.852   2.669   6.828
 3945SOL     OW12733   5.371   0.207   3.878
 3945SOL    HW112734   5.440   0.149   3.921
 3945SOL    HW212735   5.292   0.151   3.852
 3946SOL     OW12736   0.425   3.324   0.732
 3946SOL    HW112737   0.411   3.375   0.818
 3946SOL    HW212738   0.516   3.345   0.696
 3947SOL     OW12739   6.430   5.445   1.782
 3947SOL    HW112740   6.369   5.524   1.787
 3947SOL    HW212741   6.375   5.361   1.785
 3948SOL     OW12742   1.583   2.775   5.949
 3948SOL    HW112743   1.554   2.681   5.962
 3948SOL    HW212744   1.529   2.818   5.876
 3949SOL     OW12745   6.118   0.340   2.128
 3949SOL    HW112746   6.024   0.306   2.135
 3949SOL    HW212747   6.182   0.265   2.145
 3950SOL     OW12748   2.724   4.687   1.677
 3950SOL    HW112749   2.764   4.664   1.766
 3950SOL    HW212750   2.723   4.605   1.619
 3951SOL     OW12751   0.733   2.331   4.844
 3951SOL    HW112752   0.735   2.268   4.767
 3951SOL    HW212753   0.824   2.367   4.861
 3952SOL     OW12754   5.482   3.769   0.512
 3952SOL    HW112755   5.531   3.688   0.546
 3952SOL    HW212756   5.547   3.843   0.497
 3953SOL     OW12757   3.347   3.246   6.826
 3953SOL    HW112758   3.353   3.346   6.827
 3953SOL    HW212759   3.273   3.217   6.886
 3954SOL     OW12760   0.782   2.824   5.585
 3954SOL    HW112761   0.685   2.841   5.601
 3954SOL    HW212762   0.836   2.890   5.638
 3955SOL     OW12763   6.760   3.633   0.474
 3955SOL    HW112764   6.668   3.671   0.472
 3955SOL    HW212765   6.768   3.569   0.551
 3956SOL     OW12766   6.650   2.794   5.496
 3956SOL    HW112767   6.623   2.887   5.472
 3956SOL    HW212768   6.588   2.758   5.566
 3957SOL     OW12769   0.729   1.480   3.482
 3957SOL    HW112770   0.672   1.562   3.491
 3957SOL    HW212771   0.710   1.437   3.393
 3958SOL     OW12772   5.384   6.118   7.009
 3958SOL    HW112773   5.344   6.165   0.069
 3958SOL    HW212774   5.380   6.179   6.930
 3959SOL     OW12775   2.535   6.265   0.803
 3959SOL    HW112776   2.467   6.335   0.825
 3959SOL    HW212777   2.543   6.201   0.879
 3960SOL     OW12778   5.377   3.458   1.113
 3960SOL    HW112779   5.380   3.377   1.171
 3960SOL    HW212780   5.306   3.520   1.145
 3961SOL     OW12781   5.462   0.315   1.234
 3961SOL    HW112782   5.460   0.269   1.323
 3961SOL    HW212783   5.406   0.264   1.169
 3962SOL     OW12784   0.860   0.023   5.789
 3962SOL    HW112785   0.907   6.993   5.862
 3962SOL    HW212786   0.926   0.076   5.737
 3963SOL     OW12787   4.486   5.222   3.010
 3963SOL    HW112788   4.482   5.191   2.915
 3963SOL    HW212789   4.471   5.143   3.071
 3964SOL     OW12790   6.312   6.204   6.138
 3964SOL    HW112791   6.397   6.245   6.105
 3964SOL    HW212792   6.288   6.127   6.079
 3965SOL     OW12793   3.845   2.955   0.157
 3965SOL    HW112794   3.867   2.883   0.223
 3965SOL    HW212795   3.927   2.981   0.107
 3966SOL     OW12796   6.075   3.410   5.581
 3966SOL    HW112797   6.017   3.479   5.623
 3966SOL    HW212798   6.103   3.343   5.650
 3967SOL     OW12799   2.115   6.830   6.680
 3967SOL    HW112800   2.049   6.879   6.622
 3967SOL    HW212801   2.171   6.896   6.730
 3968SOL     OW12802   5.341   0.480   1.525
 3968SOL    HW112803   5.312   0.541   1.599
 3968SOL    HW212804   5.346   0.532   1.440
 3969SOL     OW12805   0.610   6.211   1.859
 3969SOL    HW112806   0.569   6.298   1.831
 3969SOL    HW212807   0.683   6.187   1.795
 3970SOL     OW12808   4.698   4.324   4.408
 3970SOL    HW112809   4.692   4.313   4.308
 3970SOL    HW212810   4.632   4.392   4.438
 3971SOL     OW12811   1.432   6.218   3.682
 3971SOL    HW112812   1.460   6.232   3.587
 3971SOL    HW212813   1.350   6.271   3.702
 3972SOL     OW12814   1.036   0.677   0.166
 3972SOL    HW112815   0.981   0.625   0.231
 3972SOL    HW212816   1.064   0.617   0.091
 3973SOL     OW12817   3.720   2.882   2.891
 3973SOL    HW112818   3.708   2.858   2.794
 3973SOL    HW212819   3.642   2.848   2.943
 3974SOL     OW12820   5.772   0.578   6.032
 3974SOL    HW112821   5.856   0.557   6.082
 3974SOL    HW212822   5.708   0.624   6.093
 3975SOL     OW12823   6.879   6.000   5.573
 3975SOL    HW112824   6.828   6.017   5.658
 3975SOL    HW212825   6.836   6.049   5.498
 3976SOL     OW12826   1.279   3.382   6.806
 3976SOL    HW112827   1.371   3.346   6.790
 3976SOL    HW212828   1.214   3.306   6.812
 3977SOL     OW12829   3.953   6.157   5.896
 3977SOL    HW112830   3.959   6.257   5.887
 3977SOL    HW212831   3.949   6.132   5.993
 3978SOL     OW12832   6.303   4.136   6.589
 3978SOL    HW112833   6.273   4.121   6.495
 3978SOL    HW212834   6.238   4.195   6.637
 3979SOL     OW12835   1.352   6.601   3.175
 3979SOL    HW112836   1.340   6.511   3.218
 3979SOL    HW212837   1.269   6.655   3.189
 3980SOL     OW12838   5.004   3.543   4.875
 3980SOL    HW112839   4.973   3.455   4.838
 3980SOL    HW212840   4.928   3.589   4.919
 3981SOL     OW12841   6.535   2.239   5.620
 3981SOL    HW112842   6.615   2.287   5.657
 3981SOL    HW212843   6.478   2.304   5.569
 3982SOL     OW12844   2.406   2.287   4.006
 3982SOL    HW112845   2.499   2.319   4.024
 3982SOL    HW212846   2.345   2.366   3.999
 3983SOL     OW12847   3.751   0.019   3.807
 3983SOL    HW112848   3.730   0.113   3.836
 3983SOL    HW212849   3.706   0.001   3.719
 3984SOL     OW12850   1.416   0.454   1.596
 3984SOL    HW112851   1.353   0.435   1.671
 3984SOL    HW212852   1.413   0.379   1.530
 3985SOL     OW12853   1.568   3.172   1.788
 3985SOL    HW112854   1.594   3.155   1.694
 3985SOL    HW212855   1.584   3.268   1.811
 3986SOL     OW12856   1.157   2.699   1.963
 3986SOL    HW112857   1.059   2.713   1.975
 3986SOL    HW212858   1.177   2.679   1.867
 3987SOL     OW12859   1.861   4.211   6.206
 3987SOL    HW112860   1.871   4.198   6.107
 3987SOL    HW212861   1.948   4.191   6.251
 3988SOL     OW12862   4.863   1.498   6.930
 3988SOL    HW112863   4.802   1.503   7.009
 3988SOL    HW212864   4.947   1.547   6.950
 3989SOL     OW12865   4.126   0.689   6.417
 3989SOL    HW112866   4.121   0.773   6.469
 3989SOL    HW212867   4.040   0.673   6.370
 3990SOL     OW12868   1.661   2.711   3.865
 3990SOL    HW112869   1.655   2.674   3.772
 3990SOL    HW212870   1.755   2.703   3.898
 3991SOL     OW12871   0.600   1.149   4.376
 3991SOL    HW112872   0.658   1.069   4.357
 3991SOL    HW212873   0.609   1.175   4.472
 3992SOL     OW12874   5.442   4.183   6.505
 3992SOL    HW112875   5.460   4.237   6.587
 3992SOL    HW212876   5.520   4.123   6.486
 3993SOL     OW12877   1.292   0.955   3.842
 3993SOL    HW112878   1.202   0.930   3.876
 3993SOL    HW212879   1.327   1.033   3.893
 3994SOL     OW12880   2.400   1.649   3.926
 3994SOL    HW112881   2.414   1.748   3.921
 3994SOL    HW212882   2.390   1.613   3.833
 3995SOL     OW12883   0.949   3.637   2.029
 3995SOL    HW112884   0.947   3.736   2.042
 3995SOL    HW212885   1.044   3.607   2.019
 3996SOL     OW12886   5.947   6.495   4.079
 3996SOL    HW112887   5.909   6.584   4.056
 3996SOL    HW212888   6.008   6.464   4.007
 3997SOL     OW12889   5.467   3.540   2.425
 3997SOL    HW112890   5.389   3.602   2.437
 3997SOL    HW212891   5.446   3.451   2.465
 3998SOL     OW12892   5.837   2.311   2.806
 3998SOL    HW112893   5.822   2.222   2.764
 3998SOL    HW212894   5.749   2.358   2.817
 3999SOL     OW12895   4.889   2.728   1.333
 3999SOL    HW112896   4.824   2.676   1.278
 3999SOL    HW212897   4.840   2.789   1.396
 4000SOL     OW12898   3.512   4.981   2.395
 4000SOL    HW112899   3.535   4.945   2.485
 4000SOL    HW212900   3.422   4.948   2.368
 4001SOL     OW12901   1.095   4.457   4.206
 4001SOL    HW112902   1.131   4.439   4.114
 4001SOL    HW212903   1.168   4.447   4.273
 4002SOL     OW12904   3.282   4.108   3.451
 4002SOL    HW112905   3.215   4.140   3.518
 4002SOL    HW212906   3.238   4.099   3.362
 4003SOL     OW12907   2.324   1.015   5.716
 4003SOL    HW112908   2.265   0.954   5.770
 4003SOL    HW212909   2.273   1.051   5.639
 4004SOL     OW12910   1.259   3.970   3.555
 4004SOL    HW112911   1.160   3.977   3.548
 4004SOL    HW212912   1.303   4.034   3.493
 4005SOL     OW12913   5.028   3.161   6.990
 4005SOL    HW112914   5.101   3.203   0.024
 4005SOL    HW212915   4.984   3.089   0.024
 4006SOL     OW12916   5.245   5.498   3.125
 4006SOL    HW112917   5.157   5.510   3.172
 4006SOL    HW212918   5.308   5.447   3.185
 4007SOL     OW12919   0.139   1.075   2.994
 4007SOL    HW112920   0.176   1.144   3.057
 4007SOL    HW212921   0.212   1.042   2.934
 4008SOL     OW12922   3.471   1.072   0.493
 4008SOL    HW112923   3.560   1.071   0.539
 4008SOL    HW212924   3.475   1.017   0.410
 4009SOL     OW12925   4.795   2.291   0.357
 4009SOL    HW112926   4.717   2.284   0.420
 4009SOL    HW212927   4.863   2.222   0.381
 4010SOL     OW12928   2.622   5.315   1.862
 4010SOL    HW112929   2.696   5.351   1.805
 4010SOL    HW212930   2.600   5.382   1.933
 4011SOL     OW12931   4.564   5.923   0.017
 4011SOL    HW112932   4.604   5.983   6.968
 4011SOL    HW212933   4.499   5.975   0.073
 4012SOL     OW12934   4.653   6.425   2.807
 4012SOL    HW112935   4.630   6.515   2.843
 4012SOL    HW212936   4.632   6.421   2.710
 4013SOL     OW12937   0.133   1.403   6.154
 4013SOL    HW112938   0.084   1.439   6.233
 4013SOL    HW212939   0.223   1.370   6.183
 4014SOL     OW12940   3.141   4.839   2.577
 4014SOL    HW112941   3.157   4.816   2.481
 4014SOL    HW212942   3.228   4.860   2.621
 4015SOL     OW12943   4.266   4.795   5.872
 4015SOL    HW112944   4.351   4.836   5.837
 4015SOL    HW212945   4.274   4.696   5.872
 4016SOL     OW12946   4.121   5.267   5.088
 4016SOL    HW112947   4.073   5.346   5.127
 4016SOL    HW212948   4.062   5.223   5.021
 4017SOL     OW12949   0.621   4.876   5.530
 4017SOL    HW112950   0.559   4.824   5.472
 4017SOL    HW212951   0.569   4.944   5.582
 4018SOL     OW12952   4.504   6.054   1.843
 4018SOL    HW112953   4.432   6.016   1.902
 4018SOL    HW212954   4.514   6.152   1.861
 4019SOL     OW12955   5.568   3.317   3.481
 4019SOL    HW112956   5.550   3.252   3.554
 4019SOL    HW212957   5.625   3.274   3.411
 4020SOL     OW12958   6.488   5.374   4.187
 4020SOL    HW112959   6.486   5.467   4.226
 4020SOL    HW212960   6.505   5.308   4.260
 4021SOL     OW12961   4.317   3.675   6.192
 4021SOL    HW112962   4.322   3.723   6.279
 4021SOL    HW212963   4.222   3.670   6.162
 4022SOL     OW12964   1.738   0.720   1.746
 4022SOL    HW112965   1.663   0.739   1.682
 4022SOL    HW212966   1.788   0.804   1.765
 4023SOL     OW12967   0.461   1.720   5.214
 4023SOL    HW112968   0.384   1.765   5.169
 4023SOL    HW212969   0.515   1.671   5.146
 4024SOL     OW12970   0.645   5.898   4.573
 4024SOL    HW112971   0.649   5.859   4.665
 4024SOL    HW212972   0.625   5.826   4.506
 4025SOL     OW12973   0.316   5.517   3.852
 4025SOL    HW112974   0.315   5.537   3.950
 4025SOL    HW212975   0.276   5.427   3.836
 4026SOL     OW12976   6.438   6.788   3.867
 4026SOL    HW112977   6.424   6.708   3.808
 4026SOL    HW212978   6.528   6.827   3.850
 4027SOL     OW12979   2.580   4.075   6.181
 4027SOL    HW112980   2.492   4.066   6.228
 4027SOL    HW212981   2.577   4.155   6.121
 4028SOL     OW12982   4.477   1.984   2.944
 4028SOL    HW112983   4.411   2.059   2.951
 4028SOL    HW212984   4.514   1.964   3.035
 4029SOL     OW12985   1.956   5.829   6.788
 4029SOL    HW112986   1.916   5.746   6.750
 4029SOL    HW212987   2.042   5.850   6.742
 4030SOL     OW12988   6.916   1.077   2.860
 4030SOL    HW112989   6.880   0.990   2.825
 4030SOL    HW212990   7.006   1.061   2.902
 4031SOL     OW12991   6.189   6.333   1.367
 4031SOL    HW112992   6.224   6.307   1.277
 4031SOL    HW212993   6.203   6.257   1.431
 4032SOL     OW12994   5.353   0.638   1.742
 4032SOL    HW112995   5.304   0.707   1.796
 4032SOL    HW212996   5.424   0.683   1.687
 4033SOL     OW12997   1.725   2.605   2.787
 4033SOL    HW112998   1.801   2.539   2.795
 4033SOL    HW212999   1.733   2.673   2.859
 4034SOL     OW13000   0.003   3.102   5.416
 4034SOL    HW113001   0.016   3.125   5.512
 4034SOL    HW213002   6.928   3.121   5.389
 4035SOL     OW13003   4.831   1.502   1.657
 4035SOL    HW113004   4.887   1.506   1.739
 4035SOL    HW213005   4.781   1.588   1.647
 4036SOL     OW13006   2.642   5.425   2.944
 4036SOL    HW113007   2.568   5.382   2.893
 4036SOL    HW213008   2.635   5.401   3.041
 4037SOL     OW13009   2.528   1.114   6.150
 4037SOL    HW113010   2.587   1.148   6.076
 4037SOL    HW213011   2.542   1.016   6.162
 4038SOL     OW13012   3.278   3.524   5.771
 4038SOL    HW113013   3.376   3.508   5.773
 4038SOL    HW213014   3.254   3.597   5.836
 4039SOL     OW13015   6.233   4.721   1.485
 4039SOL    HW113016   6.154   4.698   1.428
 4039SOL    HW213017   6.205   4.724   1.581
 4040SOL     OW13018   3.168   6.049   4.720
 4040SOL    HW113019   3.159   5.963   4.671
 4040SOL    HW213020   3.252   6.095   4.692
 4041SOL     OW13021   2.744   6.449   0.644
 4041SOL    HW113022   2.725   6.531   0.697
 4041SOL    HW213023   2.682   6.375   0.672
 4042SOL     OW13024   5.861   0.770   3.721
 4042SOL    HW113025   5.904   0.702   3.662
 4042SOL    HW213026   5.929   0.838   3.748
 4043SOL     OW13027   5.169   3.512   6.629
 4043SOL    HW113028   5.184   3.444   6.701
 4043SOL    HW213029   5.171   3.467   6.540
 4044SOL     OW13030   4.553   5.413   3.177
 4044SOL    HW113031   4.521   5.337   3.121
 4044SOL    HW213032   4.636   5.452   3.137
 4045SOL     OW13033   5.079   0.310   5.359
 4045SOL    HW113034   5.028   0.358   5.288
 4045SOL    HW213035   5.029   0.315   5.446
 4046SOL     OW13036   5.916   1.780   2.351
 4046SOL    HW113037   5.831   1.783   2.299
 4046SOL    HW213038   5.973   1.705   2.318
 4047SOL     OW13039   2.646   3.486   7.016
 4047SOL    HW113040   2.743   3.477   0.016
 4047SOL    HW213041   2.610   3.399   6.981
 4048SOL     OW13042   4.504   1.475   1.826
 4048SOL    HW113043   4.549   1.562   1.805
 4048SOL    HW213044   4.423   1.491   1.882
 4049SOL     OW13045   3.629   4.382   6.312
 4049SOL    HW113046   3.681   4.466   6.324
 4049SOL    HW213047   3.683   4.317   6.258
 4050SOL     OW13048   0.555   5.750   2.506
 4050SOL    HW113049   0.511   5.674   2.552
 4050SOL    HW213050   0.639   5.774   2.554
 4051SOL     OW13051   5.302   1.035   5.283
 4051SOL    HW113052   5.240   1.078   5.217
 4051SOL    HW213053   5.388   1.086   5.285
 4052SOL     OW13054   6.540   2.390   3.621
 4052SOL    HW113055   6.509   2.484   3.604
 4052SOL    HW213056   6.501   2.329   3.552
 4053SOL     OW13057   0.866   5.117   4.627
 4053SOL    HW113058   0.900   5.192   4.570
 4053SOL    HW213059   0.766   5.119   4.629
 4054SOL     OW13060   4.560   4.056   0.245
 4054SOL    HW113061   4.579   4.030   0.150
 4054SOL    HW213062   4.618   4.133   0.270
 4055SOL     OW13063   0.277   4.297   0.879
 4055SOL    HW113064   0.369   4.336   0.872
 4055SOL    HW213065   0.215   4.348   0.820
 4056SOL     OW13066   4.976   3.333   0.804
 4056SOL    HW113067   4.995   3.268   0.730
 4056SOL    HW213068   5.062   3.370   0.839
 4057SOL     OW13069   6.869   2.992   6.679
 4057SOL    HW113070   6.857   2.902   6.722
 4057SOL    HW213071   6.793   3.052   6.707
 4058SOL     OW13072   2.833   6.532   5.692
 4058SOL    HW113073   2.759   6.577   5.643
 4058SOL    HW213074   2.819   6.433   5.690
 4059SOL     OW13075   1.362   1.628   4.687
 4059SOL    HW113076   1.430   1.580   4.632
 4059SOL    HW213077   1.345   1.719   4.647
 4060SOL     OW13078   6.449   5.862   5.800
 4060SOL    HW113079   6.399   5.802   5.738
 4060SOL    HW213080   6.501   5.929   5.747
 4061SOL     OW13081   2.224   5.686   1.180
 4061SOL    HW113082   2.146   5.735   1.138
 4061SOL    HW213083   2.204   5.668   1.276
 4062SOL     OW13084   1.730   1.829   1.747
 4062SOL    HW113085   1.721   1.928   1.754
 4062SOL    HW213086   1.678   1.796   1.668
 4063SOL     OW13087   5.103   1.580   0.391
 4063SOL    HW113088   5.075   1.508   0.328
 4063SOL    HW213089   5.123   1.664   0.340
 4064SOL     OW13090   2.078   2.057   5.375
 4064SOL    HW113091   1.987   2.090   5.402
 4064SOL    HW213092   2.070   2.007   5.288
 4065SOL     OW13093   2.226   6.766   1.102
 4065SOL    HW113094   2.207   6.783   1.006
 4065SOL    HW213095   2.317   6.727   1.113
 4066SOL     OW13096   0.013   4.211   3.674
 4066SOL    HW113097   6.951   4.230   3.727
 4066SOL    HW213098   0.094   4.220   3.733
 4067SOL     OW13099   4.729   4.850   1.607
 4067SOL    HW113100   4.819   4.895   1.605
 4067SOL    HW213101   4.658   4.919   1.622
 4068SOL     OW13102   1.787   2.906   5.136
 4068SOL    HW113103   1.822   2.857   5.056
 4068SOL    HW213104   1.857   2.967   5.171
 4069SOL     OW13105   4.201   0.001   0.054
 4069SOL    HW113106   4.243   6.947   0.106
 4069SOL    HW213107   4.159   6.983   6.991
 4070SOL     OW13108   1.391   3.042   3.195
 4070SOL    HW113109   1.369   2.955   3.240
 4070SOL    HW213110   1.490   3.050   3.185
 4071SOL     OW13111   0.592   0.426   4.071
 4071SOL    HW113112   0.647   0.345   4.053
 4071SOL    HW213113   0.513   0.428   4.010
 4072SOL     OW13114   2.201   5.713   3.402
 4072SOL    HW113115   2.115   5.712   3.452
 4072SOL    HW213116   2.258   5.636   3.433
 4073SOL     OW13117   3.211   4.873   0.265
 4073SOL    HW113118   3.264   4.957   0.266
 4073SOL    HW213119   3.244   4.812   0.338
 4074SOL     OW13120   1.038   6.086   2.906
 4074SOL    HW113121   1.092   6.036   2.973
 4074SOL    HW213122   1.056   6.051   2.815
 4075SOL     OW13123   5.895   0.310   0.592
 4075SOL    HW113124   5.800   0.328   0.618
 4075SOL    HW213125   5.936   0.393   0.555
 4076SOL     OW13126   2.840   3.786   5.124
 4076SOL    HW113127   2.754   3.837   5.126
 4076SOL    HW213128   2.913   3.841   5.165
 4077SOL     OW13129   3.651   1.640   1.802
 4077SOL    HW113130   3.615   1.697   1.875
 4077SOL    HW213131   3.703   1.696   1.737
 4078SOL     OW13132   2.878   4.828   2.672
 4078SOL    HW113133   2.834   4.774   2.744
 4078SOL    HW213134   2.971   4.794   2.658
 4079SOL     OW13135   0.988   2.212   4.232
 4079SOL    HW113136   0.948   2.303   4.244
 4079SOL    HW213137   1.087   2.218   4.240
 4080SOL     OW13138   6.469   1.454   5.104
 4080SOL    HW113139   6.388   1.495   5.061
 4080SOL    HW213140   6.550   1.508   5.082
 4081SOL     OW13141   1.838   3.204   3.617
 4081SOL    HW113142   1.792   3.273   3.561
 4081SOL    HW213143   1.936   3.224   3.621
 4082SOL     OW13144   0.967   2.692   1.157
 4082SOL    HW113145   1.054   2.679   1.206
 4082SOL    HW213146   0.966   2.636   1.075
 4083SOL     OW13147   5.580   2.521   4.950
 4083SOL    HW113148   5.625   2.554   4.867
 4083SOL    HW213149   5.621   2.565   5.030
 4084SOL     OW13150   0.346   1.480   4.251
 4084SOL    HW113151   0.341   1.576   4.224
 4084SOL    HW213152   0.370   1.474   4.348
 4085SOL     OW13153   3.578   6.685   0.146
 4085SOL    HW113154   3.644   6.754   0.177
 4085SOL    HW213155   3.623   6.623   0.082
 4086SOL     OW13156   1.645   4.593   1.024
 4086SOL    HW113157   1.550   4.566   1.039
 4086SOL    HW213158   1.699   4.574   1.106
 4087SOL     OW13159   2.150   1.970   3.442
 4087SOL    HW113160   2.229   1.949   3.384
 4087SOL    HW213161   2.075   1.908   3.421
 4088SOL     OW13162   6.440   1.923   1.240
 4088SOL    HW113163   6.431   1.984   1.319
 4088SOL    HW213164   6.537   1.915   1.215
 4089SOL     OW13165   0.993   0.927   4.234
 4089SOL    HW113166   1.001   0.952   4.138
 4089SOL    HW213167   1.020   0.831   4.246
 4090SOL     OW13168   2.161   4.583   6.499
 4090SOL    HW113169   2.186   4.677   6.475
 4090SOL    HW213170   2.243   4.532   6.523
 4091SOL     OW13171   4.249   5.924   0.398
 4091SOL    HW113172   4.228   5.921   0.495
 4091SOL    HW213173   4.348   5.938   0.386
 4092SOL     OW13174   0.557   2.882   4.820
 4092SOL    HW113175   0.461   2.867   4.798
 4092SOL    HW213176   0.587   2.969   4.782
 4093SOL     OW13177   5.098   0.680   3.818
 4093SOL    HW113178   5.005   0.645   3.832
 4093SOL    HW213179   5.110   0.764   3.871
 4094SOL     OW13180   1.932   4.182   5.273
 4094SOL    HW113181   2.008   4.118   5.280
 4094SOL    HW213182   1.967   4.276   5.279
 4095SOL     OW13183   0.977   3.087   6.521
 4095SOL    HW113184   1.000   3.142   6.441
 4095SOL    HW213185   0.982   2.990   6.498
 4096SOL     OW13186   4.441   4.848   6.893
 4096SOL    HW113187   4.413   4.826   6.800
 4096SOL    HW213188   4.375   4.810   6.958
 4097SOL     OW13189   3.225   3.783   5.851
 4097SOL    HW113190   3.211   3.819   5.759
 4097SOL    HW213191   3.137   3.752   5.888
 4098SOL     OW13192   0.497   2.240   3.047
 4098SOL    HW113193   0.546   2.270   3.129
 4098SOL    HW213194   0.467   2.145   3.060
 4099SOL     OW13195   3.344   6.002   1.903
 4099SOL    HW113196   3.337   5.923   1.964
 4099SOL    HW213197   3.430   5.997   1.852
 4100SOL     OW13198   4.186   5.595   3.706
 4100SOL    HW113199   4.213   5.526   3.772
 4100SOL    HW213200   4.267   5.625   3.654
 4101SOL     OW13201   5.780   1.485   6.300
 4101SOL    HW113202   5.768   1.548   6.223
 4101SOL    HW213203   5.868   1.502   6.344
 4102SOL     OW13204   5.982   1.138   0.304
 4102SOL    HW113205   6.032   1.204   0.360
 4102SOL    HW213206   5.884   1.157   0.309
 4103SOL     OW13207   0.505   0.550   2.139
 4103SOL    HW113208   0.415   0.516   2.110
 4103SOL    HW213209   0.570   0.474   2.139
 4104SOL     OW13210   1.499   4.855   2.305
 4104SOL    HW113211   1.428   4.909   2.349
 4104SOL    HW213212   1.574   4.840   2.369
 4105SOL     OW13213   3.586   5.082   0.467
 4105SOL    HW113214   3.649   5.160   0.463
 4105SOL    HW213215   3.527   5.090   0.547
 4106SOL     OW13216   0.042   3.805   4.713
 4106SOL    HW113217   0.111   3.791   4.641
 4106SOL    HW213218   0.087   3.801   4.803
 4107SOL     OW13219   0.135   0.212   1.224
 4107SOL    HW113220   0.093   0.143   1.283
 4107SOL    HW213221   0.132   0.301   1.268
 4108SOL     OW13222   6.713   3.508   6.533
 4108SOL    HW113223   6.806   3.474   6.523
 4108SOL    HW213224   6.657   3.475   6.457
 4109SOL     OW13225   4.036   6.392   3.960
 4109SOL    HW113226   3.945   6.384   4.001
 4109SOL    HW213227   4.064   6.488   3.959
 4110SOL     OW13228   5.146   3.789   6.139
 4110SOL    HW113229   5.090   3.733   6.200
 4110SOL    HW213230   5.219   3.734   6.100
 4111SOL     OW13231   4.003   2.758   6.738
 4111SOL    HW113232   3.949   2.786   6.818
 4111SOL    HW213233   4.063   2.683   6.764
 4112SOL     OW13234   3.347   1.822   3.841
 4112SOL    HW113235   3.265   1.800   3.894
 4112SOL    HW213236   3.428   1.787   3.889
 4113SOL     OW13237   3.488   4.908   5.111
 4113SOL    HW113238   3.456   4.929   5.019
 4113SOL    HW213239   3.584   4.936   5.121
 4114SOL     OW13240   3.045   1.817   3.594
 4114SOL    HW113241   3.143   1.839   3.592
 4114SOL    HW213242   2.994   1.885   3.542
 4115SOL     OW13243   4.778   4.659   1.915
 4115SOL    HW113244   4.703   4.703   1.866
 4115SOL    HW213245   4.749   4.570   1.948
 4116SOL     OW13246   3.808   1.877   1.602
 4116SOL    HW113247   3.736   1.857   1.535
 4116SOL    HW213248   3.772   1.938   1.672
 4117SOL     OW13249   0.933   5.290   1.315
 4117SOL    HW113250   1.029   5.319   1.310
 4117SOL    HW213251   0.917   5.243   1.402
 4118SOL     OW13252   1.326   6.597   0.593
 4118SOL    HW113253   1.404   6.592   0.656
 4118SOL    HW213254   1.313   6.508   0.549
 4119SOL     OW13255   3.629   0.840   4.414
 4119SOL    HW113256   3.547   0.863   4.465
 4119SOL    HW213257   3.613   0.757   4.360
 4120SOL     OW13258   4.026   6.800   1.338
 4120SOL    HW113259   4.046   6.879   1.281
 4120SOL    HW213260   4.089   6.797   1.415
 4121SOL     OW13261   6.907   2.412   4.267
 4121SOL    HW113262   6.927   2.401   4.170
 4121SOL    HW213263   6.956   2.492   4.302
 4122SOL     OW13264   0.672   5.868   5.706
 4122SOL    HW113265   0.703   5.788   5.757
 4122SOL    HW213266   0.740   5.891   5.636
 4123SOL     OW13267   5.531   3.882   6.069
 4123SOL    HW113268   5.489   3.919   5.986
 4123SOL    HW213269   5.630   3.872   6.054
 4124SOL     OW13270   5.525   6.412   4.353
 4124SOL    HW113271   5.558   6.482   4.417
 4124SOL    HW213272   5.486   6.457   4.273
 4125SOL     OW13273   4.357   0.773   1.463
 4125SOL    HW113274   4.433   0.774   1.528
 4125SOL    HW213275   4.377   0.712   1.387
 4126SOL     OW13276   2.158   4.192   4.716
 4126SOL    HW113277   2.190   4.204   4.622
 4126SOL    HW213278   2.219   4.240   4.779
 4127SOL     OW13279   5.648   3.198   5.056
 4127SOL    HW113280   5.615   3.107   5.079
 4127SOL    HW213281   5.730   3.218   5.111
 4128SOL     OW13282   1.618   3.438   2.295
 4128SOL    HW113283   1.697   3.388   2.260
 4128SOL    HW213284   1.557   3.374   2.342
 4129SOL     OW13285   5.707   2.368   5.888
 4129SOL    HW113286   5.661   2.335   5.971
 4129SOL    HW213287   5.754   2.292   5.843
 4130SOL     OW13288   6.625   4.247   6.170
 4130SOL    HW113289   6.620   4.181   6.095
 4130SOL    HW213290   6.534   4.284   6.189
 4131SOL     OW13291   6.959   4.846   4.075
 4131SOL    HW113292   0.020   4.836   4.132
 4131SOL    HW213293   6.881   4.801   4.119
 4132SOL     OW13294   5.248   3.130   3.442
 4132SOL    HW113295   5.216   3.225   3.438
 4132SOL    HW213296   5.328   3.124   3.501
 4133SOL     OW13297   2.534   1.199   1.224
 4133SOL    HW113298   2.528   1.292   1.261
 4133SOL    HW213299   2.629   1.180   1.199
 4134SOL     OW13300   2.314   2.057   0.143
 4134SOL    HW113301   2.350   2.008   0.063
 4134SOL    HW213302   2.214   2.050   0.143
 4135SOL     OW13303   2.080   0.930   2.662
 4135SOL    HW113304   2.039   0.866   2.727
 4135SOL    HW213305   2.015   0.948   2.588
 4136SOL     OW13306   6.829   2.108   3.800
 4136SOL    HW113307   6.916   2.106   3.851
 4136SOL    HW213308   6.763   2.163   3.851
 4137SOL     OW13309   3.441   3.875   6.007
 4137SOL    HW113310   3.425   3.838   6.099
 4137SOL    HW213311   3.358   3.865   5.952
 4138SOL     OW13312   4.253   4.747   3.852
 4138SOL    HW113313   4.277   4.690   3.931
 4138SOL    HW213314   4.285   4.702   3.768
 4139SOL     OW13315   1.702   1.764   5.902
 4139SOL    HW113316   1.607   1.752   5.929
 4139SOL    HW213317   1.722   1.707   5.822
 4140SOL     OW13318   3.826   0.952   5.457
 4140SOL    HW113319   3.876   0.943   5.371
 4140SOL    HW213320   3.862   1.030   5.509
 4141SOL     OW13321   5.176   5.126   0.381
 4141SOL    HW113322   5.097   5.184   0.361
 4141SOL    HW213323   5.145   5.045   0.431
 4142SOL     OW13324   6.557   4.246   1.137
 4142SOL    HW113325   6.597   4.337   1.154
 4142SOL    HW213326   6.458   4.255   1.125
 4143SOL     OW13327   6.821   3.041   0.780
 4143SOL    HW113328   6.773   2.954   0.765
 4143SOL    HW213329   6.913   3.022   0.813
 4144SOL     OW13330   5.216   1.263   2.292
 4144SOL    HW113331   5.181   1.356   2.305
 4144SOL    HW213332   5.181   1.204   2.365
 4145SOL     OW13333   1.682   0.483   1.357
 4145SOL    HW113334   1.613   0.477   1.429
 4145SOL    HW213335   1.697   0.579   1.332
 4146SOL     OW13336   4.925   6.926   6.766
 4146SOL    HW113337   4.959   6.832   6.765
 4146SOL    HW213338   4.999   6.989   6.743
 4147SOL     OW13339   3.314   1.823   5.616
 4147SOL    HW113340   3.339   1.730   5.646
 4147SOL    HW213341   3.219   1.824   5.588
 4148SOL     OW13342   6.506   0.567   3.351
 4148SOL    HW113343   6.519   0.545   3.254
 4148SOL    HW213344   6.576   0.633   3.380
 4149SOL     OW13345   6.288   3.744   1.484
 4149SOL    HW113346   6.370   3.697   1.519
 4149SOL    HW213347   6.313   3.802   1.407
 4150SOL     OW13348   5.657   0.267   6.835
 4150SOL    HW113349   5.664   0.199   6.908
 4150SOL    HW213350   5.561   0.288   6.818
 4151SOL     OW13351   0.339   6.377   0.559
 4151SOL    HW113352   0.348   6.467   0.517
 4151SOL    HW213353   0.339   6.307   0.488
 4152SOL     OW13354   4.130   4.647   1.916
 4152SOL    HW113355   4.065   4.715   1.950
 4152SOL    HW213356   4.085   4.589   1.848
 4153SOL     OW13357   5.987   4.854   6.304
 4153SOL    HW113358   5.959   4.902   6.221
 4153SOL    HW213359   6.085   4.867   6.318
 4154SOL     OW13360   6.095   2.941   5.669
 4154SOL    HW113361   6.112   2.930   5.767
 4154SOL    HW213362   6.167   2.896   5.617
 4155SOL     OW13363   0.812   3.440   1.903
 4155SOL    HW113364   0.841   3.517   1.961
 4155SOL    HW213365   0.857   3.448   1.814
 4156SOL     OW13366   5.434   6.504   5.686
 4156SOL    HW113367   5.378   6.474   5.762
 4156SOL    HW213368   5.509   6.560   5.720
 4157SOL     OW13369   4.133   0.796   4.012
 4157SOL    HW113370   4.108   0.877   4.066
 4157SOL    HW213371   4.083   0.798   3.925
 4158SOL     OW13372   0.508   5.205   3.237
 4158SOL    HW113373   0.473   5.187   3.145
 4158SOL    HW213374   0.431   5.209   3.302
 4159SOL     OW13375   0.907   2.794   3.896
 4159SOL    HW113376   0.821   2.768   3.853
 4159SOL    HW213377   0.939   2.880   3.857
 4160SOL     OW13378   6.686   0.127   0.985
 4160SOL    HW113379   6.731   0.206   1.026
 4160SOL    HW213380   6.744   0.089   0.913
 4161SOL     OW13381   1.113   1.720   0.072
 4161SOL    HW113382   1.178   1.655   0.032
 4161SOL    HW213383   1.161   1.800   0.105
 4162SOL     OW13384   6.088   6.654   5.007
 4162SOL    HW113385   6.144   6.637   4.926
 4162SOL    HW213386   6.093   6.575   5.069
 4163SOL     OW13387   5.542   1.566   3.637
 4163SOL    HW113388   5.593   1.587   3.721
 4163SOL    HW213389   5.560   1.472   3.610
 4164SOL     OW13390   1.404   0.671   6.660
 4164SOL    HW113391   1.392   0.575   6.685
 4164SOL    HW213392   1.452   0.719   6.734
 4165SOL     OW13393   3.791   6.711   1.193
 4165SOL    HW113394   3.856   6.760   1.251
 4165SOL    HW213395   3.771   6.765   1.111
 4166SOL     OW13396   4.666   3.124   0.170
 4166SOL    HW113397   4.624   3.079   0.248
 4166SOL    HW213398   4.731   3.193   0.203
 4167SOL     OW13399   2.214   2.633   1.739
 4167SOL    HW113400   2.203   2.541   1.701
 4167SOL    HW213401   2.288   2.633   1.807
 4168SOL     OW13402   0.679   5.268   1.575
 4168SOL    HW113403   0.652   5.364   1.569
 4168SOL    HW213404   0.685   5.229   1.483
 4169SOL     OW13405   5.179   3.385   3.488
 4169SOL    HW113406   5.190   3.445   3.567
 4169SOL    HW213407   5.253   3.402   3.423
 4170SOL     OW13408   3.778   2.664   5.312
 4170SOL    HW113409   3.726   2.734   5.360
 4170SOL    HW213410   3.769   2.677   5.213
 4171SOL     OW13411   5.297   3.559   1.440
 4171SOL    HW113412   5.244   3.476   1.426
 4171SOL    HW213413   5.266   3.630   1.377
 4172SOL     OW13414   0.617   1.836   0.933
 4172SOL    HW113415   0.713   1.810   0.944
 4172SOL    HW213416   0.602   1.927   0.971
 4173SOL     OW13417   5.396   3.019   5.160
 4173SOL    HW113418   5.315   3.043   5.213
 4173SOL    HW213419   5.392   3.064   5.071
 4174SOL     OW13420   4.702   0.474   3.531
 4174SOL    HW113421   4.724   0.418   3.451
 4174SOL    HW213422   4.606   0.501   3.528
 4175SOL     OW13423   3.357   0.044   3.606
 4175SOL    HW113424   3.418   6.992   3.574
 4175SOL    HW213425   3.379   0.068   3.700
 4176SOL     OW13426   4.748   6.892   2.730
 4176SOL    HW113427   4.809   6.813   2.719
 4176SOL    HW213428   4.778   6.946   2.809
 4177SOL     OW13429   0.265   6.150   3.112
 4177SOL    HW113430   0.254   6.187   3.204
 4177SOL    HW213431   0.216   6.063   3.106
 4178SOL     OW13432   3.578   1.646   5.682
 4178SOL    HW113433   3.596   1.672   5.777
 4178SOL    HW213434   3.534   1.557   5.680
 4179SOL     OW13435   5.467   3.665   5.100
 4179SOL    HW113436   5.531   3.589   5.084
 4179SOL    HW213437   5.374   3.629   5.102
 4180SOL     OW13438   4.790   4.339   1.546
 4180SOL    HW113439   4.743   4.361   1.631
 4180SOL    HW213440   4.884   4.375   1.549
 4181SOL     OW13441   0.759   1.580   6.849
 4181SOL    HW113442   0.854   1.548   6.853
 4181SOL    HW213443   0.697   1.501   6.847
 4182SOL     OW13444   6.129   0.218   2.725
 4182SOL    HW113445   6.050   0.163   2.699
 4182SOL    HW213446   6.202   0.208   2.657
 4183SOL     OW13447   1.873   1.756   2.003
 4183SOL    HW113448   1.822   1.778   1.919
 4183SOL    HW213449   1.931   1.676   1.987
 4184SOL     OW13450   3.751   5.300   0.417
 4184SOL    HW113451   3.742   5.358   0.497
 4184SOL    HW213452   3.757   5.356   0.335
 4185SOL     OW13453   0.254   6.914   3.599
 4185SOL    HW113454   0.333   6.875   3.551
 4185SOL    HW213455   0.170   6.884   3.553
 4186SOL     OW13456   2.240   3.822   0.842
 4186SOL    HW113457   2.286   3.735   0.856
 4186SOL    HW213458   2.152   3.822   0.889
 4187SOL     OW13459   3.558   3.229   6.289
 4187SOL    HW113460   3.577   3.145   6.240
 4187SOL    HW213461   3.521   3.298   6.226
 4188SOL     OW13462   4.522   0.129   4.101
 4188SOL    HW113463   4.447   0.155   4.041
 4188SOL    HW213464   4.507   0.169   4.192
 4189SOL     OW13465   2.113   1.797   4.498
 4189SOL    HW113466   2.169   1.720   4.528
 4189SOL    HW213467   2.106   1.864   4.572
 4190SOL     OW13468   3.288   1.063   6.878
 4190SOL    HW113469   3.202   1.082   6.832
 4190SOL    HW213470   3.270   1.026   6.969
 4191SOL     OW13471   6.271   2.124   2.376
 4191SOL    HW113472   6.172   2.126   2.390
 4191SOL    HW213473   6.296   2.192   2.307
 4192SOL     OW13474   5.883   1.193   3.539
 4192SOL    HW113475   5.877   1.186   3.638
 4192SOL    HW213476   5.907   1.104   3.500
 4193SOL     OW13477   1.912   6.940   2.350
 4193SOL    HW113478   1.873   6.848   2.351
 4193SOL    HW213479   1.945   6.962   2.258
 4194SOL     OW13480   0.152   1.345   4.099
 4194SOL    HW113481   0.192   1.301   4.019
 4194SOL    HW213482   0.219   1.404   4.143
 4195SOL     OW13483   5.320   0.219   1.472
 4195SOL    HW113484   5.338   0.306   1.518
 4195SOL    HW213485   5.259   0.234   1.394
 4196SOL     OW13486   4.947   2.331   4.369
 4196SOL    HW113487   5.028   2.381   4.398
 4196SOL    HW213488   4.872   2.395   4.352
 4197SOL     OW13489   4.826   4.126   4.543
 4197SOL    HW113490   4.786   4.187   4.474
 4197SOL    HW213491   4.921   4.153   4.561
 4198SOL     OW13492   6.109   3.887   0.098
 4198SOL    HW113493   6.073   3.933   0.179
 4198SOL    HW213494   6.136   3.955   0.030
 4199SOL     OW13495   2.783   3.657   5.434
 4199SOL    HW113496   2.741   3.569   5.458
 4199SOL    HW213497   2.749   3.687   5.346
 4200SOL     OW13498   2.235   0.235   6.856
 4200SOL    HW113499   2.207   0.139   6.855
 4200SOL    HW213500   2.213   0.275   6.944
 4201SOL     OW13501   5.879   6.684   3.819
 4201SOL    HW113502   5.868   6.764   3.760
 4201SOL    HW213503   5.794   6.631   3.821
 4202SOL     OW13504   5.165   4.725   4.959
 4202SOL    HW113505   5.221   4.650   4.924
 4202SOL    HW213506   5.215   4.773   5.031
 4203SOL     OW13507   5.398   5.911   2.989
 4203SOL    HW113508   5.441   5.971   2.922
 4203SOL    HW213509   5.401   5.954   3.079
 4204SOL     OW13510   2.766   2.810   1.703
 4204SOL    HW113511   2.858   2.847   1.717
 4204SOL    HW213512   2.699   2.883   1.708
 4205SOL     OW13513   2.582   5.311   4.050
 4205SOL    HW113514   2.508   5.288   4.112
 4205SOL    HW213515   2.558   5.280   3.957
 4206SOL     OW13516   4.935   0.332   4.698
 4206SOL    HW113517   4.952   0.273   4.619
 4206SOL    HW213518   4.907   0.276   4.776
 4207SOL     OW13519   1.265   1.339   1.526
 4207SOL    HW113520   1.184   1.398   1.524
 4207SOL    HW213521   1.245   1.254   1.477
 4208SOL     OW13522   1.301   2.841   0.396
 4208SOL    HW113523   1.313   2.935   0.365
 4208SOL    HW213524   1.291   2.839   0.495
 4209SOL     OW13525   2.714   6.766   4.991
 4209SOL    HW113526   2.737   6.856   4.954
 4209SOL    HW213527   2.627   6.735   4.952
 4210SOL     OW13528   4.544   3.048   0.653
 4210SOL    HW113529   4.477   3.028   0.724
 4210SOL    HW213530   4.497   3.065   0.567
 4211SOL     OW13531   4.501   4.874   3.725
 4211SOL    HW113532   4.423   4.910   3.775
 4211SOL    HW213533   4.482   4.877   3.627
 4212SOL     OW13534   6.245   1.496   2.614
 4212SOL    HW113535   6.241   1.488   2.714
 4212SOL    HW213536   6.341   1.505   2.586
 4213SOL     OW13537   1.341   1.219   2.442
 4213SOL    HW113538   1.361   1.140   2.499
 4213SOL    HW213539   1.275   1.192   2.371
 4214SOL     OW13540   0.599   2.992   4.476
 4214SOL    HW113541   0.670   2.921   4.470
 4214SOL    HW213542   0.515   2.958   4.434
 4215SOL     OW13543   0.388   5.475   4.559
 4215SOL    HW113544   0.446   5.395   4.545
 4215SOL    HW213545   0.327   5.458   4.636
 4216SOL     OW13546   0.989   2.909   4.621
 4216SOL    HW113547   0.928   2.899   4.699
 4216SOL    HW213548   1.070   2.961   4.648
 4217SOL     OW13549   0.047   0.721   2.945
 4217SOL    HW113550   0.114   0.786   2.982
 4217SOL    HW213551   7.017   0.678   3.019
 4218SOL     OW13552   4.121   0.172   1.566
 4218SOL    HW113553   4.166   0.223   1.492
 4218SOL    HW213554   4.152   0.077   1.564
 4219SOL     OW13555   4.435   5.670   3.594
 4219SOL    HW113556   4.495   5.636   3.666
 4219SOL    HW213557   4.430   5.770   3.599
 4220SOL     OW13558   6.178   3.040   3.963
 4220SOL    HW113559   6.227   3.022   4.048
 4220SOL    HW213560   6.217   3.121   3.919
 4221SOL     OW13561   5.583   5.524   6.522
 4221SOL    HW113562   5.554   5.433   6.493
 4221SOL    HW213563   5.680   5.537   6.502
 4222SOL     OW13564   4.875   2.290   1.064
 4222SOL    HW113565   4.968   2.258   1.075
 4222SOL    HW213566   4.873   2.390   1.070
 4223SOL     OW13567   3.360   4.082   2.080
 4223SOL    HW113568   3.385   4.081   1.983
 4223SOL    HW213569   3.281   4.143   2.093
 4224SOL     OW13570   4.497   2.353   4.999
 4224SOL    HW113571   4.535   2.445   4.989
 4224SOL    HW213572   4.402   2.359   5.029
 4225SOL     OW13573   5.604   6.634   5.140
 4225SOL    HW113574   5.585   6.668   5.048
 4225SOL    HW213575   5.592   6.708   5.206
 4226SOL     OW13576   0.390   1.224   3.901
 4226SOL    HW113577   0.437   1.244   3.987
 4226SOL    HW213578   0.454   1.234   3.825
 4227SOL     OW13579   4.844   4.608   0.268
 4227SOL    HW113580   4.806   4.592   0.360
 4227SOL    HW213581   4.770   4.637   0.207
 4228SOL     OW13582   6.209   5.332   2.865
 4228SOL    HW113583   6.141   5.281   2.918
 4228SOL    HW213584   6.287   5.353   2.924
 4229SOL     OW13585   4.747   4.812   5.727
 4229SOL    HW113586   4.806   4.736   5.700
 4229SOL    HW213587   4.659   4.805   5.681
 4230SOL     OW13588   3.982   0.078   5.126
 4230SOL    HW113589   4.049   0.090   5.052
 4230SOL    HW213590   3.950   0.167   5.157
 4231SOL     OW13591   4.841   0.356   5.575
 4231SOL    HW113592   4.830   0.342   5.674
 4231SOL    HW213593   4.906   0.431   5.560
 4232SOL     OW13594   2.521   4.508   2.653
 4232SOL    HW113595   2.562   4.514   2.744
 4232SOL    HW213596   2.563   4.577   2.594
 4233SOL     OW13597   6.471   6.196   6.852
 4233SOL    HW113598   6.502   6.167   6.761
 4233SOL    HW213599   6.436   6.117   6.902
 4234SOL     OW13600   3.238   4.423   6.113
 4234SOL    HW113601   3.281   4.340   6.147
 4234SOL    HW213602   3.291   4.503   6.141
 4235SOL     OW13603   6.318   3.507   5.785
 4235SOL    HW113604   6.282   3.572   5.853
 4235SOL    HW213605   6.360   3.558   5.710
 4236SOL     OW13606   0.955   2.732   4.162
 4236SOL    HW113607   0.919   2.775   4.079
 4236SOL    HW213608   0.894   2.754   4.238
 4237SOL     OW13609   5.326   3.139   4.876
 4237SOL    HW113610   5.282   3.222   4.842
 4237SOL    HW213611   5.409   3.121   4.824
 4238SOL     OW13612   4.321   5.605   4.158
 4238SOL    HW113613   4.227   5.626   4.130
 4238SOL    HW213614   4.326   5.607   4.258
 4239SOL     OW13615   5.080   5.808   6.016
 4239SOL    HW113616   5.070   5.739   6.088
 4239SOL    HW213617   5.009   5.796   5.947
 4240SOL     OW13618   2.200   4.838   6.720
 4240SOL    HW113619   2.262   4.775   6.767
 4240SOL    HW213620   2.210   4.826   6.621
 4241SOL     OW13621   4.132   0.695   6.927
 4241SOL    HW113622   4.095   0.773   6.977
 4241SOL    HW213623   4.093   0.693   6.835
 4242SOL     OW13624   2.356   0.940   2.542
 4242SOL    HW113625   2.364   0.883   2.461
 4242SOL    HW213626   2.261   0.940   2.574
 4243SOL     OW13627   1.654   3.191   2.695
 4243SOL    HW113628   1.672   3.171   2.792
 4243SOL    HW213629   1.557   3.210   2.682
 4244SOL     OW13630   4.456   6.801   1.036
 4244SOL    HW113631   4.475   6.886   0.986
 4244SOL    HW213632   4.478   6.814   1.133
 4245SOL     OW13633   6.403   3.546   1.042
 4245SOL    HW113634   6.351   3.474   0.995
 4245SOL    HW213635   6.339   3.607   1.090
 4246SOL     OW13636   5.003   1.667   3.052
 4246SOL    HW113637   5.014   1.656   3.151
 4246SOL    HW213638   4.939   1.741   3.034
 4247SOL     OW13639   1.503   5.008   5.511
 4247SOL    HW113640   1.576   4.940   5.516
 4247SOL    HW213641   1.418   4.964   5.483
 4248SOL     OW13642   1.802   1.076   3.411
 4248SOL    HW113643   1.900   1.087   3.424
 4248SOL    HW213644   1.771   0.992   3.455
 4249SOL     OW13645   6.971   0.158   4.897
 4249SOL    HW113646   6.915   0.240   4.915
 4249SOL    HW213647   0.043   0.186   4.870
 4250SOL     OW13648   0.143   5.305   4.470
 4250SOL    HW113649   0.238   5.287   4.443
 4250SOL    HW213650   0.140   5.382   4.534
 4251SOL     OW13651   5.976   1.881   5.813
 4251SOL    HW113652   6.042   1.903   5.741
 4251SOL    HW213653   6.012   1.909   5.902
 4252SOL     OW13654   7.003   6.431   0.373
 4252SOL    HW113655   0.063   6.481   0.338
 4252SOL    HW213656   6.988   6.455   0.468
 4253SOL     OW13657   4.878   5.598   2.602
 4253SOL    HW113658   4.881   5.695   2.627
 4253SOL    HW213659   4.885   5.541   2.684
 4254SOL     OW13660   1.698   3.208   6.981
 4254SOL    HW113661   1.770   3.268   6.946
 4254SOL    HW213662   1.694   3.216   0.061
 4255SOL     OW13663   1.358   3.777   2.749
 4255SOL    HW113664   1.265   3.749   2.775
 4255SOL    HW213665   1.355   3.866   2.705
 4256SOL     OW13666   0.843   5.627   2.056
 4256SOL    HW113667   0.746   5.640   2.076
 4256SOL    HW213668   0.879   5.708   2.010
 4257SOL     OW13669   5.996   0.984   4.582
 4257SOL    HW113670   6.056   1.063   4.594
 4257SOL    HW213671   5.944   0.995   4.497
 4258SOL     OW13672   3.969   5.953   0.567
 4258SOL    HW113673   3.993   6.047   0.541
 4258SOL    HW213674   3.935   5.952   0.661
 4259SOL     OW13675   1.062   0.328   2.419
 4259SOL    HW113676   1.049   0.289   2.328
 4259SOL    HW213677   1.000   0.405   2.432
 4260SOL     OW13678   5.137   0.657   4.682
 4260SOL    HW113679   5.165   0.750   4.659
 4260SOL    HW213680   5.063   0.660   4.749
 4261SOL     OW13681   2.090   6.481   4.372
 4261SOL    HW113682   2.101   6.514   4.278
 4261SOL    HW213683   2.002   6.513   4.408
 4262SOL     OW13684   1.614   4.165   6.735
 4262SOL    HW113685   1.601   4.142   6.832
 4262SOL    HW213686   1.643   4.083   6.685
 4263SOL     OW13687   2.565   2.517   4.053
 4263SOL    HW113688   2.538   2.555   4.142
 4263SOL    HW213689   2.553   2.586   3.982
 4264SOL     OW13690   4.982   0.967   5.167
 4264SOL    HW113691   4.919   0.950   5.243
 4264SOL    HW213692   4.993   1.066   5.155
 4265SOL     OW13693   3.831   1.044   6.885
 4265SOL    HW113694   3.824   1.102   6.967
 4265SOL    HW213695   3.918   0.997   6.885
 4266SOL     OW13696   1.253   6.313   1.307
 4266SOL    HW113697   1.272   6.257   1.226
 4266SOL    HW213698   1.162   6.354   1.299
 4267SOL     OW13699   1.438   4.135   4.833
 4267SOL    HW113700   1.410   4.217   4.783
 4267SOL    HW213701   1.537   4.125   4.829
 4268SOL     OW13702   1.050   4.651   6.824
 4268SOL    HW113703   1.069   4.656   6.922
 4268SOL    HW213704   0.977   4.715   6.801
 4269SOL     OW13705   2.624   1.532   4.630
 4269SOL    HW113706   2.702   1.554   4.689
 4269SOL    HW213707   2.615   1.603   4.559
 4270SOL     OW13708   3.961   2.759   0.370
 4270SOL    HW113709   4.024   2.826   0.407
 4270SOL    HW213710   3.896   2.732   0.442
 4271SOL     OW13711   0.021   0.707   1.230
 4271SOL    HW113712   0.037   0.805   1.236
 4271SOL    HW213713   6.986   0.676   1.308
 4272SOL     OW13714   6.813   1.195   6.577
 4272SOL    HW113715   6.870   1.127   6.624
 4272SOL    HW213716   6.732   1.150   6.538
 4273SOL     OW13717   3.333   5.547   4.451
 4273SOL    HW113718   3.283   5.460   4.452
 4273SOL    HW213719   3.344   5.579   4.545
 4274SOL     OW13720   6.796   1.583   2.018
 4274SOL    HW113721   6.850   1.565   2.100
 4274SOL    HW213722   6.746   1.500   1.992
 4275SOL     OW13723   0.104   2.969   3.024
 4275SOL    HW113724   0.049   3.046   2.991
 4275SOL    HW213725   0.047   2.907   3.078
 4276SOL     OW13726   2.072   5.748   4.300
 4276SOL    HW113727   2.052   5.701   4.385
 4276SOL    HW213728   2.167   5.781   4.302
 4277SOL     OW13729   5.989   5.261   3.212
 4277SOL    HW113730   6.029   5.198   3.145
 4277SOL    HW213731   6.018   5.354   3.192
 4278SOL     OW13732   1.226   6.741   1.802
 4278SOL    HW113733   1.201   6.645   1.818
 4278SOL    HW213734   1.147   6.799   1.818
 4279SOL     OW13735   1.652   1.797   3.578
 4279SOL    HW113736   1.672   1.804   3.480
 4279SOL    HW213737   1.738   1.779   3.628
 4280SOL     OW13738   0.746   6.678   6.685
 4280SOL    HW113739   0.765   6.659   6.589
 4280SOL    HW213740   0.830   6.707   6.731
 4281SOL     OW13741   4.778   5.663   3.253
 4281SOL    HW113742   4.779   5.629   3.159
 4281SOL    HW213743   4.686   5.656   3.290
 4282SOL     OW13744   3.973   4.093   0.992
 4282SOL    HW113745   3.985   4.014   0.933
 4282SOL    HW213746   3.994   4.068   1.087
 4283SOL     OW13747   5.077   1.417   4.236
 4283SOL    HW113748   5.035   1.507   4.249
 4283SOL    HW213749   5.167   1.428   4.196
 4284SOL     OW13750   4.314   5.561   6.023
 4284SOL    HW113751   4.356   5.520   5.941
 4284SOL    HW213752   4.224   5.597   6.000
 4285SOL     OW13753   2.807   0.302   5.667
 4285SOL    HW113754   2.856   0.384   5.636
 4285SOL    HW213755   2.731   0.283   5.605
 4286SOL     OW13756   5.630   0.767   6.211
 4286SOL    HW113757   5.562   0.805   6.274
 4286SOL    HW213758   5.644   0.830   6.135
 4287SOL     OW13759   4.654   0.282   0.093
 4287SOL    HW113760   4.729   0.248   0.037
 4287SOL    HW213761   4.567   0.252   0.055
 4288SOL     OW13762   6.548   6.504   2.393
 4288SOL    HW113763   6.578   6.566   2.465
 4288SOL    HW213764   6.595   6.416   2.404
 4289SOL     OW13765   0.402   3.637   4.062
 4289SOL    HW113766   0.490   3.603   4.096
 4289SOL    HW213767   0.375   3.719   4.113
 4290SOL     OW13768   0.283   0.799   3.746
 4290SOL    HW113769   0.201   0.746   3.769
 4290SOL    HW213770   0.320   0.767   3.659
 4291SOL     OW13771   4.831   3.296   6.111
 4291SOL    HW113772   4.768   3.326   6.040
 4291SOL    HW213773   4.841   3.197   6.109
 4292SOL     OW13774   5.914   2.328   1.412
 4292SOL    HW113775   5.880   2.243   1.453
 4292SOL    HW213776   5.882   2.406   1.465
 4293SOL     OW13777   3.718   4.427   6.887
 4293SOL    HW113778   3.728   4.354   6.820
 4293SOL    HW213779   3.806   4.447   6.929
 4294SOL     OW13780   1.897   1.762   6.351
 4294SOL    HW113781   1.886   1.758   6.251
 4294SOL    HW213782   1.926   1.855   6.377
 4295SOL     OW13783   3.938   6.052   2.783
 4295SOL    HW113784   4.000   6.129   2.800
 4295SOL    HW213785   3.844   6.082   2.793
 4296SOL     OW13786   3.055   6.203   2.370
 4296SOL    HW113787   3.117   6.176   2.297
 4296SOL    HW213788   3.022   6.296   2.354
 4297SOL     OW13789   5.961   4.547   0.912
 4297SOL    HW113790   5.990   4.639   0.887
 4297SOL    HW213791   5.861   4.543   0.916
 4298SOL     OW13792   2.440   6.591   0.144
 4298SOL    HW113793   2.465   6.686   0.160
 4298SOL    HW213794   2.522   6.534   0.147
 4299SOL     OW13795   0.700   3.060   0.181
 4299SOL    HW113796   0.643   2.998   0.234
 4299SOL    HW213797   0.796   3.033   0.189
 4300SOL     OW13798   2.935   1.266   0.867
 4300SOL    HW113799   2.975   1.318   0.943
 4300SOL    HW213800   2.968   1.172   0.871
 4301SOL     OW13801   2.996   6.894   1.317
 4301SOL    HW113802   2.925   6.844   1.368
 4301SOL    HW213803   3.037   6.833   1.250
 4302SOL     OW13804   2.158   5.866   6.227
 4302SOL    HW113805   2.181   5.820   6.313
 4302SOL    HW213806   2.180   5.963   6.234
 4303SOL     OW13807   6.256   4.944   2.839
 4303SOL    HW113808   6.235   4.856   2.882
 4303SOL    HW213809   6.352   4.944   2.809
 4304SOL     OW13810   3.518   3.632   1.555
 4304SOL    HW113811   3.459   3.619   1.476
 4304SOL    HW213812   3.463   3.626   1.639
 4305SOL     OW13813   1.721   0.175   5.404
 4305SOL    HW113814   1.701   0.200   5.310
 4305SOL    HW213815   1.753   0.256   5.454
 4306SOL     OW13816   5.876   3.171   5.200
 4306SOL    HW113817   5.911   3.264   5.189
 4306SOL    HW213818   5.904   3.135   5.289
 4307SOL     OW13819   0.117   1.694   5.498
 4307SOL    HW113820   0.080   1.649   5.417
 4307SOL    HW213821   0.044   1.747   5.543
 4308SOL     OW13822   4.600   5.699   6.878
 4308SOL    HW113823   4.612   5.792   6.914
 4308SOL    HW213824   4.507   5.668   6.898
 4309SOL     OW13825   1.127   2.620   0.608
 4309SOL    HW113826   1.046   2.675   0.632
 4309SOL    HW213827   1.188   2.615   0.687
 4310SOL     OW13828   6.620   1.731   3.133
 4310SOL    HW113829   6.621   1.805   3.066
 4310SOL    HW213830   6.712   1.721   3.172
 4311SOL     OW13831   0.541   0.660   2.569
 4311SOL    HW113832   0.490   0.581   2.601
 4311SOL    HW213833   0.593   0.635   2.488
 4312SOL     OW13834   0.618   4.813   2.555
 4312SOL    HW113835   0.529   4.772   2.533
 4312SOL    HW213836   0.650   4.866   2.477
 4313SOL     OW13837   6.391   2.308   0.209
 4313SOL    HW113838   6.489   2.318   0.190
 4313SOL    HW213839   6.349   2.250   0.140
 4314SOL     OW13840   6.658   2.023   5.511
 4314SOL    HW113841   6.695   2.042   5.421
 4314SOL    HW213842   6.596   2.096   5.538
 4315SOL     OW13843   2.979   1.552   4.308
 4315SOL    HW113844   3.061   1.598   4.340
 4315SOL    HW213845   2.949   1.485   4.375
 4316SOL     OW13846   5.138   6.808   1.495
 4316SOL    HW113847   5.222   6.862   1.496
 4316SOL    HW213848   5.114   6.782   1.588
 4317SOL     OW13849   4.588   0.730   5.994
 4317SOL    HW113850   4.534   0.801   5.948
 4317SOL    HW213851   4.669   0.772   6.036
 4318SOL     OW13852   0.554   0.667   4.231
 4318SOL    HW113853   0.583   0.593   4.171
 4318SOL    HW213854   0.466   0.702   4.200
 4319SOL     OW13855   1.746   4.867   2.393
 4319SOL    HW113856   1.779   4.819   2.312
 4319SOL    HW213857   1.799   4.951   2.407
 4320SOL     OW13858   3.436   6.199   1.044
 4320SOL    HW113859   3.424   6.290   1.004
 4320SOL    HW213860   3.445   6.207   1.143
 4321SOL     OW13861   6.293   6.772   2.813
 4321SOL    HW113862   6.302   6.716   2.895
 4321SOL    HW213863   6.364   6.843   2.813
 4322SOL     OW13864   0.971   3.235   5.330
 4322SOL    HW113865   1.023   3.151   5.346
 4322SOL    HW213866   0.950   3.279   5.417
 4323SOL     OW13867   4.074   5.207   6.524
 4323SOL    HW113868   3.990   5.152   6.522
 4323SOL    HW213869   4.091   5.244   6.432
 4324SOL     OW13870   6.829   4.036   5.956
 4324SOL    HW113871   6.905   4.011   5.896
 4324SOL    HW213872   6.807   3.959   6.016
 4325SOL     OW13873   2.427   0.957   2.175
 4325SOL    HW113874   2.477   1.005   2.248
 4325SOL    HW213875   2.492   0.915   2.113
 4326SOL     OW13876   4.802   2.705   2.381
 4326SOL    HW113877   4.762   2.729   2.469
 4326SOL    HW213878   4.753   2.753   2.308
 4327SOL     OW13879   3.051   5.780   4.053
 4327SOL    HW113880   3.113   5.772   3.975
 4327SOL    HW213881   3.103   5.774   4.138
 4328SOL     OW13882   5.859   6.594   4.440
 4328SOL    HW113883   5.928   6.532   4.405
 4328SOL    HW213884   5.850   6.581   4.539
 4329SOL     OW13885   6.869   1.943   6.031
 4329SOL    HW113886   6.841   1.947   6.127
 4329SOL    HW213887   6.923   2.024   6.009
 4330SOL     OW13888   2.874   4.907   5.090
 4330SOL    HW113889   2.958   4.912   5.143
 4330SOL    HW213890   2.861   4.814   5.056
 4331SOL     OW13891   5.861   0.983   2.003
 4331SOL    HW113892   5.816   0.905   1.959
 4331SOL    HW213893   5.798   1.027   2.066
 4332SOL     OW13894   0.454   5.166   2.427
 4332SOL    HW113895   0.508   5.219   2.362
 4332SOL    HW213896   0.362   5.149   2.389
 4333SOL     OW13897   3.616   2.064   5.551
 4333SOL    HW113898   3.597   2.066   5.649
 4333SOL    HW213899   3.584   1.978   5.512
 4334SOL     OW13900   0.230   2.270   4.221
 4334SOL    HW113901   0.191   2.283   4.129
 4334SOL    HW213902   0.329   2.276   4.216
 4335SOL     OW13903   2.688   4.117   1.679
 4335SOL    HW113904   2.605   4.106   1.623
 4335SOL    HW213905   2.734   4.028   1.686
 4336SOL     OW13906   2.719   4.930   5.602
 4336SOL    HW113907   2.628   4.888   5.606
 4336SOL    HW213908   2.710   5.025   5.574
 4337SOL     OW13909   1.566   5.237   4.013
 4337SOL    HW113910   1.621   5.176   3.955
 4337SOL    HW213911   1.558   5.327   3.969
 4338SOL     OW13912   3.795   1.114   5.853
 4338SOL    HW113913   3.705   1.071   5.854
 4338SOL    HW213914   3.860   1.054   5.901
 4339SOL     OW13915   3.504   3.545   5.939
 4339SOL    HW113916   3.578   3.488   5.903
 4339SOL    HW213917   3.539   3.637   5.957
 4340SOL     OW13918   6.673   3.634   1.101
 4340SOL    HW113919   6.655   3.710   1.163
 4340SOL    HW213920   6.592   3.617   1.044
 4341SOL     OW13921   0.689   6.805   2.749
 4341SOL    HW113922   0.763   6.771   2.808
 4341SOL    HW213923   0.602   6.766   2.779
 4342SOL     OW13924   5.472   3.834   2.277
 4342SOL    HW113925   5.527   3.801   2.353
 4342SOL    HW213926   5.378   3.850   2.307
 4343SOL     OW13927   4.471   0.324   5.768
 4343SOL    HW113928   4.540   0.395   5.782
 4343SOL    HW213929   4.382   0.357   5.803
 4344SOL     OW13930   0.493   3.355   3.844
 4344SOL    HW113931   0.416   3.295   3.822
 4344SOL    HW213932   0.510   3.417   3.767
 4345SOL     OW13933   3.160   3.391   2.346
 4345SOL    HW113934   3.216   3.309   2.358
 4345SOL    HW213935   3.218   3.468   2.320
 4346SOL     OW13936   1.050   2.995   2.273
 4346SOL    HW113937   1.066   2.925   2.343
 4346SOL    HW213938   1.131   3.002   2.214
 4347SOL     OW13939   5.947   5.333   0.770
 4347SOL    HW113940   5.944   5.240   0.731
 4347SOL    HW213941   5.950   5.327   0.870
 4348SOL     OW13942   6.078   5.659   4.462
 4348SOL    HW113943   6.097   5.580   4.403
 4348SOL    HW213944   6.147   5.665   4.534
 4349SOL     OW13945   0.223   3.775   4.515
 4349SOL    HW113946   0.314   3.736   4.524
 4349SOL    HW213947   0.199   3.782   4.418
 4350SOL     OW13948   4.504   1.537   4.600
 4350SOL    HW113949   4.579   1.491   4.647
 4350SOL    HW213950   4.457   1.598   4.664
 4351SOL     OW13951   1.015   6.494   0.418
 4351SOL    HW113952   1.067   6.413   0.394
 4351SOL    HW213953   1.015   6.506   0.517
 4352SOL     OW13954   3.628   3.858   0.979
 4352SOL    HW113955   3.545   3.914   0.981
 4352SOL    HW213956   3.673   3.862   1.068
 4353SOL     OW13957   3.184   3.526   1.155
 4353SOL    HW113958   3.213   3.622   1.150
 4353SOL    HW213959   3.250   3.473   1.207
 4354SOL     OW13960   5.455   6.586   3.825
 4354SOL    HW113961   5.361   6.570   3.794
 4354SOL    HW213962   5.487   6.673   3.788
 4355SOL     OW13963   1.418   6.114   3.103
 4355SOL    HW113964   1.505   6.106   3.151
 4355SOL    HW213965   1.434   6.119   3.004
 4356SOL     OW13966   5.532   2.547   5.736
 4356SOL    HW113967   5.453   2.571   5.792
 4356SOL    HW213968   5.597   2.495   5.790
 4357SOL     OW13969   5.934   0.474   2.499
 4357SOL    HW113970   5.917   0.549   2.435
 4357SOL    HW213971   5.853   0.415   2.503
 4358SOL     OW13972   2.054   6.617   6.839
 4358SOL    HW113973   2.065   6.681   6.763
 4358SOL    HW213974   2.143   6.602   6.882
 4359SOL     OW13975   2.689   2.078   6.947
 4359SOL    HW113976   2.688   2.177   6.935
 4359SOL    HW213977   2.720   2.056   0.019
 4360SOL     OW13978   1.323   3.428   3.716
 4360SOL    HW113979   1.261   3.440   3.793
 4360SOL    HW213980   1.416   3.453   3.744
 4361SOL     OW13981   6.596   1.670   0.703
 4361SOL    HW113982   6.569   1.757   0.662
 4361SOL    HW213983   6.557   1.595   0.649
 4362SOL     OW13984   1.191   5.900   3.626
 4362SOL    HW113985   1.242   5.978   3.591
 4362SOL    HW213986   1.101   5.896   3.580
 4363SOL     OW13987   4.588   1.542   2.286
 4363SOL    HW113988   4.570   1.500   2.375
 4363SOL    HW213989   4.633   1.631   2.300
 4364SOL     OW13990   3.873   3.754   2.760
 4364SOL    HW113991   3.943   3.704   2.709
 4364SOL    HW213992   3.908   3.779   2.850
 4365SOL     OW13993   2.759   2.178   1.213
 4365SOL    HW113994   2.821   2.179   1.290
 4365SOL    HW213995   2.755   2.269   1.171
 4366SOL     OW13996   4.372   5.981   4.902
 4366SOL    HW113997   4.316   5.938   4.973
 4366SOL    HW213998   4.456   6.016   4.944
 4367SOL     OW13999   2.371   5.528   3.503
 4367SOL    HW114000   2.433   5.467   3.453
 4367SOL    HW214001   2.395   5.527   3.601
 4368SOL     OW14002   4.652   4.380   2.996
 4368SOL    HW114003   4.679   4.436   3.074
 4368SOL    HW214004   4.660   4.283   3.019
 4369SOL     OW14005   4.083   4.875   3.248
 4369SOL    HW114006   4.062   4.855   3.343
 4369SOL    HW214007   4.143   4.803   3.212
 4370SOL     OW14008   3.721   4.310   1.577
 4370SOL    HW114009   3.682   4.243   1.514
 4370SOL    HW214010   3.649   4.350   1.633
 4371SOL     OW14011   3.149   1.597   1.010
 4371SOL    HW114012   3.129   1.578   0.914
 4371SOL    HW214013   3.166   1.511   1.058
 4372SOL     OW14014   1.956   3.284   4.434
 4372SOL    HW114015   1.980   3.366   4.382
 4372SOL    HW214016   2.015   3.277   4.515
 4373SOL     OW14017   4.190   1.292   5.728
 4373SOL    HW114018   4.126   1.350   5.678
 4373SOL    HW214019   4.251   1.246   5.663
 4374SOL     OW14020   2.500   1.475   1.460
 4374SOL    HW114021   2.405   1.504   1.447
 4374SOL    HW214022   2.522   1.477   1.557
 4375SOL     OW14023   4.842   1.219   3.508
 4375SOL    HW114024   4.812   1.314   3.502
 4375SOL    HW214025   4.811   1.169   3.427
 4376SOL     OW14026   1.092   6.704   0.719
 4376SOL    HW114027   1.056   6.611   0.731
 4376SOL    HW214028   1.190   6.700   0.704
 4377SOL     OW14029   6.106   0.009   6.665
 4377SOL    HW114030   6.164   7.019   6.584
 4377SOL    HW214031   6.010   0.013   6.638
 4378SOL     OW14032   1.896   5.620   2.584
 4378SOL    HW114033   1.827   5.661   2.643
 4378SOL    HW214034   1.961   5.691   2.555
 4379SOL     OW14035   1.196   0.831   1.962
 4379SOL    HW114036   1.213   0.779   2.046
 4379SOL    HW214037   1.283   0.865   1.925
 4380SOL     OW14038   1.483   5.590   5.446
 4380SOL    HW114039   1.544   5.522   5.487
 4380SOL    HW214040   1.389   5.556   5.445
 4381SOL     OW14041   3.930   6.322   4.964
 4381SOL    HW114042   3.879   6.408   4.972
 4381SOL    HW214043   3.869   6.245   4.984
 4382SOL     OW14044   4.880   3.996   3.282
 4382SOL    HW114045   4.931   4.019   3.199
 4382SOL    HW214046   4.905   4.060   3.355
 4383SOL     OW14047   0.691   3.162   6.569
 4383SOL    HW114048   0.673   3.147   6.666
 4383SOL    HW214049   0.781   3.126   6.546
 4384SOL     OW14050   4.042   5.743   0.853
 4384SOL    HW114051   4.129   5.694   0.852
 4384SOL    HW214052   4.058   5.836   0.888
 4385SOL     OW14053   0.348   1.683   2.564
 4385SOL    HW114054   0.324   1.766   2.614
 4385SOL    HW214055   0.441   1.693   2.528
 4386SOL     OW14056   1.063   3.191   6.751
 4386SOL    HW114057   1.037   3.164   6.659
 4386SOL    HW214058   1.013   3.273   6.777
 4387SOL     OW14059   0.185   3.439   1.787
 4387SOL    HW114060   0.264   3.385   1.816
 4387SOL    HW214061   0.149   3.401   1.701
 4388SOL     OW14062   3.347   0.977   5.423
 4388SOL    HW114063   3.429   1.030   5.399
 4388SOL    HW214064   3.322   0.918   5.346
 4389SOL     OW14065   5.078   2.495   2.922
 4389SOL    HW114066   5.012   2.497   2.997
 4389SOL    HW214067   5.031   2.517   2.836
 4390SOL     OW14068   4.713   2.784   2.131
 4390SOL    HW114069   4.679   2.708   2.076
 4390SOL    HW214070   4.704   2.870   2.080
 4391SOL     OW14071   1.216   5.578   0.563
 4391SOL    HW114072   1.155   5.499   0.569
 4391SOL    HW214073   1.311   5.548   0.572
 4392SOL     OW14074   4.910   3.295   4.376
 4392SOL    HW114075   4.986   3.328   4.431
 4392SOL    HW214076   4.885   3.203   4.405
 4393SOL     OW14077   4.777   6.404   3.309
 4393SOL    HW114078   4.731   6.469   3.368
 4393SOL    HW214079   4.873   6.396   3.336
 4394SOL     OW14080   5.246   6.922   2.406
 4394SOL    HW114081   5.241   6.879   2.316
 4394SOL    HW214082   5.330   6.976   2.412
 4395SOL     OW14083   5.133   1.564   2.213
 4395SOL    HW114084   5.192   1.645   2.220
 4395SOL    HW214085   5.145   1.522   2.122
 4396SOL     OW14086   1.490   0.458   4.197
 4396SOL    HW114087   1.474   0.464   4.098
 4396SOL    HW214088   1.411   0.416   4.241
 4397SOL     OW14089   6.520   0.715   5.476
 4397SOL    HW114090   6.432   0.697   5.521
 4397SOL    HW214091   6.503   0.760   5.388
 4398SOL     OW14092   0.047   4.379   4.252
 4398SOL    HW114093   0.059   4.282   4.273
 4398SOL    HW214094   0.124   4.431   4.289
 4399SOL     OW14095   2.649   1.465   1.252
 4399SOL    HW114096   2.741   1.501   1.269
 4399SOL    HW214097   2.590   1.488   1.329
 4400SOL     OW14098   3.519   6.635   4.723
 4400SOL    HW114099   3.594   6.685   4.681
 4400SOL    HW214100   3.498   6.675   4.813
 4401SOL     OW14101   5.646   5.964   4.137
 4401SOL    HW114102   5.596   6.040   4.177
 4401SOL    HW214103   5.726   5.943   4.194
 4402SOL     OW14104   0.333   6.570   2.882
 4402SOL    HW114105   0.247   6.600   2.840
 4402SOL    HW214106   0.410   6.594   2.822
 4403SOL     OW14107   0.717   0.389   3.391
 4403SOL    HW114108   0.804   0.352   3.359
 4403SOL    HW214109   0.711   0.381   3.490
 4404SOL     OW14110   1.273   3.793   3.243
 4404SOL    HW114111   1.359   3.755   3.209
 4404SOL    HW214112   1.281   3.813   3.341
 4405SOL     OW14113   3.107   4.460   5.614
 4405SOL    HW114114   3.184   4.492   5.669
 4405SOL    HW214115   3.137   4.443   5.520
 4406SOL     OW14116   5.448   4.171   1.102
 4406SOL    HW114117   5.528   4.197   1.046
 4406SOL    HW214118   5.467   4.191   1.198
 4407SOL     OW14119   5.789   6.993   0.044
 4407SOL    HW114120   5.873   0.024   0.064
 4407SOL    HW214121   5.779   6.918   0.108
 4408SOL     OW14122   4.298   6.045   6.822
 4408SOL    HW114123   4.280   6.089   6.910
 4408SOL    HW214124   4.397   6.036   6.809
 4409SOL     OW14125   3.080   1.254   1.459
 4409SOL    HW114126   3.037   1.322   1.400
 4409SOL    HW214127   3.156   1.211   1.410
 4410SOL     OW14128   2.442   5.436   2.069
 4410SOL    HW114129   2.384   5.515   2.052
 4410SOL    HW214130   2.385   5.356   2.087
 4411SOL     OW14131   4.138   3.403   2.705
 4411SOL    HW114132   4.137   3.325   2.642
 4411SOL    HW214133   4.149   3.370   2.799
 4412SOL     OW14134   3.604   1.828   6.475
 4412SOL    HW114135   3.595   1.798   6.570
 4412SOL    HW214136   3.607   1.928   6.472
 4413SOL     OW14137   4.354   6.235   4.681
 4413SOL    HW114138   4.294   6.158   4.660
 4413SOL    HW214139   4.449   6.207   4.670
 4414SOL     OW14140   3.951   4.830   1.966
 4414SOL    HW114141   3.984   4.901   2.027
 4414SOL    HW214142   3.862   4.797   1.998
 4415SOL     OW14143   5.388   2.801   7.002
 4415SOL    HW114144   5.362   2.825   0.076
 4415SOL    HW214145   5.306   2.784   6.948
 4416SOL     OW14146   3.874   0.337   3.630
 4416SOL    HW114147   3.925   0.266   3.580
 4416SOL    HW214148   3.885   0.323   3.728
 4417SOL     OW14149   6.929   6.662   2.467
 4417SOL    HW114150   7.012   6.618   2.431
 4417SOL    HW214151   6.953   6.748   2.512
 4418SOL     OW14152   4.256   6.862   3.397
 4418SOL    HW114153   4.320   6.881   3.323
 4418SOL    HW214154   4.165   6.846   3.360
 4419SOL     OW14155   0.142   4.755   6.746
 4419SOL    HW114156   0.074   4.828   6.756
 4419SOL    HW214157   0.216   4.770   6.812
 4420SOL     OW14158   5.264   2.004   6.352
 4420SOL    HW114159   5.193   1.937   6.332
 4420SOL    HW214160   5.242   2.091   6.307
 4421SOL     OW14161   1.574   1.766   4.012
 4421SOL    HW114162   1.491   1.777   3.958
 4421SOL    HW214163   1.577   1.674   4.051
 4422SOL     OW14164   2.111   3.991   6.066
 4422SOL    HW114165   2.146   3.901   6.088
 4422SOL    HW214166   2.076   3.992   5.973
 4423SOL     OW14167   1.394   1.782   6.314
 4423SOL    HW114168   1.490   1.801   6.331
 4423SOL    HW214169   1.385   1.692   6.271
 4424SOL     OW14170   6.782   0.432   2.920
 4424SOL    HW114171   6.695   0.387   2.896
 4424SOL    HW214172   6.816   0.482   2.841
 4425SOL     OW14173   4.513   4.789   6.284
 4425SOL    HW114174   4.551   4.866   6.336
 4425SOL    HW214175   4.439   4.822   6.226
 4426SOL     OW14176   0.678   0.271   6.141
 4426SOL    HW114177   0.774   0.289   6.119
 4426SOL    HW214178   0.633   0.226   6.063
 4427SOL     OW14179   0.967   0.261   3.402
 4427SOL    HW114180   0.906   0.275   3.480
 4427SOL    HW214181   1.062   0.260   3.434
 4428SOL     OW14182   2.565   5.256   3.161
 4428SOL    HW114183   2.566   5.237   3.260
 4428SOL    HW214184   2.654   5.233   3.122
 4429SOL     OW14185   4.060   0.014   2.903
 4429SOL    HW114186   4.091   0.091   2.958
 4429SOL    HW214187   3.965   7.012   2.926
 4430SOL     OW14188   2.019   0.959   2.058
 4430SOL    HW114189   1.997   1.047   2.101
 4430SOL    HW214190   2.044   0.893   2.128
 4431SOL     OW14191   2.175   2.051   3.050
 4431SOL    HW114192   2.150   2.137   3.094
 4431SOL    HW214193   2.226   1.994   3.114
 4432SOL     OW14194   2.998   3.895   3.093
 4432SOL    HW114195   2.900   3.911   3.099
 4432SOL    HW214196   3.018   3.802   3.123
 4433SOL     OW14197   6.461   6.970   2.868
 4433SOL    HW114198   6.553   6.982   2.904
 4433SOL    HW214199   6.400   0.020   2.905
 4434SOL     OW14200   6.277   2.317   4.440
 4434SOL    HW114201   6.209   2.244   4.440
 4434SOL    HW214202   6.238   2.399   4.398
 4435SOL     OW14203   3.192   3.172   1.625
 4435SOL    HW114204   3.249   3.251   1.605
 4435SOL    HW214205   3.231   3.090   1.583
 4436SOL     OW14206   4.876   1.994   6.578
 4436SOL    HW114207   4.967   1.967   6.611
 4436SOL    HW214208   4.884   2.080   6.527
 4437SOL     OW14209   3.748   1.069   4.768
 4437SOL    HW114210   3.818   1.035   4.831
 4437SOL    HW214211   3.702   1.148   4.808
 4438SOL     OW14212   4.418   2.724   6.595
 4438SOL    HW114213   4.345   2.657   6.610
 4438SOL    HW214214   4.464   2.743   6.682
 4439SOL     OW14215   2.143   5.984   2.129
 4439SOL    HW114216   2.193   5.930   2.197
 4439SOL    HW214217   2.087   6.053   2.176
 4440SOL     OW14218   0.997   6.771   6.508
 4440SOL    HW114219   0.920   6.726   6.462
 4440SOL    HW214220   0.990   6.759   6.607
 4441SOL     OW14221   5.876   2.656   3.095
 4441SOL    HW114222   5.917   2.616   3.014
 4441SOL    HW214223   5.835   2.744   3.072
 4442SOL     OW14224   2.925   6.698   3.085
 4442SOL    HW114225   2.826   6.691   3.094
 4442SOL    HW214226   2.956   6.645   3.006
 4443SOL     OW14227   2.768   1.879   5.464
 4443SOL    HW114228   2.730   1.885   5.372
 4443SOL    HW214229   2.695   1.898   5.531
 4444SOL     OW14230   5.659   0.840   1.327
 4444SOL    HW114231   5.566   0.804   1.316
 4444SOL    HW214232   5.655   0.939   1.341
 4445SOL     OW14233   1.124   0.878   6.625
 4445SOL    HW114234   1.083   0.807   6.568
 4445SOL    HW214235   1.218   0.894   6.595
 4446SOL     OW14236   6.527   0.291   2.865
 4446SOL    HW114237   6.502   0.337   2.780
 4446SOL    HW214238   6.447   0.242   2.902
 4447SOL     OW14239   5.654   2.507   5.505
 4447SOL    HW114240   5.593   2.526   5.581
 4447SOL    HW214241   5.741   2.556   5.518
 4448SOL     OW14242   2.598   3.724   6.878
 4448SOL    HW114243   2.519   3.695   6.824
 4448SOL    HW214244   2.598   3.677   6.966
 4449SOL     OW14245   1.006   1.377   5.178
 4449SOL    HW114246   1.005   1.289   5.132
 4449SOL    HW214247   0.942   1.377   5.254
 4450SOL     OW14248   3.751   3.620   3.302
 4450SOL    HW114249   3.774   3.555   3.230
 4450SOL    HW214250   3.766   3.713   3.269
 4451SOL     OW14251   6.539   4.391   2.129
 4451SOL    HW114252   6.453   4.347   2.101
 4451SOL    HW214253   6.520   4.460   2.199
 4452SOL     OW14254   6.376   6.532   6.621
 4452SOL    HW114255   6.415   6.484   6.699
 4452SOL    HW214256   6.278   6.545   6.636
 4453SOL     OW14257   5.487   2.546   1.255
 4453SOL    HW114258   5.545   2.625   1.235
 4453SOL    HW214259   5.402   2.554   1.204
 4454SOL     OW14260   5.401   3.254   1.585
 4454SOL    HW114261   5.309   3.281   1.557
 4454SOL    HW214262   5.468   3.316   1.546
 4455SOL     OW14263   3.688   1.390   2.090
 4455SOL    HW114264   3.603   1.373   2.040
 4455SOL    HW214265   3.690   1.333   2.172
 4456SOL     OW14266   1.149   5.058   3.230
 4456SOL    HW114267   1.145   5.004   3.146
 4456SOL    HW214268   1.173   4.998   3.307
 4457SOL     OW14269   5.375   2.340   6.284
 4457SOL    HW114270   5.471   2.368   6.272
 4457SOL    HW214271   5.344   2.289   6.204
 4458SOL     OW14272   3.761   2.255   5.948
 4458SOL    HW114273   3.692   2.212   5.891
 4458SOL    HW214274   3.739   2.352   5.961
 4459SOL     OW14275   4.893   6.251   4.657
 4459SOL    HW114276   4.904   6.290   4.748
 4459SOL    HW214277   4.897   6.151   4.662
 4460SOL     OW14278   2.344   1.911   6.154
 4460SOL    HW114279   2.307   1.984   6.211
 4460SOL    HW214280   2.374   1.949   6.066
 4461SOL     OW14281   2.419   0.317   2.067
 4461SOL    HW114282   2.336   0.358   2.103
 4461SOL    HW214283   2.443   0.359   1.980
 4462SOL     OW14284   0.248   5.371   1.583
 4462SOL    HW114285   0.312   5.295   1.572
 4462SOL    HW214286   0.181   5.348   1.654
 4463SOL     OW14287   1.428   3.792   6.165
 4463SOL    HW114288   1.393   3.698   6.163
 4463SOL    HW214289   1.474   3.808   6.252
 4464SOL     OW14290   5.595   3.326   6.638
 4464SOL    HW114291   5.520   3.357   6.697
 4464SOL    HW214292   5.673   3.388   6.648
 4465SOL     OW14293   1.185   6.839   2.369
 4465SOL    HW114294   1.145   6.895   2.296
 4465SOL    HW214295   1.113   6.784   2.412
 4466SOL     OW14296   0.593   2.003   3.613
 4466SOL    HW114297   0.547   2.072   3.669
 4466SOL    HW214298   0.578   2.023   3.516
 4467SOL     OW14299   1.154   6.547   3.453
 4467SOL    HW114300   1.069   6.557   3.505
 4467SOL    HW214301   1.151   6.604   3.372
 4468SOL     OW14302   1.263   2.508   0.414
 4468SOL    HW114303   1.215   2.530   0.329
 4468SOL    HW214304   1.211   2.541   0.492
 4469SOL     OW14305   4.123   0.451   0.654
 4469SOL    HW114306   4.037   0.405   0.676
 4469SOL    HW214307   4.174   0.396   0.587
 4470SOL     OW14308   4.827   4.174   0.893
 4470SOL    HW114309   4.851   4.091   0.841
 4470SOL    HW214310   4.910   4.229   0.906
 4471SOL     OW14311   6.106   3.383   1.280
 4471SOL    HW114312   6.021   3.337   1.307
 4471SOL    HW214313   6.179   3.316   1.272
 4472SOL     OW14314   1.546   4.087   2.500
 4472SOL    HW114315   1.447   4.101   2.502
 4472SOL    HW214316   1.575   4.067   2.406
 4473SOL     OW14317   6.874   6.697   4.282
 4473SOL    HW114318   6.935   6.620   4.260
 4473SOL    HW214319   6.929   6.778   4.302
 4474SOL     OW14320   4.569   0.235   2.662
 4474SOL    HW114321   4.656   0.248   2.710
 4474SOL    HW214322   4.547   0.137   2.659
 4475SOL     OW14323   2.034   3.743   0.410
 4475SOL    HW114324   2.013   3.809   0.483
 4475SOL    HW214325   2.034   3.790   0.322
 4476SOL     OW14326   5.112   5.990   1.922
 4476SOL    HW114327   5.018   5.973   1.951
 4476SOL    HW214328   5.120   6.084   1.887
 4477SOL     OW14329   1.448   1.428   0.605
 4477SOL    HW114330   1.547   1.421   0.593
 4477SOL    HW214331   1.413   1.503   0.549
 4478SOL     OW14332   2.104   6.214   1.697
 4478SOL    HW114333   2.152   6.223   1.610
 4478SOL    HW214334   2.155   6.153   1.757
 4479SOL     OW14335   0.995   0.121   5.560
 4479SOL    HW114336   0.938   0.201   5.544
 4479SOL    HW214337   0.954   0.042   5.514
 4480SOL     OW14338   0.732   4.953   3.833
 4480SOL    HW114339   0.649   4.901   3.851
 4480SOL    HW214340   0.807   4.890   3.814
 4481SOL     OW14341   1.144   6.356   4.610
 4481SOL    HW114342   1.048   6.342   4.588
 4481SOL    HW214343   1.187   6.408   4.537
 4482SOL     OW14344   6.873   4.518   3.912
 4482SOL    HW114345   6.845   4.448   3.978
 4482SOL    HW214346   6.798   4.583   3.900
 4483SOL     OW14347   5.606   2.923   2.159
 4483SOL    HW114348   5.681   2.964   2.210
 4483SOL    HW214349   5.519   2.951   2.199
 4484SOL     OW14350   4.465   2.844   5.750
 4484SOL    HW114351   4.489   2.852   5.653
 4484SOL    HW214352   4.548   2.837   5.805
 4485SOL     OW14353   5.379   1.946   6.601
 4485SOL    HW114354   5.363   1.932   6.504
 4485SOL    HW214355   5.395   1.858   6.646
 4486SOL     OW14356   6.220   3.126   4.257
 4486SOL    HW114357   6.228   3.225   4.245
 4486SOL    HW214358   6.124   3.101   4.271
 4487SOL     OW14359   2.879   2.949   6.380
 4487SOL    HW114360   2.847   2.956   6.474
 4487SOL    HW214361   2.964   2.898   6.377
 4488SOL     OW14362   0.142   1.308   4.477
 4488SOL    HW114363   0.097   1.254   4.407
 4488SOL    HW214364   0.153   1.253   4.560
 4489SOL     OW14365   6.185   6.735   4.457
 4489SOL    HW114366   6.187   6.813   4.395
 4489SOL    HW214367   6.147   6.655   4.410
 4490SOL     OW14368   6.547   1.490   2.953
 4490SOL    HW114369   6.564   1.564   3.018
 4490SOL    HW214370   6.593   1.510   2.867
 4491SOL     OW14371   1.013   3.385   2.829
 4491SOL    HW114372   1.030   3.340   2.742
 4491SOL    HW214373   0.923   3.357   2.864
 4492SOL     OW14374   4.633   3.305   6.717
 4492SOL    HW114375   4.718   3.329   6.671
 4492SOL    HW214376   4.652   3.247   6.796
 4493SOL     OW14377   5.631   5.127   4.590
 4493SOL    HW114378   5.709   5.183   4.615
 4493SOL    HW214379   5.653   5.074   4.508
 4494SOL     OW14380   5.906   4.050   4.980
 4494SOL    HW114381   5.952   3.990   5.045
 4494SOL    HW214382   5.889   4.000   4.895
 4495SOL     OW14383   5.037   6.282   1.517
 4495SOL    HW114384   4.982   6.306   1.597
 4495SOL    HW214385   5.015   6.189   1.489
 4496SOL     OW14386   4.926   4.059   5.251
 4496SOL    HW114387   5.012   4.052   5.200
 4496SOL    HW214388   4.882   3.969   5.253
 4497SOL     OW14389   6.432   4.843   0.485
 4497SOL    HW114390   6.505   4.884   0.541
 4497SOL    HW214391   6.469   4.818   0.396
 4498SOL     OW14392   6.743   3.422   0.158
 4498SOL    HW114393   6.727   3.331   0.196
 4498SOL    HW214394   6.661   3.478   0.171
 4499SOL     OW14395   7.006   2.533   5.911
 4499SOL    HW114396   0.029   2.489   5.990
 4499SOL    HW214397   0.039   2.515   5.829
 4500SOL     OW14398   3.102   4.037   4.680
 4500SOL    HW114399   3.057   4.126   4.675
 4500SOL    HW214400   3.034   3.966   4.693
 4501SOL     OW14401   6.976   4.523   5.447
 4501SOL    HW114402   6.934   4.444   5.491
 4501SOL    HW214403   7.015   4.496   5.359
 4502SOL     OW14404   0.470   2.365   0.232
 4502SOL    HW114405   0.553   2.422   0.227
 4502SOL    HW214406   0.392   2.416   0.195
 4503SOL     OW14407   1.098   1.515   4.254
 4503SOL    HW114408   1.078   1.463   4.338
 4503SOL    HW214409   1.022   1.505   4.190
 4504SOL     OW14410   5.057   2.113   4.234
 4504SOL    HW114411   5.036   2.114   4.136
 4504SOL    HW214412   5.016   2.193   4.278
 4505SOL     OW14413   1.898   6.525   5.968
 4505SOL    HW114414   1.838   6.592   5.925
 4505SOL    HW214415   1.849   6.438   5.978
 4506SOL     OW14416   4.300   0.456   5.037
 4506SOL    HW114417   4.371   0.399   4.996
 4506SOL    HW214418   4.299   0.545   4.990
 4507SOL     OW14419   5.946   4.538   0.362
 4507SOL    HW114420   6.006   4.532   0.441
 4507SOL    HW214421   5.863   4.486   0.379
 4508SOL     OW14422   0.850   3.943   0.134
 4508SOL    HW114423   0.781   3.880   0.171
 4508SOL    HW214424   0.922   3.890   0.089
 4509SOL     OW14425   2.473   1.922   3.938
 4509SOL    HW114426   2.540   1.996   3.947
 4509SOL    HW214427   2.390   1.946   3.988
 4510SOL     OW14428   4.479   6.589   5.018
 4510SOL    HW114429   4.414   6.663   5.001
 4510SOL    HW214430   4.492   6.536   4.934
 4511SOL     OW14431   6.248   2.240   0.863
 4511SOL    HW114432   6.196   2.283   0.937
 4511SOL    HW214433   6.332   2.201   0.901
 4512SOL     OW14434   3.193   5.609   6.809
 4512SOL    HW114435   3.100   5.577   6.826
 4512SOL    HW214436   3.247   5.601   6.892
 4513SOL     OW14437   5.163   0.930   1.557
 4513SOL    HW114438   5.250   0.882   1.550
 4513SOL    HW214439   5.145   0.954   1.653
 4514SOL     OW14440   2.906   1.748   5.081
 4514SOL    HW114441   2.970   1.672   5.073
 4514SOL    HW214442   2.954   1.835   5.067
 4515SOL     OW14443   0.633   5.122   1.335
 4515SOL    HW114444   0.577   5.041   1.351
 4515SOL    HW214445   0.609   5.162   1.247
 4516SOL     OW14446   0.754   0.687   5.076
 4516SOL    HW114447   0.755   0.619   5.002
 4516SOL    HW214448   0.740   0.641   5.164
 4517SOL     OW14449   3.398   6.781   5.117
 4517SOL    HW114450   3.330   6.717   5.081
 4517SOL    HW214451   3.368   6.814   5.207
 4518SOL     OW14452   1.301   2.492   4.417
 4518SOL    HW114453   1.400   2.495   4.429
 4518SOL    HW214454   1.260   2.442   4.493
 4519SOL     OW14455   0.089   3.010   3.819
 4519SOL    HW114456   0.141   3.092   3.842
 4519SOL    HW214457   7.015   3.019   3.853
 4520SOL     OW14458   6.954   3.937   3.269
 4520SOL    HW114459   6.920   4.027   3.243
 4520SOL    HW214460   6.976   3.936   3.366
 4521SOL     OW14461   5.375   2.279   0.028
 4521SOL    HW114462   5.411   2.311   0.115
 4521SOL    HW214463   5.412   2.335   6.974
 4522SOL     OW14464   6.005   0.426   4.485
 4522SOL    HW114465   5.905   0.427   4.492
 4522SOL    HW214466   6.043   0.489   4.553
 4523SOL     OW14467   3.287   4.116   0.000
 4523SOL    HW114468   3.221   4.191   0.014
 4523SOL    HW214469   3.378   4.155   7.007
 4524SOL     OW14470   5.304   0.172   4.692
 4524SOL    HW114471   5.382   0.184   4.631
 4524SOL    HW214472   5.220   0.164   4.637
 4525SOL     OW14473   6.404   1.742   5.210
 4525SOL    HW114474   6.452   1.654   5.211
 4525SOL    HW214475   6.446   1.802   5.143
 4526SOL     OW14476   4.820   6.830   0.904
 4526SOL    HW114477   4.740   6.773   0.883
 4526SOL    HW214478   4.885   6.776   0.958
 4527SOL     OW14479   4.970   0.740   2.556
 4527SOL    HW114480   5.045   0.804   2.541
 4527SOL    HW214481   4.966   0.714   2.653
 4528SOL     OW14482   5.965   0.113   0.761
 4528SOL    HW114483   5.909   0.158   0.830
 4528SOL    HW214484   5.981   0.177   0.685
 4529SOL     OW14485   3.922   6.597   3.066
 4529SOL    HW114486   3.885   6.505   3.049
 4529SOL    HW214487   3.848   6.660   3.087
 4530SOL     OW14488   0.637   3.509   5.688
 4530SOL    HW114489   0.599   3.601   5.699
 4530SOL    HW214490   0.628   3.459   5.774
 4531SOL     OW14491   0.204   3.553   4.230
 4531SOL    HW114492   0.263   3.558   4.150
 4531SOL    HW214493   0.248   3.496   4.300
 4532SOL     OW14494   6.631   1.083   0.760
 4532SOL    HW114495   6.681   1.117   0.680
 4532SOL    HW214496   6.695   1.064   0.834
 4533SOL     OW14497   2.345   5.722   2.651
 4533SOL    HW114498   2.317   5.818   2.649
 4533SOL    HW214499   2.265   5.664   2.668
 4534SOL     OW14500   5.989   3.373   5.006
 4534SOL    HW114501   6.043   3.292   5.034
 4534SOL    HW214502   5.996   3.385   4.907
 4535SOL     OW14503   4.860   3.183   1.796
 4535SOL    HW114504   4.940   3.151   1.745
 4535SOL    HW214505   4.831   3.112   1.861
 4536SOL     OW14506   6.233   1.052   4.433
 4536SOL    HW114507   6.157   1.002   4.392
 4536SOL    HW214508   6.253   1.014   4.523
 4537SOL     OW14509   3.563   2.881   6.786
 4537SOL    HW114510   3.555   2.921   6.877
 4537SOL    HW214511   3.656   2.894   6.752
 4538SOL     OW14512   3.121   1.251   2.969
 4538SOL    HW114513   3.060   1.329   2.984
 4538SOL    HW214514   3.092   1.201   2.888
 4539SOL     OW14515   1.876   1.648   3.230
 4539SOL    HW114516   1.804   1.692   3.176
 4539SOL    HW214517   1.833   1.594   3.303
 4540SOL     OW14518   3.767   3.400   4.441
 4540SOL    HW114519   3.706   3.324   4.418
 4540SOL    HW214520   3.716   3.471   4.489
 4541SOL     OW14521   4.766   2.071   1.176
 4541SOL    HW114522   4.798   2.152   1.126
 4541SOL    HW214523   4.830   1.995   1.162
 4542SOL     OW14524   5.556   0.033   2.437
 4542SOL    HW114525   5.654   0.017   2.433
 4542SOL    HW214526   5.534   0.118   2.389
 4543SOL     OW14527   5.633   1.685   1.144
 4543SOL    HW114528   5.677   1.774   1.133
 4543SOL    HW214529   5.573   1.687   1.224
 4544SOL     OW14530   3.415   5.310   6.202
 4544SOL    HW114531   3.440   5.230   6.147
 4544SOL    HW214532   3.423   5.286   6.299
 4545SOL     OW14533   3.867   2.293   5.565
 4545SOL    HW114534   3.927   2.373   5.556
 4545SOL    HW214535   3.911   2.226   5.625
 4546SOL     OW14536   1.431   6.165   6.538
 4546SOL    HW114537   1.476   6.103   6.603
 4546SOL    HW214538   1.339   6.187   6.571
 4547SOL     OW14539   4.911   2.082   1.883
 4547SOL    HW114540   4.888   2.063   1.788
 4547SOL    HW214541   4.832   2.119   1.930
 4548SOL     OW14542   1.092   4.197   3.279
 4548SOL    HW114543   1.018   4.150   3.326
 4548SOL    HW214544   1.112   4.151   3.193
 4549SOL     OW14545   6.775   2.980   2.431
 4549SOL    HW114546   6.726   3.052   2.381
 4549SOL    HW214547   6.709   2.928   2.486
 4550SOL     OW14548   1.358   5.555   4.135
 4550SOL    HW114549   1.259   5.549   4.135
 4550SOL    HW214550   1.386   5.641   4.091
 4551SOL     OW14551   0.772   2.321   5.776
 4551SOL    HW114552   0.800   2.401   5.722
 4551SOL    HW214553   0.836   2.246   5.760
 4552SOL     OW14554   0.377   3.302   4.697
 4552SOL    HW114555   0.380   3.389   4.745
 4552SOL    HW214556   0.363   3.319   4.599
 4553SOL     OW14557   4.408   4.643   0.406
 4553SOL    HW114558   4.358   4.693   0.336
 4553SOL    HW214559   4.346   4.582   0.454
 4554SOL     OW14560   5.205   6.465   2.623
 4554SOL    HW114561   5.174   6.559   2.608
 4554SOL    HW214562   5.148   6.402   2.569
 4555SOL     OW14563   5.308   2.578   6.710
 4555SOL    HW114564   5.223   2.548   6.754
 4555SOL    HW214565   5.378   2.507   6.722
 4556SOL     OW14566   4.806   1.058   3.726
 4556SOL    HW114567   4.748   1.104   3.793
 4556SOL    HW214568   4.846   1.125   3.665
 4557SOL     OW14569   5.059   6.915   6.061
 4557SOL    HW114570   5.081   7.012   6.064
 4557SOL    HW214571   4.966   6.900   6.094
 4558SOL     OW14572   6.270   3.282   6.594
 4558SOL    HW114573   6.181   3.322   6.572
 4558SOL    HW214574   6.321   3.343   6.655
 4559SOL     OW14575   1.350   6.766   1.565
 4559SOL    HW114576   1.327   6.766   1.662
 4559SOL    HW214577   1.392   6.679   1.541
 4560SOL     OW14578   4.924   3.325   3.121
 4560SOL    HW114579   4.861   3.345   3.046
 4560SOL    HW214580   4.970   3.238   3.104
 4561SOL     OW14581   3.373   0.396   6.575
 4561SOL    HW114582   3.437   0.472   6.573
 4561SOL    HW214583   3.279   0.431   6.571
 4562SOL     OW14584   2.907   4.951   6.738
 4562SOL    HW114585   2.956   5.035   6.713
 4562SOL    HW214586   2.887   4.953   6.836
 4563SOL     OW14587   5.626   2.157   6.899
 4563SOL    HW114588   5.692   2.220   6.938
 4563SOL    HW214589   5.574   2.203   6.827
 4564SOL     OW14590   1.600   6.118   0.255
 4564SOL    HW114591   1.659   6.040   0.276
 4564SOL    HW214592   1.650   6.184   0.199
 4565SOL     OW14593   1.360   0.517   5.379
 4565SOL    HW114594   1.339   0.575   5.457
 4565SOL    HW214595   1.454   0.483   5.386
 4566SOL     OW14596   6.676   1.509   0.125
 4566SOL    HW114597   6.710   1.415   0.126
 4566SOL    HW214598   6.656   1.537   0.031
 4567SOL     OW14599   6.549   1.316   0.991
 4567SOL    HW114600   6.499   1.263   0.922
 4567SOL    HW214601   6.636   1.272   1.009
 4568SOL     OW14602   3.268   4.483   5.846
 4568SOL    HW114603   3.272   4.580   5.825
 4568SOL    HW214604   3.242   4.470   5.942
 4569SOL     OW14605   1.049   1.406   4.512
 4569SOL    HW114606   1.055   1.462   4.594
 4569SOL    HW214607   1.022   1.313   4.537
 4570SOL     OW14608   0.360   5.467   4.181
 4570SOL    HW114609   0.308   5.478   4.266
 4570SOL    HW214610   0.421   5.388   4.189
 4571SOL     OW14611   3.515   3.246   4.412
 4571SOL    HW114612   3.430   3.295   4.391
 4571SOL    HW214613   3.494   3.164   4.465
 4572SOL     OW14614   1.706   0.105   1.608
 4572SOL    HW114615   1.749   0.096   1.518
 4572SOL    HW214616   1.702   0.201   1.635
 4573SOL     OW14617   5.819   6.648   0.785
 4573SOL    HW114618   5.836   6.742   0.814
 4573SOL    HW214619   5.771   6.649   0.697
 4574SOL     OW14620   0.071   4.367   1.526
 4574SOL    HW114621   0.069   4.385   1.624
 4574SOL    HW214622   0.064   4.269   1.510
 4575SOL     OW14623   6.528   0.229   2.264
 4575SOL    HW114624   6.487   0.289   2.333
 4575SOL    HW214625   6.526   0.134   2.297
 4576SOL     OW14626   3.323   5.679   5.982
 4576SOL    HW114627   3.252   5.645   5.920
 4576SOL    HW214628   3.294   5.767   6.021
 4577SOL     OW14629   1.433   3.144   3.573
 4577SOL    HW114630   1.360   3.182   3.517
 4577SOL    HW214631   1.397   3.071   3.630
 4578SOL     OW14632   6.710   3.426   4.288
 4578SOL    HW114633   6.653   3.508   4.289
 4578SOL    HW214634   6.804   3.451   4.268
 4579SOL     OW14635   5.674   2.306   3.495
 4579SOL    HW114636   5.618   2.359   3.558
 4579SOL    HW214637   5.647   2.326   3.401
 4580SOL     OW14638   6.582   6.164   0.734
 4580SOL    HW114639   6.512   6.167   0.663
 4580SOL    HW214640   6.585   6.072   0.774
 4581SOL     OW14641   3.103   5.322   2.982
 4581SOL    HW114642   3.101   5.309   2.883
 4581SOL    HW214643   3.140   5.240   3.026
 4582SOL     OW14644   5.364   6.291   3.001
 4582SOL    HW114645   5.317   6.204   2.988
 4582SOL    HW214646   5.368   6.340   2.914
 4583SOL     OW14647   3.567   1.798   5.453
 4583SOL    HW114648   3.606   1.738   5.523
 4583SOL    HW214649   3.468   1.802   5.463
 4584SOL     OW14650   0.636   5.303   5.427
 4584SOL    HW114651   0.623   5.342   5.337
 4584SOL    HW214652   0.587   5.216   5.433
 4585SOL     OW14653   3.729   6.208   2.831
 4585SOL    HW114654   3.647   6.200   2.774
 4585SOL    HW214655   3.702   6.231   2.925
 4586SOL     OW14656   3.469   5.586   2.313
 4586SOL    HW114657   3.398   5.544   2.256
 4586SOL    HW214658   3.555   5.537   2.302
 4587SOL     OW14659   2.469   3.914   1.301
 4587SOL    HW114660   2.420   3.828   1.313
 4587SOL    HW214661   2.535   3.905   1.227
 4588SOL     OW14662   3.905   3.567   5.031
 4588SOL    HW114663   3.934   3.662   5.030
 4588SOL    HW214664   3.964   3.514   5.092
 4589SOL     OW14665   6.353   1.933   4.412
 4589SOL    HW114666   6.453   1.934   4.405
 4589SOL    HW214667   6.326   1.963   4.503
 4590SOL     OW14668   4.207   5.190   2.527
 4590SOL    HW114669   4.216   5.104   2.577
 4590SOL    HW214670   4.184   5.263   2.592
 4591SOL     OW14671   5.706   5.921   5.387
 4591SOL    HW114672   5.649   5.910   5.468
 4591SOL    HW214673   5.662   5.878   5.309
 4592SOL     OW14674   3.926   2.462   6.713
 4592SOL    HW114675   3.992   2.401   6.669
 4592SOL    HW214676   3.893   2.529   6.647
 4593SOL     OW14677   3.888   6.402   2.674
 4593SOL    HW114678   3.859   6.492   2.707
 4593SOL    HW214679   3.879   6.335   2.747
 4594SOL     OW14680   2.202   1.493   2.292
 4594SOL    HW114681   2.134   1.501   2.220
 4594SOL    HW214682   2.159   1.457   2.375
 4595SOL     OW14683   3.990   3.083   6.398
 4595SOL    HW114684   4.070   3.140   6.417
 4595SOL    HW214685   3.982   3.069   6.299
 4596SOL     OW14686   5.502   0.119   1.759
 4596SOL    HW114687   5.554   0.204   1.748
 4596SOL    HW214688   5.412   0.141   1.796
 4597SOL     OW14689   5.366   4.350   6.708
 4597SOL    HW114690   5.289   4.286   6.711
 4597SOL    HW214691   5.366   4.405   6.791
 4598SOL     OW14692   2.271   5.056   6.851
 4598SOL    HW114693   2.247   4.978   6.792
 4598SOL    HW214694   2.315   5.127   6.796
 4599SOL     OW14695   1.723   4.311   0.898
 4599SOL    HW114696   1.821   4.312   0.875
 4599SOL    HW214697   1.697   4.398   0.939
 4600SOL     OW14698   2.640   5.531   0.933
 4600SOL    HW114699   2.601   5.601   0.992
 4600SOL    HW214700   2.739   5.545   0.924
 4601SOL     OW14701   1.832   6.929   5.392
 4601SOL    HW114702   1.798   7.019   5.417
 4601SOL    HW214703   1.758   6.862   5.398
 4602SOL     OW14704   1.502   0.559   1.952
 4602SOL    HW114705   1.436   0.486   1.933
 4602SOL    HW214706   1.595   0.525   1.940
 4603SOL     OW14707   3.376   6.593   1.067
 4603SOL    HW114708   3.376   6.587   1.166
 4603SOL    HW214709   3.447   6.534   1.030
 4604SOL     OW14710   3.465   6.804   1.823
 4604SOL    HW114711   3.545   6.756   1.858
 4604SOL    HW214712   3.492   6.892   1.784
 4605SOL     OW14713   5.315   6.854   4.961
 4605SOL    HW114714   5.344   6.835   4.867
 4605SOL    HW214715   5.345   6.946   4.987
 4606SOL     OW14716   6.794   6.159   5.353
 4606SOL    HW114717   6.843   6.227   5.299
 4606SOL    HW214718   6.708   6.197   5.385
 4607SOL     OW14719   3.424   1.905   1.615
 4607SOL    HW114720   3.423   1.827   1.552
 4607SOL    HW214721   3.360   1.889   1.690
 4608SOL     OW14722   2.153   3.621   5.637
 4608SOL    HW114723   2.201   3.707   5.654
 4608SOL    HW214724   2.067   3.620   5.687
 4609SOL     OW14725   5.129   6.804   6.953
 4609SOL    HW114726   5.182   6.782   6.872
 4609SOL    HW214727   5.109   6.902   6.954
 4610SOL     OW14728   0.145   3.138   6.671
 4610SOL    HW114729   0.058   3.127   6.622
 4610SOL    HW214730   0.127   3.171   6.763
 4611SOL     OW14731   0.517   4.194   0.014
 4611SOL    HW114732   0.482   4.265   6.973
 4611SOL    HW214733   0.447   4.123   0.026
 4612SOL     OW14734   2.317   6.550   6.913
 4612SOL    HW114735   2.358   6.572   7.002
 4612SOL    HW214736   2.388   6.512   6.853
 4613SOL     OW14737   3.352   5.273   2.484
 4613SOL    HW114738   3.290   5.306   2.413
 4613SOL    HW214739   3.368   5.175   2.471
 4614SOL     OW14740   1.545   5.392   0.210
 4614SOL    HW114741   1.500   5.335   0.279
 4614SOL    HW214742   1.642   5.402   0.232
 4615SOL     OW14743   0.676   2.487   0.425
 4615SOL    HW114744   0.599   2.457   0.482
 4615SOL    HW214745   0.761   2.480   0.477
 4616SOL     OW14746   5.317   1.438   6.647
 4616SOL    HW114747   5.341   1.341   6.642
 4616SOL    HW214748   5.397   1.493   6.625
 4617SOL     OW14749   0.365   2.435   1.562
 4617SOL    HW114750   0.303   2.383   1.503
 4617SOL    HW214751   0.394   2.378   1.639
 4618SOL     OW14752   1.247   2.352   6.424
 4618SOL    HW114753   1.208   2.347   6.516
 4618SOL    HW214754   1.194   2.417   6.369
 4619SOL     OW14755   3.795   0.860   3.318
 4619SOL    HW114756   3.793   0.948   3.271
 4619SOL    HW214757   3.733   0.796   3.272
 4620SOL     OW14758   2.428   4.542   6.614
 4620SOL    HW114759   2.380   4.550   6.701
 4620SOL    HW214760   2.474   4.454   6.609
 4621SOL     OW14761   0.469   6.624   5.329
 4621SOL    HW114762   0.432   6.644   5.239
 4621SOL    HW214763   0.485   6.525   5.337
 4622SOL     OW14764   1.674   3.996   0.663
 4622SOL    HW114765   1.706   3.991   0.569
 4622SOL    HW214766   1.747   4.030   0.722
 4623SOL     OW14767   6.672   5.108   1.458
 4623SOL    HW114768   6.632   5.138   1.371
 4623SOL    HW214769   6.620   5.030   1.493
 4624SOL     OW14770   5.147   0.271   4.437
 4624SOL    HW114771   5.141   0.364   4.401
 4624SOL    HW214772   5.057   0.229   4.435
 4625SOL     OW14773   1.228   4.019   6.873
 4625SOL    HW114774   1.169   4.097   6.852
 4625SOL    HW214775   1.306   4.019   6.810
 4626SOL     OW14776   6.621   5.472   1.159
 4626SOL    HW114777   6.709   5.441   1.124
 4626SOL    HW214778   6.634   5.521   1.245
 4627SOL     OW14779   3.467   6.291   5.561
 4627SOL    HW114780   3.486   6.385   5.590
 4627SOL    HW214781   3.460   6.288   5.462
 4628SOL     OW14782   0.013   4.233   1.846
 4628SOL    HW114783   0.002   4.217   1.944
 4628SOL    HW214784   0.044   4.149   1.801
 4629SOL     OW14785   1.734   4.572   5.796
 4629SOL    HW114786   1.801   4.501   5.815
 4629SOL    HW214787   1.756   4.615   5.708
 4630SOL     OW14788   2.177   6.485   3.135
 4630SOL    HW114789   2.094   6.525   3.174
 4630SOL    HW214790   2.254   6.502   3.196
 4631SOL     OW14791   2.694   6.676   2.406
 4631SOL    HW114792   2.721   6.667   2.310
 4631SOL    HW214793   2.674   6.585   2.444
 4632SOL     OW14794   5.380   5.513   3.943
 4632SOL    HW114795   5.411   5.465   3.862
 4632SOL    HW214796   5.457   5.560   3.986
 4633SOL     OW14797   6.329   1.761   4.175
 4633SOL    HW114798   6.359   1.820   4.250
 4633SOL    HW214799   6.393   1.685   4.163
 4634SOL     OW14800   3.047   4.495   0.803
 4634SOL    HW114801   3.053   4.440   0.720
 4634SOL    HW214802   2.966   4.553   0.799
 4635SOL     OW14803   5.176   3.555   1.771
 4635SOL    HW114804   5.081   3.546   1.801
 4635SOL    HW214805   5.183   3.534   1.674
 4636SOL     OW14806   2.894   5.606   0.674
 4636SOL    HW114807   2.795   5.611   0.665
 4636SOL    HW214808   2.918   5.588   0.770
 4637SOL     OW14809   1.421   1.269   5.404
 4637SOL    HW114810   1.472   1.184   5.417
 4637SOL    HW214811   1.481   1.347   5.418
 4638SOL     OW14812   5.412   3.673   5.854
 4638SOL    HW114813   5.409   3.610   5.777
 4638SOL    HW214814   5.459   3.757   5.827
 4639SOL     OW14815   0.153   3.792   5.285
 4639SOL    HW114816   0.088   3.859   5.320
 4639SOL    HW214817   0.197   3.745   5.361
 4640SOL     OW14818   5.560   4.272   2.649
 4640SOL    HW114819   5.610   4.187   2.634
 4640SOL    HW214820   5.488   4.280   2.580
 4641SOL     OW14821   1.959   5.046   4.873
 4641SOL    HW114822   2.039   5.091   4.912
 4641SOL    HW214823   1.920   4.982   4.940
 4642SOL     OW14824   6.062   5.956   4.738
 4642SOL    HW114825   5.988   6.018   4.715
 4642SOL    HW214826   6.136   6.007   4.782
 4643SOL     OW14827   3.919   2.161   1.898
 4643SOL    HW114828   3.999   2.218   1.883
 4643SOL    HW214829   3.836   2.212   1.872
 4644SOL     OW14830   2.289   5.759   5.144
 4644SOL    HW114831   2.368   5.775   5.084
 4644SOL    HW214832   2.236   5.844   5.153
 4645SOL     OW14833   2.058   6.182   4.799
 4645SOL    HW114834   1.979   6.125   4.778
 4645SOL    HW214835   2.058   6.205   4.897
 4646SOL     OW14836   3.709   0.726   1.853
 4646SOL    HW114837   3.687   0.800   1.790
 4646SOL    HW214838   3.804   0.737   1.885
 4647SOL     OW14839   6.122   0.663   4.509
 4647SOL    HW114840   6.180   0.618   4.442
 4647SOL    HW214841   6.032   0.680   4.468
 4648SOL     OW14842   2.568   5.759   2.922
 4648SOL    HW114843   2.642   5.712   2.970
 4648SOL    HW214844   2.531   5.698   2.852
 4649SOL     OW14845   5.195   0.617   6.153
 4649SOL    HW114846   5.189   0.711   6.120
 4649SOL    HW214847   5.234   0.558   6.082
 4650SOL     OW14848   5.713   4.927   2.160
 4650SOL    HW114849   5.737   4.991   2.086
 4650SOL    HW214850   5.733   4.834   2.131
 4651SOL     OW14851   0.430   2.304   1.770
 4651SOL    HW114852   0.381   2.309   1.857
 4651SOL    HW214853   0.409   2.216   1.726
 4652SOL     OW14854   6.527   6.790   5.631
 4652SOL    HW114855   6.582   6.870   5.605
 4652SOL    HW214856   6.431   6.817   5.636
 4653SOL     OW14857   0.076   6.486   0.026
 4653SOL    HW114858   0.163   6.472   6.999
 4653SOL    HW214859   0.035   6.397   0.047
 4654SOL     OW14860   1.318   0.788   0.096
 4654SOL    HW114861   1.249   0.720   0.122
 4654SOL    HW214862   1.329   0.788   7.016
 4655SOL     OW14863   0.344   4.407   3.234
 4655SOL    HW114864   0.279   4.423   3.308
 4655SOL    HW214865   0.345   4.486   3.173
 4656SOL     OW14866   1.758   0.226   3.928
 4656SOL    HW114867   1.689   0.157   3.907
 4656SOL    HW214868   1.807   0.251   3.845
 4657SOL     OW14869   5.171   6.783   0.763
 4657SOL    HW114870   5.250   6.721   0.767
 4657SOL    HW214871   5.110   6.754   0.690
 4658SOL     OW14872   4.958   0.208   2.973
 4658SOL    HW114873   5.034   0.212   2.908
 4658SOL    HW214874   4.993   0.203   3.066
 4659SOL     OW14875   1.767   2.602   5.183
 4659SOL    HW114876   1.845   2.565   5.234
 4659SOL    HW214877   1.752   2.697   5.208
 4660SOL     OW14878   0.064   0.912   6.018
 4660SOL    HW114879   7.013   0.959   5.965
 4660SOL    HW214880   0.028   0.888   6.108
 4661SOL     OW14881   2.930   3.780   3.732
 4661SOL    HW114882   2.845   3.821   3.698
 4661SOL    HW214883   2.987   3.751   3.655
 4662SOL     OW14884   5.345   0.368   5.269
 4662SOL    HW114885   5.332   0.409   5.178
 4662SOL    HW214886   5.260   0.324   5.297
 4663SOL     OW14887   0.488   2.229   2.498
 4663SOL    HW114888   0.466   2.252   2.593
 4663SOL    HW214889   0.522   2.311   2.451
 4664SOL     OW14890   3.181   2.071   0.168
 4664SOL    HW114891   3.176   1.992   0.107
 4664SOL    HW214892   3.262   2.061   0.227
 4665SOL     OW14893   4.776   0.151   0.324
 4665SOL    HW114894   4.773   0.170   0.422
 4665SOL    HW214895   4.774   0.237   0.273
 4666SOL     OW14896   2.222   1.334   0.662
 4666SOL    HW114897   2.135   1.383   0.677
 4666SOL    HW214898   2.276   1.382   0.593
 4667SOL     OW14899   0.182   4.877   6.399
 4667SOL    HW114900   0.215   4.789   6.432
 4667SOL    HW214901   0.086   4.889   6.425
 4668SOL     OW14902   6.591   1.525   4.045
 4668SOL    HW114903   6.606   1.500   4.141
 4668SOL    HW214904   6.672   1.572   4.010
 4669SOL     OW14905   1.630   0.471   0.516
 4669SOL    HW114906   1.600   0.559   0.479
 4669SOL    HW214907   1.696   0.487   0.590
 4670SOL     OW14908   2.234   2.081   4.018
 4670SOL    HW114909   2.143   2.117   4.000
 4670SOL    HW214910   2.300   2.156   4.013
 4671SOL     OW14911   5.923   3.477   1.622
 4671SOL    HW114912   6.020   3.499   1.610
 4671SOL    HW214913   5.872   3.506   1.542
 4672SOL     OW14914   1.988   3.645   6.254
 4672SOL    HW114915   1.949   3.562   6.215
 4672SOL    HW214916   1.939   3.671   6.337
 4673SOL     OW14917   4.184   1.014   2.716
 4673SOL    HW114918   4.227   0.967   2.793
 4673SOL    HW214919   4.206   1.111   2.719
 4674SOL     OW14920   4.621   5.577   5.423
 4674SOL    HW114921   4.556   5.521   5.371
 4674SOL    HW214922   4.620   5.671   5.388
 4675SOL     OW14923   0.875   4.280   0.336
 4675SOL    HW114924   0.782   4.292   0.300
 4675SOL    HW214925   0.894   4.353   0.403
 4676SOL     OW14926   1.181   5.676   3.848
 4676SOL    HW114927   1.186   5.747   3.778
 4676SOL    HW214928   1.171   5.586   3.804
 4677SOL     OW14929   1.680   3.169   0.232
 4677SOL    HW114930   1.717   3.077   0.229
 4677SOL    HW214931   1.683   3.204   0.326
 4678SOL     OW14932   2.370   4.731   2.767
 4678SOL    HW114933   2.289   4.723   2.708
 4678SOL    HW214934   2.424   4.647   2.761
 4679SOL     OW14935   4.957   0.145   1.576
 4679SOL    HW114936   4.967   0.067   1.515
 4679SOL    HW214937   4.976   0.229   1.525
 4680SOL     OW14938   2.282   1.443   1.974
 4680SOL    HW114939   2.297   1.420   1.878
 4680SOL    HW214940   2.306   1.366   2.032
 4681SOL     OW14941   5.511   4.273   1.351
 4681SOL    HW114942   5.550   4.198   1.404
 4681SOL    HW214943   5.510   4.356   1.406
 4682SOL     OW14944   3.961   3.604   6.445
 4682SOL    HW114945   4.055   3.598   6.480
 4682SOL    HW214946   3.944   3.697   6.411
 4683SOL     OW14947   6.217   4.202   3.406
 4683SOL    HW114948   6.292   4.137   3.410
 4683SOL    HW214949   6.164   4.197   3.491
 4684SOL     OW14950   4.921   6.254   0.111
 4684SOL    HW114951   4.980   6.269   0.189
 4684SOL    HW214952   4.949   6.171   0.063
 4685SOL     OW14953   2.431   3.715   5.949
 4685SOL    HW114954   2.452   3.752   5.859
 4685SOL    HW214955   2.378   3.631   5.939
 4686SOL     OW14956   3.073   5.823   0.074
 4686SOL    HW114957   3.137   5.750   0.053
 4686SOL    HW214958   3.115   5.887   0.138
 4687SOL     OW14959   3.064   0.504   2.678
 4687SOL    HW114960   2.995   0.490   2.607
 4687SOL    HW214961   3.110   0.418   2.698
 4688SOL     OW14962   5.584   3.429   5.920
 4688SOL    HW114963   5.529   3.510   5.905
 4688SOL    HW214964   5.680   3.449   5.898
 4689SOL     OW14965   5.800   1.108   0.842
 4689SOL    HW114966   5.806   1.116   0.941
 4689SOL    HW214967   5.705   1.095   0.815
 4690SOL     OW14968   2.652   1.441   0.398
 4690SOL    HW114969   2.649   1.343   0.417
 4690SOL    HW214970   2.581   1.464   0.330
 4691SOL     OW14971   6.642   4.504   1.273
 4691SOL    HW114972   6.734   4.516   1.236
 4691SOL    HW214973   6.647   4.479   1.369
 4692SOL     OW14974   6.141   4.012   3.059
 4692SOL    HW114975   6.048   4.045   3.071
 4692SOL    HW214976   6.181   4.055   2.978
 4693SOL     OW14977   1.913   0.669   3.936
 4693SOL    HW114978   1.847   0.744   3.945
 4693SOL    HW214979   1.871   0.583   3.965
 4694SOL     OW14980   2.590   1.701   0.025
 4694SOL    HW114981   2.540   1.782   7.014
 4694SOL    HW214982   2.642   1.724   0.108
 4695SOL     OW14983   0.839   6.175   1.733
 4695SOL    HW114984   0.863   6.272   1.743
 4695SOL    HW214985   0.917   6.118   1.758
 4696SOL     OW14986   0.808   5.055   6.019
 4696SOL    HW114987   0.880   5.042   5.951
 4696SOL    HW214988   0.726   5.006   5.990
 4697SOL     OW14989   3.054   4.763   0.639
 4697SOL    HW114990   2.987   4.750   0.713
 4697SOL    HW214991   3.028   4.843   0.585
 4698SOL     OW14992   5.378   0.901   3.191
 4698SOL    HW114993   5.460   0.924   3.244
 4698SOL    HW214994   5.308   0.864   3.252
 4699SOL     OW14995   1.091   7.019   2.706
 4699SOL    HW114996   1.079   6.969   2.792
 4699SOL    HW214997   1.181   6.999   2.668
 4700SOL     OW14998   5.785   2.063   2.722
 4700SOL    HW114999   5.850   2.005   2.673
 4700SOL    HW215000   5.696   2.018   2.726
 4701SOL     OW15001   3.331   1.771   2.123
 4701SOL    HW115002   3.340   1.871   2.119
 4701SOL    HW215003   3.242   1.747   2.160
 4702SOL     OW15004   5.238   4.808   6.207
 4702SOL    HW115005   5.224   4.795   6.306
 4702SOL    HW215006   5.315   4.752   6.177
 4703SOL     OW15007   0.856   4.560   3.562
 4703SOL    HW115008   0.763   4.591   3.542
 4703SOL    HW215009   0.886   4.496   3.492
 4704SOL     OW15010   0.888   4.946   5.541
 4704SOL    HW115011   0.933   4.982   5.460
 4704SOL    HW215012   0.804   4.899   5.515
 4705SOL     OW15013   3.123   2.874   1.918
 4705SOL    HW115014   3.186   2.807   1.878
 4705SOL    HW215015   3.154   2.897   2.010
 4706SOL     OW15016   1.634   1.029   0.471
 4706SOL    HW115017   1.651   0.967   0.395
 4706SOL    HW215018   1.544   1.070   0.461
 4707SOL     OW15019   1.518   0.254   1.209
 4707SOL    HW115020   1.613   0.286   1.210
 4707SOL    HW215021   1.518   0.155   1.195
 4708SOL     OW15022   0.693   2.942   4.118
 4708SOL    HW115023   0.600   2.907   4.116
 4708SOL    HW215024   0.718   2.978   4.029
 4709SOL     OW15025   4.553   3.718   5.356
 4709SOL    HW115026   4.568   3.642   5.293
 4709SOL    HW215027   4.626   3.786   5.344
 4710SOL     OW15028   5.961   6.141   4.421
 4710SOL    HW115029   6.053   6.167   4.451
 4710SOL    HW215030   5.895   6.164   4.492
 4711SOL     OW15031   6.179   3.281   2.897
 4711SOL    HW115032   6.250   3.351   2.909
 4711SOL    HW215033   6.097   3.307   2.948
 4712SOL     OW15034   4.471   4.273   5.304
 4712SOL    HW115035   4.438   4.349   5.248
 4712SOL    HW215036   4.565   4.251   5.280
 4713SOL     OW15037   5.685   4.495   0.956
 4713SOL    HW115038   5.601   4.528   0.997
 4713SOL    HW215039   5.728   4.427   1.016
 4714SOL     OW15040   5.777   0.881   5.869
 4714SOL    HW115041   5.746   0.941   5.943
 4714SOL    HW215042   5.767   0.928   5.781
 4715SOL     OW15043   5.786   1.590   1.820
 4715SOL    HW115044   5.852   1.520   1.845
 4715SOL    HW215045   5.821   1.643   1.743
 4716SOL     OW15046   3.943   4.462   5.455
 4716SOL    HW115047   4.013   4.462   5.383
 4716SOL    HW215048   3.908   4.369   5.467
 4717SOL     OW15049   2.861   5.458   5.308
 4717SOL    HW115050   2.802   5.462   5.388
 4717SOL    HW215051   2.805   5.454   5.225
 4718SOL     OW15052   5.175   4.097   1.115
 4718SOL    HW115053   5.131   4.176   1.072
 4718SOL    HW215054   5.260   4.077   1.066
 4719SOL     OW15055   6.852   3.404   3.834
 4719SOL    HW115056   6.790   3.459   3.779
 4719SOL    HW215057   6.800   3.348   3.898
 4720SOL     OW15058   2.797   4.202   6.867
 4720SOL    HW115059   2.700   4.186   6.848
 4720SOL    HW215060   2.811   4.299   6.887
 4721SOL     OW15061   6.651   3.730   2.797
 4721SOL    HW115062   6.645   3.630   2.788
 4721SOL    HW215063   6.641   3.756   2.893
 4722SOL     OW15064   1.048   4.452   6.629
 4722SOL    HW115065   0.952   4.429   6.612
 4722SOL    HW215066   1.052   4.525   6.698
 4723SOL     OW15067   4.011   3.896   6.374
 4723SOL    HW115068   4.073   3.968   6.406
 4723SOL    HW215069   4.014   3.891   6.274
 4724SOL     OW15070   1.201   6.805   4.778
 4724SOL    HW115071   1.143   6.857   4.715
 4724SOL    HW215072   1.263   6.746   4.725
 4725SOL     OW15073   5.702   5.884   0.340
 4725SOL    HW115074   5.800   5.904   0.331
 4725SOL    HW215075   5.674   5.894   0.436
 4726SOL     OW15076   1.444   3.129   5.444
 4726SOL    HW115077   1.489   3.072   5.376
 4726SOL    HW215078   1.456   3.226   5.419
 4727SOL     OW15079   1.348   5.727   0.391
 4727SOL    HW115080   1.416   5.773   0.448
 4727SOL    HW215081   1.287   5.674   0.449
 4728SOL     OW15082   6.286   1.296   3.998
 4728SOL    HW115083   6.226   1.353   4.054
 4728SOL    HW215084   6.345   1.355   3.942
 4729SOL     OW15085   6.373   1.134   0.829
 4729SOL    HW115086   6.312   1.125   0.751
 4729SOL    HW215087   6.463   1.099   0.805
 4730SOL     OW15088   3.550   0.380   4.801
 4730SOL    HW115089   3.608   0.458   4.827
 4730SOL    HW215090   3.513   0.338   4.883
 4731SOL     OW15091   3.197   0.824   0.746
 4731SOL    HW115092   3.189   0.860   0.653
 4731SOL    HW215093   3.293   0.809   0.768
 4732SOL     OW15094   6.785   4.091   4.143
 4732SOL    HW115095   6.774   4.045   4.054
 4732SOL    HW215096   6.786   4.190   4.129
 4733SOL     OW15097   2.088   3.117   2.959
 4733SOL    HW115098   2.117   3.131   2.865
 4733SOL    HW215099   2.144   3.045   3.001
 4734SOL     OW15100   4.816   3.941   6.453
 4734SOL    HW115101   4.801   4.039   6.440
 4734SOL    HW215102   4.729   3.897   6.475
 4735SOL     OW15103   0.112   6.964   4.862
 4735SOL    HW115104   0.038   0.011   4.871
 4735SOL    HW215105   0.104   6.917   4.774
 4736SOL     OW15106   6.339   1.643   3.139
 4736SOL    HW115107   6.412   1.710   3.129
 4736SOL    HW215108   6.344   1.602   3.230
 4737SOL     OW15109   2.276   5.013   1.086
 4737SOL    HW115110   2.283   4.920   1.049
 4737SOL    HW215111   2.312   5.014   1.179
 4738SOL     OW15112   2.075   6.828   3.869
 4738SOL    HW115113   2.129   6.857   3.790
 4738SOL    HW215114   2.050   6.908   3.924
 4739SOL     OW15115   5.802   3.423   4.033
 4739SOL    HW115116   5.862   3.363   3.982
 4739SOL    HW215117   5.799   3.513   3.990
 4740SOL     OW15118   0.183   1.228   1.156
 4740SOL    HW115119   0.191   1.298   1.084
 4740SOL    HW215120   0.208   1.139   1.119
 4741SOL     OW15121   4.636   4.678   1.426
 4741SOL    HW115122   4.572   4.621   1.477
 4741SOL    HW215123   4.684   4.740   1.489
 4742SOL     OW15124   2.893   5.959   1.609
 4742SOL    HW115125   2.844   5.929   1.691
 4742SOL    HW215126   2.867   6.054   1.588
 4743SOL     OW15127   2.470   2.382   0.162
 4743SOL    HW115128   2.477   2.387   0.261
 4743SOL    HW215129   2.475   2.287   0.132
 4744SOL     OW15130   1.938   3.058   5.615
 4744SOL    HW115131   1.910   2.971   5.575
 4744SOL    HW215132   1.963   3.122   5.541
 4745SOL     OW15133   2.806   6.048   5.042
 4745SOL    HW115134   2.885   5.992   5.014
 4745SOL    HW215135   2.782   6.111   4.969
 4746SOL     OW15136   6.531   6.866   0.670
 4746SOL    HW115137   6.571   6.957   0.674
 4746SOL    HW215138   6.459   6.864   0.602
 4747SOL     OW15139   6.538   2.363   0.931
 4747SOL    HW115140   6.561   2.329   0.840
 4747SOL    HW215141   6.535   2.287   0.996
 4748SOL     OW15142   1.229   1.132   1.387
 4748SOL    HW115143   1.190   1.046   1.356
 4748SOL    HW215144   1.308   1.114   1.445
 4749SOL     OW15145   2.145   0.077   0.092
 4749SOL    HW115146   2.062   0.133   0.090
 4749SOL    HW215147   2.216   0.125   0.144
 4750SOL     OW15148   6.947   0.543   4.463
 4750SOL    HW115149   6.904   0.632   4.450
 4750SOL    HW215150   6.976   0.534   4.558
 4751SOL     OW15151   1.105   4.421   6.333
 4751SOL    HW115152   1.056   4.416   6.421
 4751SOL    HW215153   1.065   4.494   6.277
 4752SOL     OW15154   3.114   6.004   2.177
 4752SOL    HW115155   3.139   5.923   2.229
 4752SOL    HW215156   3.195   6.039   2.130
 4753SOL     OW15157   5.569   6.590   5.434
 4753SOL    HW115158   5.523   6.594   5.523
 4753SOL    HW215159   5.605   6.499   5.419
 4754SOL     OW15160   0.511   0.726   6.034
 4754SOL    HW115161   0.574   0.654   6.060
 4754SOL    HW215162   0.539   0.766   5.947
 4755SOL     OW15163   2.306   1.413   6.494
 4755SOL    HW115164   2.330   1.481   6.564
 4755SOL    HW215165   2.278   1.329   6.539
 4756SOL     OW15166   5.047   3.055   1.419
 4756SOL    HW115167   4.983   2.984   1.389
 4756SOL    HW215168   5.137   3.037   1.380
 4757SOL     OW15169   2.183   2.370   1.465
 4757SOL    HW115170   2.275   2.365   1.503
 4757SOL    HW215171   2.116   2.373   1.538
 4758SOL     OW15172   5.195   5.042   5.399
 4758SOL    HW115173   5.144   4.959   5.422
 4758SOL    HW215174   5.131   5.120   5.395
 4759SOL     OW15175   5.529   5.286   6.380
 4759SOL    HW115176   5.550   5.226   6.303
 4759SOL    HW215177   5.430   5.302   6.384
 4760SOL     OW15178   1.852   1.227   1.788
 4760SOL    HW115179   1.863   1.253   1.884
 4760SOL    HW215180   1.888   1.299   1.729
 4761SOL     OW15181   0.116   6.848   6.634
 4761SOL    HW115182   0.146   6.903   6.556
 4761SOL    HW215183   0.183   6.856   6.708
 4762SOL     OW15184   2.409   5.860   1.894
 4762SOL    HW115185   2.356   5.779   1.871
 4762SOL    HW215186   2.473   5.838   1.968
 4763SOL     OW15187   6.052   6.130   3.649
 4763SOL    HW115188   6.128   6.185   3.682
 4763SOL    HW215189   5.973   6.142   3.709
 4764SOL     OW15190   3.678   3.640   4.559
 4764SOL    HW115191   3.653   3.714   4.496
 4764SOL    HW215192   3.652   3.665   4.652
 4765SOL     OW15193   5.133   5.860   4.836
 4765SOL    HW115194   5.171   5.952   4.849
 4765SOL    HW215195   5.163   5.824   4.748
 4766SOL     OW15196   3.041   0.221   3.439
 4766SOL    HW115197   3.046   0.193   3.535
 4766SOL    HW215198   3.051   0.141   3.381
 4767SOL     OW15199   4.510   6.578   6.526
 4767SOL    HW115200   4.545   6.641   6.457
 4767SOL    HW215201   4.411   6.584   6.530
 4768SOL     OW15202   6.563   0.950   5.018
 4768SOL    HW115203   6.629   0.876   5.009
 4768SOL    HW215204   6.607   1.028   5.063
 4769SOL     OW15205   4.123   6.787   1.705
 4769SOL    HW115206   4.045   6.849   1.700
 4769SOL    HW215207   4.149   6.774   1.801
 4770SOL     OW15208   2.782   0.472   3.211
 4770SOL    HW115209   2.831   0.486   3.297
 4770SOL    HW215210   2.736   0.383   3.213
 4771SOL     OW15211   3.798   4.219   5.495
 4771SOL    HW115212   3.773   4.194   5.402
 4771SOL    HW215213   3.816   4.136   5.548
 4772SOL     OW15214   2.772   1.810   1.739
 4772SOL    HW115215   2.868   1.784   1.756
 4772SOL    HW215216   2.769   1.876   1.664
 4773SOL     OW15217   0.106   5.668   3.778
 4773SOL    HW115218   0.186   5.624   3.819
 4773SOL    HW215219   0.120   5.680   3.680
 4774SOL     OW15220   0.817   3.701   0.964
 4774SOL    HW115221   0.798   3.756   0.882
 4774SOL    HW215222   0.884   3.631   0.942
 4775SOL     OW15223   4.456   0.222   2.245
 4775SOL    HW115224   4.367   0.205   2.288
 4775SOL    HW215225   4.510   0.281   2.305
 4776SOL     OW15226   2.817   5.703   2.719
 4776SOL    HW115227   2.893   5.738   2.775
 4776SOL    HW215228   2.811   5.604   2.730
 4777SOL     OW15229   3.077   4.091   1.104
 4777SOL    HW115230   3.102   4.135   1.190
 4777SOL    HW215231   3.053   4.161   1.037
 4778SOL     OW15232   4.834   3.888   2.181
 4778SOL    HW115233   4.863   3.945   2.104
 4778SOL    HW215234   4.741   3.855   2.165
 4779SOL     OW15235   5.919   0.789   2.974
 4779SOL    HW115236   5.991   0.753   3.033
 4779SOL    HW215237   5.951   0.791   2.880
 4780SOL     OW15238   0.985   6.763   6.790
 4780SOL    HW115239   1.083   6.770   6.775
 4780SOL    HW215240   0.966   6.766   6.888
 4781SOL     OW15241   2.576   5.486   1.615
 4781SOL    HW115242   2.534   5.462   1.527
 4781SOL    HW215243   2.544   5.421   1.684
 4782SOL     OW15244   5.541   6.379   7.003
 4782SOL    HW115245   5.519   6.318   0.059
 4782SOL    HW215246   5.618   6.341   6.951
 4783SOL     OW15247   5.281   4.334   0.703
 4783SOL    HW115248   5.300   4.254   0.646
 4783SOL    HW215249   5.242   4.304   0.790
 4784SOL     OW15250   5.228   5.173   4.583
 4784SOL    HW115251   5.275   5.139   4.502
 4784SOL    HW215252   5.245   5.111   4.660
 4785SOL     OW15253   6.595   6.468   1.166
 4785SOL    HW115254   6.685   6.470   1.123
 4785SOL    HW215255   6.524   6.476   1.096
 4786SOL     OW15256   2.013   3.348   2.034
 4786SOL    HW115257   1.972   3.369   2.123
 4786SOL    HW215258   2.081   3.417   2.012
 4787SOL     OW15259   3.314   2.117   3.236
 4787SOL    HW115260   3.254   2.116   3.157
 4787SOL    HW215261   3.274   2.174   3.308
 4788SOL     OW15262   1.168   5.245   4.284
 4788SOL    HW115263   1.212   5.184   4.350
 4788SOL    HW215264   1.218   5.241   4.197
 4789SOL     OW15265   5.728   0.543   6.895
 4789SOL    HW115266   5.822   0.548   6.860
 4789SOL    HW215267   5.710   0.450   6.927
 4790SOL     OW15268   5.609   2.663   6.395
 4790SOL    HW115269   5.635   2.748   6.441
 4790SOL    HW215270   5.510   2.649   6.406
 4791SOL     OW15271   5.642   6.845   1.869
 4791SOL    HW115272   5.708   6.898   1.922
 4791SOL    HW215273   5.667   6.748   1.873
 4792SOL     OW15274   2.023   2.526   2.835
 4792SOL    HW115275   2.032   2.533   2.736
 4792SOL    HW215276   2.096   2.469   2.871
 4793SOL     OW15277   1.442   6.769   6.551
 4793SOL    HW115278   1.445   6.691   6.489
 4793SOL    HW215279   1.535   6.791   6.582
 4794SOL     OW15280   3.100   0.159   2.547
 4794SOL    HW115281   3.002   0.175   2.557
 4794SOL    HW215282   3.150   0.207   2.619
 4795SOL     OW15283   6.388   2.911   4.133
 4795SOL    HW115284   6.349   2.979   4.195
 4795SOL    HW215285   6.425   2.835   4.186
 4796SOL     OW15286   5.857   3.944   0.734
 4796SOL    HW115287   5.955   3.923   0.741
 4796SOL    HW215288   5.804   3.868   0.772
 4797SOL     OW15289   0.504   4.632   5.423
 4797SOL    HW115290   0.413   4.622   5.382
 4797SOL    HW215291   0.574   4.614   5.354
 4798SOL     OW15292   0.085   3.934   4.278
 4798SOL    HW115293   0.009   3.876   4.250
 4798SOL    HW215294   0.050   4.014   4.325
 4799SOL     OW15295   4.231   1.455   5.239
 4799SOL    HW115296   4.168   1.458   5.161
 4799SOL    HW215297   4.180   1.437   5.323
 4800SOL     OW15298   2.349   2.436   5.094
 4800SOL    HW115299   2.260   2.416   5.054
 4800SOL    HW215300   2.337   2.481   5.183
 4801SOL     OW15301   1.487   1.617   0.849
 4801SOL    HW115302   1.495   1.703   0.797
 4801SOL    HW215303   1.392   1.605   0.880
 4802SOL     OW15304   3.057   0.187   1.882
 4802SOL    HW115305   3.093   0.276   1.908
 4802SOL    HW215306   2.981   0.199   1.817
 4803SOL     OW15307   0.763   0.393   0.539
 4803SOL    HW115308   0.815   0.477   0.526
 4803SOL    HW215309   0.788   0.351   0.627
 4804SOL     OW15310   3.975   5.585   6.206
 4804SOL    HW115311   4.049   5.549   6.262
 4804SOL    HW215312   3.892   5.531   6.221
 4805SOL     OW15313   6.882   1.712   0.620
 4805SOL    HW115314   6.914   1.644   0.554
 4805SOL    HW215315   6.785   1.730   0.604
 4806SOL     OW15316   0.479   3.065   2.611
 4806SOL    HW115317   0.405   3.057   2.679
 4806SOL    HW215318   0.495   2.975   2.570
 4807SOL     OW15319   0.442   6.748   1.002
 4807SOL    HW115320   0.369   6.796   0.954
 4807SOL    HW215321   0.405   6.701   1.082
 4808SOL     OW15322   5.163   3.218   1.095
 4808SOL    HW115323   5.068   3.240   1.113
 4808SOL    HW215324   5.203   3.171   1.174
 4809SOL     OW15325   3.547   5.431   6.524
 4809SOL    HW115326   3.508   5.522   6.543
 4809SOL    HW215327   3.602   5.402   6.602
 4810SOL     OW15328   0.807   6.786   1.355
 4810SOL    HW115329   0.844   6.779   1.262
 4810SOL    HW215330   0.716   6.827   1.352
 4811SOL     OW15331   3.714   5.203   1.994
 4811SOL    HW115332   3.709   5.113   1.952
 4811SOL    HW215333   3.681   5.199   2.088
 4812SOL     OW15334   6.916   5.227   4.353
 4812SOL    HW115335   6.864   5.305   4.388
 4812SOL    HW215336   7.011   5.236   4.383
 4813SOL     OW15337   4.922   2.223   2.495
 4813SOL    HW115338   4.856   2.283   2.450
 4813SOL    HW215339   5.006   2.220   2.441
 4814SOL     OW15340   0.401   3.757   1.076
 4814SOL    HW115341   0.310   3.791   1.099
 4814SOL    HW215342   0.404   3.730   0.980
 4815SOL     OW15343   5.049   5.555   1.068
 4815SOL    HW115344   5.123   5.492   1.091
 4815SOL    HW215345   4.961   5.516   1.097
 4816SOL     OW15346   5.443   5.255   2.958
 4816SOL    HW115347   5.440   5.326   2.888
 4816SOL    HW215348   5.525   5.268   3.015
 4817SOL     OW15349   1.063   2.514   6.321
 4817SOL    HW115350   1.023   2.601   6.290
 4817SOL    HW215351   0.992   2.444   6.324
 4818SOL     OW15352   0.218   6.894   3.881
 4818SOL    HW115353   0.124   6.922   3.897
 4818SOL    HW215354   0.254   6.941   3.800
 4819SOL     OW15355   1.447   3.298   0.494
 4819SOL    HW115356   1.445   3.383   0.440
 4819SOL    HW215357   1.494   3.314   0.580
 4820SOL     OW15358   0.067   2.933   1.619
 4820SOL    HW115359   0.015   2.880   1.552
 4820SOL    HW215360   0.004   2.976   1.684
 4821SOL     OW15361   6.764   5.820   2.605
 4821SOL    HW115362   6.680   5.779   2.641
 4821SOL    HW215363   6.837   5.813   2.672
 4822SOL     OW15364   1.407   3.845   4.323
 4822SOL    HW115365   1.358   3.889   4.247
 4822SOL    HW215366   1.369   3.754   4.337
 4823SOL     OW15367   1.926   2.782   2.181
 4823SOL    HW115368   1.999   2.841   2.215
 4823SOL    HW215369   1.957   2.735   2.098
 4824SOL     OW15370   6.142   1.321   5.385
 4824SOL    HW115371   6.094   1.285   5.305
 4824SOL    HW215372   6.170   1.415   5.368
 4825SOL     OW15373   1.460   6.709   4.327
 4825SOL    HW115374   1.480   6.773   4.401
 4825SOL    HW215375   1.545   6.684   4.281
 4826SOL     OW15376   4.478   0.374   1.624
 4826SOL    HW115377   4.516   0.446   1.682
 4826SOL    HW215378   4.512   0.285   1.655
 4827SOL     OW15379   0.073   1.720   1.266
 4827SOL    HW115380   0.034   1.783   1.199
 4827SOL    HW215381   0.163   1.689   1.234
 4828SOL     OW15382   4.701   0.671   2.778
 4828SOL    HW115383   4.677   0.577   2.804
 4828SOL    HW215384   4.779   0.702   2.832
 4829SOL     OW15385   3.880   0.309   5.211
 4829SOL    HW115386   3.919   0.307   5.303
 4829SOL    HW215387   3.785   0.339   5.216
 4830SOL     OW15388   3.049   5.819   3.317
 4830SOL    HW115389   3.022   5.863   3.231
 4830SOL    HW215390   3.062   5.888   3.388
 4831SOL     OW15391   3.395   5.029   6.085
 4831SOL    HW115392   3.407   4.974   6.002
 4831SOL    HW215393   3.432   4.979   6.163
 4832SOL     OW15394   3.163   2.974   4.206
 4832SOL    HW115395   3.257   2.951   4.232
 4832SOL    HW215396   3.127   3.042   4.269
 4833SOL     OW15397   0.231   2.827   3.692
 4833SOL    HW115398   0.169   2.892   3.735
 4833SOL    HW215399   0.178   2.756   3.644
 4834SOL     OW15400   1.632   5.210   1.874
 4834SOL    HW115401   1.605   5.283   1.937
 4834SOL    HW215402   1.646   5.249   1.783
 4835SOL     OW15403   6.975   2.517   5.281
 4835SOL    HW115404   7.001   2.604   5.237
 4835SOL    HW215405   6.966   2.531   5.379
 4836SOL     OW15406   5.336   1.447   5.277
 4836SOL    HW115407   5.393   1.427   5.357
 4836SOL    HW215408   5.240   1.446   5.303
 4837SOL     OW15409   0.023   4.158   4.414
 4837SOL    HW115410   0.047   4.123   4.504
 4837SOL    HW215411   6.963   4.218   4.421
 4838SOL     OW15412   1.493   4.712   0.034
 4838SOL    HW115413   1.406   4.716   7.005
 4838SOL    HW215414   1.530   4.805   0.044
 4839SOL     OW15415   2.583   1.342   6.925
 4839SOL    HW115416   2.560   1.436   6.951
 4839SOL    HW215417   2.673   1.318   6.963
 4840SOL     OW15418   5.698   3.263   4.780
 4840SOL    HW115419   5.683   3.185   4.841
 4840SOL    HW215420   5.794   3.266   4.753
 4841SOL     OW15421   3.052   5.811   2.797
 4841SOL    HW115422   3.113   5.733   2.812
 4841SOL    HW215423   3.079   5.860   2.715
 4842SOL     OW15424   2.910   5.379   3.243
 4842SOL    HW115425   2.880   5.301   3.187
 4842SOL    HW215426   2.886   5.464   3.196
 4843SOL     OW15427   0.347   1.600   2.096
 4843SOL    HW115428   0.295   1.683   2.115
 4843SOL    HW215429   0.351   1.544   2.179
 4844SOL     OW15430   1.066   5.790   4.584
 4844SOL    HW115431   1.165   5.784   4.595
 4844SOL    HW215432   1.024   5.702   4.608
 4845SOL     OW15433   4.881   3.856   4.886
 4845SOL    HW115434   4.832   3.789   4.941
 4845SOL    HW215435   4.964   3.885   4.934
 4846SOL     OW15436   0.010   3.536   4.498
 4846SOL    HW115437   7.009   3.624   4.542
 4846SOL    HW215438   6.982   3.531   4.410
 4847SOL     OW15439   2.218   6.189   6.193
 4847SOL    HW115440   2.253   6.172   6.101
 4847SOL    HW215441   2.152   6.264   6.191
 4848SOL     OW15442   3.388   0.780   4.219
 4848SOL    HW115443   3.423   0.702   4.272
 4848SOL    HW215444   3.377   0.753   4.123
 4849SOL     OW15445   1.684   6.886   1.030
 4849SOL    HW115446   1.660   6.824   0.956
 4849SOL    HW215447   1.725   6.833   1.105
 4850SOL     OW15448   4.461   0.180   0.455
 4850SOL    HW115449   4.459   0.080   0.451
 4850SOL    HW215450   4.431   0.217   0.367
 4851SOL     OW15451   3.662   5.089   6.379
 4851SOL    HW115452   3.601   5.156   6.421
 4851SOL    HW215453   3.747   5.084   6.432
 4852SOL     OW15454   5.010   5.456   4.651
 4852SOL    HW115455   5.012   5.520   4.728
 4852SOL    HW215456   5.098   5.408   4.645
 4853SOL     OW15457   4.149   0.028   2.244
 4853SOL    HW115458   4.163   0.082   2.327
 4853SOL    HW215459   4.098   0.082   2.177
 4854SOL     OW15460   5.920   6.155   1.566
 4854SOL    HW115461   5.921   6.194   1.474
 4854SOL    HW215462   5.850   6.083   1.570
 4855SOL     OW15463   6.134   4.984   5.279
 4855SOL    HW115464   6.168   5.004   5.187
 4855SOL    HW215465   6.083   5.062   5.313
 4856SOL     OW15466   0.017   3.624   3.214
 4856SOL    HW115467   0.023   3.580   3.304
 4856SOL    HW215468   7.014   3.720   3.225
 4857SOL     OW15469   2.611   2.129   4.955
 4857SOL    HW115470   2.704   2.162   4.939
 4857SOL    HW215471   2.581   2.157   5.046
 4858SOL     OW15472   0.587   5.810   3.996
 4858SOL    HW115473   0.601   5.732   3.936
 4858SOL    HW215474   0.508   5.793   4.056
 4859SOL     OW15475   0.832   6.313   2.409
 4859SOL    HW115476   0.785   6.237   2.365
 4859SOL    HW215477   0.885   6.364   2.341
 4860SOL     OW15478   4.120   5.471   1.088
 4860SOL    HW115479   4.194   5.479   1.020
 4860SOL    HW215480   4.033   5.498   1.046
 4861SOL     OW15481   7.010   4.528   6.661
 4861SOL    HW115482   6.932   4.560   6.607
 4861SOL    HW215483   0.057   4.601   6.670
 4862SOL     OW15484   2.390   5.237   5.417
 4862SOL    HW115485   2.350   5.181   5.489
 4862SOL    HW215486   2.330   5.235   5.337
 4863SOL     OW15487   4.490   1.755   2.763
 4863SOL    HW115488   4.482   1.833   2.825
 4863SOL    HW215489   4.444   1.776   2.677
 4864SOL     OW15490   2.495   1.499   1.721
 4864SOL    HW115491   2.460   1.580   1.767
 4864SOL    HW215492   2.562   1.454   1.780
 4865SOL     OW15493   3.625   5.993   5.420
 4865SOL    HW115494   3.584   5.978   5.510
 4865SOL    HW215495   3.701   6.057   5.428
 4866SOL     OW15496   6.602   4.446   1.579
 4866SOL    HW115497   6.513   4.456   1.623
 4866SOL    HW215498   6.666   4.511   1.619
 4867SOL     OW15499   5.231   6.210   3.312
 4867SOL    HW115500   5.212   6.187   3.217
 4867SOL    HW215501   5.262   6.129   3.361
 4868SOL     OW15502   0.614   5.884   1.223
 4868SOL    HW115503   0.709   5.912   1.242
 4868SOL    HW215504   0.582   5.825   1.297
 4869SOL     OW15505   6.381   0.652   0.693
 4869SOL    HW115506   6.374   0.708   0.775
 4869SOL    HW215507   6.291   0.617   0.668
 4870SOL     OW15508   6.473   6.470   1.967
 4870SOL    HW115509   6.390   6.416   1.979
 4870SOL    HW215510   6.553   6.415   1.991
 4871SOL     OW15511   1.129   3.510   3.893
 4871SOL    HW115512   1.066   3.439   3.923
 4871SOL    HW215513   1.078   3.586   3.853
 4872SOL     OW15514   1.081   0.709   2.874
 4872SOL    HW115515   1.037   0.622   2.896
 4872SOL    HW215516   1.014   0.783   2.879
 4873SOL     OW15517   0.228   5.631   5.354
 4873SOL    HW115518   0.243   5.691   5.433
 4873SOL    HW215519   0.152   5.666   5.299
 4874SOL     OW15520   5.394   3.686   3.144
 4874SOL    HW115521   5.435   3.775   3.161
 4874SOL    HW215522   5.294   3.695   3.144
 4875SOL     OW15523   6.038   2.477   6.960
 4875SOL    HW115524   6.023   2.380   6.942
 4875SOL    HW215525   5.950   2.523   6.974
 4876SOL     OW15526   0.502   1.414   6.651
 4876SOL    HW115527   0.522   1.370   6.739
 4876SOL    HW215528   0.572   1.389   6.584
 4877SOL     OW15529   6.404   1.590   1.216
 4877SOL    HW115530   6.357   1.520   1.163
 4877SOL    HW215531   6.501   1.591   1.192
 4878SOL     OW15532   0.145   2.020   1.560
 4878SOL    HW115533   0.134   2.017   1.461
 4878SOL    HW215534   0.158   1.927   1.594
 4879SOL     OW15535   4.490   5.022   3.468
 4879SOL    HW115536   4.482   5.121   3.480
 4879SOL    HW215537   4.457   4.996   3.377
 4880SOL     OW15538   5.486   2.103   5.826
 4880SOL    HW115539   5.470   2.082   5.730
 4880SOL    HW215540   5.425   2.176   5.856
 4881SOL     OW15541   3.589   6.155   6.502
 4881SOL    HW115542   3.671   6.196   6.543
 4881SOL    HW215543   3.607   6.134   6.406
 4882SOL     OW15544   5.946   0.594   5.438
 4882SOL    HW115545   5.884   0.516   5.449
 4882SOL    HW215546   5.893   0.675   5.411
 4883SOL     OW15547   6.978   5.823   1.305
 4883SOL    HW115548   7.018   5.820   1.213
 4883SOL    HW215549   6.909   5.895   1.309
 4884SOL     OW15550   3.390   6.550   1.322
 4884SOL    HW115551   3.449   6.542   1.403
 4884SOL    HW215552   3.297   6.522   1.347
 4885SOL     OW15553   1.879   7.000   1.781
 4885SOL    HW115554   1.832   0.032   1.709
 4885SOL    HW215555   1.978   7.008   1.768
 4886SOL     OW15556   6.174   0.862   6.597
 4886SOL    HW115557   6.191   0.960   6.606
 4886SOL    HW215558   6.245   0.811   6.646
 4887SOL     OW15559   0.519   1.952   4.435
 4887SOL    HW115560   0.452   1.985   4.502
 4887SOL    HW215561   0.604   2.004   4.445
 4888SOL     OW15562   2.828   5.445   2.755
 4888SOL    HW115563   2.767   5.433   2.834
 4888SOL    HW215564   2.795   5.388   2.680
 4889SOL     OW15565   1.276   1.926   0.137
 4889SOL    HW115566   1.342   1.888   0.072
 4889SOL    HW215567   1.293   2.023   0.150
 4890SOL     OW15568   1.120   0.560   4.534
 4890SOL    HW115569   1.040   0.499   4.530
 4890SOL    HW215570   1.118   0.612   4.619
 4891SOL     OW15571   0.960   4.693   0.294
 4891SOL    HW115572   0.966   4.598   0.264
 4891SOL    HW215573   0.953   4.753   0.214
 4892SOL     OW15574   0.802   5.545   1.302
 4892SOL    HW115575   0.826   5.450   1.325
 4892SOL    HW215576   0.724   5.545   1.240
 4893SOL     OW15577   0.278   3.642   6.453
 4893SOL    HW115578   0.360   3.654   6.510
 4893SOL    HW215579   0.251   3.730   6.415
 4894SOL     OW15580   2.610   0.650   3.103
 4894SOL    HW115581   2.518   0.616   3.119
 4894SOL    HW215582   2.676   0.592   3.150
 4895SOL     OW15583   0.740   3.530   0.208
 4895SOL    HW115584   0.723   3.452   0.268
 4895SOL    HW215585   0.791   3.499   0.128
 4896SOL     OW15586   3.965   5.403   4.420
 4896SOL    HW115587   3.957   5.459   4.337
 4896SOL    HW215588   3.904   5.325   4.413
 4897SOL     OW15589   3.388   5.581   6.233
 4897SOL    HW115590   3.390   5.481   6.229
 4897SOL    HW215591   3.376   5.618   6.141
 4898SOL     OW15592   5.880   2.095   5.283
 4898SOL    HW115593   5.787   2.109   5.250
 4898SOL    HW215594   5.886   2.124   5.379
 4899SOL     OW15595   5.633   3.948   4.069
 4899SOL    HW115596   5.564   3.933   3.998
 4899SOL    HW215597   5.701   4.014   4.036
 4900SOL     OW15598   1.027   6.887   5.418
 4900SOL    HW115599   0.995   6.832   5.495
 4900SOL    HW215600   0.958   6.886   5.346
 4901SOL     OW15601   1.246   6.546   4.027
 4901SOL    HW115602   1.319   6.498   3.979
 4901SOL    HW215603   1.260   6.645   4.019
 4902SOL     OW15604   2.845   4.857   1.920
 4902SOL    HW115605   2.843   4.757   1.928
 4902SOL    HW215606   2.800   4.898   2.000
 4903SOL     OW15607   4.646   6.908   6.621
 4903SOL    HW115608   4.677   6.997   6.587
 4903SOL    HW215609   4.706   6.878   6.695
 4904SOL     OW15610   3.112   5.826   3.714
 4904SOL    HW115611   3.128   5.734   3.679
 4904SOL    HW215612   3.174   5.891   3.670
 4905SOL     OW15613   5.884   3.423   2.226
 4905SOL    HW115614   5.855   3.488   2.155
 4905SOL    HW215615   5.814   3.352   2.236
 4906SOL     OW15616   5.676   0.495   0.588
 4906SOL    HW115617   5.633   0.428   0.649
 4906SOL    HW215618   5.707   0.574   0.642
 4907SOL     OW15619   3.147   0.985   2.534
 4907SOL    HW115620   3.207   1.028   2.468
 4907SOL    HW215621   3.053   0.987   2.500
 4908SOL     OW15622   2.834   5.820   6.713
 4908SOL    HW115623   2.821   5.766   6.630
 4908SOL    HW215624   2.880   5.764   6.782
 4909SOL     OW15625   0.023   0.012   5.297
 4909SOL    HW115626   0.012   0.059   5.384
 4909SOL    HW215627   0.034   6.934   5.313
 4910SOL     OW15628   5.744   0.057   4.985
 4910SOL    HW115629   5.825   0.064   5.044
 4910SOL    HW215630   5.665   0.097   5.032
 4911SOL     OW15631   6.709   2.794   6.139
 4911SOL    HW115632   6.802   2.777   6.104
 4911SOL    HW215633   6.642   2.774   6.067
 4912SOL     OW15634   2.524   2.080   1.992
 4912SOL    HW115635   2.453   2.045   2.053
 4912SOL    HW215636   2.550   2.173   2.020
 4913SOL     OW15637   2.980   3.538   3.008
 4913SOL    HW115638   3.037   3.552   2.927
 4913SOL    HW215639   2.955   3.626   3.048
 4914SOL     OW15640   1.986   6.458   3.571
 4914SOL    HW115641   2.051   6.413   3.632
 4914SOL    HW215642   1.968   6.400   3.491
 4915SOL     OW15643   3.217   5.619   3.394
 4915SOL    HW115644   3.156   5.694   3.372
 4915SOL    HW215645   3.251   5.578   3.309
 4916SOL     OW15646   2.888   1.037   2.478
 4916SOL    HW115647   2.886   1.019   2.380
 4916SOL    HW215648   2.903   1.134   2.493
 4917SOL     OW15649   1.894   4.893   0.754
 4917SOL    HW115650   1.944   4.943   0.825
 4917SOL    HW215651   1.816   4.846   0.795
 4918SOL     OW15652   2.373   0.475   1.827
 4918SOL    HW115653   2.472   0.481   1.814
 4918SOL    HW215654   2.334   0.567   1.830
 4919SOL     OW15655   2.463   2.377   2.055
 4919SOL    HW115656   2.440   2.447   2.123
 4919SOL    HW215657   2.446   2.412   1.963
 4920SOL     OW15658   4.522   0.769   0.194
 4920SOL    HW115659   4.521   0.675   0.228
 4920SOL    HW215660   4.438   0.786   0.143
 4921SOL     OW15661   1.454   5.007   1.512
 4921SOL    HW115662   1.432   5.017   1.415
 4921SOL    HW215663   1.467   4.910   1.533
 4922SOL     OW15664   1.571   2.466   5.710
 4922SOL    HW115665   1.608   2.541   5.655
 4922SOL    HW215666   1.629   2.452   5.790
 4923SOL     OW15667   4.540   1.263   0.782
 4923SOL    HW115668   4.567   1.304   0.695
 4923SOL    HW215669   4.462   1.313   0.820
 4924SOL     OW15670   0.241   3.829   4.897
 4924SOL    HW115671   0.276   3.908   4.848
 4924SOL    HW215672   0.297   3.813   4.979
 4925SOL     OW15673   4.198   6.244   0.022
 4925SOL    HW115674   4.164   6.265   0.114
 4925SOL    HW215675   4.130   6.272   6.974
 4926SOL     OW15676   4.881   2.575   1.854
 4926SOL    HW115677   4.967   2.534   1.881
 4926SOL    HW215678   4.889   2.675   1.854
 4927SOL     OW15679   3.698   3.180   3.386
 4927SOL    HW115680   3.760   3.111   3.424
 4927SOL    HW215681   3.656   3.144   3.302
 4928SOL     OW15682   0.329   6.228   0.300
 4928SOL    HW115683   0.399   6.274   0.245
 4928SOL    HW215684   0.293   6.150   0.250
 4929SOL     OW15685   0.888   5.156   4.110
 4929SOL    HW115686   0.939   5.236   4.079
 4929SOL    HW215687   0.927   5.074   4.067
 4930SOL     OW15688   0.091   1.631   0.810
 4930SOL    HW115689   0.035   1.566   0.861
 4930SOL    HW215690   0.032   1.687   0.752
 4931SOL     OW15691   0.034   1.062   0.587
 4931SOL    HW115692   0.129   1.033   0.590
 4931SOL    HW215693   0.002   1.063   0.492
 4932SOL     OW15694   2.654   2.291   1.731
 4932SOL    HW115695   2.747   2.254   1.728
 4932SOL    HW215696   2.658   2.391   1.735
 4933SOL     OW15697   3.261   1.035   4.276
 4933SOL    HW115698   3.310   0.971   4.216
 4933SOL    HW215699   3.193   0.984   4.330
 4934SOL     OW15700   1.247   6.205   5.113
 4934SOL    HW115701   1.186   6.142   5.064
 4934SOL    HW215702   1.237   6.191   5.211
 4935SOL     OW15703   1.567   1.015   0.752
 4935SOL    HW115704   1.477   1.028   0.795
 4935SOL    HW215705   1.564   1.048   0.658
 4936SOL     OW15706   3.606   5.504   0.596
 4936SOL    HW115707   3.538   5.480   0.526
 4936SOL    HW215708   3.646   5.593   0.574
 4937SOL     OW15709   0.341   3.201   6.500
 4937SOL    HW115710   0.304   3.256   6.425
 4937SOL    HW215711   0.270   3.186   6.569
 4938SOL     OW15712   3.243   4.862   1.415
 4938SOL    HW115713   3.230   4.905   1.504
 4938SOL    HW215714   3.240   4.762   1.425
 4939SOL     OW15715   1.792   1.826   2.263
 4939SOL    HW115716   1.790   1.818   2.163
 4939SOL    HW215717   1.701   1.849   2.296
 4940SOL     OW15718   0.116   2.071   4.839
 4940SOL    HW115719   0.181   2.138   4.802
 4940SOL    HW215720   0.067   2.028   4.763
 4941SOL     OW15721   3.841   2.007   5.218
 4941SOL    HW115722   3.848   2.003   5.318
 4941SOL    HW215723   3.916   2.063   5.182
 4942SOL     OW15724   6.745   1.789   4.052
 4942SOL    HW115725   6.656   1.774   4.011
 4942SOL    HW215726   6.749   1.880   4.093
 4943SOL     OW15727   5.443   3.081   6.694
 4943SOL    HW115728   5.485   3.170   6.678
 4943SOL    HW215729   5.354   3.077   6.650
 4944SOL     OW15730   1.431   5.439   1.056
 4944SOL    HW115731   1.517   5.475   1.095
 4944SOL    HW215732   1.381   5.514   1.013
 4945SOL     OW15733   1.928   1.408   4.995
 4945SOL    HW115734   2.004   1.383   4.935
 4945SOL    HW215735   1.942   1.366   5.085
 4946SOL     OW15736   2.525   4.932   6.874
 4946SOL    HW115737   2.455   4.993   6.836
 4946SOL    HW215738   2.508   4.919   6.971
 4947SOL     OW15739   1.415   1.246   1.985
 4947SOL    HW115740   1.370   1.317   1.932
 4947SOL    HW215741   1.465   1.288   2.061
 4948SOL     OW15742   1.261   2.596   1.714
 4948SOL    HW115743   1.343   2.554   1.751
 4948SOL    HW215744   1.208   2.528   1.664
 4949SOL     OW15745   6.707   3.811   0.051
 4949SOL    HW115746   6.803   3.796   0.075
 4949SOL    HW215747   6.660   3.855   0.127
 4950SOL     OW15748   2.363   3.832   5.387
 4950SOL    HW115749   2.377   3.895   5.463
 4950SOL    HW215750   2.408   3.869   5.305
 4951SOL     OW15751   4.961   5.372   3.695
 4951SOL    HW115752   4.872   5.326   3.693
 4951SOL    HW215753   5.010   5.351   3.610
 4952SOL     OW15754   0.499   6.444   5.862
 4952SOL    HW115755   0.415   6.479   5.822
 4952SOL    HW215756   0.483   6.352   5.899
 4953SOL     OW15757   0.788   2.165   5.066
 4953SOL    HW115758   0.737   2.200   5.145
 4953SOL    HW215759   0.789   2.234   4.994
 4954SOL     OW15760   3.347   4.302   5.276
 4954SOL    HW115761   3.273   4.357   5.316
 4954SOL    HW215762   3.309   4.243   5.204
 4955SOL     OW15763   3.422   5.213   6.440
 4955SOL    HW115764   3.328   5.186   6.418
 4955SOL    HW215765   3.420   5.290   6.505
 4956SOL     OW15766   2.704   0.282   4.908
 4956SOL    HW115767   2.784   0.293   4.966
 4956SOL    HW215768   2.651   0.203   4.939
 4957SOL     OW15769   5.851   4.280   6.937
 4957SOL    HW115770   5.928   4.332   6.975
 4957SOL    HW215771   5.879   4.239   6.850
 4958SOL     OW15772   3.232   5.947   0.263
 4958SOL    HW115773   3.297   5.969   0.190
 4958SOL    HW215774   3.182   6.030   0.289
 4959SOL     OW15775   0.813   3.270   2.432
 4959SOL    HW115776   0.759   3.347   2.465
 4959SOL    HW215777   0.900   3.267   2.481
 4960SOL     OW15778   4.338   5.629   4.430
 4960SOL    HW115779   4.429   5.656   4.462
 4960SOL    HW215780   4.268   5.680   4.481
 4961SOL     OW15781   4.414   0.990   6.810
 4961SOL    HW115782   4.453   0.903   6.779
 4961SOL    HW215783   4.462   1.021   6.891
 4962SOL     OW15784   1.179   4.363   1.025
 4962SOL    HW115785   1.159   4.301   1.101
 4962SOL    HW215786   1.177   4.312   0.939
 4963SOL     OW15787   1.029   4.155   6.232
 4963SOL    HW115788   1.037   4.109   6.320
 4963SOL    HW215789   1.044   4.253   6.243
 4964SOL     OW15790   3.216   0.052   4.747
 4964SOL    HW115791   3.147   0.039   4.819
 4964SOL    HW215792   3.302   0.010   4.775
 4965SOL     OW15793   1.819   6.107   2.986
 4965SOL    HW115794   1.810   6.076   2.892
 4965SOL    HW215795   1.753   6.181   3.003
 4966SOL     OW15796   3.453   6.467   4.196
 4966SOL    HW115797   3.388   6.447   4.269
 4966SOL    HW215798   3.544   6.477   4.234
 4967SOL     OW15799   4.215   4.792   4.860
 4967SOL    HW115800   4.296   4.844   4.833
 4967SOL    HW215801   4.243   4.705   4.900
 4968SOL     OW15802   6.524   2.215   2.979
 4968SOL    HW115803   6.528   2.277   2.900
 4968SOL    HW215804   6.430   2.183   2.992
 4969SOL     OW15805   0.921   6.444   3.101
 4969SOL    HW115806   0.984   6.417   3.027
 4969SOL    HW215807   0.926   6.376   3.174
 4970SOL     OW15808   0.505   1.687   1.733
 4970SOL    HW115809   0.466   1.747   1.803
 4970SOL    HW215810   0.514   1.737   1.647
 4971SOL     OW15811   6.843   6.256   3.015
 4971SOL    HW115812   6.885   6.185   2.959
 4971SOL    HW215813   6.915   6.307   3.063
 4972SOL     OW15814   1.532   4.820   1.294
 4972SOL    HW115815   1.473   4.758   1.346
 4972SOL    HW215816   1.626   4.788   1.298
 4973SOL     OW15817   6.657   0.852   1.031
 4973SOL    HW115818   6.631   0.934   1.082
 4973SOL    HW215819   6.689   0.782   1.094
 4974SOL     OW15820   3.381   5.339   5.093
 4974SOL    HW115821   3.372   5.438   5.086
 4974SOL    HW215822   3.458   5.308   5.037
 4975SOL     OW15823   5.763   4.177   0.593
 4975SOL    HW115824   5.693   4.224   0.645
 4975SOL    HW215825   5.788   4.092   0.639
 4976SOL     OW15826   1.777   6.930   4.235
 4976SOL    HW115827   1.844   6.936   4.309
 4976SOL    HW215828   1.824   6.937   4.147
 4977SOL     OW15829   2.215   4.842   6.441
 4977SOL    HW115830   2.253   4.864   6.351
 4977SOL    HW215831   2.134   4.897   6.457
 4978SOL     OW15832   4.975   4.776   4.448
 4978SOL    HW115833   4.929   4.688   4.436
 4978SOL    HW215834   5.025   4.777   4.535
 4979SOL     OW15835   2.423   6.925   6.248
 4979SOL    HW115836   2.397   7.019   6.229
 4979SOL    HW215837   2.341   6.869   6.259
 4980SOL     OW15838   5.675   3.633   3.105
 4980SOL    HW115839   5.693   3.535   3.112
 4980SOL    HW215840   5.578   3.650   3.119
 4981SOL     OW15841   3.618   5.006   1.817
 4981SOL    HW115842   3.682   5.016   1.741
 4981SOL    HW215843   3.629   4.916   1.859
 4982SOL     OW15844   4.164   1.546   6.637
 4982SOL    HW115845   4.100   1.606   6.589
 4982SOL    HW215846   4.125   1.454   6.641
 4983SOL     OW15847   6.414   5.413   3.048
 4983SOL    HW115848   6.394   5.357   3.128
 4983SOL    HW215849   6.512   5.409   3.028
 4984SOL     OW15850   5.350   4.797   3.099
 4984SOL    HW115851   5.432   4.744   3.122
 4984SOL    HW215852   5.374   4.869   3.034
 4985SOL     OW15853   5.649   6.255   2.637
 4985SOL    HW115854   5.647   6.349   2.605
 4985SOL    HW215855   5.744   6.222   2.640
 4986SOL     OW15856   0.388   4.697   2.462
 4986SOL    HW115857   0.357   4.769   2.399
 4986SOL    HW215858   0.437   4.627   2.410
 4987SOL     OW15859   0.725   0.912   2.193
 4987SOL    HW115860   0.781   0.941   2.270
 4987SOL    HW215861   0.633   0.951   2.201
 4988SOL     OW15862   5.834   0.154   3.612
 4988SOL    HW115863   5.805   0.243   3.646
 4988SOL    HW215864   5.901   0.114   3.675
 4989SOL     OW15865   4.368   0.632   2.598
 4989SOL    HW115866   4.391   0.728   2.586
 4989SOL    HW215867   4.279   0.613   2.558
 4990SOL     OW15868   4.909   2.083   5.297
 4990SOL    HW115869   4.891   2.180   5.281
 4990SOL    HW215870   4.910   2.034   5.210
 4991SOL     OW15871   1.206   5.346   4.902
 4991SOL    HW115872   1.204   5.433   4.950
 4991SOL    HW215873   1.129   5.289   4.931
 4992SOL     OW15874   0.258   1.701   3.372
 4992SOL    HW115875   0.218   1.734   3.287
 4992SOL    HW215876   0.218   1.750   3.450
 4993SOL     OW15877   3.868   6.187   4.449
 4993SOL    HW115878   3.891   6.166   4.544
 4993SOL    HW215879   3.805   6.265   4.446
 4994SOL     OW15880   2.939   4.945   5.440
 4994SOL    HW115881   2.930   5.044   5.425
 4994SOL    HW215882   2.861   4.912   5.493
 4995SOL     OW15883   0.678   0.320   5.510
 4995SOL    HW115884   0.709   0.232   5.475
 4995SOL    HW215885   0.694   0.325   5.608
 4996SOL     OW15886   0.072   1.197   4.727
 4996SOL    HW115887   0.017   1.118   4.697
 4996SOL    HW215888   0.012   1.266   4.767
 4997SOL     OW15889   3.733   2.380   1.128
 4997SOL    HW115890   3.782   2.295   1.150
 4997SOL    HW215891   3.696   2.419   1.212
 4998SOL     OW15892   0.847   3.418   4.012
 4998SOL    HW115893   0.843   3.385   3.918
 4998SOL    HW215894   0.913   3.363   4.064
 4999SOL     OW15895   0.511   3.909   4.524
 4999SOL    HW115896   0.597   3.863   4.546
 4999SOL    HW215897   0.463   3.933   4.609
 5000SOL     OW15898   2.763   5.299   3.480
 5000SOL    HW115899   2.748   5.384   3.532
 5000SOL    HW215900   2.837   5.313   3.414
 5001SOL     OW15901   0.879   5.219   2.707
 5001SOL    HW115902   0.911   5.174   2.623
 5001SOL    HW215903   0.825   5.155   2.761
 5002SOL     OW15904   0.843   3.158   3.191
 5002SOL    HW115905   0.885   3.225   3.252
 5002SOL    HW215906   0.744   3.161   3.202
 5003SOL     OW15907   4.091   6.658   4.040
 5003SOL    HW115908   4.171   6.713   4.018
 5003SOL    HW215909   4.095   6.629   4.136
 5004SOL     OW15910   2.440   6.183   6.617
 5004SOL    HW115911   2.431   6.242   6.537
 5004SOL    HW215912   2.363   6.198   6.678
 5005SOL     OW15913   2.598   2.578   6.782
 5005SOL    HW115914   2.608   2.656   6.720
 5005SOL    HW215915   2.502   2.549   6.784
 5006SOL     OW15916   5.546   1.875   2.046
 5006SOL    HW115917   5.514   1.828   1.963
 5006SOL    HW215918   5.497   1.961   2.057
 5007SOL     OW15919   5.955   6.972   1.949
 5007SOL    HW115920   5.925   6.923   2.031
 5007SOL    HW215921   6.048   6.944   1.925
 5008SOL     OW15922   5.601   6.647   2.168
 5008SOL    HW115923   5.630   6.566   2.220
 5008SOL    HW215924   5.522   6.623   2.112
 5009SOL     OW15925   0.506   2.377   0.633
 5009SOL    HW115926   0.413   2.365   0.601
 5009SOL    HW215927   0.557   2.292   0.622
 5010SOL     OW15928   3.727   3.579   0.310
 5010SOL    HW115929   3.633   3.613   0.306
 5010SOL    HW215930   3.789   3.647   0.272
 5011SOL     OW15931   2.128   3.907   6.767
 5011SOL    HW115932   2.028   3.915   6.766
 5011SOL    HW215933   2.166   3.957   6.689
 5012SOL     OW15934   6.207   1.589   5.346
 5012SOL    HW115935   6.122   1.634   5.374
 5012SOL    HW215936   6.267   1.657   5.303
 5013SOL     OW15937   6.038   0.120   5.680
 5013SOL    HW115938   6.078   0.038   5.720
 5013SOL    HW215939   5.998   0.176   5.753
 5014SOL     OW15940   6.788   3.464   1.638
 5014SOL    HW115941   6.859   3.536   1.637
 5014SOL    HW215942   6.827   3.379   1.603
 5015SOL     OW15943   5.814   6.872   4.050
 5015SOL    HW115944   5.900   6.924   4.045
 5015SOL    HW215945   5.775   6.864   3.958
 5016SOL     OW15946   1.449   3.567   5.128
 5016SOL    HW115947   1.379   3.637   5.142
 5016SOL    HW215948   1.521   3.603   5.068
 5017SOL     OW15949   0.755   2.335   1.788
 5017SOL    HW115950   0.845   2.296   1.810
 5017SOL    HW215951   0.724   2.300   1.700
 5018SOL     OW15952   0.785   6.545   1.535
 5018SOL    HW115953   0.823   6.632   1.504
 5018SOL    HW215954   0.831   6.516   1.619
 5019SOL     OW15955   1.420   5.262   5.063
 5019SOL    HW115956   1.499   5.315   5.032
 5019SOL    HW215957   1.341   5.283   5.004
 5020SOL     OW15958   1.134   0.106   4.767
 5020SOL    HW115959   1.180   0.062   4.690
 5020SOL    HW215960   1.145   0.048   4.849
 5021SOL     OW15961   1.872   1.086   1.222
 5021SOL    HW115962   1.775   1.081   1.200
 5021SOL    HW215963   1.886   1.157   1.291
 5022SOL     OW15964   0.474   3.233   1.575
 5022SOL    HW115965   0.497   3.137   1.589
 5022SOL    HW215966   0.461   3.277   1.664
 5023SOL     OW15967   0.203   4.444   2.755
 5023SOL    HW115968   0.133   4.411   2.691
 5023SOL    HW215969   0.236   4.368   2.810
 5024SOL     OW15970   4.839   3.825   1.406
 5024SOL    HW115971   4.747   3.861   1.386
 5024SOL    HW215972   4.882   3.882   1.476
 5025SOL     OW15973   4.257   0.998   3.376
 5025SOL    HW115974   4.196   1.049   3.315
 5025SOL    HW215975   4.336   1.055   3.400
 5026SOL     OW15976   5.358   6.378   5.332
 5026SOL    HW115977   5.445   6.386   5.283
 5026SOL    HW215978   5.357   6.293   5.384
 5027SOL     OW15979   5.050   0.670   6.758
 5027SOL    HW115980   5.015   0.616   6.834
 5027SOL    HW215981   4.979   0.680   6.688
 5028SOL     OW15982   0.493   2.330   2.778
 5028SOL    HW115983   0.524   2.425   2.772
 5028SOL    HW215984   0.491   2.302   2.874
 5029SOL     OW15985   6.290   1.859   2.306
 5029SOL    HW115986   6.288   1.953   2.341
 5029SOL    HW215987   6.244   1.854   2.218
 5030SOL     OW15988   6.907   4.883   0.153
 5030SOL    HW115989   6.831   4.891   0.217
 5030SOL    HW215990   6.871   4.860   0.062
 5031SOL     OW15991   0.162   0.734   5.784
 5031SOL    HW115992   0.136   0.779   5.869
 5031SOL    HW215993   0.119   0.644   5.778
 5032SOL     OW15994   3.177   3.166   5.553
 5032SOL    HW115995   3.149   3.073   5.528
 5032SOL    HW215996   3.238   3.202   5.482
 5033SOL     OW15997   2.443   1.438   0.219
 5033SOL    HW115998   2.440   1.493   0.135
 5033SOL    HW215999   2.463   1.343   0.196
 5034SOL     OW16000   4.534   6.083   4.047
 5034SOL    HW116001   4.573   6.026   3.974
 5034SOL    HW216002   4.604   6.104   4.115
 5035SOL     OW16003   0.904   4.988   4.336
 5035SOL    HW116004   0.889   5.066   4.396
 5035SOL    HW216005   0.930   5.021   4.245
 5036SOL     OW16006   6.848   3.100   5.043
 5036SOL    HW116007   6.806   3.027   5.097
 5036SOL    HW216008   6.776   3.156   5.001
 5037SOL     OW16009   4.272   4.027   1.069
 5037SOL    HW116010   4.350   4.070   1.114
 5037SOL    HW216011   4.220   4.096   1.018
 5038SOL     OW16012   3.255   3.520   4.085
 5038SOL    HW116013   3.159   3.538   4.065
 5038SOL    HW216014   3.311   3.545   4.006
 5039SOL     OW16015   0.920   3.033   6.968
 5039SOL    HW116016   0.931   3.086   0.032
 5039SOL    HW216017   0.952   3.087   6.890
 5040SOL     OW16018   1.250   5.459   6.069
 5040SOL    HW116019   1.342   5.430   6.094
 5040SOL    HW216020   1.184   5.389   6.097
 5041SOL     OW16021   0.108   3.158   2.100
 5041SOL    HW116022   0.058   3.214   2.033
 5041SOL    HW216023   0.205   3.184   2.098
 5042SOL     OW16024   0.099   3.404   6.041
 5042SOL    HW116025   0.032   3.445   6.103
 5042SOL    HW216026   0.093   3.449   5.952
 5043SOL     OW16027   3.966   0.703   0.744
 5043SOL    HW116028   4.015   0.617   0.757
 5043SOL    HW216029   4.010   0.776   0.796
 5044SOL     OW16030   6.472   5.226   0.577
 5044SOL    HW116031   6.443   5.262   0.488
 5044SOL    HW216032   6.435   5.282   0.650
 5045SOL     OW16033   6.165   3.633   6.069
 5045SOL    HW116034   6.216   3.716   6.048
 5045SOL    HW216035   6.074   3.657   6.104
 5046SOL     OW16036   3.475   3.144   3.876
 5046SOL    HW116037   3.469   3.154   3.777
 5046SOL    HW216038   3.398   3.088   3.909
 5047SOL     OW16039   1.789   3.422   3.172
 5047SOL    HW116040   1.785   3.463   3.080
 5047SOL    HW216041   1.861   3.353   3.174
 5048SOL     OW16042   1.143   0.997   5.831
 5048SOL    HW116043   1.147   0.911   5.781
 5048SOL    HW216044   1.049   1.028   5.836
 5049SOL     OW16045   6.008   0.621   6.168
 5049SOL    HW116046   6.033   0.698   6.226
 5049SOL    HW216047   6.012   0.537   6.221
 5050SOL     OW16048   1.991   1.138   0.390
 5050SOL    HW116049   1.949   1.164   0.477
 5050SOL    HW216050   2.074   1.084   0.408
 5051SOL     OW16051   3.554   4.874   1.397
 5051SOL    HW116052   3.456   4.863   1.381
 5051SOL    HW216053   3.575   4.856   1.493
 5052SOL     OW16054   3.759   1.613   5.325
 5052SOL    HW116055   3.700   1.692   5.309
 5052SOL    HW216056   3.847   1.627   5.278
 5053SOL     OW16057   0.778   6.094   2.296
 5053SOL    HW116058   0.862   6.054   2.334
 5053SOL    HW216059   0.782   6.091   2.196
 5054SOL     OW16060   4.191   4.729   4.563
 5054SOL    HW116061   4.251   4.659   4.603
 5054SOL    HW216062   4.110   4.741   4.621
 5055SOL     OW16063   6.536   2.867   6.582
 5055SOL    HW116064   6.442   2.839   6.597
 5055SOL    HW216065   6.570   2.913   6.664
 5056SOL     OW16066   5.060   3.656   5.178
 5056SOL    HW116067   4.989   3.613   5.122
 5056SOL    HW216068   5.022   3.737   5.223
 5057SOL     OW16069   1.193   6.608   2.921
 5057SOL    HW116070   1.170   6.511   2.911
 5057SOL    HW216071   1.292   6.617   2.937
 5058SOL     OW16072   3.108   4.635   6.483
 5058SOL    HW116073   3.110   4.539   6.454
 5058SOL    HW216074   3.032   4.649   6.547
 5059SOL     OW16075   0.488   0.293   2.992
 5059SOL    HW116076   0.491   0.235   3.074
 5059SOL    HW216077   0.409   0.268   2.936
 5060SOL     OW16078   5.970   1.877   6.174
 5060SOL    HW116079   5.933   1.968   6.197
 5060SOL    HW216080   5.894   1.816   6.150
 5061SOL     OW16081   4.768   3.114   6.926
 5061SOL    HW116082   4.865   3.128   6.907
 5061SOL    HW216083   4.748   3.143   7.020
 5062SOL     OW16084   0.171   0.471   1.319
 5062SOL    HW116085   0.116   0.554   1.307
 5062SOL    HW216086   0.247   0.490   1.381
 5063SOL     OW16087   1.022   0.005   2.139
 5063SOL    HW116088   0.973   0.091   2.153
 5063SOL    HW216089   1.120   0.022   2.135
 5064SOL     OW16090   4.787   3.322   0.308
 5064SOL    HW116091   4.784   3.278   0.398
 5064SOL    HW216092   4.842   3.405   0.313
 5065SOL     OW16093   2.867   6.887   5.519
 5065SOL    HW116094   2.840   6.942   5.599
 5065SOL    HW216095   2.958   6.849   5.535
 5066SOL     OW16096   5.968   4.676   1.352
 5066SOL    HW116097   5.957   4.719   1.262
 5066SOL    HW216098   5.923   4.586   1.352
 5067SOL     OW16099   4.984   0.727   0.525
 5067SOL    HW116100   5.050   0.743   0.451
 5067SOL    HW216101   5.020   0.656   0.585
 5068SOL     OW16102   2.794   4.942   6.983
 5068SOL    HW116103   2.759   4.868   0.021
 5068SOL    HW216104   2.719   4.986   6.935
 5069SOL     OW16105   0.693   4.133   2.394
 5069SOL    HW116106   0.715   4.055   2.453
 5069SOL    HW216107   0.639   4.199   2.445
 5070SOL     OW16108   4.879   3.154   3.779
 5070SOL    HW116109   4.789   3.176   3.816
 5070SOL    HW216110   4.935   3.114   3.852
 5071SOL     OW16111   4.711   2.132   6.030
 5071SOL    HW116112   4.807   2.104   6.036
 5071SOL    HW216113   4.706   2.232   6.034
 5072SOL     OW16114   0.431   4.214   1.344
 5072SOL    HW116115   0.473   4.197   1.255
 5072SOL    HW216116   0.392   4.306   1.346
 5073SOL     OW16117   5.500   0.511   2.522
 5073SOL    HW116118   5.540   0.538   2.610
 5073SOL    HW216119   5.416   0.459   2.539
 5074SOL     OW16120   2.451   4.093   6.690
 5074SOL    HW116121   2.438   4.010   6.636
 5074SOL    HW216122   2.378   4.158   6.669
 5075SOL     OW16123   0.146   5.711   4.890
 5075SOL    HW116124   0.092   5.650   4.947
 5075SOL    HW216125   0.128   5.806   4.915
 5076SOL     OW16126   3.450   0.819   0.838
 5076SOL    HW116127   3.511   0.882   0.885
 5076SOL    HW216128   3.504   0.750   0.789
 5077SOL     OW16129   0.740   2.570   3.562
 5077SOL    HW116130   0.738   2.471   3.577
 5077SOL    HW216131   0.765   2.589   3.468
 5078SOL     OW16132   1.848   2.110   4.322
 5078SOL    HW116133   1.765   2.130   4.270
 5078SOL    HW216134   1.900   2.038   4.277
 5079SOL     OW16135   3.585   4.924   5.645
 5079SOL    HW116136   3.520   4.868   5.594
 5079SOL    HW216137   3.598   4.886   5.736
 5080SOL     OW16138   5.551   6.754   5.745
 5080SOL    HW116139   5.649   6.773   5.740
 5080SOL    HW216140   5.502   6.818   5.686
 5081SOL     OW16141   3.443   3.507   3.476
 5081SOL    HW116142   3.463   3.430   3.537
 5081SOL    HW216143   3.502   3.584   3.500
 5082SOL     OW16144   5.177   5.886   5.450
 5082SOL    HW116145   5.099   5.828   5.426
 5082SOL    HW216146   5.150   5.953   5.519
 5083SOL     OW16147   1.647   6.945   1.935
 5083SOL    HW116148   1.662   6.970   2.031
 5083SOL    HW216149   1.734   6.952   1.885
 5084SOL     OW16150   1.408   5.825   4.054
 5084SOL    HW116151   1.403   5.900   4.120
 5084SOL    HW216152   1.362   5.852   3.970
 5085SOL     OW16153   5.720   1.754   6.645
 5085SOL    HW116154   5.683   1.798   6.727
 5085SOL    HW216155   5.820   1.745   6.653
 5086SOL     OW16156   6.443   5.156   3.593
 5086SOL    HW116157   6.377   5.146   3.668
 5086SOL    HW216158   6.452   5.252   3.568
 5087SOL     OW16159   6.929   5.575   5.458
 5087SOL    HW116160   6.831   5.575   5.439
 5087SOL    HW216161   6.970   5.493   5.418
 5088SOL     OW16162   6.029   0.778   5.960
 5088SOL    HW116163   6.025   0.722   6.043
 5088SOL    HW216164   5.936   0.794   5.927
 5089SOL     OW16165   5.739   3.858   2.952
 5089SOL    HW116166   5.710   3.772   2.995
 5089SOL    HW216167   5.662   3.899   2.904
 5090SOL     OW16168   1.905   5.457   1.480
 5090SOL    HW116169   1.954   5.540   1.451
 5090SOL    HW216170   1.970   5.396   1.525
 5091SOL     OW16171   1.082   6.358   2.898
 5091SOL    HW116172   1.026   6.373   2.816
 5091SOL    HW216173   1.110   6.262   2.901
 5092SOL     OW16174   4.049   2.298   1.039
 5092SOL    HW116175   4.030   2.264   1.132
 5092SOL    HW216176   4.018   2.231   0.972
 5093SOL     OW16177   1.356   2.082   2.127
 5093SOL    HW116178   1.391   2.061   2.218
 5093SOL    HW216179   1.308   2.002   2.090
 5094SOL     OW16180   0.501   6.302   4.748
 5094SOL    HW116181   0.415   6.315   4.699
 5094SOL    HW216182   0.556   6.385   4.742
 5095SOL     OW16183   2.979   0.507   5.180
 5095SOL    HW116184   2.892   0.549   5.207
 5095SOL    HW216185   3.021   0.464   5.260
 5096SOL     OW16186   4.807   3.859   0.682
 5096SOL    HW116187   4.748   3.799   0.628
 5096SOL    HW216188   4.850   3.807   0.756
 5097SOL     OW16189   1.528   6.218   5.942
 5097SOL    HW116190   1.445   6.179   5.981
 5097SOL    HW216191   1.608   6.173   5.982
 5098SOL     OW16192   0.125   1.652   2.929
 5098SOL    HW116193   0.063   1.611   2.996
 5098SOL    HW216194   0.217   1.614   2.941
 5099SOL     OW16195   1.595   0.564   5.488
 5099SOL    HW116196   1.688   0.569   5.525
 5099SOL    HW216197   1.530   0.591   5.558
 5100SOL     OW16198   5.880   6.233   0.107
 5100SOL    HW116199   5.805   6.191   0.158
 5100SOL    HW216200   5.947   6.163   0.082
 5101SOL     OW16201   4.079   6.283   0.276
 5101SOL    HW116202   4.092   6.270   0.374
 5101SOL    HW216203   3.981   6.282   0.255
 5102SOL     OW16204   4.062   6.311   5.280
 5102SOL    HW116205   4.115   6.358   5.211
 5102SOL    HW216206   4.029   6.224   5.244
 5103SOL     OW16207   0.149   0.199   3.976
 5103SOL    HW116208   0.223   0.182   3.911
 5103SOL    HW216209   0.119   0.112   4.016
 5104SOL     OW16210   1.183   0.615   1.481
 5104SOL    HW116211   1.107   0.619   1.546
 5104SOL    HW216212   1.263   0.575   1.525
 5105SOL     OW16213   3.272   3.965   6.361
 5105SOL    HW116214   3.290   4.061   6.385
 5105SOL    HW216215   3.174   3.950   6.354
 5106SOL     OW16216   3.472   0.734   2.209
 5106SOL    HW116217   3.473   0.731   2.309
 5106SOL    HW216218   3.516   0.653   2.172
 5107SOL     OW16219   2.281   6.640   5.984
 5107SOL    HW116220   2.220   6.713   5.953
 5107SOL    HW216221   2.348   6.621   5.912
 5108SOL     OW16222   3.302   3.731   4.348
 5108SOL    HW116223   3.226   3.761   4.291
 5108SOL    HW216224   3.374   3.800   4.347
 5109SOL     OW16225   0.016   1.209   1.430
 5109SOL    HW116226   0.085   1.281   1.437
 5109SOL    HW216227   6.947   1.250   1.409
 5110SOL     OW16228   1.911   5.526   5.596
 5110SOL    HW116229   1.818   5.491   5.589
 5110SOL    HW216230   1.943   5.519   5.690
 5111SOL     OW16231   2.077   1.407   0.344
 5111SOL    HW116232   2.016   1.332   0.371
 5111SOL    HW216233   2.107   1.393   0.250
 5112SOL     OW16234   0.434   5.970   3.796
 5112SOL    HW116235   0.484   6.030   3.733
 5112SOL    HW216236   0.499   5.925   3.857
 5113SOL     OW16237   1.530   0.861   6.805
 5113SOL    HW116238   1.604   0.894   6.864
 5113SOL    HW216239   1.472   0.938   6.778
 5114SOL     OW16240   3.525   4.954   6.678
 5114SOL    HW116241   3.602   4.974   6.618
 5114SOL    HW216242   3.464   4.888   6.634
 5115SOL     OW16243   1.471   3.409   5.374
 5115SOL    HW116244   1.419   3.485   5.336
 5115SOL    HW216245   1.549   3.389   5.315
 5116SOL     OW16246   6.370   4.567   0.594
 5116SOL    HW116247   6.430   4.511   0.537
 5116SOL    HW216248   6.380   4.663   0.568
 5117SOL     OW16249   2.310   4.547   4.676
 5117SOL    HW116250   2.221   4.589   4.692
 5117SOL    HW216251   2.359   4.538   4.763
 5118SOL     OW16252   4.304   6.274   0.616
 5118SOL    HW116253   4.284   6.177   0.622
 5118SOL    HW216254   4.365   6.301   0.691
 5119SOL     OW16255   5.856   0.164   2.129
 5119SOL    HW116256   5.872   0.086   2.070
 5119SOL    HW216257   5.927   0.167   2.200
 5120SOL     OW16258   4.832   1.921   2.522
 5120SOL    HW116259   4.851   2.017   2.501
 5120SOL    HW216260   4.803   1.913   2.617
 5121SOL     OW16261   0.155   3.248   5.216
 5121SOL    HW116262   0.109   3.201   5.291
 5121SOL    HW216263   0.147   3.347   5.229
 5122SOL     OW16264   2.249   6.925   3.651
 5122SOL    HW116265   2.222   6.928   3.554
 5122SOL    HW216266   2.336   6.875   3.660
 5123SOL     OW16267   5.195   4.969   1.912
 5123SOL    HW116268   5.147   4.884   1.888
 5123SOL    HW216269   5.262   4.950   1.984
 5124SOL     OW16270   2.876   6.313   6.745
 5124SOL    HW116271   2.876   6.292   6.648
 5124SOL    HW216272   2.970   6.316   6.779
 5125SOL     OW16273   0.242   2.453   4.424
 5125SOL    HW116274   0.235   2.374   4.364
 5125SOL    HW216275   0.326   2.503   4.403
 5126SOL     OW16276   5.888   4.052   6.414
 5126SOL    HW116277   5.895   4.140   6.461
 5126SOL    HW216278   5.911   3.979   6.478
 5127SOL     OW16279   5.845   3.078   6.793
 5127SOL    HW116280   5.843   3.177   6.784
 5127SOL    HW216281   5.935   3.043   6.766
 5128SOL     OW16282   0.067   0.652   6.870
 5128SOL    HW116283   0.117   0.575   6.909
 5128SOL    HW216284   6.998   0.661   6.916
 5129SOL     OW16285   4.370   2.000   2.411
 5129SOL    HW116286   4.436   2.057   2.459
 5129SOL    HW216287   4.336   1.929   2.473
 5130SOL     OW16288   0.748   6.011   4.013
 5130SOL    HW116289   0.778   6.043   4.102
 5130SOL    HW216290   0.687   5.932   4.024
 5131SOL     OW16291   2.991   4.903   3.579
 5131SOL    HW116292   2.908   4.907   3.634
 5131SOL    HW216293   3.069   4.877   3.636
 5132SOL     OW16294   3.607   1.704   6.735
 5132SOL    HW116295   3.586   1.732   6.828
 5132SOL    HW216296   3.629   1.606   6.733
 5133SOL     OW16297   4.336   4.537   6.292
 5133SOL    HW116298   4.281   4.613   6.259
 5133SOL    HW216299   4.433   4.558   6.277
 5134SOL     OW16300   6.651   6.000   1.132
 5134SOL    HW116301   6.743   6.036   1.150
 5134SOL    HW216302   6.605   5.983   1.219
 5135SOL     OW16303   6.773   3.122   2.113
 5135SOL    HW116304   6.710   3.048   2.086
 5135SOL    HW216305   6.753   3.150   2.207
 5136SOL     OW16306   1.034   0.557   6.093
 5136SOL    HW116307   1.013   0.470   6.137
 5136SOL    HW216308   1.050   0.627   6.162
 5137SOL     OW16309   5.345   0.864   4.573
 5137SOL    HW116310   5.407   0.787   4.588
 5137SOL    HW216311   5.396   0.950   4.574
 5138SOL     OW16312   3.517   2.881   3.560
 5138SOL    HW116313   3.519   2.858   3.657
 5138SOL    HW216314   3.471   2.968   3.547
 5139SOL     OW16315   2.232   0.262   4.890
 5139SOL    HW116316   2.211   0.308   4.804
 5139SOL    HW216317   2.190   0.312   4.966
 5140SOL     OW16318   4.268   2.503   6.575
 5140SOL    HW116319   4.235   2.424   6.625
 5140SOL    HW216320   4.230   2.502   6.482
 5141SOL     OW16321   6.367   2.775   1.630
 5141SOL    HW116322   6.347   2.865   1.669
 5141SOL    HW216323   6.354   2.705   1.700
 5142SOL     OW16324   0.008   0.258   2.846
 5142SOL    HW116325   6.952   0.317   2.872
 5142SOL    HW216326   6.993   0.169   2.817
 5143SOL     OW16327   0.389   5.780   3.027
 5143SOL    HW116328   0.411   5.876   3.008
 5143SOL    HW216329   0.469   5.735   3.067
 5144SOL     OW16330   2.491   2.817   5.542
 5144SOL    HW116331   2.557   2.823   5.468
 5144SOL    HW216332   2.538   2.798   5.628
 5145SOL     OW16333   2.519   6.159   0.050
 5145SOL    HW116334   2.566   6.161   6.982
 5145SOL    HW216335   2.424   6.188   0.038
 5146SOL     OW16336   4.964   4.913   6.186
 5146SOL    HW116337   5.063   4.900   6.197
 5146SOL    HW216338   4.922   4.826   6.163
 5147SOL     OW16339   4.639   2.662   3.627
 5147SOL    HW116340   4.660   2.735   3.692
 5147SOL    HW216341   4.703   2.586   3.640
 5148SOL     OW16342   0.822   0.252   0.137
 5148SOL    HW116343   0.809   0.213   0.046
 5148SOL    HW216344   0.855   0.181   0.199
 5149SOL     OW16345   5.198   5.017   3.605
 5149SOL    HW116346   5.157   5.107   3.591
 5149SOL    HW216347   5.138   4.946   3.568
 5150SOL     OW16348   0.178   5.930   3.882
 5150SOL    HW116349   0.135   5.844   3.856
 5150SOL    HW216350   0.271   5.933   3.846
 5151SOL     OW16351   6.367   5.259   1.449
 5151SOL    HW116352   6.345   5.172   1.404
 5151SOL    HW216353   6.328   5.335   1.397
 5152SOL     OW16354   1.032   1.518   6.823
 5152SOL    HW116355   1.097   1.569   6.767
 5152SOL    HW216356   1.081   1.460   6.888
 5153SOL     OW16357   1.096   1.641   0.930
 5153SOL    HW116358   1.100   1.642   0.830
 5153SOL    HW216359   1.119   1.550   0.963
 5154SOL     OW16360   6.811   2.972   0.178
 5154SOL    HW116361   6.857   3.026   0.108
 5154SOL    HW216362   6.801   3.026   0.261
 5155SOL     OW16363   1.560   1.342   0.864
 5155SOL    HW116364   1.534   1.370   0.957
 5155SOL    HW216365   1.528   1.410   0.799
 5156SOL     OW16366   5.587   5.868   5.639
 5156SOL    HW116367   5.630   5.780   5.619
 5156SOL    HW216368   5.537   5.862   5.725
 5157SOL     OW16369   3.405   0.186   1.235
 5157SOL    HW116370   3.347   0.227   1.305
 5157SOL    HW216371   3.424   0.091   1.259
 5158SOL     OW16372   2.311   1.959   2.190
 5158SOL    HW116373   2.322   2.056   2.213
 5158SOL    HW216374   2.225   1.947   2.140
 5159SOL     OW16375   6.344   3.095   5.514
 5159SOL    HW116376   6.298   3.016   5.473
 5159SOL    HW216377   6.278   3.146   5.569
 5160SOL     OW16378   6.521   6.280   3.561
 5160SOL    HW116379   6.480   6.312   3.475
 5160SOL    HW216380   6.612   6.243   3.542
 5161SOL     OW16381   0.669   3.663   0.523
 5161SOL    HW116382   0.737   3.696   0.458
 5161SOL    HW216383   0.637   3.739   0.580
 5162SOL     OW16384   0.444   6.809   3.424
 5162SOL    HW116385   0.517   6.856   3.373
 5162SOL    HW216386   0.408   6.734   3.369
 5163SOL     OW16387   2.999   6.899   2.025
 5163SOL    HW116388   2.956   6.833   1.963
 5163SOL    HW216389   3.069   6.951   1.976
 5164SOL     OW16390   3.243   3.819   0.425
 5164SOL    HW116391   3.162   3.812   0.366
 5164SOL    HW216392   3.318   3.768   0.384
 5165SOL     OW16393   1.621   4.327   6.515
 5165SOL    HW116394   1.682   4.401   6.544
 5165SOL    HW216395   1.584   4.282   6.596
 5166SOL     OW16396   1.592   5.981   1.609
 5166SOL    HW116397   1.683   6.019   1.592
 5166SOL    HW216398   1.523   6.045   1.576
 5167SOL     OW16399   5.184   2.708   4.961
 5167SOL    HW116400   5.131   2.726   5.044
 5167SOL    HW216401   5.158   2.619   4.923
 5168SOL     OW16402   4.315   2.347   2.527
 5168SOL    HW116403   4.237   2.299   2.486
 5168SOL    HW216404   4.318   2.327   2.625
 5169SOL     OW16405   4.157   6.211   3.786
 5169SOL    HW116406   4.123   6.263   3.864
 5169SOL    HW216407   4.234   6.259   3.744
 5170SOL     OW16408   1.447   3.261   6.402
 5170SOL    HW116409   1.526   3.320   6.420
 5170SOL    HW216410   1.477   3.180   6.352
 5171SOL     OW16411   1.829   5.937   5.221
 5171SOL    HW116412   1.731   5.919   5.213
 5171SOL    HW216413   1.870   5.870   5.283
 5172SOL     OW16414   6.414   5.033   4.529
 5172SOL    HW116415   6.345   4.971   4.492
 5172SOL    HW216416   6.478   4.981   4.587
 5173SOL     OW16417   4.362   3.990   5.599
 5173SOL    HW116418   4.264   3.982   5.579
 5173SOL    HW216419   4.413   3.997   5.514
 5174SOL     OW16420   2.574   6.293   3.457
 5174SOL    HW116421   2.655   6.342   3.424
 5174SOL    HW216422   2.491   6.335   3.418
 5175SOL     OW16423   3.145   3.706   7.001
 5175SOL    HW116424   3.113   3.749   6.916
 5175SOL    HW216425   3.120   3.609   7.001
 5176SOL     OW16426   5.655   6.110   0.198
 5176SOL    HW116427   5.582   6.156   0.249
 5176SOL    HW216428   5.681   6.026   0.245
 5177SOL     OW16429   5.911   0.201   0.340
 5177SOL    HW116430   5.897   0.224   0.436
 5177SOL    HW216431   5.968   0.119   0.333
 5178SOL     OW16432   0.825   4.578   1.743
 5178SOL    HW116433   0.809   4.555   1.839
 5178SOL    HW216434   0.748   4.546   1.688
 5179SOL     OW16435   5.698   5.296   2.618
 5179SOL    HW116436   5.607   5.259   2.602
 5179SOL    HW216437   5.705   5.327   2.713
 5180SOL     OW16438   2.501   6.802   2.576
 5180SOL    HW116439   2.501   6.897   2.545
 5180SOL    HW216440   2.566   6.750   2.521
 5181SOL     OW16441   0.414   0.494   5.844
 5181SOL    HW116442   0.482   0.424   5.865
 5181SOL    HW216443   0.452   0.584   5.862
 5182SOL     OW16444   3.156   5.292   3.384
 5182SOL    HW116445   3.109   5.277   3.471
 5182SOL    HW216446   3.094   5.337   3.320
 5183SOL     OW16447   3.803   1.805   3.731
 5183SOL    HW116448   3.716   1.776   3.693
 5183SOL    HW216449   3.873   1.804   3.660
 5184SOL     OW16450   2.941   0.915   3.898
 5184SOL    HW116451   2.900   0.840   3.950
 5184SOL    HW216452   2.958   0.993   3.958
 5185SOL     OW16453   6.227   0.709   1.464
 5185SOL    HW116454   6.204   0.665   1.551
 5185SOL    HW216455   6.212   0.808   1.472
 5186SOL     OW16456   6.938   3.170   6.487
 5186SOL    HW116457   6.861   3.193   6.428
 5186SOL    HW216458   6.911   3.098   6.550
 5187SOL     OW16459   1.696   4.800   5.434
 5187SOL    HW116460   1.676   4.707   5.464
 5187SOL    HW216461   1.709   4.801   5.335
 5188SOL     OW16462   5.988   6.596   2.038
 5188SOL    HW116463   5.963   6.499   2.039
 5188SOL    HW216464   6.088   6.605   2.038
 5189SOL     OW16465   5.391   6.912   6.426
 5189SOL    HW116466   5.298   6.919   6.389
 5189SOL    HW216467   5.448   6.859   6.364
 5190SOL     OW16468   1.234   4.161   0.455
 5190SOL    HW116469   1.319   4.210   0.475
 5190SOL    HW216470   1.201   4.188   0.364
 5191SOL     OW16471   3.407   4.882   2.693
 5191SOL    HW116472   3.390   4.966   2.745
 5191SOL    HW216473   3.502   4.853   2.707
 5192SOL     OW16474   2.038   4.934   2.278
 5192SOL    HW116475   2.004   4.907   2.188
 5192SOL    HW216476   2.138   4.931   2.279
 5193SOL     OW16477   5.369   0.172   6.032
 5193SOL    HW116478   5.281   0.180   6.077
 5193SOL    HW216479   5.356   0.179   5.933
 5194SOL     OW16480   5.322   2.240   6.538
 5194SOL    HW116481   5.339   2.142   6.545
 5194SOL    HW216482   5.346   2.271   6.446
 5195SOL     OW16483   6.894   0.228   4.593
 5195SOL    HW116484   6.854   0.267   4.676
 5195SOL    HW216485   6.974   0.173   4.616
 5196SOL     OW16486   5.568   6.029   2.512
 5196SOL    HW116487   5.582   6.123   2.545
 5196SOL    HW216488   5.521   6.032   2.423
 5197SOL     OW16489   1.480   3.776   5.424
 5197SOL    HW116490   1.446   3.868   5.409
 5197SOL    HW216491   1.561   3.760   5.369
 5198SOL     OW16492   5.984   5.577   2.695
 5198SOL    HW116493   5.973   5.655   2.757
 5198SOL    HW216494   6.075   5.578   2.655
 5199SOL     OW16495   6.904   4.468   1.199
 5199SOL    HW116496   6.899   4.495   1.296
 5199SOL    HW216497   6.909   4.368   1.193
 5200SOL     OW16498   0.076   4.020   5.039
 5200SOL    HW116499   0.088   4.083   4.962
 5200SOL    HW216500   0.107   3.928   5.012
 5201SOL     OW16501   1.706   5.067   3.867
 5201SOL    HW116502   1.721   5.101   3.774
 5201SOL    HW216503   1.781   5.007   3.893
 5202SOL     OW16504   0.166   4.625   1.177
 5202SOL    HW116505   0.093   4.635   1.109
 5202SOL    HW216506   0.176   4.528   1.201
 5203SOL     OW16507   1.114   2.454   0.120
 5203SOL    HW116508   1.026   2.407   0.131
 5203SOL    HW216509   1.108   2.518   0.044
 5204SOL     OW16510   4.692   4.904   6.970
 5204SOL    HW116511   4.600   4.895   6.933
 5204SOL    HW216512   4.753   4.842   6.921
 5205SOL     OW16513   1.611   0.304   1.882
 5205SOL    HW116514   1.640   0.323   1.788
 5205SOL    HW216515   1.556   0.221   1.883
 5206SOL     OW16516   0.280   4.359   6.170
 5206SOL    HW116517   0.220   4.293   6.124
 5206SOL    HW216518   0.314   4.425   6.103
 5207SOL     OW16519   1.781   4.730   4.398
 5207SOL    HW116520   1.688   4.743   4.431
 5207SOL    HW216521   1.810   4.635   4.415
 5208SOL     OW16522   3.640   1.437   6.655
 5208SOL    HW116523   3.548   1.400   6.643
 5208SOL    HW216524   3.695   1.417   6.573
 5209SOL     OW16525   5.583   6.392   3.116
 5209SOL    HW116526   5.616   6.345   3.197
 5209SOL    HW216527   5.505   6.342   3.078
 5210SOL     OW16528   4.948   4.991   3.962
 5210SOL    HW116529   5.039   4.973   3.926
 5210SOL    HW216530   4.891   5.031   3.890
 5211SOL     OW16531   4.142   3.482   3.338
 5211SOL    HW116532   4.070   3.413   3.340
 5211SOL    HW216533   4.147   3.528   3.426
 5212SOL     OW16534   1.070   2.212   0.662
 5212SOL    HW116535   1.147   2.215   0.598
 5212SOL    HW216536   1.057   2.118   0.694
 5213SOL     OW16537   4.428   2.274   5.988
 5213SOL    HW116538   4.476   2.190   5.963
 5213SOL    HW216539   4.382   2.261   6.076
 5214SOL     OW16540   5.499   1.383   5.483
 5214SOL    HW116541   5.591   1.422   5.475
 5214SOL    HW216542   5.479   1.365   5.580
 5215SOL     OW16543   5.104   5.069   2.701
 5215SOL    HW116544   5.106   5.074   2.601
 5215SOL    HW216545   5.030   5.008   2.729
 5216SOL     OW16546   4.773   4.792   0.649
 5216SOL    HW116547   4.739   4.741   0.728
 5216SOL    HW216548   4.863   4.756   0.623
 5217SOL     OW16549   2.404   5.068   4.142
 5217SOL    HW116550   2.480   5.010   4.114
 5217SOL    HW216551   2.391   5.060   4.241
 5218SOL     OW16552   1.553   6.672   3.817
 5218SOL    HW116553   1.608   6.747   3.780
 5218SOL    HW216554   1.458   6.703   3.828
 5219SOL     OW16555   3.524   6.906   6.539
 5219SOL    HW116556   3.602   6.929   6.597
 5219SOL    HW216557   3.490   6.815   6.562
 5220SOL     OW16558   0.761   6.635   2.999
 5220SOL    HW116559   0.693   6.595   2.939
 5220SOL    HW216560   0.814   6.563   3.044
 5221SOL     OW16561   5.072   1.199   4.700
 5221SOL    HW116562   5.154   1.198   4.758
 5221SOL    HW216563   5.069   1.285   4.648
 5222SOL     OW16564   1.668   0.483   3.678
 5222SOL    HW116565   1.658   0.561   3.617
 5222SOL    HW216566   1.621   0.501   3.764
 5223SOL     OW16567   4.770   0.324   1.361
 5223SOL    HW116568   4.835   0.397   1.383
 5223SOL    HW216569   4.677   0.361   1.361
 5224SOL     OW16570   5.633   1.801   2.301
 5224SOL    HW116571   5.606   1.835   2.211
 5224SOL    HW216572   5.653   1.703   2.295
 5225SOL     OW16573   5.797   6.054   4.702
 5225SOL    HW116574   5.736   6.101   4.639
 5225SOL    HW216575   5.747   5.983   4.751
 5226SOL     OW16576   1.363   6.309   4.189
 5226SOL    HW116577   1.448   6.271   4.155
 5226SOL    HW216578   1.339   6.390   4.137
 5227SOL     OW16579   6.057   4.532   3.022
 5227SOL    HW116580   6.011   4.613   3.059
 5227SOL    HW216581   6.089   4.475   3.098
 5228SOL     OW16582   5.390   1.452   0.555
 5228SOL    HW116583   5.310   1.508   0.576
 5228SOL    HW216584   5.457   1.507   0.505
 5229SOL     OW16585   1.027   3.912   5.433
 5229SOL    HW116586   1.022   3.818   5.468
 5229SOL    HW216587   1.001   3.976   5.505
 5230SOL     OW16588   0.241   0.164   0.086
 5230SOL    HW116589   0.337   0.158   0.111
 5230SOL    HW216590   0.229   0.232   0.013
 5231SOL     OW16591   4.001   3.223   3.851
 5231SOL    HW116592   3.906   3.231   3.881
 5231SOL    HW216593   4.007   3.247   3.754
 5232SOL     OW16594   4.503   2.446   6.821
 5232SOL    HW116595   4.422   2.485   6.778
 5232SOL    HW216596   4.489   2.349   6.837
 5233SOL     OW16597   1.208   0.244   2.646
 5233SOL    HW116598   1.183   0.269   2.552
 5233SOL    HW216599   1.174   0.152   2.666
 5234SOL     OW16600   3.662   6.565   0.699
 5234SOL    HW116601   3.626   6.581   0.608
 5234SOL    HW216602   3.713   6.646   0.730
 5235SOL     OW16603   0.968   2.951   0.980
 5235SOL    HW116604   1.022   2.892   1.040
 5235SOL    HW216605   0.871   2.933   0.994
 5236SOL     OW16606   5.381   3.434   0.810
 5236SOL    HW116607   5.301   3.477   0.850
 5236SOL    HW216608   5.436   3.391   0.882
 5237SOL     OW16609   2.457   2.178   5.184
 5237SOL    HW116610   2.482   2.194   5.280
 5237SOL    HW216611   2.433   2.265   5.142
 5238SOL     OW16612   2.033   4.741   1.074
 5238SOL    HW116613   1.969   4.798   1.022
 5238SOL    HW216614   2.124   4.750   1.034
 5239SOL     OW16615   3.175   3.062   3.742
 5239SOL    HW116616   3.145   2.972   3.710
 5239SOL    HW216617   3.130   3.084   3.828
 5240SOL     OW16618   3.373   2.100   5.071
 5240SOL    HW116619   3.350   2.009   5.038
 5240SOL    HW216620   3.289   2.147   5.099
 5241SOL     OW16621   1.888   6.085   6.899
 5241SOL    HW116622   1.895   6.001   6.846
 5241SOL    HW216623   1.933   6.074   6.988
 5242SOL     OW16624   5.939   1.192   5.840
 5242SOL    HW116625   5.934   1.101   5.881
 5242SOL    HW216626   6.032   1.208   5.806
 5243SOL     OW16627   1.629   5.127   1.143
 5243SOL    HW116628   1.546   5.183   1.136
 5243SOL    HW216629   1.615   5.042   1.092
 5244SOL     OW16630   5.229   4.560   5.492
 5244SOL    HW116631   5.263   4.649   5.463
 5244SOL    HW216632   5.265   4.537   5.583
 5245SOL     OW16633   4.741   4.230   6.820
 5245SOL    HW116634   4.809   4.159   6.802
 5245SOL    HW216635   4.660   4.213   6.764
 5246SOL     OW16636   1.325   3.334   2.832
 5246SOL    HW116637   1.352   3.267   2.763
 5246SOL    HW216638   1.303   3.421   2.787
 5247SOL     OW16639   0.592   5.217   1.057
 5247SOL    HW116640   0.496   5.226   1.084
 5247SOL    HW216641   0.597   5.186   0.962
 5248SOL     OW16642   5.166   0.821   5.716
 5248SOL    HW116643   5.200   0.740   5.764
 5248SOL    HW216644   5.217   0.831   5.630
 5249SOL     OW16645   0.967   4.856   4.703
 5249SOL    HW116646   1.033   4.831   4.632
 5249SOL    HW216647   0.937   4.950   4.689
 5250SOL     OW16648   0.644   1.559   6.344
 5250SOL    HW116649   0.679   1.476   6.389
 5250SOL    HW216650   0.701   1.581   6.265
 5251SOL     OW16651   6.224   2.950   1.406
 5251SOL    HW116652   6.192   2.873   1.351
 5251SOL    HW216653   6.304   2.922   1.459
 5252SOL     OW16654   4.032   5.689   0.592
 5252SOL    HW116655   4.025   5.691   0.692
 5252SOL    HW216656   3.998   5.775   0.555
 5253SOL     OW16657   5.537   3.651   4.056
 5253SOL    HW116658   5.484   3.736   4.058
 5253SOL    HW216659   5.621   3.664   4.003
 5254SOL     OW16660   4.572   0.662   3.786
 5254SOL    HW116661   4.529   0.655   3.696
 5254SOL    HW216662   4.521   0.726   3.843
 5255SOL     OW16663   3.098   6.411   4.868
 5255SOL    HW116664   3.192   6.378   4.852
 5255SOL    HW216665   3.053   6.352   4.935
 5256SOL     OW16666   5.524   6.956   3.998
 5256SOL    HW116667   5.479   6.906   4.072
 5256SOL    HW216668   5.529   6.897   3.917
 5257SOL     OW16669   3.903   7.004   0.394
 5257SOL    HW116670   3.883   0.075   0.431
 5257SOL    HW216671   4.001   6.985   0.401
 5258SOL     OW16672   5.136   4.110   2.519
 5258SOL    HW116673   5.095   4.025   2.486
 5258SOL    HW216674   5.078   4.150   2.590
 5259SOL     OW16675   4.774   5.166   2.725
 5259SOL    HW116676   4.804   5.101   2.795
 5259SOL    HW216677   4.674   5.173   2.727
 5260SOL     OW16678   5.772   3.428   1.375
 5260SOL    HW116679   5.786   3.451   1.279
 5260SOL    HW216680   5.684   3.465   1.405
 5261SOL     OW16681   0.914   2.545   4.597
 5261SOL    HW116682   0.997   2.575   4.644
 5261SOL    HW216683   0.837   2.551   4.659
 5262SOL     OW16684   2.861   6.701   1.886
 5262SOL    HW116685   2.884   6.643   1.808
 5262SOL    HW216686   2.773   6.746   1.869
 5263SOL     OW16687   1.435   6.919   6.318
 5263SOL    HW116688   1.437   6.853   6.393
 5263SOL    HW216689   1.498   6.889   6.246
 5264SOL     OW16690   0.254   2.136   0.915
 5264SOL    HW116691   0.245   2.109   1.010
 5264SOL    HW216692   0.201   2.073   0.857
 5265SOL     OW16693   5.348   4.647   1.513
 5265SOL    HW116694   5.434   4.605   1.540
 5265SOL    HW216695   5.302   4.590   1.445
 5266SOL     OW16696   1.518   6.748   1.833
 5266SOL    HW116697   1.422   6.776   1.836
 5266SOL    HW216698   1.575   6.822   1.868
 5267SOL     OW16699   4.891   4.848   4.980
 5267SOL    HW116700   4.943   4.768   5.012
 5267SOL    HW216701   4.953   4.909   4.931
 5268SOL     OW16702   5.865   5.423   5.383
 5268SOL    HW116703   5.774   5.388   5.364
 5268SOL    HW216704   5.872   5.518   5.350
 5269SOL     OW16705   1.903   5.582   4.166
 5269SOL    HW116706   1.962   5.660   4.188
 5269SOL    HW216707   1.960   5.504   4.141
 5270SOL     OW16708   6.173   2.393   1.763
 5270SOL    HW116709   6.078   2.363   1.772
 5270SOL    HW216710   6.234   2.316   1.782
 5271SOL     OW16711   5.219   4.349   4.967
 5271SOL    HW116712   5.220   4.353   5.066
 5271SOL    HW216713   5.205   4.254   4.937
 5272SOL     OW16714   0.726   0.371   4.656
 5272SOL    HW116715   0.798   0.318   4.612
 5272SOL    HW216716   0.672   0.311   4.715
 5273SOL     OW16717   0.797   1.360   3.928
 5273SOL    HW116718   0.749   1.364   4.016
 5273SOL    HW216719   0.731   1.343   3.855
 5274SOL     OW16720   6.789   4.905   3.876
 5274SOL    HW116721   6.837   4.860   3.951
 5274SOL    HW216722   6.827   4.997   3.864
 5275SOL     OW16723   2.476   0.345   6.743
 5275SOL    HW116724   2.390   0.332   6.791
 5275SOL    HW216725   2.458   0.370   6.647
 5276SOL     OW16726   6.975   6.738   1.613
 5276SOL    HW116727   6.903   6.758   1.547
 5276SOL    HW216728   0.030   6.803   1.600
 5277SOL     OW16729   1.031   1.509   3.509
 5277SOL    HW116730   0.933   1.489   3.498
 5277SOL    HW216731   1.056   1.498   3.605
 5278SOL     OW16732   0.647   5.326   5.708
 5278SOL    HW116733   0.637   5.356   5.613
 5278SOL    HW216734   0.739   5.290   5.721
 5279SOL     OW16735   1.689   5.777   6.398
 5279SOL    HW116736   1.781   5.787   6.437
 5279SOL    HW216737   1.691   5.708   6.326
 5280SOL     OW16738   4.123   5.757   4.572
 5280SOL    HW116739   4.152   5.846   4.606
 5280SOL    HW216740   4.067   5.770   4.489
 5281SOL     OW16741   1.863   0.451   4.878
 5281SOL    HW116742   1.918   0.465   4.795
 5281SOL    HW216743   1.766   0.442   4.852
 5282SOL     OW16744   1.273   0.491   2.406
 5282SOL    HW116745   1.258   0.533   2.495
 5282SOL    HW216746   1.196   0.432   2.383
 5283SOL     OW16747   0.031   1.169   4.285
 5283SOL    HW116748   6.952   1.174   4.288
 5283SOL    HW216749   0.065   1.216   4.204
 5284SOL     OW16750   5.187   2.128   1.862
 5284SOL    HW116751   5.198   2.196   1.789
 5284SOL    HW216752   5.090   2.120   1.886
 5285SOL     OW16753   0.673   2.679   3.790
 5285SOL    HW116754   0.708   2.625   3.714
 5285SOL    HW216755   0.669   2.623   3.873
 5286SOL     OW16756   6.136   2.706   1.303
 5286SOL    HW116757   6.067   2.634   1.297
 5286SOL    HW216758   6.227   2.666   1.306
 5287SOL     OW16759   2.793   4.859   1.492
 5287SOL    HW116760   2.846   4.807   1.425
 5287SOL    HW216761   2.773   4.800   1.571
 5288SOL     OW16762   5.240   0.876   2.384
 5288SOL    HW116763   5.180   0.953   2.366
 5288SOL    HW216764   5.249   0.820   2.301
 5289SOL     OW16765   1.944   4.987   6.355
 5289SOL    HW116766   1.900   4.963   6.442
 5289SOL    HW216767   1.933   4.912   6.290
 5290SOL     OW16768   1.401   3.119   5.720
 5290SOL    HW116769   1.445   3.124   5.631
 5290SOL    HW216770   1.358   3.029   5.731
 5291SOL     OW16771   2.584   4.605   5.101
 5291SOL    HW116772   2.679   4.622   5.073
 5291SOL    HW216773   2.552   4.680   5.159
 5292SOL     OW16774   6.568   4.134   6.503
 5292SOL    HW116775   6.604   4.222   6.534
 5292SOL    HW216776   6.474   4.124   6.535
 5293SOL     OW16777   2.054   5.626   4.550
 5293SOL    HW116778   1.966   5.616   4.598
 5293SOL    HW216779   2.101   5.538   4.548
 5294SOL     OW16780   3.991   0.730   5.313
 5294SOL    HW116781   3.968   0.713   5.409
 5294SOL    HW216782   4.042   0.652   5.277
 5295SOL     OW16783   3.299   0.881   2.087
 5295SOL    HW116784   3.283   0.972   2.126
 5295SOL    HW216785   3.379   0.840   2.130
 5296SOL     OW16786   4.082   4.444   0.990
 5296SOL    HW116787   4.150   4.380   0.955
 5296SOL    HW216788   4.119   4.492   1.070
 5297SOL     OW16789   2.261   4.607   0.472
 5297SOL    HW116790   2.193   4.642   0.536
 5297SOL    HW216791   2.341   4.574   0.523
 5298SOL     OW16792   2.350   6.849   0.203
 5298SOL    HW116793   2.319   6.855   0.298
 5298SOL    HW216794   2.289   6.902   0.144
 5299SOL     OW16795   3.150   2.229   0.568
 5299SOL    HW116796   3.151   2.313   0.514
 5299SOL    HW216797   3.073   2.231   0.632
 5300SOL     OW16798   1.740   4.938   0.346
 5300SOL    HW116799   1.682   4.890   0.412
 5300SOL    HW216800   1.819   4.976   0.392
 5301SOL     OW16801   4.624   0.399   6.618
 5301SOL    HW116802   4.712   0.441   6.639
 5301SOL    HW216803   4.596   0.425   6.525
 5302SOL     OW16804   5.083   5.823   3.233
 5302SOL    HW116805   5.020   5.836   3.310
 5302SOL    HW216806   5.166   5.777   3.266
 5303SOL     OW16807   6.912   4.861   6.473
 5303SOL    HW116808   6.901   4.762   6.463
 5303SOL    HW216809   6.836   4.908   6.428
 5304SOL     OW16810   6.163   1.272   1.299
 5304SOL    HW116811   6.077   1.253   1.252
 5304SOL    HW216812   6.149   1.344   1.367
 5305SOL     OW16813   1.320   5.335   2.844
 5305SOL    HW116814   1.328   5.370   2.750
 5305SOL    HW216815   1.379   5.388   2.905
 5306SOL     OW16816   6.877   3.943   5.629
 5306SOL    HW116817   6.916   4.028   5.663
 5306SOL    HW216818   6.952   3.882   5.599
 5307SOL     OW16819   4.898   2.571   0.570
 5307SOL    HW116820   4.829   2.527   0.628
 5307SOL    HW216821   4.933   2.652   0.617
 5308SOL     OW16822   1.418   4.659   2.906
 5308SOL    HW116823   1.444   4.628   2.814
 5308SOL    HW216824   1.320   4.644   2.920
 5309SOL     OW16825   4.281   6.117   2.986
 5309SOL    HW116826   4.372   6.134   2.946
 5309SOL    HW216827   4.292   6.086   3.080
 5310SOL     OW16828   6.032   3.049   2.864
 5310SOL    HW116829   5.949   3.086   2.822
 5310SOL    HW216830   6.097   3.122   2.880
 5311SOL     OW16831   6.068   6.808   0.637
 5311SOL    HW116832   6.045   6.721   0.679
 5311SOL    HW216833   5.986   6.865   0.629
 5312SOL     OW16834   0.282   6.637   1.625
 5312SOL    HW116835   0.374   6.632   1.663
 5312SOL    HW216836   0.260   6.550   1.580
 5313SOL     OW16837   6.737   5.358   5.413
 5313SOL    HW116838   6.807   5.354   5.343
 5313SOL    HW216839   6.670   5.284   5.399
 5314SOL     OW16840   6.232   7.017   1.128
 5314SOL    HW116841   6.293   6.981   1.199
 5314SOL    HW216842   6.257   6.979   1.039
 5315SOL     OW16843   4.254   1.710   3.168
 5315SOL    HW116844   4.349   1.718   3.136
 5315SOL    HW216845   4.225   1.614   3.160
 5316SOL     OW16846   0.740   3.286   5.208
 5316SOL    HW116847   0.833   3.269   5.242
 5316SOL    HW216848   0.735   3.264   5.111
 5317SOL     OW16849   6.436   1.470   6.078
 5317SOL    HW116850   6.475   1.432   5.994
 5317SOL    HW216851   6.336   1.468   6.072
 5318SOL     OW16852   6.487   3.523   0.175
 5318SOL    HW116853   6.404   3.487   0.131
 5318SOL    HW216854   6.480   3.622   0.185
 5319SOL     OW16855   4.092   0.110   0.719
 5319SOL    HW116856   4.164   0.132   0.785
 5319SOL    HW216857   4.030   0.188   0.711
 5320SOL     OW16858   3.558   5.836   1.469
 5320SOL    HW116859   3.461   5.850   1.491
 5320SOL    HW216860   3.579   5.881   1.382
 5321SOL     OW16861   1.338   4.421   5.106
 5321SOL    HW116862   1.373   4.448   5.016
 5321SOL    HW216863   1.359   4.325   5.122
 5322SOL     OW16864   5.404   6.775   1.741
 5322SOL    HW116865   5.476   6.794   1.808
 5322SOL    HW216866   5.435   6.704   1.678
 5323SOL     OW16867   4.706   1.700   5.170
 5323SOL    HW116868   4.762   1.706   5.253
 5323SOL    HW216869   4.610   1.686   5.194
 5324SOL     OW16870   2.338   2.533   6.710
 5324SOL    HW116871   2.246   2.557   6.677
 5324SOL    HW216872   2.330   2.484   6.797
 5325SOL     OW16873   2.582   1.834   5.209
 5325SOL    HW116874   2.519   1.893   5.158
 5325SOL    HW216875   2.658   1.808   5.151
 5326SOL     OW16876   6.373   5.753   2.734
 5326SOL    HW116877   6.311   5.757   2.656
 5326SOL    HW216878   6.324   5.782   2.817
 5327SOL     OW16879   5.385   2.663   4.754
 5327SOL    HW116880   5.338   2.699   4.835
 5327SOL    HW216881   5.464   2.609   4.783
 5328SOL     OW16882   3.890   4.044   6.005
 5328SOL    HW116883   3.966   3.990   6.040
 5328SOL    HW216884   3.826   3.984   5.957
 5329SOL     OW16885   1.383   5.731   6.346
 5329SOL    HW116886   1.306   5.711   6.286
 5329SOL    HW216887   1.424   5.818   6.321
 5330SOL     OW16888   3.650   3.405   0.710
 5330SOL    HW116889   3.724   3.347   0.743
 5330SOL    HW216890   3.676   3.501   0.720
 5331SOL     OW16891   6.559   1.733   6.549
 5331SOL    HW116892   6.573   1.763   6.643
 5331SOL    HW216893   6.541   1.812   6.491
 5332SOL     OW16894   1.473   4.738   1.615
 5332SOL    HW116895   1.531   4.658   1.600
 5332SOL    HW216896   1.484   4.771   1.709
 5333SOL     OW16897   1.407   6.927   3.750
 5333SOL    HW116898   1.348   6.988   3.698
 5333SOL    HW216899   1.457   6.868   3.687
 5334SOL     OW16900   3.207   0.360   4.771
 5334SOL    HW116901   3.216   0.271   4.727
 5334SOL    HW216902   3.240   0.432   4.709
 5335SOL     OW16903   6.954   5.460   0.702
 5335SOL    HW116904   6.857   5.451   0.723
 5335SOL    HW216905   6.989   5.545   0.739
 5336SOL     OW16906   1.773   3.513   2.080
 5336SOL    HW116907   1.822   3.537   1.996
 5336SOL    HW216908   1.838   3.490   2.152
 5337SOL     OW16909   4.977   3.921   1.122
 5337SOL    HW116910   5.049   3.985   1.151
 5337SOL    HW216911   4.888   3.959   1.147
 5338SOL     OW16912   6.521   1.868   0.342
 5338SOL    HW116913   6.500   1.914   0.256
 5338SOL    HW216914   6.440   1.867   0.401
 5339SOL     OW16915   6.885   1.913   3.351
 5339SOL    HW116916   6.881   1.823   3.306
 5339SOL    HW216917   6.838   1.908   3.439
 5340SOL     OW16918   5.609   3.170   0.124
 5340SOL    HW116919   5.701   3.135   0.106
 5340SOL    HW216920   5.543   3.120   0.068
 5341SOL     OW16921   4.027   1.993   5.617
 5341SOL    HW116922   4.082   2.011   5.698
 5341SOL    HW216923   3.930   2.008   5.638
 5342SOL     OW16924   4.040   0.502   4.955
 5342SOL    HW116925   3.972   0.429   4.950
 5342SOL    HW216926   4.131   0.462   4.962
 5343SOL     OW16927   4.087   3.453   2.379
 5343SOL    HW116928   4.145   3.517   2.429
 5343SOL    HW216929   4.114   3.359   2.402
 5344SOL     OW16930   1.408   2.699   3.065
 5344SOL    HW116931   1.483   2.739   3.118
 5344SOL    HW216932   1.322   2.742   3.091
 5345SOL     OW16933   4.709   6.398   1.249
 5345SOL    HW116934   4.686   6.477   1.306
 5345SOL    HW216935   4.723   6.428   1.155
 5346SOL     OW16936   3.320   6.192   3.438
 5346SOL    HW116937   3.260   6.175   3.360
 5346SOL    HW216938   3.410   6.152   3.420
 5347SOL     OW16939   0.171   1.778   1.686
 5347SOL    HW116940   0.145   1.723   1.606
 5347SOL    HW216941   0.097   1.775   1.754
 5348SOL     OW16942   1.182   1.449   0.431
 5348SOL    HW116943   1.176   1.362   0.383
 5348SOL    HW216944   1.233   1.515   0.375
 5349SOL     OW16945   6.977   1.863   0.295
 5349SOL    HW116946   6.910   1.872   0.222
 5349SOL    HW216947   6.958   1.930   0.367
 5350SOL     OW16948   2.360   0.730   6.177
 5350SOL    HW116949   2.424   0.732   6.253
 5350SOL    HW216950   2.392   0.664   6.109
 5351SOL     OW16951   5.130   6.070   1.145
 5351SOL    HW116952   5.140   6.163   1.179
 5351SOL    HW216953   5.131   6.006   1.223
 5352SOL     OW16954   2.103   5.541   3.677
 5352SOL    HW116955   2.194   5.579   3.661
 5352SOL    HW216956   2.042   5.614   3.709
 5353SOL     OW16957   4.614   6.054   5.010
 5353SOL    HW116958   4.669   6.137   4.999
 5353SOL    HW216959   4.672   5.973   5.000
 5354SOL     OW16960   2.346   4.903   2.192
 5354SOL    HW116961   2.423   4.926   2.253
 5354SOL    HW216962   2.328   4.805   2.197
 5355SOL     OW16963   4.363   1.863   3.773
 5355SOL    HW116964   4.324   1.878   3.863
 5355SOL    HW216965   4.333   1.774   3.738
 5356SOL     OW16966   5.990   3.751   1.470
 5356SOL    HW116967   6.013   3.715   1.379
 5356SOL    HW216968   6.051   3.826   1.493
 5357SOL     OW16969   3.833   0.302   0.115
 5357SOL    HW116970   3.734   0.319   0.124
 5357SOL    HW216971   3.876   0.379   0.070
 5358SOL     OW16972   4.215   2.387   0.814
 5358SOL    HW116973   4.125   2.407   0.776
 5358SOL    HW216974   4.208   2.373   0.913
 5359SOL     OW16975   2.429   1.934   1.042
 5359SOL    HW116976   2.440   1.841   1.009
 5359SOL    HW216977   2.506   1.958   1.101
 5360SOL     OW16978   3.995   6.638   5.618
 5360SOL    HW116979   4.064   6.594   5.560
 5360SOL    HW216980   3.905   6.600   5.596
 5361SOL     OW16981   2.237   1.316   5.005
 5361SOL    HW116982   2.194   1.262   4.933
 5361SOL    HW216983   2.239   1.262   5.090
 5362SOL     OW16984   4.764   4.523   3.278
 5362SOL    HW116985   4.767   4.614   3.236
 5362SOL    HW216986   4.669   4.497   3.295
 5363SOL     OW16987   1.186   5.707   6.160
 5363SOL    HW116988   1.201   5.624   6.105
 5363SOL    HW216989   1.189   5.787   6.101
 5364SOL     OW16990   6.517   5.943   0.900
 5364SOL    HW116991   6.496   5.846   0.888
 5364SOL    HW216992   6.577   5.955   0.979
 5365SOL     OW16993   4.227   2.786   5.893
 5365SOL    HW116994   4.254   2.730   5.971
 5365SOL    HW216995   4.288   2.767   5.816
 5366SOL     OW16996   4.012   4.436   0.607
 5366SOL    HW116997   4.008   4.383   0.522
 5366SOL    HW216998   3.945   4.399   0.672
 5367SOL     OW16999   0.357   4.945   0.857
 5367SOL    HW117000   0.406   4.967   0.941
 5367SOL    HW217001   0.262   4.924   0.878
 5368SOL     OW17002   5.330   2.025   2.402
 5368SOL    HW117003   5.305   2.046   2.496
 5368SOL    HW217004   5.425   2.051   2.387
 5369SOL     OW17005   2.066   4.828   3.049
 5369SOL    HW117006   2.150   4.810   3.100
 5369SOL    HW217007   2.060   4.766   2.971
 5370SOL     OW17008   3.616   3.268   1.615
 5370SOL    HW117009   3.712   3.269   1.641
 5370SOL    HW217010   3.569   3.196   1.666
 5371SOL     OW17011   1.906   4.323   4.765
 5371SOL    HW117012   1.994   4.288   4.733
 5371SOL    HW217013   1.835   4.254   4.750
 5372SOL     OW17014   3.061   5.364   2.389
 5372SOL    HW117015   3.108   5.372   2.477
 5372SOL    HW217016   2.972   5.408   2.394
 5373SOL     OW17017   3.170   4.962   4.488
 5373SOL    HW117018   3.268   4.966   4.469
 5373SOL    HW217019   3.148   4.873   4.529
 5374SOL     OW17020   1.541   3.268   6.747
 5374SOL    HW117021   1.558   3.203   6.672
 5374SOL    HW217022   1.584   3.234   6.831
 5375SOL     OW17023   1.345   4.118   5.102
 5375SOL    HW117024   1.264   4.174   5.117
 5375SOL    HW217025   1.385   4.141   5.013
 5376SOL     OW17026   1.564   3.446   1.860
 5376SOL    HW117027   1.648   3.499   1.851
 5376SOL    HW217028   1.523   3.462   1.950
 5377SOL     OW17029   0.002   0.010   1.714
 5377SOL    HW117030   0.007   0.093   1.659
 5377SOL    HW217031   6.926   7.009   1.733
 5378SOL     OW17032   6.381   0.362   0.256
 5378SOL    HW117033   6.473   0.401   0.248
 5378SOL    HW217034   6.362   0.304   0.177
 5379SOL     OW17035   0.354   5.040   3.734
 5379SOL    HW117036   0.438   4.988   3.746
 5379SOL    HW217037   0.316   5.023   3.643
 5380SOL     OW17038   2.094   0.436   3.818
 5380SOL    HW117039   2.120   0.339   3.814
 5380SOL    HW217040   2.126   0.476   3.904
 5381SOL     OW17041   6.161   4.138   0.829
 5381SOL    HW117042   6.242   4.083   0.812
 5381SOL    HW217043   6.142   4.195   0.749
 5382SOL     OW17044   3.188   0.549   1.340
 5382SOL    HW117045   3.138   0.632   1.368
 5382SOL    HW217046   3.176   0.535   1.242
 5383SOL     OW17047   2.782   2.280   5.528
 5383SOL    HW117048   2.812   2.346   5.459
 5383SOL    HW217049   2.862   2.244   5.576
 5384SOL     OW17050   6.553   6.539   4.610
 5384SOL    HW117051   6.624   6.509   4.547
 5384SOL    HW217052   6.501   6.614   4.570
 5385SOL     OW17053   2.918   3.491   2.595
 5385SOL    HW117054   2.911   3.521   2.500
 5385SOL    HW217055   2.911   3.391   2.599
 5386SOL     OW17056   4.942   6.375   4.019
 5386SOL    HW117057   4.940   6.325   3.933
 5386SOL    HW217058   4.957   6.472   4.002
 5387SOL     OW17059   2.573   5.435   2.340
 5387SOL    HW117060   2.576   5.418   2.242
 5387SOL    HW217061   2.531   5.524   2.357
 5388SOL     OW17062   5.652   6.455   2.390
 5388SOL    HW117063   5.568   6.403   2.404
 5388SOL    HW217064   5.683   6.493   2.477
 5389SOL     OW17065   4.582   1.069   1.571
 5389SOL    HW117066   4.677   1.093   1.591
 5389SOL    HW217067   4.530   1.152   1.551
 5390SOL     OW17068   5.326   4.943   4.760
 5390SOL    HW117069   5.277   4.925   4.846
 5390SOL    HW217070   5.399   5.009   4.778
 5391SOL     OW17071   2.795   3.804   0.606
 5391SOL    HW117072   2.842   3.785   0.692
 5391SOL    HW217073   2.699   3.776   0.613
 5392SOL     OW17074   5.703   2.858   1.533
 5392SOL    HW117075   5.687   2.911   1.616
 5392SOL    HW217076   5.799   2.867   1.505
 5393SOL     OW17077   0.191   6.901   0.041
 5393SOL    HW117078   0.198   6.977   0.106
 5393SOL    HW217079   0.258   6.913   6.988
 5394SOL     OW17080   0.807   3.953   6.380
 5394SOL    HW117081   0.736   4.023   6.375
 5394SOL    HW217082   0.875   3.980   6.449
 5395SOL     OW17083   4.457   0.302   0.697
 5395SOL    HW117084   4.471   0.260   0.607
 5395SOL    HW217085   4.463   0.401   0.689
 5396SOL     OW17086   5.197   3.698   2.292
 5396SOL    HW117087   5.118   3.758   2.301
 5396SOL    HW217088   5.181   3.632   2.219
 5397SOL     OW17089   6.591   3.029   1.821
 5397SOL    HW117090   6.682   3.047   1.784
 5397SOL    HW217091   6.598   2.981   1.908
 5398SOL     OW17092   3.104   2.617   1.696
 5398SOL    HW117093   3.049   2.636   1.615
 5398SOL    HW217094   3.044   2.594   1.773
 5399SOL     OW17095   2.886   6.096   0.520
 5399SOL    HW117096   2.912   6.183   0.563
 5399SOL    HW217097   2.914   6.096   0.424
 5400SOL     OW17098   2.838   4.565   0.502
 5400SOL    HW117099   2.766   4.498   0.485
 5400SOL    HW217100   2.927   4.524   0.486
 5401SOL     OW17101   5.778   3.224   2.009
 5401SOL    HW117102   5.750   3.314   1.976
 5401SOL    HW217103   5.836   3.180   1.940
 5402SOL     OW17104   2.666   6.014   1.815
 5402SOL    HW117105   2.611   5.941   1.856
 5402SOL    HW217106   2.721   6.058   1.886
 5403SOL     OW17107   0.228   3.394   6.327
 5403SOL    HW117108   0.157   3.416   6.260
 5403SOL    HW217109   0.243   3.472   6.387
 5404SOL     OW17110   1.373   2.634   3.795
 5404SOL    HW117111   1.292   2.640   3.853
 5404SOL    HW217112   1.454   2.664   3.846
 5405SOL     OW17113   0.173   5.224   6.540
 5405SOL    HW117114   0.148   5.211   6.636
 5405SOL    HW217115   0.090   5.229   6.484
 5406SOL     OW17116   1.741   2.126   0.181
 5406SOL    HW117117   1.735   2.219   0.218
 5406SOL    HW217118   1.792   2.127   0.095
 5407SOL     OW17119   4.207   3.603   0.229
 5407SOL    HW117120   4.267   3.679   0.251
 5407SOL    HW217121   4.224   3.527   0.292
 5408SOL     OW17122   2.918   1.016   5.352
 5408SOL    HW117123   2.853   1.019   5.428
 5408SOL    HW217124   2.873   1.049   5.269
 5409SOL     OW17125   5.283   0.503   2.845
 5409SOL    HW117126   5.276   0.585   2.901
 5409SOL    HW217127   5.317   0.427   2.899
 5410SOL     OW17128   3.354   2.061   2.059
 5410SOL    HW117129   3.276   2.115   2.090
 5410SOL    HW217130   3.436   2.119   2.057
 5411SOL     OW17131   6.608   4.735   6.164
 5411SOL    HW117132   6.593   4.796   6.241
 5411SOL    HW217133   6.531   4.740   6.101
 5412SOL     OW17134   5.051   3.155   0.633
 5412SOL    HW117135   5.113   3.084   0.665
 5412SOL    HW217136   5.090   3.200   0.552
 5413SOL     OW17137   3.078   1.883   1.601
 5413SOL    HW117138   3.052   1.958   1.540
 5413SOL    HW217139   3.135   1.918   1.675
 5414SOL     OW17140   4.725   1.433   4.763
 5414SOL    HW117141   4.711   1.338   4.791
 5414SOL    HW217142   4.739   1.490   4.844
 5415SOL     OW17143   0.357   6.033   1.143
 5415SOL    HW117144   0.389   5.949   1.189
 5415SOL    HW217145   0.344   6.105   1.211
 5416SOL     OW17146   3.952   4.870   4.761
 5416SOL    HW117147   4.045   4.849   4.789
 5416SOL    HW217148   3.890   4.865   4.839
 5417SOL     OW17149   3.710   0.013   5.221
 5417SOL    HW117150   3.770   0.073   5.169
 5417SOL    HW217151   3.721   0.031   5.319
 5418SOL     OW17152   3.525   6.976   2.319
 5418SOL    HW117153   3.545   7.007   2.412
 5418SOL    HW217154   3.527   0.035   2.257
 5419SOL     OW17155   3.457   4.689   0.142
 5419SOL    HW117156   3.411   4.759   0.089
 5419SOL    HW217157   3.482   4.613   0.082
 5420SOL     OW17158   2.058   2.596   3.429
 5420SOL    HW117159   2.152   2.568   3.410
 5420SOL    HW217160   2.013   2.623   3.344
 5421SOL     OW17161   1.609   3.750   0.724
 5421SOL    HW117162   1.599   3.718   0.818
 5421SOL    HW217163   1.626   3.848   0.723
 5422SOL     OW17164   1.390   4.541   1.096
 5422SOL    HW117165   1.395   4.553   1.195
 5422SOL    HW217166   1.313   4.483   1.073
 5423SOL     OW17167   6.217   2.765   6.254
 5423SOL    HW117168   6.255   2.705   6.324
 5423SOL    HW217169   6.147   2.823   6.294
 5424SOL     OW17170   4.957   3.565   4.252
 5424SOL    HW117171   4.893   3.492   4.279
 5424SOL    HW217172   5.050   3.538   4.276
 5425SOL     OW17173   4.093   1.210   4.889
 5425SOL    HW117174   4.072   1.291   4.944
 5425SOL    HW217175   4.140   1.238   4.805
 5426SOL     OW17176   5.679   6.249   4.511
 5426SOL    HW117177   5.635   6.275   4.596
 5426SOL    HW217178   5.639   6.301   4.435
 5427SOL     OW17179   4.422   5.719   6.211
 5427SOL    HW117180   4.518   5.695   6.227
 5427SOL    HW217181   4.385   5.659   6.140
 5428SOL     OW17182   0.758   0.461   0.975
 5428SOL    HW117183   0.828   0.395   1.001
 5428SOL    HW217184   0.712   0.429   0.892
 5429SOL     OW17185   1.944   1.730   6.962
 5429SOL    HW117186   1.945   1.828   6.947
 5429SOL    HW217187   1.891   1.709   0.024
 5430SOL     OW17188   0.383   2.253   6.429
 5430SOL    HW117189   0.369   2.168   6.378
 5430SOL    HW217190   0.474   2.251   6.471
 5431SOL     OW17191   3.212   6.864   6.632
 5431SOL    HW117192   3.272   6.783   6.629
 5431SOL    HW217193   3.266   6.945   6.652
 5432SOL     OW17194   5.481   6.788   0.062
 5432SOL    HW117195   5.492   6.727   7.003
 5432SOL    HW217196   5.438   6.873   0.031
 5433SOL     OW17197   0.010   1.644   4.609
 5433SOL    HW117198   6.992   1.597   4.530
 5433SOL    HW217199   0.068   1.720   4.579
 5434SOL     OW17200   3.130   0.127   5.904
 5434SOL    HW117201   3.104   0.137   6.000
 5434SOL    HW217202   3.207   0.188   5.884
 5435SOL     OW17203   4.532   6.890   1.673
 5435SOL    HW117204   4.593   6.855   1.602
 5435SOL    HW217205   4.558   6.850   1.762
 5436SOL     OW17206   4.467   4.496   3.282
 5436SOL    HW117207   4.426   4.410   3.314
 5436SOL    HW217208   4.500   4.548   3.361
 5437SOL     OW17209   2.605   4.480   0.139
 5437SOL    HW117210   2.541   4.436   0.202
 5437SOL    HW217211   2.656   4.411   0.089
 5438SOL     OW17212   6.597   2.271   1.681
 5438SOL    HW117213   6.585   2.203   1.753
 5438SOL    HW217214   6.689   2.311   1.688
 5439SOL     OW17215   1.514   2.126   1.462
 5439SOL    HW117216   1.476   2.212   1.499
 5439SOL    HW217217   1.521   2.133   1.363
 5440SOL     OW17218   1.472   1.667   1.239
 5440SOL    HW117219   1.424   1.707   1.161
 5440SOL    HW217220   1.492   1.571   1.220
 5441SOL     OW17221   3.608   2.104   3.950
 5441SOL    HW117222   3.512   2.092   3.978
 5441SOL    HW217223   3.659   2.151   4.022
 5442SOL     OW17224   4.016   6.416   2.364
 5442SOL    HW117225   3.917   6.428   2.358
 5442SOL    HW217226   4.040   6.372   2.450
 5443SOL     OW17227   3.252   0.095   5.199
 5443SOL    HW117228   3.270   0.009   5.150
 5443SOL    HW217229   3.212   0.162   5.136
 5444SOL     OW17230   0.718   0.185   4.063
 5444SOL    HW117231   0.798   0.140   4.023
 5444SOL    HW217232   0.635   0.146   4.025
 5445SOL     OW17233   6.383   3.947   2.957
 5445SOL    HW117234   6.476   3.936   2.991
 5445SOL    HW217235   6.319   3.953   3.034
 5446SOL     OW17236   5.745   5.692   4.906
 5446SOL    HW117237   5.717   5.697   4.811
 5446SOL    HW217238   5.707   5.609   4.948
 5447SOL     OW17239   2.917   2.815   6.912
 5447SOL    HW117240   2.994   2.770   6.957
 5447SOL    HW217241   2.909   2.781   6.819
 5448SOL     OW17242   5.148   2.120   5.423
 5448SOL    HW117243   5.057   2.083   5.443
 5448SOL    HW217244   5.203   2.049   5.380
 5449SOL     OW17245   1.266   2.846   7.011
 5449SOL    HW117246   1.299   2.803   0.075
 5449SOL    HW217247   1.166   2.839   7.008
 5450SOL     OW17248   2.384   1.181   1.862
 5450SOL    HW117249   2.470   1.202   1.907
 5450SOL    HW217250   2.321   1.139   1.928
 5451SOL     OW17251   0.795   5.600   3.056
 5451SOL    HW117252   0.776   5.510   3.018
 5451SOL    HW217253   0.882   5.634   3.020
 5452SOL     OW17254   1.956   4.603   0.364
 5452SOL    HW117255   1.860   4.621   0.346
 5452SOL    HW217256   2.003   4.581   0.278
 5453SOL     OW17257   6.338   4.039   0.452
 5453SOL    HW117258   6.338   4.071   0.358
 5453SOL    HW217259   6.431   4.012   0.479
 5454SOL     OW17260   6.796   4.591   6.515
 5454SOL    HW117261   6.723   4.659   6.519
 5454SOL    HW217262   6.784   4.533   6.435
 5455SOL     OW17263   0.042   3.088   1.351
 5455SOL    HW117264   0.075   3.002   1.313
 5455SOL    HW217265   0.120   3.148   1.372
 5456SOL     OW17266   3.130   0.769   6.594
 5456SOL    HW117267   3.219   0.764   6.550
 5456SOL    HW217268   3.141   0.769   6.693
 5457SOL     OW17269   5.522   2.808   0.722
 5457SOL    HW117270   5.429   2.775   0.708
 5457SOL    HW217271   5.524   2.908   0.714
 5458SOL     OW17272   0.742   4.574   6.799
 5458SOL    HW117273   0.791   4.525   6.870
 5458SOL    HW217274   0.745   4.522   6.714
 5459SOL     OW17275   2.242   5.150   0.141
 5459SOL    HW117276   2.169   5.130   0.076
 5459SOL    HW217277   2.312   5.207   0.097
 5460SOL     OW17278   3.132   0.374   1.556
 5460SOL    HW117279   3.167   0.281   1.570
 5460SOL    HW217280   3.165   0.409   1.468
 5461SOL     OW17281   5.118   6.318   5.232
 5461SOL    HW117282   5.074   6.396   5.189
 5461SOL    HW217283   5.204   6.347   5.275
 5462SOL     OW17284   1.832   0.537   0.688
 5462SOL    HW117285   1.925   0.518   0.721
 5462SOL    HW217286   1.804   0.628   0.718
 5463SOL     OW17287   6.051   2.610   0.879
 5463SOL    HW117288   5.982   2.560   0.932
 5463SOL    HW217289   6.142   2.589   0.915
 5464SOL     OW17290   1.860   0.606   4.267
 5464SOL    HW117291   1.831   0.540   4.199
 5464SOL    HW217292   1.906   0.559   4.342
 5465SOL     OW17293   3.938   6.778   4.391
 5465SOL    HW117294   3.901   6.717   4.460
 5465SOL    HW217295   3.873   6.852   4.372
 5466SOL     OW17296   5.061   4.221   4.571
 5466SOL    HW117297   5.100   4.306   4.608
 5466SOL    HW217298   5.094   4.208   4.477
 5467SOL     OW17299   5.646   1.358   2.748
 5467SOL    HW117300   5.615   1.277   2.699
 5467SOL    HW217301   5.630   1.346   2.846
 5468SOL     OW17302   4.734   1.724   4.437
 5468SOL    HW117303   4.757   1.775   4.520
 5468SOL    HW217304   4.807   1.734   4.370
 5469SOL     OW17305   4.230   4.750   6.153
 5469SOL    HW117306   4.284   4.763   6.070
 5469SOL    HW217307   4.147   4.699   6.131
 5470SOL     OW17308   2.007   5.063   3.560
 5470SOL    HW117309   1.944   5.106   3.625
 5470SOL    HW217310   1.960   4.986   3.515
 5471SOL     OW17311   5.733   5.929   1.395
 5471SOL    HW117312   5.733   5.859   1.323
 5471SOL    HW217313   5.649   5.983   1.389
 5472SOL     OW17314   4.141   3.919   6.081
 5472SOL    HW117315   4.194   3.931   5.997
 5472SOL    HW217316   4.098   3.829   6.081
 5473SOL     OW17317   1.216   3.224   3.373
 5473SOL    HW117318   1.144   3.287   3.345
 5473SOL    HW217319   1.226   3.152   3.304
 5474SOL     OW17320   2.097   4.818   3.755
 5474SOL    HW117321   2.084   4.852   3.662
 5474SOL    HW217322   2.027   4.859   3.815
 5475SOL     OW17323   3.260   2.064   1.087
 5475SOL    HW117324   3.218   1.991   1.141
 5475SOL    HW217325   3.275   2.032   0.994
 5476SOL     OW17326   1.536   3.087   6.226
 5476SOL    HW117327   1.519   3.119   6.133
 5476SOL    HW217328   1.632   3.101   6.249
 5477SOL     OW17329   2.136   2.947   3.431
 5477SOL    HW117330   2.164   3.032   3.477
 5477SOL    HW217331   2.191   2.871   3.466
 5478SOL     OW17332   5.388   5.939   5.874
 5478SOL    HW117333   5.292   5.935   5.900
 5478SOL    HW217334   5.411   6.031   5.843
 5479SOL     OW17335   4.880   0.239   4.444
 5479SOL    HW117336   4.860   0.145   4.415
 5479SOL    HW217337   4.816   0.302   4.401
 5480SOL     OW17338   1.009   4.236   4.867
 5480SOL    HW117339   0.975   4.147   4.896
 5480SOL    HW217340   0.932   4.296   4.846
 5481SOL     OW17341   3.475   7.012   4.796
 5481SOL    HW117342   3.500   6.916   4.804
 5481SOL    HW217343   3.532   0.047   4.857
 5482SOL     OW17344   3.508   4.432   1.733
 5482SOL    HW117345   3.521   4.513   1.789
 5482SOL    HW217346   3.426   4.441   1.677
 5483SOL     OW17347   0.511   2.813   5.665
 5483SOL    HW117348   0.492   2.839   5.759
 5483SOL    HW217349   0.428   2.780   5.621
 5484SOL     OW17350   4.441   0.583   4.307
 5484SOL    HW117351   4.438   0.652   4.379
 5484SOL    HW217352   4.431   0.627   4.218
 5485SOL     OW17353   2.861   6.233   5.465
 5485SOL    HW117354   2.960   6.227   5.458
 5485SOL    HW217355   2.827   6.154   5.515
 5486SOL     OW17356   2.721   5.963   4.683
 5486SOL    HW117357   2.713   6.045   4.740
 5486SOL    HW217358   2.634   5.946   4.636
 5487SOL     OW17359   2.493   4.861   6.076
 5487SOL    HW117360   2.590   4.839   6.076
 5487SOL    HW217361   2.445   4.803   6.142
 5488SOL     OW17362   5.715   1.295   0.605
 5488SOL    HW117363   5.751   1.203   0.621
 5488SOL    HW217364   5.631   1.308   0.656
 5489SOL     OW17365   6.919   3.281   1.953
 5489SOL    HW117366   6.947   3.367   1.996
 5489SOL    HW217367   6.850   3.236   2.010
 5490SOL     OW17368   1.111   6.870   2.964
 5490SOL    HW117369   1.200   6.913   2.981
 5490SOL    HW217370   1.124   6.772   2.949
 5491SOL     OW17371   0.027   3.207   1.103
 5491SOL    HW117372   6.963   3.263   1.111
 5491SOL    HW217373   0.030   3.140   1.177
 5492SOL     OW17374   0.401   1.632   5.553
 5492SOL    HW117375   0.389   1.690   5.472
 5492SOL    HW217376   0.347   1.668   5.629
 5493SOL     OW17377   4.157   3.644   1.664
 5493SOL    HW117378   4.078   3.655   1.604
 5493SOL    HW217379   4.138   3.690   1.752
 5494SOL     OW17380   5.903   4.314   5.090
 5494SOL    HW117381   5.870   4.225   5.059
 5494SOL    HW217382   5.879   4.326   5.186
 5495SOL     OW17383   6.309   0.641   0.306
 5495SOL    HW117384   6.246   0.595   0.242
 5495SOL    HW217385   6.383   0.578   0.329
 5496SOL     OW17386   4.230   0.751   4.535
 5496SOL    HW117387   4.318   0.782   4.499
 5496SOL    HW217388   4.158   0.813   4.504
 5497SOL     OW17389   0.984   1.168   6.213
 5497SOL    HW117390   1.079   1.179   6.182
 5497SOL    HW217391   0.947   1.083   6.176
 5498SOL     OW17392   1.033   4.904   2.126
 5498SOL    HW117393   0.960   4.843   2.157
 5498SOL    HW217394   0.994   4.972   2.063
 5499SOL     OW17395   0.692   0.379   5.036
 5499SOL    HW117396   0.774   0.348   5.085
 5499SOL    HW217397   0.638   0.299   5.008
 5500SOL     OW17398   2.324   0.658   0.397
 5500SOL    HW117399   2.245   0.617   0.351
 5500SOL    HW217400   2.299   0.680   0.492
 5501SOL     OW17401   3.812   2.495   6.956
 5501SOL    HW117402   3.881   2.444   7.007
 5501SOL    HW217403   3.832   2.492   6.858
 5502SOL     OW17404   4.374   2.177   0.172
 5502SOL    HW117405   4.451   2.237   0.191
 5502SOL    HW217406   4.383   2.136   0.081
 5503SOL     OW17407   0.481   3.564   0.346
 5503SOL    HW117408   0.517   3.591   0.435
 5503SOL    HW217409   0.540   3.599   0.274
 5504SOL     OW17410   3.957   0.959   6.516
 5504SOL    HW117411   3.875   0.925   6.469
 5504SOL    HW217412   4.018   1.002   6.450
 5505SOL     OW17413   2.550   4.649   4.528
 5505SOL    HW117414   2.609   4.643   4.608
 5505SOL    HW217415   2.457   4.622   4.552
 5506SOL     OW17416   0.327   3.731   6.050
 5506SOL    HW117417   0.333   3.632   6.044
 5506SOL    HW217418   0.262   3.756   6.122
 5507SOL     OW17419   2.914   0.234   6.559
 5507SOL    HW117420   2.869   0.291   6.627
 5507SOL    HW217421   3.006   0.268   6.541
 5508SOL     OW17422   0.417   1.014   6.909
 5508SOL    HW117423   0.424   0.950   6.832
 5508SOL    HW217424   0.495   1.000   6.971
 5509SOL     OW17425   6.978   5.675   0.408
 5509SOL    HW117426   6.958   5.772   0.394
 5509SOL    HW217427   6.905   5.633   0.461
 5510SOL     OW17428   4.129   5.384   6.952
 5510SOL    HW117429   4.170   5.296   6.929
 5510SOL    HW217430   4.138   5.400   0.031
 5511SOL     OW17431   0.628   1.122   5.667
 5511SOL    HW117432   0.613   1.220   5.650
 5511SOL    HW217433   0.573   1.068   5.604
 5512SOL     OW17434   4.044   0.899   2.260
 5512SOL    HW117435   4.056   0.815   2.207
 5512SOL    HW217436   4.115   0.965   2.237
 5513SOL     OW17437   4.259   5.054   6.667
 5513SOL    HW117438   4.166   5.080   6.640
 5513SOL    HW217439   4.304   5.009   6.590
 5514SOL     OW17440   3.028   0.410   6.290
 5514SOL    HW117441   2.964   0.458   6.230
 5514SOL    HW217442   3.009   0.312   6.287
 5515SOL     OW17443   2.472   6.055   2.313
 5515SOL    HW117444   2.479   5.957   2.294
 5515SOL    HW217445   2.428   6.101   2.236
 5516SOL     OW17446   2.447   2.719   5.055
 5516SOL    HW117447   2.506   2.708   5.135
 5516SOL    HW217448   2.421   2.815   5.045
 5517SOL     OW17449   1.770   3.756   3.024
 5517SOL    HW117450   1.747   3.794   2.935
 5517SOL    HW217451   1.835   3.816   3.071
 5518SOL     OW17452   4.595   4.315   5.569
 5518SOL    HW117453   4.656   4.236   5.568
 5518SOL    HW217454   4.540   4.315   5.486
 5519SOL     OW17455   4.783   2.458   3.707
 5519SOL    HW117456   4.823   2.374   3.670
 5519SOL    HW217457   4.739   2.438   3.795
 5520SOL     OW17458   5.347   6.589   2.044
 5520SOL    HW117459   5.269   6.579   2.106
 5520SOL    HW217460   5.323   6.549   1.955
 5521SOL     OW17461   6.052   5.827   1.734
 5521SOL    HW117462   5.965   5.846   1.690
 5521SOL    HW217463   6.069   5.894   1.807
 5522SOL     OW17464   5.892   5.804   0.699
 5522SOL    HW117465   5.821   5.874   0.710
 5522SOL    HW217466   5.947   5.825   0.619
 5523SOL     OW17467   5.735   0.975   2.365
 5523SOL    HW117468   5.668   0.901   2.376
 5523SOL    HW217469   5.709   1.032   2.288
 5524SOL     OW17470   3.074   0.856   4.412
 5524SOL    HW117471   3.131   0.777   4.433
 5524SOL    HW217472   3.019   0.880   4.492
 5525SOL     OW17473   6.379   2.114   1.421
 5525SOL    HW117474   6.392   2.069   1.510
 5525SOL    HW217475   6.282   2.134   1.408
 5526SOL     OW17476   4.802   5.044   3.189
 5526SOL    HW117477   4.839   5.129   3.150
 5526SOL    HW217478   4.730   5.009   3.130
 5527SOL     OW17479   5.758   2.248   3.740
 5527SOL    HW117480   5.817   2.312   3.790
 5527SOL    HW217481   5.748   2.280   3.646
 5528SOL     OW17482   1.034   1.877   1.460
 5528SOL    HW117483   1.107   1.945   1.455
 5528SOL    HW217484   1.042   1.814   1.382
 5529SOL     OW17485   3.959   0.740   1.930
 5529SOL    HW117486   4.008   0.655   1.951
 5529SOL    HW217487   4.008   0.818   1.969
 5530SOL     OW17488   6.622   2.264   1.308
 5530SOL    HW117489   6.600   2.186   1.367
 5530SOL    HW217490   6.602   2.349   1.356
 5531SOL     OW17491   3.115   4.137   1.368
 5531SOL    HW117492   3.099   4.087   1.452
 5531SOL    HW217493   3.063   4.223   1.369
 5532SOL     OW17494   1.655   3.101   1.520
 5532SOL    HW117495   1.746   3.131   1.550
 5532SOL    HW217496   1.639   3.132   1.426
 5533SOL     OW17497   4.253   1.621   3.691
 5533SOL    HW117498   4.163   1.590   3.722
 5533SOL    HW217499   4.295   1.550   3.635
 5534SOL     OW17500   0.784   1.256   4.899
 5534SOL    HW117501   0.745   1.166   4.878
 5534SOL    HW217502   0.873   1.264   4.854
 5535SOL     OW17503   0.814   1.989   3.308
 5535SOL    HW117504   0.855   1.902   3.333
 5535SOL    HW217505   0.877   2.063   3.329
 5536SOL     OW17506   3.691   0.375   4.498
 5536SOL    HW117507   3.782   0.412   4.514
 5536SOL    HW217508   3.684   0.284   4.538
 5537SOL     OW17509   3.461   0.992   3.268
 5537SOL    HW117510   3.391   1.059   3.242
 5537SOL    HW217511   3.543   1.007   3.213
 5538SOL     OW17512   4.569   5.975   4.348
 5538SOL    HW117513   4.578   6.029   4.431
 5538SOL    HW217514   4.519   5.891   4.368
 5539SOL     OW17515   2.375   3.536   0.439
 5539SOL    HW117516   2.446   3.473   0.470
 5539SOL    HW217517   2.291   3.485   0.420
 5540SOL     OW17518   5.302   4.581   2.314
 5540SOL    HW117519   5.212   4.553   2.346
 5540SOL    HW217520   5.354   4.620   2.390
 5541SOL     OW17521   4.476   1.345   5.209
 5541SOL    HW117522   4.444   1.251   5.199
 5541SOL    HW217523   4.398   1.405   5.226
 5542SOL     OW17524   4.860   4.391   5.748
 5542SOL    HW117525   4.787   4.454   5.773
 5542SOL    HW217526   4.949   4.433   5.768
 5543SOL     OW17527   6.700   2.461   5.883
 5543SOL    HW117528   6.790   2.502   5.903
 5543SOL    HW217529   6.628   2.519   5.922
 5544SOL     OW17530   5.677   1.264   5.907
 5544SOL    HW117531   5.768   1.223   5.896
 5544SOL    HW217532   5.671   1.347   5.852
 5545SOL     OW17533   3.055   2.078   2.111
 5545SOL    HW117534   3.012   2.013   2.048
 5545SOL    HW217535   3.019   2.169   2.093
 5546SOL     OW17536   1.731   5.081   5.731
 5546SOL    HW117537   1.786   5.026   5.668
 5546SOL    HW217538   1.647   5.032   5.753
 5547SOL     OW17539   3.536   5.551   4.888
 5547SOL    HW117540   3.547   5.452   4.902
 5547SOL    HW217541   3.625   5.590   4.864
 5548SOL     OW17542   6.527   3.363   5.575
 5548SOL    HW117543   6.442   3.388   5.621
 5548SOL    HW217544   6.561   3.277   5.613
 5549SOL     OW17545   2.850   4.676   6.637
 5549SOL    HW117546   2.894   4.761   6.668
 5549SOL    HW217547   2.781   4.648   6.704
 5550SOL     OW17548   3.941   6.412   1.526
 5550SOL    HW117549   3.907   6.327   1.484
 5550SOL    HW217550   3.969   6.393   1.620
 5551SOL     OW17551   0.723   1.375   3.215
 5551SOL    HW117552   0.741   1.448   3.150
 5551SOL    HW217553   0.783   1.297   3.197
 5552SOL     OW17554   0.201   2.608   1.877
 5552SOL    HW117555   0.182   2.605   1.975
 5552SOL    HW217556   0.256   2.689   1.856
 5553SOL     OW17557   4.829   5.962   0.272
 5553SOL    HW117558   4.845   6.052   0.312
 5553SOL    HW217559   4.901   5.941   0.206
 5554SOL     OW17560   3.006   1.839   4.418
 5554SOL    HW117561   2.962   1.825   4.330
 5554SOL    HW217562   2.944   1.812   4.492
 5555SOL     OW17563   7.012   5.746   2.674
 5555SOL    HW117564   6.993   5.726   2.578
 5555SOL    HW217565   0.053   5.825   2.681
 5556SOL     OW17566   0.345   1.214   4.821
 5556SOL    HW117567   0.246   1.207   4.806
 5556SOL    HW217568   0.372   1.156   4.897
 5557SOL     OW17569   2.558   0.362   3.703
 5557SOL    HW117570   2.533   0.451   3.664
 5557SOL    HW217571   2.632   0.322   3.648
 5558SOL     OW17572   5.171   2.917   4.804
 5558SOL    HW117573   5.240   2.980   4.841
 5558SOL    HW217574   5.158   2.842   4.869
 5559SOL     OW17575   1.996   0.841   1.272
 5559SOL    HW117576   1.952   0.929   1.257
 5559SOL    HW217577   2.060   0.848   1.348
 5560SOL     OW17578   0.308   0.819   4.223
 5560SOL    HW117579   0.226   0.845   4.275
 5560SOL    HW217580   0.335   0.896   4.164
 5561SOL     OW17581   1.360   3.595   3.508
 5561SOL    HW117582   1.317   3.546   3.584
 5561SOL    HW217583   1.376   3.531   3.432
 5562SOL     OW17584   2.441   2.503   5.551
 5562SOL    HW117585   2.411   2.564   5.477
 5562SOL    HW217586   2.489   2.556   5.620
 5563SOL     OW17587   4.327   5.018   1.356
 5563SOL    HW117588   4.342   5.108   1.315
 5563SOL    HW217589   4.229   5.001   1.364
 5564SOL     OW17590   6.099   4.421   1.786
 5564SOL    HW117591   6.046   4.476   1.722
 5564SOL    HW217592   6.119   4.474   1.868
 5565SOL     OW17593   2.790   3.582   5.751
 5565SOL    HW117594   2.812   3.662   5.806
 5565SOL    HW217595   2.691   3.578   5.737
 5566SOL     OW17596   2.109   4.745   1.358
 5566SOL    HW117597   2.073   4.724   1.266
 5566SOL    HW217598   2.156   4.664   1.394
 5567SOL     OW17599   1.537   5.804   2.559
 5567SOL    HW117600   1.551   5.755   2.472
 5567SOL    HW217601   1.563   5.745   2.635
 5568SOL     OW17602   3.416   2.167   1.526
 5568SOL    HW117603   3.410   2.074   1.562
 5568SOL    HW217604   3.347   2.179   1.455
 5569SOL     OW17605   5.683   1.753   0.155
 5569SOL    HW117606   5.762   1.692   0.165
 5569SOL    HW217607   5.620   1.716   0.087
 5570SOL     OW17608   6.412   4.175   5.758
 5570SOL    HW117609   6.323   4.221   5.757
 5570SOL    HW217610   6.420   4.122   5.843
 5571SOL     OW17611   6.793   4.465   5.893
 5571SOL    HW117612   6.875   4.441   5.945
 5571SOL    HW217613   6.777   4.396   5.823
 5572SOL     OW17614   5.085   2.889   5.981
 5572SOL    HW117615   5.129   2.836   6.054
 5572SOL    HW217616   5.156   2.925   5.919
 5573SOL     OW17617   0.821   4.220   0.843
 5573SOL    HW117618   0.906   4.222   0.791
 5573SOL    HW217619   0.746   4.253   0.786
 5574SOL     OW17620   0.202   6.037   4.716
 5574SOL    HW117621   0.115   6.013   4.759
 5574SOL    HW217622   0.189   6.114   4.654
 5575SOL     OW17623   1.844   1.198   0.902
 5575SOL    HW117624   1.885   1.206   0.993
 5575SOL    HW217625   1.746   1.181   0.910
 5576SOL     OW17626   6.420   6.018   6.331
 5576SOL    HW117627   6.468   5.968   6.259
 5576SOL    HW217628   6.379   6.101   6.293
 5577SOL     OW17629   2.150   3.637   5.343
 5577SOL    HW117630   2.102   3.644   5.431
 5577SOL    HW217631   2.231   3.695   5.345
 5578SOL     OW17632   4.006   2.115   5.916
 5578SOL    HW117633   4.092   2.164   5.902
 5578SOL    HW217634   3.936   2.180   5.946
 5579SOL     OW17635   5.000   4.959   0.541
 5579SOL    HW117636   4.919   4.980   0.485
 5579SOL    HW217637   5.023   4.862   0.530
 5580SOL     OW17638   5.553   1.220   1.044
 5580SOL    HW117639   5.599   1.273   1.116
 5580SOL    HW217640   5.538   1.279   0.964
 5581SOL     OW17641   2.755   2.457   0.148
 5581SOL    HW117642   2.671   2.444   0.200
 5581SOL    HW217643   2.828   2.400   0.187
 5582SOL     OW17644   3.744   3.434   3.507
 5582SOL    HW117645   3.723   3.358   3.445
 5582SOL    HW217646   3.739   3.520   3.457
 5583SOL     OW17647   3.855   0.652   0.504
 5583SOL    HW117648   3.799   0.570   0.518
 5583SOL    HW217649   3.901   0.675   0.589
 5584SOL     OW17650   5.836   2.906   3.012
 5584SOL    HW117651   5.879   2.912   3.102
 5584SOL    HW217652   5.896   2.947   2.943
 5585SOL     OW17653   6.499   7.004   4.185
 5585SOL    HW117654   6.400   7.014   4.198
 5585SOL    HW217655   6.530   6.920   4.230
 5586SOL     OW17656   2.251   1.190   6.660
 5586SOL    HW117657   2.197   1.121   6.611
 5586SOL    HW217658   2.347   1.164   6.660
 5587SOL     OW17659   3.668   0.333   3.879
 5587SOL    HW117660   3.626   0.370   3.962
 5587SOL    HW217661   3.653   0.396   3.803
 5588SOL     OW17662   4.467   0.084   6.143
 5588SOL    HW117663   4.534   0.045   6.080
 5588SOL    HW217664   4.379   0.038   6.130
 5589SOL     OW17665   3.666   2.982   6.471
 5589SOL    HW117666   3.673   2.915   6.397
 5589SOL    HW217667   3.745   2.974   6.532
 5590SOL     OW17668   0.033   6.865   3.427
 5590SOL    HW117669   0.004   6.775   3.396
 5590SOL    HW217670   0.056   6.922   3.348
 5591SOL     OW17671   5.029   0.758   0.211
 5591SOL    HW117672   4.945   0.734   0.164
 5591SOL    HW217673   5.098   0.788   0.145
 5592SOL     OW17674   2.351   1.687   3.076
 5592SOL    HW117675   2.253   1.669   3.067
 5592SOL    HW217676   2.387   1.722   2.990
 5593SOL     OW17677   1.135   3.027   5.058
 5593SOL    HW117678   1.083   3.004   5.140
 5593SOL    HW217679   1.231   3.044   5.083
 5594SOL     OW17680   2.709   0.686   6.398
 5594SOL    HW117681   2.771   0.736   6.458
 5594SOL    HW217682   2.614   0.706   6.423
 5595SOL     OW17683   0.182   1.382   5.426
 5595SOL    HW117684   0.132   1.306   5.468
 5595SOL    HW217685   0.277   1.355   5.410
 5596SOL     OW17686   4.756   1.853   2.775
 5596SOL    HW117687   4.669   1.805   2.767
 5596SOL    HW217688   4.787   1.852   2.871
 5597SOL     OW17689   0.376   1.338   6.252
 5597SOL    HW117690   0.452   1.352   6.188
 5597SOL    HW217691   0.373   1.413   6.318
 5598SOL     OW17692   6.801   2.020   4.186
 5598SOL    HW117693   6.899   2.034   4.180
 5598SOL    HW217694   6.753   2.094   4.138
 5599SOL     OW17695   4.783   2.840   3.456
 5599SOL    HW117696   4.798   2.934   3.487
 5599SOL    HW217697   4.723   2.792   3.520
 5600SOL     OW17698   2.518   1.366   2.116
 5600SOL    HW117699   2.499   1.453   2.071
 5600SOL    HW217700   2.613   1.340   2.099
 5601SOL     OW17701   6.037   2.584   5.458
 5601SOL    HW117702   5.955   2.623   5.498
 5601SOL    HW217703   6.017   2.550   5.366
 5602SOL     OW17704   6.496   2.333   2.515
 5602SOL    HW117705   6.396   2.341   2.517
 5602SOL    HW217706   6.521   2.245   2.473
 5603SOL     OW17707   4.516   0.831   5.552
 5603SOL    HW117708   4.421   0.821   5.523
 5603SOL    HW217709   4.555   0.741   5.571
 5604SOL     OW17710   1.113   7.009   3.715
 5604SOL    HW117711   1.123   6.910   3.716
 5604SOL    HW217712   1.164   0.028   3.638
 5605SOL     OW17713   4.389   6.313   4.107
 5605SOL    HW117714   4.292   6.290   4.118
 5605SOL    HW217715   4.437   6.235   4.068
 5606SOL     OW17716   4.755   2.835   0.568
 5606SOL    HW117717   4.671   2.822   0.622
 5606SOL    HW217718   4.731   2.843   0.471
 5607SOL     OW17719   6.211   2.578   2.766
 5607SOL    HW117720   6.255   2.494   2.795
 5607SOL    HW217721   6.210   2.582   2.666
 5608SOL     OW17722   4.838   0.737   3.293
 5608SOL    HW117723   4.930   0.743   3.331
 5608SOL    HW217724   4.771   0.759   3.365
 5609SOL     OW17725   0.047   0.364   0.683
 5609SOL    HW117726   0.111   0.334   0.753
 5609SOL    HW217727   6.996   0.422   0.725
 5610SOL     OW17728   4.860   5.134   1.314
 5610SOL    HW117729   4.904   5.154   1.227
 5610SOL    HW217730   4.878   5.209   1.378
 5611SOL     OW17731   6.258   5.133   1.905
 5611SOL    HW117732   6.215   5.196   1.840
 5611SOL    HW217733   6.318   5.070   1.856
 5612SOL     OW17734   3.768   2.041   0.649
 5612SOL    HW117735   3.764   2.096   0.732
 5612SOL    HW217736   3.783   1.945   0.673
 5613SOL     OW17737   5.710   4.534   6.256
 5613SOL    HW117738   5.747   4.620   6.291
 5613SOL    HW217739   5.611   4.537   6.258
 5614SOL     OW17740   4.929   3.444   3.808
 5614SOL    HW117741   4.961   3.353   3.782
 5614SOL    HW217742   4.930   3.503   3.728
 5615SOL     OW17743   6.990   2.342   3.147
 5615SOL    HW117744   7.008   2.257   3.196
 5615SOL    HW217745   7.019   2.332   3.051
 5616SOL     OW17746   1.842   3.214   2.489
 5616SOL    HW117747   1.774   3.213   2.561
 5616SOL    HW217748   1.868   3.120   2.466
 5617SOL     OW17749   1.878   5.236   5.897
 5617SOL    HW117750   1.884   5.334   5.878
 5617SOL    HW217751   1.829   5.191   5.822
 5618SOL     OW17752   5.585   6.768   2.462
 5618SOL    HW117753   5.616   6.742   2.371
 5618SOL    HW217754   5.583   6.868   2.469
 5619SOL     OW17755   3.778   2.938   3.485
 5619SOL    HW117756   3.687   2.901   3.500
 5619SOL    HW217757   3.823   2.954   3.572
 5620SOL     OW17758   4.784   4.291   4.777
 5620SOL    HW117759   4.802   4.216   4.713
 5620SOL    HW217760   4.739   4.365   4.728
 5621SOL     OW17761   0.627   2.222   6.121
 5621SOL    HW117762   0.619   2.236   6.220
 5621SOL    HW217763   0.615   2.309   6.073
 5622SOL     OW17764   4.775   6.031   3.653
 5622SOL    HW117765   4.738   5.949   3.697
 5622SOL    HW217766   4.867   6.011   3.618
 5623SOL     OW17767   5.059   5.238   4.132
 5623SOL    HW117768   5.027   5.331   4.114
 5623SOL    HW217769   5.004   5.174   4.079
 5624SOL     OW17770   5.752   5.279   3.355
 5624SOL    HW117771   5.847   5.256   3.335
 5624SOL    HW217772   5.723   5.354   3.294
 5625SOL     OW17773   1.776   5.803   5.666
 5625SOL    HW117774   1.826   5.744   5.603
 5625SOL    HW217775   1.815   5.895   5.664
 5626SOL     OW17776   0.841   4.894   6.303
 5626SOL    HW117777   0.883   4.809   6.271
 5626SOL    HW217778   0.836   4.959   6.227
 5627SOL     OW17779   0.963   5.731   0.190
 5627SOL    HW117780   1.048   5.722   0.243
 5627SOL    HW217781   0.895   5.780   0.246
 5628SOL     OW17782   2.621   3.432   0.754
 5628SOL    HW117783   2.624   3.333   0.761
 5628SOL    HW217784   2.695   3.464   0.695
 5629SOL     OW17785   5.768   3.536   2.495
 5629SOL    HW117786   5.794   3.440   2.490
 5629SOL    HW217787   5.669   3.545   2.487
 5630SOL     OW17788   0.995   4.062   6.524
 5630SOL    HW117789   0.947   4.023   6.603
 5630SOL    HW217790   1.061   4.130   6.556
 5631SOL     OW17791   3.598   1.814   2.027
 5631SOL    HW117792   3.503   1.804   2.056
 5631SOL    HW217793   3.608   1.896   1.971
 5632SOL     OW17794   4.999   0.053   5.708
 5632SOL    HW117795   5.072   7.016   5.744
 5632SOL    HW217796   4.949   0.003   5.637
 5633SOL     OW17797   0.805   5.016   5.184
 5633SOL    HW117798   0.778   5.062   5.100
 5633SOL    HW217799   0.882   4.955   5.166
 5634SOL     OW17800   2.017   0.586   1.196
 5634SOL    HW117801   2.039   0.538   1.282
 5634SOL    HW217802   1.992   0.681   1.217
 5635SOL     OW17803   2.808   0.669   0.913
 5635SOL    HW117804   2.829   0.634   1.004
 5635SOL    HW217805   2.880   0.642   0.849
 5636SOL     OW17806   5.285   1.587   5.617
 5636SOL    HW117807   5.345   1.509   5.598
 5636SOL    HW217808   5.327   1.645   5.686
 5637SOL     OW17809   5.079   6.855   4.728
 5637SOL    HW117810   5.107   6.879   4.635
 5637SOL    HW217811   5.122   6.769   4.754
 5638SOL     OW17812   6.290   4.839   1.124
 5638SOL    HW117813   6.218   4.771   1.114
 5638SOL    HW217814   6.370   4.797   1.167
 5639SOL     OW17815   2.249   0.735   1.787
 5639SOL    HW117816   2.222   0.815   1.840
 5639SOL    HW217817   2.284   0.764   1.698
 5640SOL     OW17818   3.005   6.734   2.645
 5640SOL    HW117819   3.084   6.791   2.622
 5640SOL    HW217820   2.922   6.774   2.606
 5641SOL     OW17821   6.712   4.235   3.730
 5641SOL    HW117822   6.724   4.276   3.640
 5641SOL    HW217823   6.656   4.295   3.787
 5642SOL     OW17824   1.740   4.026   6.982
 5642SOL    HW117825   1.748   3.960   6.907
 5642SOL    HW217826   1.649   4.067   6.981
 5643SOL     OW17827   4.760   2.220   5.037
 5643SOL    HW117828   4.668   2.235   5.074
 5643SOL    HW217829   4.776   2.122   5.028
 5644SOL     OW17830   4.568   0.832   4.735
 5644SOL    HW117831   4.590   0.734   4.740
 5644SOL    HW217832   4.472   0.846   4.761
 5645SOL     OW17833   6.300   5.790   4.154
 5645SOL    HW117834   6.329   5.816   4.062
 5645SOL    HW217835   6.232   5.716   4.148
 5646SOL     OW17836   0.385   5.821   4.212
 5646SOL    HW117837   0.372   5.920   4.216
 5646SOL    HW217838   0.353   5.780   4.298
 5647SOL     OW17839   5.542   4.979   6.285
 5647SOL    HW117840   5.459   5.033   6.300
 5647SOL    HW217841   5.526   4.913   6.212
 5648SOL     OW17842   2.255   1.521   5.258
 5648SOL    HW117843   2.284   1.459   5.186
 5648SOL    HW217844   2.255   1.473   5.346
 5649SOL     OW17845   0.953   0.825   5.482
 5649SOL    HW117846   0.984   0.780   5.398
 5649SOL    HW217847   1.032   0.850   5.538
 5650SOL     OW17848   6.487   5.066   0.249
 5650SOL    HW117849   6.517   5.160   0.230
 5650SOL    HW217850   6.401   5.049   0.201
 5651SOL     OW17851   6.365   1.045   2.698
 5651SOL    HW117852   6.459   1.080   2.704
 5651SOL    HW217853   6.301   1.122   2.694
 5652SOL     OW17854   5.025   4.663   0.510
 5652SOL    HW117855   5.106   4.656   0.569
 5652SOL    HW217856   5.044   4.618   0.423
 5653SOL     OW17857   1.841   6.369   6.269
 5653SOL    HW117858   1.852   6.298   6.200
 5653SOL    HW217859   1.782   6.335   6.342
 5654SOL     OW17860   0.949   5.902   5.593
 5654SOL    HW117861   0.965   5.988   5.642
 5654SOL    HW217862   1.031   5.846   5.596
 5655SOL     OW17863   0.108   3.371   3.901
 5655SOL    HW117864   0.149   3.462   3.895
 5655SOL    HW217865   0.010   3.379   3.918
 5656SOL     OW17866   3.101   4.485   6.769
 5656SOL    HW117867   3.188   4.445   6.740
 5656SOL    HW217868   3.118   4.571   6.816
 5657SOL     OW17869   4.088   6.003   1.748
 5657SOL    HW117870   4.131   6.057   1.820
 5657SOL    HW217871   4.138   5.917   1.737
 5658SOL     OW17872   4.820   6.806   5.279
 5658SOL    HW117873   4.862   6.810   5.369
 5658SOL    HW217874   4.857   6.879   5.221
 5659SOL     OW17875   3.678   3.452   2.859
 5659SOL    HW117876   3.695   3.413   2.768
 5659SOL    HW217877   3.640   3.544   2.850
 5660SOL     OW17878   5.894   6.900   0.903
 5660SOL    HW117879   5.847   6.943   0.980
 5660SOL    HW217880   5.934   6.970   0.845
 5661SOL     OW17881   6.684   5.712   4.465
 5661SOL    HW117882   6.621   5.760   4.526
 5661SOL    HW217883   6.771   5.762   4.461
 5662SOL     OW17884   2.267   4.516   4.414
 5662SOL    HW117885   2.178   4.560   4.396
 5662SOL    HW217886   2.299   4.541   4.505
 5663SOL     OW17887   1.107   4.193   0.202
 5663SOL    HW117888   1.023   4.214   0.252
 5663SOL    HW217889   1.118   4.094   0.195
 5664SOL     OW17890   0.652   4.768   2.832
 5664SOL    HW117891   0.601   4.683   2.847
 5664SOL    HW217892   0.656   4.787   2.734
 5665SOL     OW17893   2.383   2.466   6.035
 5665SOL    HW117894   2.412   2.420   6.119
 5665SOL    HW217895   2.295   2.428   6.005
 5666SOL     OW17896   5.817   5.506   0.487
 5666SOL    HW117897   5.913   5.533   0.490
 5666SOL    HW217898   5.772   5.532   0.573
 5667SOL     OW17899   0.385   5.377   3.559
 5667SOL    HW117900   0.352   5.354   3.650
 5667SOL    HW217901   0.483   5.400   3.563
 5668SOL     OW17902   6.351   2.462   5.514
 5668SOL    HW117903   6.431   2.500   5.467
 5668SOL    HW217904   6.298   2.536   5.555
 5669SOL     OW17905   6.796   3.517   5.854
 5669SOL    HW117906   6.772   3.509   5.758
 5669SOL    HW217907   6.887   3.557   5.863
 5670SOL     OW17908   1.262   4.231   3.781
 5670SOL    HW117909   1.355   4.225   3.746
 5670SOL    HW217910   1.199   4.253   3.707
 5671SOL     OW17911   1.890   1.410   5.705
 5671SOL    HW117912   1.802   1.365   5.720
 5671SOL    HW217913   1.961   1.360   5.754
 5672SOL     OW17914   5.078   4.958   5.807
 5672SOL    HW117915   4.986   4.924   5.789
 5672SOL    HW217916   5.141   4.924   5.737
 5673SOL     OW17917   0.975   0.642   1.899
 5673SOL    HW117918   1.051   0.697   1.932
 5673SOL    HW217919   0.889   0.694   1.908
 5674SOL     OW17920   6.872   3.586   1.370
 5674SOL    HW117921   6.795   3.557   1.427
 5674SOL    HW217922   6.866   3.541   1.280
 5675SOL     OW17923   4.202   2.209   5.531
 5675SOL    HW117924   4.155   2.121   5.533
 5675SOL    HW217925   4.248   2.220   5.443
 5676SOL     OW17926   2.947   0.578   1.610
 5676SOL    HW117927   3.021   0.510   1.613
 5676SOL    HW217928   2.877   0.549   1.545
 5677SOL     OW17929   6.861   0.180   4.245
 5677SOL    HW117930   6.798   0.145   4.315
 5677SOL    HW217931   6.855   0.280   4.242
 5678SOL     OW17932   1.810   5.369   3.109
 5678SOL    HW117933   1.796   5.270   3.110
 5678SOL    HW217934   1.892   5.392   3.162
 5679SOL     OW17935   1.912   6.201   5.278
 5679SOL    HW117936   1.871   6.228   5.365
 5679SOL    HW217937   1.863   6.122   5.241
 5680SOL     OW17938   2.335   6.731   6.531
 5680SOL    HW117939   2.248   6.732   6.580
 5680SOL    HW217940   2.408   6.763   6.591
 5681SOL     OW17941   0.997   3.359   0.540
 5681SOL    HW117942   0.910   3.345   0.493
 5681SOL    HW217943   1.061   3.406   0.480
 5682SOL     OW17944   1.071   3.609   4.234
 5682SOL    HW117945   1.004   3.558   4.180
 5682SOL    HW217946   1.139   3.547   4.270
 5683SOL     OW17947   3.494   2.384   5.502
 5683SOL    HW117948   3.406   2.385   5.453
 5683SOL    HW217949   3.479   2.412   5.596
 5684SOL     OW17950   3.145   3.829   3.560
 5684SOL    HW117951   3.152   3.915   3.611
 5684SOL    HW217952   3.176   3.843   3.466
 5685SOL     OW17953   6.926   5.175   2.112
 5685SOL    HW117954   6.947   5.079   2.130
 5685SOL    HW217955   6.894   5.185   2.018
 5686SOL     OW17956   3.412   6.670   6.642
 5686SOL    HW117957   3.440   6.579   6.612
 5686SOL    HW217958   3.399   6.670   6.741
 5687SOL     OW17959   5.133   5.329   6.088
 5687SOL    HW117960   5.201   5.311   6.017
 5687SOL    HW217961   5.072   5.251   6.096
 5688SOL     OW17962   5.921   1.740   1.646
 5688SOL    HW117963   5.916   1.816   1.581
 5688SOL    HW217964   6.016   1.711   1.655
 5689SOL     OW17965   3.463   2.771   0.799
 5689SOL    HW117966   3.521   2.845   0.764
 5689SOL    HW217967   3.373   2.809   0.824
 5690SOL     OW17968   4.760   6.647   1.414
 5690SOL    HW117969   4.760   6.558   1.460
 5690SOL    HW217970   4.852   6.684   1.412
 5691SOL     OW17971   1.453   0.129   2.276
 5691SOL    HW117972   1.455   0.159   2.372
 5691SOL    HW217973   1.425   0.205   2.218
 5692SOL     OW17974   5.495   2.787   6.674
 5692SOL    HW117975   5.430   2.711   6.682
 5692SOL    HW217976   5.445   2.873   6.661
 5693SOL     OW17977   4.764   2.778   3.190
 5693SOL    HW117978   4.664   2.779   3.186
 5693SOL    HW217979   4.794   2.820   3.275
 5694SOL     OW17980   0.429   1.794   4.240
 5694SOL    HW117981   0.442   1.867   4.307
 5694SOL    HW217982   0.507   1.790   4.178
 5695SOL     OW17983   1.992   3.218   3.198
 5695SOL    HW117984   2.042   3.195   3.114
 5695SOL    HW217985   1.989   3.138   3.258
 5696SOL     OW17986   3.281   0.112   5.480
 5696SOL    HW117987   3.262   0.122   5.382
 5696SOL    HW217988   3.198   0.132   5.532
 5697SOL     OW17989   6.312   3.293   0.123
 5697SOL    HW117990   6.385   3.304   0.191
 5697SOL    HW217991   6.313   3.199   0.088
 5698SOL     OW17992   0.283   4.041   1.953
 5698SOL    HW117993   0.237   4.018   1.867
 5698SOL    HW217994   0.309   4.137   1.952
 5699SOL     OW17995   6.193   0.988   5.293
 5699SOL    HW117996   6.096   0.966   5.284
 5699SOL    HW217997   6.217   1.063   5.231
 5700SOL     OW17998   1.697   5.875   3.438
 5700SOL    HW117999   1.658   5.869   3.530
 5700SOL    HW218000   1.684   5.788   3.391
 5701SOL     OW18001   6.169   5.401   1.311
 5701SOL    HW118002   6.177   5.306   1.281
 5701SOL    HW218003   6.114   5.452   1.244
 5702SOL     OW18004   1.970   0.522   6.618
 5702SOL    HW118005   1.937   0.453   6.553
 5702SOL    HW218006   1.893   0.558   6.671
 5703SOL     OW18007   4.243   4.249   0.881
 5703SOL    HW118008   4.219   4.192   0.802
 5703SOL    HW218009   4.337   4.281   0.871
 5704SOL     OW18010   3.512   5.295   3.660
 5704SOL    HW118011   3.599   5.343   3.647
 5704SOL    HW218012   3.437   5.361   3.655
 5705SOL     OW18013   6.176   0.935   1.633
 5705SOL    HW118014   6.099   0.970   1.579
 5705SOL    HW218015   6.173   0.975   1.725
 5706SOL     OW18016   1.502   1.313   6.692
 5706SOL    HW118017   1.434   1.298   6.620
 5706SOL    HW218018   1.537   1.406   6.686
 5707SOL     OW18019   2.833   2.341   0.428
 5707SOL    HW118020   2.828   2.303   0.520
 5707SOL    HW218021   2.929   2.354   0.403
 5708SOL     OW18022   5.187   6.505   1.576
 5708SOL    HW118023   5.213   6.533   1.484
 5708SOL    HW218024   5.132   6.422   1.572
 5709SOL     OW18025   1.495   0.485   3.044
 5709SOL    HW118026   1.558   0.462   3.118
 5709SOL    HW218027   1.499   0.583   3.026
 5710SOL     OW18028   3.123   3.363   6.488
 5710SOL    HW118029   3.149   3.448   6.441
 5710SOL    HW218030   3.054   3.315   6.434
 5711SOL     OW18031   4.019   1.127   3.747
 5711SOL    HW118032   4.062   1.203   3.797
 5711SOL    HW218033   3.920   1.128   3.762
 5712SOL     OW18034   0.283   5.962   6.424
 5712SOL    HW118035   0.278   5.993   6.329
 5712SOL    HW218036   0.316   5.868   6.427
 5713SOL     OW18037   6.422   2.113   2.691
 5713SOL    HW118038   6.502   2.078   2.643
 5713SOL    HW218039   6.354   2.041   2.699
 5714SOL     OW18040   1.367   0.872   6.475
 5714SOL    HW118041   1.349   0.787   6.524
 5714SOL    HW218042   1.461   0.871   6.439
 5715SOL     OW18043   0.990   6.261   3.296
 5715SOL    HW118044   0.960   6.166   3.290
 5715SOL    HW218045   1.017   6.281   3.390
 5716SOL     OW18046   2.358   3.323   6.111
 5716SOL    HW118047   2.279   3.366   6.068
 5716SOL    HW218048   2.328   3.263   6.185
 5717SOL     OW18049   0.795   3.852   0.732
 5717SOL    HW118050   0.847   3.937   0.720
 5717SOL    HW218051   0.844   3.777   0.687
 5718SOL     OW18052   2.337   4.504   5.572
 5718SOL    HW118053   2.359   4.556   5.490
 5718SOL    HW218054   2.263   4.440   5.552
 5719SOL     OW18055   3.390   0.788   6.331
 5719SOL    HW118056   3.353   0.736   6.253
 5719SOL    HW218057   3.479   0.751   6.356
 5720SOL     OW18058   1.282   4.907   4.516
 5720SOL    HW118059   1.336   4.854   4.582
 5720SOL    HW218060   1.310   5.003   4.521
 5721SOL     OW18061   0.718   4.309   1.320
 5721SOL    HW118062   0.734   4.325   1.223
 5721SOL    HW218063   0.712   4.211   1.338
 5722SOL     OW18064   5.583   0.201   4.572
 5722SOL    HW118065   5.567   0.136   4.498
 5722SOL    HW218066   5.656   0.167   4.631
 5723SOL     OW18067   2.433   5.151   0.944
 5723SOL    HW118068   2.362   5.105   0.997
 5723SOL    HW218069   2.480   5.218   1.001
 5724SOL     OW18070   5.099   1.898   6.675
 5724SOL    HW118071   5.114   1.801   6.658
 5724SOL    HW218072   5.187   1.945   6.680
 5725SOL     OW18073   4.978   5.560   6.430
 5725SOL    HW118074   5.062   5.544   6.482
 5725SOL    HW218075   4.934   5.643   6.463
 5726SOL     OW18076   5.477   3.366   6.173
 5726SOL    HW118077   5.393   3.418   6.159
 5726SOL    HW218078   5.532   3.369   6.090
 5727SOL     OW18079   6.361   2.023   3.504
 5727SOL    HW118080   6.270   1.991   3.476
 5727SOL    HW218081   6.431   1.974   3.453
 5728SOL     OW18082   6.188   0.868   5.753
 5728SOL    HW118083   6.118   0.833   5.816
 5728SOL    HW218084   6.271   0.890   5.805
 5729SOL     OW18085   0.475   2.029   6.001
 5729SOL    HW118086   0.523   2.109   6.037
 5729SOL    HW218087   0.519   1.946   6.035
 5730SOL     OW18088   5.408   4.542   5.713
 5730SOL    HW118089   5.403   4.451   5.754
 5730SOL    HW218090   5.473   4.541   5.637
 5731SOL     OW18091   3.555   0.750   3.880
 5731SOL    HW118092   3.492   0.821   3.848
 5731SOL    HW218093   3.505   0.684   3.937
 5732SOL     OW18094   5.712   4.250   4.740
 5732SOL    HW118095   5.694   4.344   4.770
 5732SOL    HW218096   5.787   4.250   4.674
 5733SOL     OW18097   3.077   1.250   0.044
 5733SOL    HW118098   3.081   1.320   0.115
 5733SOL    HW218099   3.118   1.165   0.079
 5734SOL     OW18100   2.551   6.297   5.636
 5734SOL    HW118101   2.581   6.280   5.542
 5734SOL    HW218102   2.451   6.292   5.640
 5735SOL     OW18103   4.277   0.852   1.891
 5735SOL    HW118104   4.325   0.921   1.945
 5735SOL    HW218105   4.297   0.761   1.927
 5736SOL     OW18106   4.996   4.547   6.304
 5736SOL    HW118107   5.070   4.595   6.350
 5736SOL    HW218108   4.908   4.581   6.337
 5737SOL     OW18109   3.881   5.519   0.961
 5737SOL    HW118110   3.798   5.524   1.017
 5737SOL    HW218111   3.896   5.608   0.917
 5738SOL     OW18112   3.371   1.402   6.708
 5738SOL    HW118113   3.327   1.360   6.788
 5738SOL    HW218114   3.339   1.496   6.698
 5739SOL     OW18115   2.388   0.550   5.728
 5739SOL    HW118116   2.361   0.460   5.762
 5739SOL    HW218117   2.332   0.575   5.649
 5740SOL     OW18118   5.354   3.050   2.182
 5740SOL    HW118119   5.270   3.062   2.234
 5740SOL    HW218120   5.387   3.140   2.152
 5741SOL     OW18121   0.109   3.242   4.475
 5741SOL    HW118122   0.075   3.195   4.393
 5741SOL    HW218123   0.166   3.320   4.449
 5742SOL     OW18124   5.256   0.214   3.471
 5742SOL    HW118125   5.207   0.298   3.449
 5742SOL    HW218126   5.348   0.236   3.503
 5743SOL     OW18127   4.059   3.575   5.678
 5743SOL    HW118128   4.120   3.636   5.628
 5743SOL    HW218129   4.101   3.551   5.766
 5744SOL     OW18130   5.971   6.664   2.369
 5744SOL    HW118131   5.961   6.565   2.361
 5744SOL    HW218132   6.031   6.686   2.446
 5745SOL     OW18133   1.908   1.903   2.489
 5745SOL    HW118134   1.857   1.882   2.406
 5745SOL    HW218135   1.995   1.853   2.489
 5746SOL     OW18136   4.449   0.585   3.571
 5746SOL    HW118137   4.354   0.559   3.553
 5746SOL    HW218138   4.466   0.675   3.531
 5747SOL     OW18139   0.716   6.212   1.254
 5747SOL    HW118140   0.643   6.152   1.286
 5747SOL    HW218141   0.747   6.182   1.164
 5748SOL     OW18142   0.597   5.900   0.535
 5748SOL    HW118143   0.538   5.921   0.458
 5748SOL    HW218144   0.565   5.949   0.617
 5749SOL     OW18145   1.881   6.062   5.648
 5749SOL    HW118146   1.857   6.119   5.570
 5749SOL    HW218147   1.924   6.118   5.719
 5750SOL     OW18148   6.229   4.492   4.161
 5750SOL    HW118149   6.247   4.574   4.215
 5750SOL    HW218150   6.242   4.410   4.218
 5751SOL     OW18151   1.699   4.066   4.407
 5751SOL    HW118152   1.722   4.001   4.479
 5751SOL    HW218153   1.666   4.016   4.326
 5752SOL     OW18154   5.033   0.489   0.673
 5752SOL    HW118155   5.067   0.397   0.652
 5752SOL    HW218156   5.064   0.516   0.764
 5753SOL     OW18157   3.385   4.045   4.616
 5753SOL    HW118158   3.406   4.001   4.528
 5753SOL    HW218159   3.286   4.047   4.629
 5754SOL     OW18160   0.954   6.240   1.440
 5754SOL    HW118161   0.897   6.205   1.515
 5754SOL    HW218162   0.901   6.238   1.355
 5755SOL     OW18163   1.394   2.386   6.709
 5755SOL    HW118164   1.299   2.361   6.724
 5755SOL    HW218165   1.420   2.459   6.772
 5756SOL     OW18166   5.777   5.914   1.647
 5756SOL    HW118167   5.689   5.910   1.694
 5756SOL    HW218168   5.762   5.913   1.548
 5757SOL     OW18169   6.228   6.988   4.265
 5757SOL    HW118170   6.172   0.013   4.335
 5757SOL    HW218171   6.169   6.954   4.192
 5758SOL     OW18172   0.405   0.442   2.638
 5758SOL    HW118173   0.420   0.344   2.650
 5758SOL    HW218174   0.307   0.461   2.641
 5759SOL     OW18175   3.887   0.318   0.700
 5759SOL    HW118176   3.801   0.343   0.745
 5759SOL    HW218177   3.870   0.300   0.604
 5760SOL     OW18178   0.824   3.014   1.388
 5760SOL    HW118179   0.826   3.080   1.463
 5760SOL    HW218180   0.778   2.930   1.418
 5761SOL     OW18181   5.579   5.852   5.067
 5761SOL    HW118182   5.655   5.808   5.021
 5761SOL    HW218183   5.528   5.784   5.120
 5762SOL     OW18184   5.862   4.736   6.777
 5762SOL    HW118185   5.798   4.806   6.743
 5762SOL    HW218186   5.847   4.724   6.876
 5763SOL     OW18187   5.328   0.112   0.323
 5763SOL    HW118188   5.396   0.113   0.249
 5763SOL    HW218189   5.257   0.046   0.302
 5764SOL     OW18190   4.033   5.973   3.803
 5764SOL    HW118191   4.067   6.067   3.798
 5764SOL    HW218192   4.011   5.941   3.711
 5765SOL     OW18193   6.267   5.700   1.301
 5765SOL    HW118194   6.324   5.648   1.364
 5765SOL    HW218195   6.205   5.638   1.253
 5766SOL     OW18196   0.510   2.242   4.470
 5766SOL    HW118197   0.534   2.310   4.540
 5766SOL    HW218198   0.592   2.192   4.442
 5767SOL     OW18199   2.571   0.671   0.557
 5767SOL    HW118200   2.494   0.653   0.495
 5767SOL    HW218201   2.613   0.585   0.584
 5768SOL     OW18202   0.511   6.737   4.726
 5768SOL    HW118203   0.487   6.803   4.797
 5768SOL    HW218204   0.472   6.767   4.639
 5769SOL     OW18205   1.707   5.050   6.097
 5769SOL    HW118206   1.703   4.952   6.075
 5769SOL    HW218207   1.776   5.094   6.040
 5770SOL     OW18208   2.151   4.985   1.494
 5770SOL    HW118209   2.172   4.956   1.588
 5770SOL    HW218210   2.138   4.904   1.437
 5771SOL     OW18211   2.187   5.131   3.965
 5771SOL    HW118212   2.245   5.086   4.033
 5771SOL    HW218213   2.233   5.130   3.876
 5772SOL     OW18214   4.129   0.607   2.216
 5772SOL    HW118215   4.113   0.536   2.147
 5772SOL    HW218216   4.227   0.619   2.229
 5773SOL     OW18217   4.032   2.227   2.649
 5773SOL    HW118218   4.049   2.157   2.579
 5773SOL    HW218219   3.936   2.253   2.647
 5774SOL     OW18220   0.066   6.379   3.084
 5774SOL    HW118221   0.095   6.299   3.032
 5774SOL    HW218222   0.119   6.385   3.169
 5775SOL     OW18223   0.225   5.658   1.993
 5775SOL    HW118224   0.270   5.591   1.935
 5775SOL    HW218225   0.127   5.640   1.995
 5776SOL     OW18226   2.184   0.270   3.517
 5776SOL    HW118227   2.093   0.308   3.536
 5776SOL    HW218228   2.234   0.261   3.603
 5777SOL     OW18229   1.837   6.980   3.335
 5777SOL    HW118230   1.876   6.888   3.346
 5777SOL    HW218231   1.811   7.016   3.425
 5778SOL     OW18232   0.655   1.467   0.141
 5778SOL    HW118233   0.617   1.507   0.225
 5778SOL    HW218234   0.738   1.516   0.116
 5779SOL     OW18235   5.638   2.640   0.012
 5779SOL    HW118236   5.663   2.731   7.000
 5779SOL    HW218237   5.542   2.621   7.008
 5780SOL     OW18238   5.583   5.540   3.740
 5780SOL    HW118239   5.593   5.633   3.776
 5780SOL    HW218240   5.666   5.514   3.691
 5781SOL     OW18241   0.707   3.840   5.880
 5781SOL    HW118242   0.701   3.905   5.805
 5781SOL    HW218243   0.734   3.889   5.964
 5782SOL     OW18244   0.260   1.290   0.692
 5782SOL    HW118245   0.197   1.307   0.617
 5782SOL    HW218246   0.284   1.376   0.736
 5783SOL     OW18247   1.983   1.701   1.675
 5783SOL    HW118248   2.054   1.758   1.717
 5783SOL    HW218249   1.893   1.736   1.701
 5784SOL     OW18250   0.468   6.418   6.760
 5784SOL    HW118251   0.495   6.468   6.842
 5784SOL    HW218252   0.488   6.474   6.679
 5785SOL     OW18253   1.758   1.599   1.161
 5785SOL    HW118254   1.690   1.527   1.145
 5785SOL    HW218255   1.711   1.683   1.189
 5786SOL     OW18256   6.704   3.964   0.724
 5786SOL    HW118257   6.709   4.056   0.764
 5786SOL    HW218258   6.665   3.901   0.791
 5787SOL     OW18259   3.077   1.637   5.755
 5787SOL    HW118260   3.151   1.580   5.721
 5787SOL    HW218261   3.000   1.579   5.783
 5788SOL     OW18262   3.099   0.674   2.927
 5788SOL    HW118263   3.093   0.653   2.829
 5788SOL    HW218264   3.054   0.601   2.979
 5789SOL     OW18265   4.151   5.038   5.937
 5789SOL    HW118266   4.234   5.093   5.943
 5789SOL    HW218267   4.173   4.946   5.906
 5790SOL     OW18268   0.696   2.452   4.024
 5790SOL    HW118269   0.783   2.436   3.979
 5790SOL    HW218270   0.692   2.398   4.108
 5791SOL     OW18271   2.628   0.331   2.527
 5791SOL    HW118272   2.625   0.294   2.434
 5791SOL    HW218273   2.692   0.278   2.582
 5792SOL     OW18274   0.026   2.274   2.903
 5792SOL    HW118275   6.956   2.242   2.873
 5792SOL    HW218276   0.097   2.227   2.851
 5793SOL     OW18277   6.462   1.117   3.882
 5793SOL    HW118278   6.531   1.169   3.832
 5793SOL    HW218279   6.383   1.175   3.899
 5794SOL     OW18280   3.603   3.647   6.683
 5794SOL    HW118281   3.670   3.634   6.755
 5794SOL    HW218282   3.622   3.732   6.633
 5795SOL     OW18283   5.749   4.315   5.629
 5795SOL    HW118284   5.724   4.233   5.681
 5795SOL    HW218285   5.819   4.366   5.680
 5796SOL     OW18286   3.580   2.028   6.867
 5796SOL    HW118287   3.604   2.121   6.894
 5796SOL    HW218288   3.483   2.024   6.842
 5797SOL     OW18289   3.372   2.059   4.750
 5797SOL    HW118290   3.434   2.137   4.738
 5797SOL    HW218291   3.277   2.091   4.746
 5798SOL     OW18292   6.673   4.506   4.828
 5798SOL    HW118293   6.661   4.594   4.875
 5798SOL    HW218294   6.659   4.431   4.894
 5799SOL     OW18295   5.520   6.956   3.372
 5799SOL    HW118296   5.450   6.988   3.309
 5799SOL    HW218297   5.477   6.906   3.447
 5800SOL     OW18298   5.562   4.338   0.724
 5800SOL    HW118299   5.467   4.312   0.738
 5800SOL    HW218300   5.596   4.388   0.804
 5801SOL     OW18301   0.790   0.673   3.506
 5801SOL    HW118302   0.777   0.712   3.597
 5801SOL    HW218303   0.868   0.611   3.506
 5802SOL     OW18304   0.153   3.964   5.849
 5802SOL    HW118305   0.126   3.884   5.795
 5802SOL    HW218306   0.250   3.983   5.833
 5803SOL     OW18307   1.160   4.395   0.693
 5803SOL    HW118308   1.198   4.481   0.727
 5803SOL    HW218309   1.234   4.333   0.669
 5804SOL     OW18310   6.126   4.030   4.379
 5804SOL    HW118311   6.204   3.969   4.394
 5804SOL    HW218312   6.052   4.006   4.442
 5805SOL     OW18313   4.818   3.841   6.166
 5805SOL    HW118314   4.812   3.863   6.263
 5805SOL    HW218315   4.804   3.743   6.153
 5806SOL     OW18316   0.372   6.654   0.133
 5806SOL    HW118317   0.317   6.732   0.101
 5806SOL    HW218318   0.459   6.688   0.169
 5807SOL     OW18319   1.459   3.610   0.974
 5807SOL    HW118320   1.382   3.582   0.917
 5807SOL    HW218321   1.425   3.659   1.054
 5808SOL     OW18322   5.879   4.403   2.148
 5808SOL    HW118323   5.859   4.336   2.219
 5808SOL    HW218324   5.977   4.402   2.128
 5809SOL     OW18325   0.149   2.960   4.580
 5809SOL    HW118326   0.068   2.902   4.578
 5809SOL    HW218327   0.122   3.056   4.574
 5810SOL     OW18328   3.069   1.417   3.701
 5810SOL    HW118329   3.155   1.447   3.662
 5810SOL    HW218330   3.018   1.496   3.736
 5811SOL     OW18331   2.713   0.438   4.694
 5811SOL    HW118332   2.748   0.384   4.771
 5811SOL    HW218333   2.614   0.426   4.687
 5812SOL     OW18334   4.815   0.302   2.769
 5812SOL    HW118335   4.859   0.270   2.853
 5812SOL    HW218336   4.878   0.362   2.720
 5813SOL     OW18337   1.654   1.184   5.119
 5813SOL    HW118338   1.703   1.212   5.202
 5813SOL    HW218339   1.601   1.102   5.138
 5814SOL     OW18340   6.983   4.940   1.206
 5814SOL    HW118341   0.021   5.017   1.181
 5814SOL    HW218342   0.000   4.856   1.168
 5815SOL     OW18343   3.808   2.103   3.053
 5815SOL    HW118344   3.710   2.090   3.034
 5815SOL    HW218345   3.824   2.094   3.151
 5816SOL     OW18346   4.603   0.527   0.293
 5816SOL    HW118347   4.569   0.482   0.375
 5816SOL    HW218348   4.703   0.518   0.290
 5817SOL     OW18349   5.116   3.387   5.866
 5817SOL    HW118350   5.143   3.334   5.786
 5817SOL    HW218351   5.017   3.399   5.867
 5818SOL     OW18352   5.718   6.971   6.106
 5818SOL    HW118353   5.648   6.899   6.105
 5818SOL    HW218354   5.798   6.940   6.056
 5819SOL     OW18355   5.648   0.393   1.005
 5819SOL    HW118356   5.683   0.486   1.010
 5819SOL    HW218357   5.572   0.382   1.069
 5820SOL     OW18358   5.139   6.611   3.206
 5820SOL    HW118359   5.212   6.648   3.150
 5820SOL    HW218360   5.051   6.647   3.175
 5821SOL     OW18361   2.983   0.525   1.914
 5821SOL    HW118362   2.905   0.506   1.973
 5821SOL    HW218363   2.951   0.540   1.821
 5822SOL     OW18364   0.628   1.989   2.439
 5822SOL    HW118365   0.608   2.074   2.487
 5822SOL    HW218366   0.546   1.932   2.434
 5823SOL     OW18367   1.674   1.460   4.880
 5823SOL    HW118368   1.759   1.472   4.931
 5823SOL    HW218369   1.608   1.412   4.937
 5824SOL     OW18370   6.406   6.818   3.227
 5824SOL    HW118371   6.310   6.812   3.201
 5824SOL    HW218372   6.436   6.730   3.265
 5825SOL     OW18373   2.399   0.743   0.136
 5825SOL    HW118374   2.373   0.701   0.049
 5825SOL    HW218375   2.368   0.685   0.211
 5826SOL     OW18376   6.715   6.241   4.707
 5826SOL    HW118377   6.658   6.307   4.756
 5826SOL    HW218378   6.714   6.153   4.755
 5827SOL     OW18379   0.412   5.622   4.941
 5827SOL    HW118380   0.331   5.669   4.906
 5827SOL    HW218381   0.421   5.642   5.039
 5828SOL     OW18382   0.416   3.631   2.656
 5828SOL    HW118383   0.448   3.707   2.598
 5828SOL    HW218384   0.423   3.546   2.605
 5829SOL     OW18385   2.718   1.405   1.880
 5829SOL    HW118386   2.744   1.323   1.829
 5829SOL    HW218387   2.794   1.470   1.878
 5830SOL     OW18388   3.476   0.767   5.652
 5830SOL    HW118389   3.478   0.864   5.626
 5830SOL    HW218390   3.384   0.742   5.683
 5831SOL     OW18391   5.960   6.554   2.803
 5831SOL    HW118392   5.912   6.635   2.768
 5831SOL    HW218393   5.997   6.574   2.894
 5832SOL     OW18394   4.231   3.547   5.080
 5832SOL    HW118395   4.166   3.621   5.064
 5832SOL    HW218396   4.322   3.576   5.051
 5833SOL     OW18397   2.931   3.357   3.816
 5833SOL    HW118398   2.890   3.267   3.805
 5833SOL    HW218399   2.992   3.377   3.739
 5834SOL     OW18400   5.623   2.026   0.880
 5834SOL    HW118401   5.708   1.978   0.862
 5834SOL    HW218402   5.593   2.075   0.798
 5835SOL     OW18403   4.951   2.446   3.450
 5835SOL    HW118404   4.959   2.370   3.515
 5835SOL    HW218405   4.864   2.440   3.401
 5836SOL     OW18406   3.636   6.355   2.175
 5836SOL    HW118407   3.607   6.434   2.121
 5836SOL    HW218408   3.684   6.386   2.256
 5837SOL     OW18409   4.717   4.252   0.330
 5837SOL    HW118410   4.711   4.342   0.374
 5837SOL    HW218411   4.786   4.255   0.257
 5838SOL     OW18412   1.547   1.985   5.589
 5838SOL    HW118413   1.611   1.909   5.586
 5838SOL    HW218414   1.590   2.065   5.631
 5839SOL     OW18415   7.017   3.487   2.609
 5839SOL    HW118416   6.934   3.432   2.599
 5839SOL    HW218417   0.074   3.428   2.630
 5840SOL     OW18418   1.521   5.589   6.797
 5840SOL    HW118419   1.521   5.501   6.845
 5840SOL    HW218420   1.552   5.660   6.860
 5841SOL     OW18421   6.381   3.023   3.626
 5841SOL    HW118422   6.396   2.978   3.538
 5841SOL    HW218423   6.441   2.982   3.695
 5842SOL     OW18424   4.215   3.177   0.355
 5842SOL    HW118425   4.273   3.258   0.365
 5842SOL    HW218426   4.119   3.204   0.366
 5843SOL     OW18427   1.743   2.793   2.974
 5843SOL    HW118428   1.690   2.789   3.058
 5843SOL    HW218429   1.776   2.887   2.960
 5844SOL     OW18430   0.682   6.130   6.351
 5844SOL    HW118431   0.731   6.132   6.437
 5844SOL    HW218432   0.628   6.045   6.345
 5845SOL     OW18433   1.113   2.332   3.947
 5845SOL    HW118434   1.132   2.309   4.042
 5845SOL    HW218435   1.091   2.430   3.940
 5846SOL     OW18436   6.905   2.654   5.516
 5846SOL    HW118437   6.970   2.729   5.528
 5846SOL    HW218438   6.813   2.691   5.508
 5847SOL     OW18439   2.040   2.557   2.562
 5847SOL    HW118440   2.123   2.613   2.561
 5847SOL    HW218441   1.996   2.560   2.473
 5848SOL     OW18442   1.836   4.750   3.194
 5848SOL    HW118443   1.908   4.814   3.169
 5848SOL    HW218444   1.791   4.716   3.112
 5849SOL     OW18445   1.747   0.784   5.852
 5849SOL    HW118446   1.795   0.712   5.901
 5849SOL    HW218447   1.671   0.744   5.800
 5850SOL     OW18448   1.186   4.454   2.483
 5850SOL    HW118449   1.262   4.497   2.434
 5850SOL    HW218450   1.101   4.504   2.464
 5851SOL     OW18451   6.197   4.167   2.396
 5851SOL    HW118452   6.180   4.166   2.495
 5851SOL    HW218453   6.126   4.220   2.351
 5852SOL     OW18454   4.113   6.233   2.569
 5852SOL    HW118455   4.058   6.304   2.612
 5852SOL    HW218456   4.192   6.212   2.627
 5853SOL     OW18457   3.214   4.744   5.788
 5853SOL    HW118458   3.169   4.785   5.867
 5853SOL    HW218459   3.157   4.756   5.707
 5854SOL     OW18460   6.837   1.759   5.813
 5854SOL    HW118461   6.784   1.758   5.728
 5854SOL    HW218462   6.845   1.853   5.846
 5855SOL     OW18463   1.499   0.988   4.838
 5855SOL    HW118464   1.444   0.922   4.786
 5855SOL    HW218465   1.480   1.080   4.805
 5856SOL     OW18466   2.420   5.239   2.923
 5856SOL    HW118467   2.388   5.148   2.895
 5856SOL    HW218468   2.485   5.228   2.998
 5857SOL     OW18469   6.756   2.184   4.622
 5857SOL    HW118470   6.701   2.267   4.629
 5857SOL    HW218471   6.831   2.198   4.557
 5858SOL     OW18472   3.060   1.047   2.787
 5858SOL    HW118473   3.110   1.038   2.700
 5858SOL    HW218474   3.114   1.007   2.861
 5859SOL     OW18475   6.412   6.412   0.938
 5859SOL    HW118476   6.372   6.502   0.924
 5859SOL    HW218477   6.450   6.378   0.852
 5860SOL     OW18478   1.526   4.382   1.948
 5860SOL    HW118479   1.525   4.353   1.852
 5860SOL    HW218480   1.561   4.475   1.954
 5861SOL     OW18481   5.335   2.392   4.140
 5861SOL    HW118482   5.407   2.345   4.089
 5861SOL    HW218483   5.279   2.446   4.078
 5862SOL     OW18484   3.997   5.135   2.786
 5862SOL    HW118485   3.944   5.143   2.702
 5862SOL    HW218486   3.988   5.041   2.821
 5863SOL     OW18487   1.944   0.980   6.301
 5863SOL    HW118488   1.932   1.056   6.237
 5863SOL    HW218489   1.855   0.955   6.341
 5864SOL     OW18490   4.241   4.210   1.663
 5864SOL    HW118491   4.237   4.117   1.626
 5864SOL    HW218492   4.312   4.215   1.732
 5865SOL     OW18493   5.243   0.820   3.416
 5865SOL    HW118494   5.308   0.769   3.473
 5865SOL    HW218495   5.159   0.835   3.469
 5866SOL     OW18496   4.159   6.513   5.437
 5866SOL    HW118497   4.245   6.471   5.466
 5866SOL    HW218498   4.106   6.448   5.384
 5867SOL     OW18499   0.686   2.760   1.561
 5867SOL    HW118500   0.684   2.690   1.632
 5867SOL    HW218501   0.593   2.793   1.545
 5868SOL     OW18502   1.699   0.272   5.980
 5868SOL    HW118503   1.782   0.289   5.926
 5868SOL    HW218504   1.622   0.254   5.918
 5869SOL     OW18505   2.681   4.696   4.786
 5869SOL    HW118506   2.604   4.742   4.830
 5869SOL    HW218507   2.745   4.664   4.856
 5870SOL     OW18508   5.361   4.981   4.183
 5870SOL    HW118509   5.268   4.972   4.220
 5870SOL    HW218510   5.418   4.907   4.218
 5871SOL     OW18511   3.432   3.002   6.996
 5871SOL    HW118512   3.481   3.028   0.059
 5871SOL    HW218513   3.339   3.038   7.000
 5872SOL     OW18514   4.233   5.903   5.912
 5872SOL    HW118515   4.160   5.912   5.845
 5872SOL    HW218516   4.292   5.984   5.909
 5873SOL     OW18517   2.878   3.135   0.311
 5873SOL    HW118518   2.790   3.086   0.315
 5873SOL    HW218519   2.865   3.228   0.344
 5874SOL     OW18520   2.437   3.645   1.699
 5874SOL    HW118521   2.423   3.575   1.769
 5874SOL    HW218522   2.434   3.736   1.742
 5875SOL     OW18523   3.383   2.378   0.255
 5875SOL    HW118524   3.467   2.411   0.212
 5875SOL    HW218525   3.393   2.281   0.278
 5876SOL     OW18526   3.254   3.582   6.411
 5876SOL    HW118527   3.235   3.650   6.482
 5876SOL    HW218528   3.258   3.628   6.322
 5877SOL     OW18529   6.599   0.748   1.635
 5877SOL    HW118530   6.523   0.810   1.615
 5877SOL    HW218531   6.682   0.801   1.649
 5878SOL     OW18532   4.498   5.224   1.734
 5878SOL    HW118533   4.553   5.286   1.790
 5878SOL    HW218534   4.418   5.195   1.786
 5879SOL     OW18535   3.312   3.028   6.321
 5879SOL    HW118536   3.343   3.080   6.401
 5879SOL    HW218537   3.216   3.002   6.333
 5880SOL     OW18538   5.173   3.744   5.520
 5880SOL    HW118539   5.078   3.752   5.490
 5880SOL    HW218540   5.185   3.796   5.605
 5881SOL     OW18541   0.984   6.495   2.224
 5881SOL    HW118542   0.953   6.543   2.143
 5881SOL    HW218543   0.963   6.549   2.306
 5882SOL     OW18544   1.351   5.868   5.731
 5882SOL    HW118545   1.362   5.858   5.632
 5882SOL    HW218546   1.438   5.849   5.776
 5883SOL     OW18547   0.353   3.693   0.702
 5883SOL    HW118548   0.434   3.752   0.708
 5883SOL    HW218549   0.371   3.608   0.751
 5884SOL     OW18550   5.893   1.963   3.509
 5884SOL    HW118551   5.876   1.864   3.509
 5884SOL    HW218552   5.906   1.994   3.603
 5885SOL     OW18553   0.037   5.238   0.069
 5885SOL    HW118554   0.055   5.216   6.993
 5885SOL    HW218555   6.998   5.168   0.109
 5886SOL     OW18556   1.566   3.798   3.460
 5886SOL    HW118557   1.513   3.715   3.480
 5886SOL    HW218558   1.508   3.878   3.472
 5887SOL     OW18559   1.943   2.907   0.851
 5887SOL    HW118560   1.849   2.936   0.865
 5887SOL    HW218561   1.972   2.850   0.928
 5888SOL     OW18562   2.980   6.581   1.227
 5888SOL    HW118563   3.017   6.615   1.140
 5888SOL    HW218564   3.051   6.531   1.275
 5889SOL     OW18565   0.001   0.582   0.978
 5889SOL    HW118566   0.030   0.623   1.065
 5889SOL    HW218567   6.938   0.527   0.993
 5890SOL     OW18568   2.740   6.597   2.143
 5890SOL    HW118569   2.675   6.534   2.100
 5890SOL    HW218570   2.793   6.643   2.072
 5891SOL     OW18571   2.372   3.564   0.768
 5891SOL    HW118572   2.443   3.494   0.764
 5891SOL    HW218573   2.287   3.522   0.800
 5892SOL     OW18574   0.953   3.229   1.041
 5892SOL    HW118575   0.942   3.134   1.012
 5892SOL    HW218576   0.908   3.243   1.129
 5893SOL     OW18577   0.807   5.584   1.740
 5893SOL    HW118578   0.892   5.554   1.698
 5893SOL    HW218579   0.827   5.657   1.806
 5894SOL     OW18580   1.968   5.830   6.043
 5894SOL    HW118581   1.898   5.760   6.054
 5894SOL    HW218582   2.034   5.824   6.117
 5895SOL     OW18583   5.674   2.896   4.449
 5895SOL    HW118584   5.692   2.991   4.473
 5895SOL    HW218585   5.585   2.890   4.402
 5896SOL     OW18586   5.857   2.525   1.913
 5896SOL    HW118587   5.923   2.599   1.926
 5896SOL    HW218588   5.899   2.438   1.937
 5897SOL     OW18589   4.485   1.723   0.617
 5897SOL    HW118590   4.520   1.816   0.626
 5897SOL    HW218591   4.553   1.659   0.654
 5898SOL     OW18592   2.161   1.692   5.467
 5898SOL    HW118593   2.138   1.647   5.381
 5898SOL    HW218594   2.260   1.708   5.471
 5899SOL     OW18595   6.818   4.980   5.552
 5899SOL    HW118596   6.911   4.995   5.585
 5899SOL    HW218597   6.759   5.052   5.585
 5900SOL     OW18598   6.287   6.340   3.355
 5900SOL    HW118599   6.257   6.250   3.384
 5900SOL    HW218600   6.249   6.361   3.265
 5901SOL     OW18601   2.124   0.012   6.005
 5901SOL    HW118602   2.066   7.004   6.082
 5901SOL    HW218603   2.207   0.054   6.040
 5902SOL     OW18604   5.294   4.397   5.242
 5902SOL    HW118605   5.319   4.302   5.261
 5902SOL    HW218606   5.277   4.445   5.328
 5903SOL     OW18607   5.967   1.829   6.519
 5903SOL    HW118608   5.992   1.820   6.423
 5903SOL    HW218609   5.885   1.886   6.527
 5904SOL     OW18610   2.085   4.301   2.575
 5904SOL    HW118611   2.110   4.343   2.663
 5904SOL    HW218612   2.145   4.337   2.504
 5905SOL     OW18613   5.977   1.272   4.368
 5905SOL    HW118614   6.030   1.288   4.451
 5905SOL    HW218615   5.890   1.228   4.391
 5906SOL     OW18616   4.899   0.413   5.186
 5906SOL    HW118617   4.839   0.493   5.184
 5906SOL    HW218618   4.844   0.331   5.197
 5907SOL     OW18619   1.536   2.598   6.881
 5907SOL    HW118620   1.516   2.677   6.940
 5907SOL    HW218621   1.612   2.620   6.820
 5908SOL     OW18622   4.377   3.416   6.253
 5908SOL    HW118623   4.468   3.392   6.285
 5908SOL    HW218624   4.375   3.512   6.227
 5909SOL     OW18625   6.888   4.842   4.603
 5909SOL    HW118626   6.944   4.820   4.523
 5909SOL    HW218627   6.824   4.767   4.619
 5910SOL     OW18628   2.013   3.974   1.304
 5910SOL    HW118629   2.052   3.983   1.396
 5910SOL    HW218630   2.054   4.043   1.244
 5911SOL     OW18631   6.755   5.791   6.363
 5911SOL    HW118632   6.841   5.740   6.355
 5911SOL    HW218633   6.712   5.768   6.451
 5912SOL     OW18634   6.192   4.048   6.913
 5912SOL    HW118635   6.281   4.039   6.870
 5912SOL    HW218636   6.132   4.104   6.856
 5913SOL     OW18637   1.899   1.673   5.659
 5913SOL    HW118638   1.921   1.582   5.695
 5913SOL    HW218639   1.974   1.705   5.601
 5914SOL     OW18640   1.929   5.724   0.834
 5914SOL    HW118641   1.900   5.787   0.762
 5914SOL    HW218642   1.902   5.631   0.809
 5915SOL     OW18643   5.055   2.736   2.507
 5915SOL    HW118644   5.015   2.731   2.416
 5915SOL    HW218645   5.079   2.831   2.527
 5916SOL     OW18646   3.876   0.278   6.002
 5916SOL    HW118647   3.965   0.254   6.041
 5916SOL    HW218648   3.813   0.201   6.013
 5917SOL     OW18649   3.446   3.457   3.041
 5917SOL    HW118650   3.500   3.418   2.966
 5917SOL    HW218651   3.374   3.393   3.067
 5918SOL     OW18652   1.666   3.293   4.426
 5918SOL    HW118653   1.624   3.378   4.459
 5918SOL    HW218654   1.766   3.300   4.433
 5919SOL     OW18655   1.965   3.113   6.689
 5919SOL    HW118656   1.967   3.135   6.592
 5919SOL    HW218657   1.930   3.021   6.703
 5920SOL     OW18658   3.571   0.367   0.093
 5920SOL    HW118659   3.533   0.317   0.016
 5920SOL    HW218660   3.497   0.408   0.147
 5921SOL     OW18661   3.782   4.920   5.217
 5921SOL    HW118662   3.789   4.994   5.283
 5921SOL    HW218663   3.821   4.836   5.256
 5922SOL     OW18664   6.083   4.394   2.506
 5922SOL    HW118665   6.026   4.346   2.573
 5922SOL    HW218666   6.027   4.459   2.455
 5923SOL     OW18667   6.957   6.764   3.683
 5923SOL    HW118668   0.001   6.801   3.616
 5923SOL    HW218669   6.947   6.665   3.671
 5924SOL     OW18670   5.191   2.185   4.538
 5924SOL    HW118671   5.151   2.277   4.535
 5924SOL    HW218672   5.119   2.119   4.562
 5925SOL     OW18673   5.507   6.013   1.040
 5925SOL    HW118674   5.531   6.042   1.133
 5925SOL    HW218675   5.425   6.061   1.010
 5926SOL     OW18676   3.787   5.009   1.361
 5926SOL    HW118677   3.703   4.956   1.351
 5926SOL    HW218678   3.802   5.065   1.280
 5927SOL     OW18679   2.897   6.014   2.462
 5927SOL    HW118680   2.806   6.052   2.479
 5927SOL    HW218681   2.959   6.087   2.435
 5928SOL     OW18682   1.633   0.045   2.982
 5928SOL    HW118683   1.651   0.143   2.980
 5928SOL    HW218684   1.686   7.020   2.910
 5929SOL     OW18685   1.221   6.247   6.709
 5929SOL    HW118686   1.193   6.343   6.701
 5929SOL    HW218687   1.161   6.200   6.774
 5930SOL     OW18688   6.545   1.357   4.708
 5930SOL    HW118689   6.569   1.296   4.633
 5930SOL    HW218690   6.624   1.413   4.733
 5931SOL     OW18691   6.693   5.587   1.398
 5931SOL    HW118692   6.668   5.508   1.455
 5931SOL    HW218693   6.769   5.636   1.441
 5932SOL     OW18694   2.842   6.745   1.043
 5932SOL    HW118695   2.845   6.844   1.048
 5932SOL    HW218696   2.830   6.707   1.135
 5933SOL     OW18697   6.699   3.806   3.041
 5933SOL    HW118698   6.777   3.753   3.076
 5933SOL    HW218699   6.718   3.904   3.050
 5934SOL     OW18700   3.839   3.456   3.077
 5934SOL    HW118701   3.904   3.512   3.027
 5934SOL    HW218702   3.765   3.427   3.016
 5935SOL     OW18703   4.101   3.745   4.464
 5935SOL    HW118704   4.080   3.652   4.494
 5935SOL    HW218705   4.194   3.769   4.492
 5936SOL     OW18706   5.452   5.696   6.678
 5936SOL    HW118707   5.493   5.648   6.601
 5936SOL    HW218708   5.357   5.717   6.658
 5937SOL     OW18709   2.172   3.532   1.128
 5937SOL    HW118710   2.220   3.448   1.151
 5937SOL    HW218711   2.152   3.533   1.030
 5938SOL     OW18712   1.657   4.204   3.082
 5938SOL    HW118713   1.630   4.271   3.013
 5938SOL    HW218714   1.586   4.134   3.091
 5939SOL     OW18715   3.831   0.171   2.820
 5939SOL    HW118716   3.857   0.267   2.813
 5939SOL    HW218717   3.875   0.119   2.747
 5940SOL     OW18718   4.244   6.493   2.903
 5940SOL    HW118719   4.309   6.463   2.973
 5940SOL    HW218720   4.171   6.545   2.946
 5941SOL     OW18721   6.288   4.905   2.504
 5941SOL    HW118722   6.311   4.963   2.426
 5941SOL    HW218723   6.252   4.962   2.578
 5942SOL     OW18724   4.235   3.259   6.067
 5942SOL    HW118725   4.282   3.305   6.142
 5942SOL    HW218726   4.288   3.179   6.038
 5943SOL     OW18727   1.973   6.102   0.671
 5943SOL    HW118728   1.980   6.186   0.618
 5943SOL    HW218729   1.965   6.124   0.768
 5944SOL     OW18730   4.970   1.670   2.472
 5944SOL    HW118731   4.926   1.756   2.499
 5944SOL    HW218732   4.993   1.673   2.375
 5945SOL     OW18733   6.381   4.907   5.686
 5945SOL    HW118734   6.372   5.004   5.663
 5945SOL    HW218735   6.478   4.885   5.701
 5946SOL     OW18736   5.064   3.277   5.601
 5946SOL    HW118737   4.999   3.210   5.565
 5946SOL    HW218738   5.019   3.366   5.610
 5947SOL     OW18739   4.279   3.473   1.484
 5947SOL    HW118740   4.376   3.452   1.489
 5947SOL    HW218741   4.253   3.531   1.561
 5948SOL     OW18742   4.008   4.912   2.982
 5948SOL    HW118743   3.918   4.870   2.992
 5948SOL    HW218744   4.040   4.944   3.071
 5949SOL     OW18745   4.524   4.859   1.254
 5949SOL    HW118746   4.478   4.924   1.315
 5949SOL    HW218747   4.552   4.779   1.307
 5950SOL     OW18748   6.456   2.302   4.228
 5950SOL    HW118749   6.458   2.212   4.185
 5950SOL    HW218750   6.398   2.298   4.310
 5951SOL     OW18751   1.927   5.726   3.777
 5951SOL    HW118752   1.858   5.697   3.844
 5951SOL    HW218753   1.915   5.823   3.757
 5952SOL     OW18754   0.125   6.468   4.018
 5952SOL    HW118755   0.034   6.436   3.991
 5952SOL    HW218756   0.166   6.520   3.943
 5953SOL     OW18757   6.761   3.199   6.281
 5953SOL    HW118758   6.778   3.202   6.183
 5953SOL    HW218759   6.735   3.107   6.308
 5954SOL     OW18760   0.176   4.798   0.121
 5954SOL    HW118761   0.094   4.826   0.169
 5954SOL    HW218762   0.192   4.859   0.043
 5955SOL     OW18763   4.913   5.368   1.438
 5955SOL    HW118764   4.859   5.406   1.513
 5955SOL    HW218765   5.010   5.368   1.464
 5956SOL     OW18766   5.769   2.365   6.982
 5956SOL    HW118767   5.738   2.459   6.994
 5956SOL    HW218768   5.777   2.322   0.052
 5957SOL     OW18769   6.084   6.218   6.278
 5957SOL    HW118770   6.176   6.214   6.237
 5957SOL    HW218771   6.069   6.137   6.333
 5958SOL     OW18772   6.810   5.561   2.116
 5958SOL    HW118773   6.823   5.462   2.131
 5958SOL    HW218774   6.833   5.610   2.200
 5959SOL     OW18775   2.162   1.741   6.032
 5959SOL    HW118776   2.230   1.802   6.073
 5959SOL    HW218777   2.132   1.778   5.944
 5960SOL     OW18778   3.458   0.085   3.851
 5960SOL    HW118779   3.478   0.180   3.876
 5960SOL    HW218780   3.478   0.026   3.929
 5961SOL     OW18781   3.399   0.945   4.522
 5961SOL    HW118782   3.337   1.009   4.567
 5961SOL    HW218783   3.370   0.930   4.427
 5962SOL     OW18784   4.874   4.988   2.257
 5962SOL    HW118785   4.943   5.029   2.198
 5962SOL    HW218786   4.856   5.048   2.334
 5963SOL     OW18787   3.940   3.997   2.643
 5963SOL    HW118788   3.866   4.023   2.581
 5963SOL    HW218789   3.908   3.926   2.706
 5964SOL     OW18790   0.141   5.307   6.033
 5964SOL    HW118791   0.097   5.247   5.967
 5964SOL    HW218792   0.233   5.273   6.052
 5965SOL     OW18793   2.561   2.646   5.743
 5965SOL    HW118794   2.634   2.617   5.804
 5965SOL    HW218795   2.482   2.676   5.796
 5966SOL     OW18796   2.979   6.159   4.312
 5966SOL    HW118797   2.981   6.252   4.274
 5966SOL    HW218798   3.061   6.110   4.282
 5967SOL     OW18799   5.058   6.368   3.048
 5967SOL    HW118800   5.099   6.442   3.102
 5967SOL    HW218801   5.127   6.298   3.029
 5968SOL     OW18802   6.785   2.539   3.132
 5968SOL    HW118803   6.692   2.514   3.161
 5968SOL    HW218804   6.846   2.460   3.143
 5969SOL     OW18805   5.980   3.620   3.529
 5969SOL    HW118806   5.903   3.586   3.584
 5969SOL    HW218807   6.054   3.552   3.531
 5970SOL     OW18808   1.752   3.490   2.640
 5970SOL    HW118809   1.769   3.438   2.557
 5970SOL    HW218810   1.659   3.472   2.673
 5971SOL     OW18811   2.160   6.947   2.550
 5971SOL    HW118812   2.234   6.949   2.482
 5971SOL    HW218813   2.072   6.948   2.503
 5972SOL     OW18814   4.967   6.565   0.195
 5972SOL    HW118815   4.909   6.586   0.274
 5972SOL    HW218816   4.951   6.633   0.123
 5973SOL     OW18817   1.314   4.338   2.998
 5973SOL    HW118818   1.250   4.263   2.984
 5973SOL    HW218819   1.339   4.378   2.909
 5974SOL     OW18820   6.952   3.777   0.166
 5974SOL    HW118821   6.964   3.679   0.151
 5974SOL    HW218822   6.982   3.799   0.259
 5975SOL     OW18823   2.590   2.937   1.187
 5975SOL    HW118824   2.498   2.923   1.223
 5975SOL    HW218825   2.626   3.024   1.220
 5976SOL     OW18826   3.071   3.379   4.923
 5976SOL    HW118827   3.132   3.319   4.974
 5976SOL    HW218828   3.021   3.437   4.987
 5977SOL     OW18829   1.317   3.943   2.286
 5977SOL    HW118830   1.234   3.928   2.233
 5977SOL    HW218831   1.346   3.856   2.327
 5978SOL     OW18832   5.380   4.735   2.091
 5978SOL    HW118833   5.403   4.832   2.101
 5978SOL    HW218834   5.365   4.695   2.182
 5979SOL     OW18835   6.806   0.904   3.159
 5979SOL    HW118836   6.779   0.850   3.239
 5979SOL    HW218837   6.906   0.908   3.155
 5980SOL     OW18838   5.759   4.762   0.478
 5980SOL    HW118839   5.801   4.779   0.389
 5980SOL    HW218840   5.761   4.665   0.499
 5981SOL     OW18841   5.271   0.752   2.629
 5981SOL    HW118842   5.262   0.774   2.532
 5981SOL    HW218843   5.305   0.659   2.639
 5982SOL     OW18844   6.801   2.056   6.814
 5982SOL    HW118845   6.900   2.068   6.820
 5982SOL    HW218846   6.758   2.145   6.794
 5983SOL     OW18847   1.759   1.137   4.197
 5983SOL    HW118848   1.825   1.213   4.202
 5983SOL    HW218849   1.760   1.086   4.283
 5984SOL     OW18850   0.181   6.253   4.889
 5984SOL    HW118851   0.208   6.231   4.982
 5984SOL    HW218852   0.215   6.183   4.827
 5985SOL     OW18853   4.513   1.704   4.125
 5985SOL    HW118854   4.475   1.630   4.069
 5985SOL    HW218855   4.600   1.734   4.085
 5986SOL     OW18856   3.288   3.170   2.446
 5986SOL    HW118857   3.229   3.194   2.523
 5986SOL    HW218858   3.270   3.075   2.419
 5987SOL     OW18859   4.118   6.680   4.824
 5987SOL    HW118860   4.110   6.753   4.755
 5987SOL    HW218861   4.181   6.709   4.895
 5988SOL     OW18862   4.420   6.514   4.287
 5988SOL    HW118863   4.332   6.548   4.321
 5988SOL    HW218864   4.405   6.432   4.232
 5989SOL     OW18865   3.330   0.200   6.157
 5989SOL    HW118866   3.373   0.147   6.084
 5989SOL    HW218867   3.304   0.139   6.232
 5990SOL     OW18868   2.853   5.162   1.073
 5990SOL    HW118869   2.862   5.246   1.019
 5990SOL    HW218870   2.911   5.091   1.033
 5991SOL     OW18871   2.939   5.348   4.600
 5991SOL    HW118872   2.880   5.373   4.677
 5991SOL    HW218873   2.962   5.251   4.607
 5992SOL     OW18874   4.356   0.245   3.874
 5992SOL    HW118875   4.444   0.251   3.826
 5992SOL    HW218876   4.349   0.320   3.940
 5993SOL     OW18877   2.509   6.039   5.454
 5993SOL    HW118878   2.483   6.046   5.358
 5993SOL    HW218879   2.606   6.017   5.462
 5994SOL     OW18880   6.136   2.615   2.512
 5994SOL    HW118881   6.112   2.666   2.429
 5994SOL    HW218882   6.061   2.552   2.535
 5995SOL     OW18883   6.727   5.058   1.101
 5995SOL    HW118884   6.794   5.013   1.161
 5995SOL    HW218885   6.746   5.035   1.006
 5996SOL     OW18886   6.947   4.966   6.080
 5996SOL    HW118887   6.916   4.885   6.030
 5996SOL    HW218888   7.014   5.016   6.026
 5997SOL     OW18889   0.727   6.959   2.217
 5997SOL    HW118890   0.705   6.923   2.308
 5997SOL    HW218891   0.826   6.963   2.206
 5998SOL     OW18892   5.546   2.209   2.442
 5998SOL    HW118893   5.548   2.222   2.542
 5998SOL    HW218894   5.639   2.194   2.408
 5999SOL     OW18895   1.509   2.228   2.740
 5999SOL    HW118896   1.608   2.227   2.756
 5999SOL    HW218897   1.471   2.315   2.771
 6000SOL     OW18898   4.765   5.448   2.405
 6000SOL    HW118899   4.819   5.481   2.483
 6000SOL    HW218900   4.668   5.463   2.423
 6001SOL     OW18901   6.532   2.398   6.462
 6001SOL    HW118902   6.501   2.383   6.555
 6001SOL    HW218903   6.588   2.321   6.432
 6002SOL     OW18904   1.777   0.380   1.679
 6002SOL    HW118905   1.861   0.362   1.730
 6002SOL    HW218906   1.792   0.456   1.615
 6003SOL     OW18907   4.729   4.118   4.974
 6003SOL    HW118908   4.737   4.023   4.942
 6003SOL    HW218909   4.780   4.178   4.911
 6004SOL     OW18910   0.348   3.054   2.271
 6004SOL    HW118911   0.277   3.076   2.338
 6004SOL    HW218912   0.427   3.113   2.287
 6005SOL     OW18913   3.423   5.357   3.347
 6005SOL    HW118914   3.461   5.378   3.437
 6005SOL    HW218915   3.325   5.339   3.355
 6006SOL     OW18916   2.949   6.926   6.649
 6006SOL    HW118917   2.929   6.959   6.556
 6006SOL    HW218918   3.046   6.904   6.656
 6007SOL     OW18919   5.854   2.544   4.110
 6007SOL    HW118920   5.899   2.618   4.160
 6007SOL    HW218921   5.909   2.521   4.029
 6008SOL     OW18922   3.073   4.787   6.047
 6008SOL    HW118923   3.022   4.702   6.034
 6008SOL    HW218924   3.075   4.809   6.145
 6009SOL     OW18925   2.233   2.012   4.285
 6009SOL    HW118926   2.233   2.013   4.185
 6009SOL    HW218927   2.230   1.917   4.317
 6010SOL     OW18928   1.749   4.102   2.689
 6010SOL    HW118929   1.757   4.192   2.731
 6010SOL    HW218930   1.685   4.107   2.612
 6011SOL     OW18931   5.342   2.863   2.754
 6011SOL    HW118932   5.366   2.793   2.687
 6011SOL    HW218933   5.242   2.876   2.754
 6012SOL     OW18934   6.677   3.212   0.947
 6012SOL    HW118935   6.725   3.147   0.888
 6012SOL    HW218936   6.741   3.284   0.975
 6013SOL     OW18937   5.684   0.688   3.081
 6013SOL    HW118938   5.635   0.653   3.002
 6013SOL    HW218939   5.771   0.727   3.052
 6014SOL     OW18940   5.979   0.601   0.353
 6014SOL    HW118941   6.026   0.581   0.267
 6014SOL    HW218942   5.921   0.681   0.341
 6015SOL     OW18943   5.706   1.551   3.882
 6015SOL    HW118944   5.651   1.475   3.916
 6015SOL    HW218945   5.792   1.555   3.933
 6016SOL     OW18946   2.161   0.840   5.466
 6016SOL    HW118947   2.081   0.834   5.408
 6016SOL    HW218948   2.183   0.936   5.483
 6017SOL     OW18949   6.617   5.389   2.730
 6017SOL    HW118950   6.659   5.313   2.779
 6017SOL    HW218951   6.645   5.386   2.634
 6018SOL     OW18952   2.564   3.777   0.782
 6018SOL    HW118953   2.563   3.781   0.881
 6018SOL    HW218954   2.502   3.706   0.750
 6019SOL     OW18955   3.806   0.814   3.966
 6019SOL    HW118956   3.862   0.776   3.893
 6019SOL    HW218957   3.709   0.799   3.946
 6020SOL     OW18958   4.058   0.645   2.764
 6020SOL    HW118959   4.060   0.665   2.666
 6020SOL    HW218960   4.014   0.720   2.812
 6021SOL     OW18961   4.427   1.751   2.170
 6021SOL    HW118962   4.512   1.708   2.203
 6021SOL    HW218963   4.353   1.731   2.234
 6022SOL     OW18964   4.185   1.445   3.162
 6022SOL    HW118965   4.278   1.427   3.130
 6022SOL    HW218966   4.156   1.371   3.222
 6023SOL     OW18967   0.355   1.510   2.947
 6023SOL    HW118968   0.358   1.497   3.046
 6023SOL    HW218969   0.448   1.507   2.910
 6024SOL     OW18970   0.570   4.836   1.636
 6024SOL    HW118971   0.657   4.873   1.670
 6024SOL    HW218972   0.577   4.817   1.538
 6025SOL     OW18973   4.619   1.424   1.060
 6025SOL    HW118974   4.681   1.375   1.121
 6025SOL    HW218975   4.669   1.495   1.011
 6026SOL     OW18976   6.550   4.409   5.326
 6026SOL    HW118977   6.618   4.473   5.292
 6026SOL    HW218978   6.539   4.420   5.425
 6027SOL     OW18979   2.754   3.650   6.646
 6027SOL    HW118980   2.772   3.731   6.591
 6027SOL    HW218981   2.707   3.677   6.731
 6028SOL     OW18982   1.469   3.822   0.150
 6028SOL    HW118983   1.535   3.876   0.202
 6028SOL    HW218984   1.517   3.752   0.098
 6029SOL     OW18985   2.368   6.243   1.553
 6029SOL    HW118986   2.411   6.239   1.642
 6029SOL    HW218987   2.415   6.310   1.496
 6030SOL     OW18988   1.910   0.951   1.794
 6030SOL    HW118989   1.954   0.933   1.882
 6030SOL    HW218990   1.890   1.049   1.786
 6031SOL     OW18991   5.190   6.889   5.487
 6031SOL    HW118992   5.262   6.873   5.419
 6031SOL    HW218993   5.228   6.941   5.564
 6032SOL     OW18994   0.768   2.797   2.573
 6032SOL    HW118995   0.852   2.747   2.597
 6032SOL    HW218996   0.695   2.731   2.555
 6033SOL     OW18997   0.729   1.007   3.593
 6033SOL    HW118998   0.669   1.049   3.660
 6033SOL    HW218999   0.820   0.995   3.632
 6034SOL     OW19000   1.701   4.284   5.024
 6034SOL    HW119001   1.653   4.367   4.998
 6034SOL    HW219002   1.786   4.277   4.972
 6035SOL     OW19003   6.038   0.165   4.382
 6035SOL    HW119004   5.962   0.102   4.400
 6035SOL    HW219005   6.010   0.259   4.404
 6036SOL     OW19006   0.528   6.133   5.303
 6036SOL    HW119007   0.511   6.124   5.402
 6036SOL    HW219008   0.600   6.201   5.288
 6037SOL     OW19009   5.959   5.830   5.060
 6037SOL    HW119010   5.895   5.800   4.990
 6037SOL    HW219011   6.023   5.756   5.082
 6038SOL     OW19012   6.001   4.003   6.171
 6038SOL    HW119013   6.088   4.048   6.152
 6038SOL    HW219014   5.966   4.034   6.259
 6039SOL     OW19015   3.478   3.617   2.538
 6039SOL    HW119016   3.416   3.683   2.496
 6039SOL    HW219017   3.517   3.657   2.621
 6040SOL     OW19018   0.453   2.037   0.347
 6040SOL    HW119019   0.368   2.017   0.398
 6040SOL    HW219020   0.500   1.951   0.328
 6041SOL     OW19021   0.997   1.909   6.865
 6041SOL    HW119022   1.016   1.851   6.944
 6041SOL    HW219023   1.000   2.005   6.893
 6042SOL     OW19024   4.918   5.276   3.089
 6042SOL    HW119025   4.946   5.355   3.143
 6042SOL    HW219026   4.987   5.257   3.019
 6043SOL     OW19027   1.046   4.586   4.608
 6043SOL    HW119028   0.947   4.581   4.618
 6043SOL    HW219029   1.070   4.637   4.525
 6044SOL     OW19030   0.451   0.997   0.938
 6044SOL    HW119031   0.536   1.044   0.914
 6044SOL    HW219032   0.395   0.986   0.856
 6045SOL     OW19033   6.862   4.259   1.380
 6045SOL    HW119034   6.931   4.314   1.429
 6045SOL    HW219035   6.835   4.182   1.437
 6046SOL     OW19036   3.419   2.412   0.533
 6046SOL    HW119037   3.419   2.394   0.434
 6046SOL    HW219038   3.397   2.508   0.549
 6047SOL     OW19039   6.501   0.265   4.236
 6047SOL    HW119040   6.558   0.321   4.296
 6047SOL    HW219041   6.527   0.169   4.246
 6048SOL     OW19042   4.138   6.912   4.652
 6048SOL    HW119043   4.146   6.906   4.553
 6048SOL    HW219044   4.224   6.944   4.691
 6049SOL     OW19045   5.362   4.553   6.902
 6049SOL    HW119046   5.440   4.565   6.963
 6049SOL    HW219047   5.359   4.629   6.837
 6050SOL     OW19048   4.241   4.267   5.489
 6050SOL    HW119049   4.329   4.242   5.449
 6050SOL    HW219050   4.210   4.354   5.451
 6051SOL     OW19051   1.949   1.762   2.828
 6051SOL    HW119052   2.010   1.726   2.899
 6051SOL    HW219053   2.000   1.823   2.768
 6052SOL     OW19054   0.647   1.504   0.823
 6052SOL    HW119055   0.688   1.573   0.764
 6052SOL    HW219056   0.549   1.520   0.832
 6053SOL     OW19057   1.701   6.828   6.663
 6053SOL    HW119058   1.762   6.892   6.615
 6053SOL    HW219059   1.746   6.739   6.669
 6054SOL     OW19060   1.694   4.595   0.321
 6054SOL    HW119061   1.688   4.518   0.258
 6054SOL    HW219062   1.608   4.603   0.372
 6055SOL     OW19063   4.753   0.632   5.148
 6055SOL    HW119064   4.689   0.676   5.212
 6055SOL    HW219065   4.810   0.701   5.105
 6056SOL     OW19066   4.153   2.050   6.614
 6056SOL    HW119067   4.212   2.003   6.549
 6056SOL    HW219068   4.115   2.132   6.572
 6057SOL     OW19069   2.937   1.069   4.772
 6057SOL    HW119070   2.926   0.970   4.770
 6057SOL    HW219071   2.860   1.112   4.726
 6058SOL     OW19072   5.750   2.288   4.164
 6058SOL    HW119073   5.665   2.285   4.111
 6058SOL    HW219074   5.790   2.379   4.157
 6059SOL     OW19075   5.438   4.178   0.233
 6059SOL    HW119076   5.347   4.207   0.203
 6059SOL    HW219077   5.507   4.214   0.170
 6060SOL     OW19078   4.176   5.358   5.723
 6060SOL    HW119079   4.187   5.275   5.668
 6060SOL    HW219080   4.129   5.335   5.809
 6061SOL     OW19081   3.346   1.672   6.630
 6061SOL    HW119082   3.435   1.678   6.676
 6061SOL    HW219083   3.320   1.762   6.596
 6062SOL     OW19084   1.573   0.411   4.886
 6062SOL    HW119085   1.539   0.501   4.858
 6062SOL    HW219086   1.503   0.342   4.866
 6063SOL     OW19087   4.539   0.769   6.650
 6063SOL    HW119088   4.505   0.786   6.558
 6063SOL    HW219089   4.506   0.680   6.682
 6064SOL     OW19090   1.153   5.426   3.508
 6064SOL    HW119091   1.120   5.397   3.419
 6064SOL    HW219092   1.083   5.408   3.577
 6065SOL     OW19093   0.075   0.039   0.593
 6065SOL    HW119094   0.090   0.082   0.504
 6065SOL    HW219095   6.997   0.031   0.610
 6066SOL     OW19096   4.168   2.639   0.209
 6066SOL    HW119097   4.103   2.674   0.277
 6066SOL    HW219098   4.119   2.593   0.136
 6067SOL     OW19099   6.027   1.526   6.414
 6067SOL    HW119100   6.119   1.560   6.394
 6067SOL    HW219101   6.032   1.428   6.434
 6068SOL     OW19102   4.577   2.588   4.713
 6068SOL    HW119103   4.579   2.560   4.809
 6068SOL    HW219104   4.658   2.642   4.693
 6069SOL     OW19105   6.834   4.168   4.839
 6069SOL    HW119106   6.878   4.211   4.917
 6069SOL    HW219107   6.904   4.133   4.776
 6070SOL     OW19108   4.092   2.458   6.033
 6070SOL    HW119109   3.997   2.479   6.009
 6070SOL    HW219110   4.135   2.409   5.956
 6071SOL     OW19111   4.200   6.489   5.141
 6071SOL    HW119112   4.300   6.493   5.128
 6071SOL    HW219113   4.160   6.578   5.123
 6072SOL     OW19114   0.491   1.763   1.429
 6072SOL    HW119115   0.495   1.850   1.379
 6072SOL    HW219116   0.558   1.700   1.391
 6073SOL     OW19117   6.625   2.857   0.719
 6073SOL    HW119118   6.631   2.780   0.782
 6073SOL    HW219119   6.531   2.890   0.716
 6074SOL     OW19120   0.529   0.163   5.014
 6074SOL    HW119121   0.485   0.080   4.982
 6074SOL    HW219122   0.459   0.228   5.046
 6075SOL     OW19123   5.753   3.500   0.452
 6075SOL    HW119124   5.783   3.469   0.362
 6075SOL    HW219125   5.820   3.565   0.488
 6076SOL     OW19126   2.057   6.265   3.806
 6076SOL    HW119127   2.131   6.237   3.745
 6076SOL    HW219128   2.077   6.233   3.899
 6077SOL     OW19129   5.946   6.278   2.030
 6077SOL    HW119130   6.005   6.258   1.952
 6077SOL    HW219131   5.974   6.223   2.109
 6078SOL     OW19132   2.770   4.808   4.081
 6078SOL    HW119133   2.771   4.772   3.988
 6078SOL    HW219134   2.717   4.747   4.140
 6079SOL     OW19135   2.666   1.921   6.340
 6079SOL    HW119136   2.634   1.938   6.247
 6079SOL    HW219137   2.757   1.962   6.352
 6080SOL     OW19138   5.873   2.536   1.558
 6080SOL    HW119139   5.925   2.601   1.613
 6080SOL    HW219140   5.775   2.550   1.573
 6081SOL     OW19141   6.843   3.046   3.881
 6081SOL    HW119142   6.805   3.101   3.955
 6081SOL    HW219143   6.819   3.089   3.793
 6082SOL     OW19144   3.990   1.443   2.967
 6082SOL    HW119145   4.050   1.438   3.047
 6082SOL    HW219146   4.025   1.512   2.903
 6083SOL     OW19147   1.462   6.300   6.881
 6083SOL    HW119148   1.440   6.364   6.955
 6083SOL    HW219149   1.388   6.302   6.813
 6084SOL     OW19150   6.967   5.420   5.676
 6084SOL    HW119151   6.908   5.462   5.746
 6084SOL    HW219152   6.962   5.473   5.592
 6085SOL     OW19153   5.827   3.509   0.116
 6085SOL    HW119154   5.925   3.497   0.101
 6085SOL    HW219155   5.804   3.607   0.112
 6086SOL     OW19156   3.406   2.134   4.301
 6086SOL    HW119157   3.502   2.132   4.328
 6086SOL    HW219158   3.348   2.145   4.382
 6087SOL     OW19159   5.646   6.624   6.403
 6087SOL    HW119160   5.717   6.639   6.471
 6087SOL    HW219161   5.562   6.593   6.447
 6088SOL     OW19162   0.986   0.049   5.143
 6088SOL    HW119163   1.064   0.016   5.092
 6088SOL    HW219164   0.901   0.021   5.097
 6089SOL     OW19165   0.305   3.530   1.329
 6089SOL    HW119166   0.386   3.580   1.360
 6089SOL    HW219167   0.270   3.573   1.246
 6090SOL     OW19168   0.614   5.416   5.190
 6090SOL    HW119169   0.677   5.402   5.113
 6090SOL    HW219170   0.570   5.505   5.182
 6091SOL     OW19171   6.257   1.528   1.941
 6091SOL    HW119172   6.307   1.482   1.868
 6091SOL    HW219173   6.254   1.470   2.022
 6092SOL     OW19174   2.149   1.429   2.714
 6092SOL    HW119175   2.106   1.450   2.802
 6092SOL    HW219176   2.211   1.352   2.724
 6093SOL     OW19177   1.285   2.495   1.208
 6093SOL    HW119178   1.319   2.574   1.260
 6093SOL    HW219179   1.341   2.483   1.126
 6094SOL     OW19180   0.583   1.070   1.325
 6094SOL    HW119181   0.538   1.118   1.400
 6094SOL    HW219182   0.513   1.033   1.263
 6095SOL     OW19183   6.569   3.418   6.285
 6095SOL    HW119184   6.469   3.420   6.273
 6095SOL    HW219185   6.603   3.327   6.264
 6096SOL     OW19186   3.925   2.223   3.522
 6096SOL    HW119187   3.854   2.218   3.592
 6096SOL    HW219188   3.889   2.188   3.435
 6097SOL     OW19189   2.793   1.232   2.117
 6097SOL    HW119190   2.804   1.253   2.019
 6097SOL    HW219191   2.866   1.277   2.168
 6098SOL     OW19192   2.265   2.402   5.713
 6098SOL    HW119193   2.245   2.487   5.761
 6098SOL    HW219194   2.339   2.417   5.648
 6099SOL     OW19195   5.973   6.119   5.107
 6099SOL    HW119196   5.966   6.169   5.021
 6099SOL    HW219197   5.955   6.022   5.091
 6100SOL     OW19198   6.302   2.541   0.053
 6100SOL    HW119199   6.337   2.513   0.143
 6100SOL    HW219200   6.215   2.496   0.036
 6101SOL     OW19201   6.753   1.134   5.485
 6101SOL    HW119202   6.701   1.132   5.571
 6101SOL    HW219203   6.760   1.042   5.448
 6102SOL     OW19204   2.880   0.792   4.743
 6102SOL    HW119205   2.809   0.767   4.677
 6102SOL    HW219206   2.918   0.709   4.785
 6103SOL     OW19207   6.429   6.638   5.327
 6103SOL    HW119208   6.380   6.611   5.409
 6103SOL    HW219209   6.453   6.735   5.332
 6104SOL     OW19210   6.251   1.727   6.747
 6104SOL    HW119211   6.281   1.652   6.806
 6104SOL    HW219212   6.185   1.693   6.680
 6105SOL     OW19213   3.211   5.915   5.058
 6105SOL    HW119214   3.129   5.869   5.023
 6105SOL    HW219215   3.291   5.883   5.008
 6106SOL     OW19216   3.440   4.867   5.885
 6106SOL    HW119217   3.460   4.770   5.871
 6106SOL    HW219218   3.396   4.904   5.803
 6107SOL     OW19219   1.891   4.805   5.013
 6107SOL    HW119220   1.811   4.834   5.066
 6107SOL    HW219221   1.879   4.711   4.983
 6108SOL     OW19222   0.760   2.134   4.404
 6108SOL    HW119223   0.843   2.158   4.353
 6108SOL    HW219224   0.784   2.115   4.499
 6109SOL     OW19225   5.894   3.636   0.973
 6109SOL    HW119226   5.926   3.546   0.942
 6109SOL    HW219227   5.837   3.677   0.902
 6110SOL     OW19228   3.334   1.780   4.687
 6110SOL    HW119229   3.307   1.823   4.773
 6110SOL    HW219230   3.342   1.849   4.616
 6111SOL     OW19231   1.438   4.773   3.186
 6111SOL    HW119232   1.352   4.805   3.225
 6111SOL    HW219233   1.493   4.729   3.257
 6112SOL     OW19234   0.633   1.972   2.835
 6112SOL    HW119235   0.674   2.048   2.785
 6112SOL    HW219236   0.647   1.985   2.933
 6113SOL     OW19237   1.979   6.922   5.628
 6113SOL    HW119238   2.013   7.011   5.597
 6113SOL    HW219239   1.908   6.890   5.565
 6114SOL     OW19240   4.463   5.766   0.808
 6114SOL    HW119241   4.382   5.709   0.801
 6114SOL    HW219242   4.486   5.779   0.905
 6115SOL     OW19243   5.297   5.096   2.379
 6115SOL    HW119244   5.237   5.017   2.387
 6115SOL    HW219245   5.392   5.065   2.369
 6116SOL     OW19246   3.853   1.042   1.873
 6116SOL    HW119247   3.892   1.133   1.860
 6116SOL    HW219248   3.870   0.986   1.792
 6117SOL     OW19249   5.671   6.741   4.904
 6117SOL    HW119250   5.721   6.825   4.925
 6117SOL    HW219251   5.590   6.763   4.849
 6118SOL     OW19252   6.251   0.704   3.589
 6118SOL    HW119253   6.309   0.712   3.508
 6118SOL    HW219254   6.306   0.673   3.666
 6119SOL     OW19255   6.918   4.861   4.877
 6119SOL    HW119256   6.939   4.843   4.781
 6119SOL    HW219257   6.995   4.833   4.934
 6120SOL     OW19258   2.707   0.387   2.865
 6120SOL    HW119259   2.756   0.471   2.842
 6120SOL    HW219260   2.609   0.404   2.865
 6121SOL     OW19261   0.402   2.427   3.918
 6121SOL    HW119262   0.465   2.383   3.854
 6121SOL    HW219263   0.447   2.439   4.006
 6122SOL     OW19264   4.215   5.592   3.221
 6122SOL    HW119265   4.173   5.502   3.215
 6122SOL    HW219266   4.192   5.646   3.141
 6123SOL     OW19267   6.396   1.087   2.216
 6123SOL    HW119268   6.363   1.038   2.297
 6123SOL    HW219269   6.419   1.021   2.145
 6124SOL     OW19270   3.480   0.181   5.639
 6124SOL    HW119271   3.409   0.144   5.580
 6124SOL    HW219272   3.440   0.247   5.702
 6125SOL     OW19273   2.249   6.073   1.888
 6125SOL    HW119274   2.305   5.991   1.874
 6125SOL    HW219275   2.181   6.055   1.958
 6126SOL     OW19276   5.255   5.026   2.957
 6126SOL    HW119277   5.313   5.102   2.986
 6126SOL    HW219278   5.201   5.053   2.878
 6127SOL     OW19279   1.842   6.087   1.595
 6127SOL    HW119280   1.863   6.047   1.684
 6127SOL    HW219281   1.920   6.075   1.534
 6128SOL     OW19282   6.160   2.076   0.351
 6128SOL    HW119283   6.112   2.163   0.361
 6128SOL    HW219284   6.117   2.022   0.278
 6129SOL     OW19285   6.158   4.347   3.192
 6129SOL    HW119286   6.179   4.317   3.286
 6129SOL    HW219287   6.137   4.267   3.136
 6130SOL     OW19288   5.178   3.354   2.681
 6130SOL    HW119289   5.219   3.347   2.591
 6130SOL    HW219290   5.250   3.355   2.751
 6131SOL     OW19291   6.218   1.287   5.699
 6131SOL    HW119292   6.181   1.226   5.628
 6131SOL    HW219293   6.318   1.287   5.693
 6132SOL     OW19294   4.164   2.928   0.455
 6132SOL    HW119295   4.227   2.917   0.531
 6132SOL    HW219296   4.183   3.015   0.408
 6133SOL     OW19297   1.024   4.150   1.573
 6133SOL    HW119298   1.029   4.109   1.482
 6133SOL    HW219299   0.941   4.205   1.579
 6134SOL     OW19300   4.609   3.766   6.548
 6134SOL    HW119301   4.566   3.698   6.607
 6134SOL    HW219302   4.550   3.786   6.470
 6135SOL     OW19303   6.021   6.807   1.545
 6135SOL    HW119304   5.990   6.840   1.455
 6135SOL    HW219305   6.024   6.707   1.544
 6136SOL     OW19306   1.255   1.874   1.925
 6136SOL    HW119307   1.167   1.838   1.955
 6136SOL    HW219308   1.328   1.813   1.956
 6137SOL     OW19309   3.123   6.451   5.617
 6137SOL    HW119310   3.024   6.460   5.626
 6137SOL    HW219311   3.145   6.369   5.563
 6138SOL     OW19312   3.743   5.755   3.215
 6138SOL    HW119313   3.791   5.668   3.229
 6138SOL    HW219314   3.749   5.781   3.119
 6139SOL     OW19315   1.473   4.758   4.677
 6139SOL    HW119316   1.466   4.678   4.618
 6139SOL    HW219317   1.569   4.775   4.698
 6140SOL     OW19318   1.488   6.815   1.310
 6140SOL    HW119319   1.420   6.825   1.383
 6140SOL    HW219320   1.471   6.884   1.239
 6141SOL     OW19321   6.572   5.545   6.225
 6141SOL    HW119322   6.660   5.497   6.223
 6141SOL    HW219323   6.587   5.642   6.206
 6142SOL     OW19324   0.092   4.210   1.078
 6142SOL    HW119325   0.000   4.210   1.039
 6142SOL    HW219326   0.152   4.268   1.022
 6143SOL     OW19327   5.692   4.951   6.681
 6143SOL    HW119328   5.690   5.048   6.657
 6143SOL    HW219329   5.703   4.895   6.599
 6144SOL     OW19330   0.485   4.324   4.242
 6144SOL    HW119331   0.439   4.412   4.233
 6144SOL    HW219332   0.523   4.298   4.153
 6145SOL     OW19333   5.322   5.679   2.886
 6145SOL    HW119334   5.314   5.637   2.976
 6145SOL    HW219335   5.328   5.779   2.897
 6146SOL     OW19336   5.595   1.319   3.544
 6146SOL    HW119337   5.543   1.253   3.491
 6146SOL    HW219338   5.688   1.327   3.506
 6147SOL     OW19339   2.101   3.494   2.464
 6147SOL    HW119340   2.067   3.509   2.557
 6147SOL    HW219341   2.154   3.573   2.435
 6148SOL     OW19342   6.257   6.141   4.490
 6148SOL    HW119343   6.350   6.168   4.513
 6148SOL    HW219344   6.252   6.042   4.478
 6149SOL     OW19345   3.222   5.534   3.101
 6149SOL    HW119346   3.318   5.521   3.078
 6149SOL    HW219347   3.169   5.456   3.067
 6150SOL     OW19348   4.760   5.831   5.920
 6150SOL    HW119349   4.825   5.901   5.890
 6150SOL    HW219350   4.678   5.835   5.863
 6151SOL     OW19351   5.188   2.534   5.583
 6151SOL    HW119352   5.170   2.485   5.497
 6151SOL    HW219353   5.265   2.492   5.630
 6152SOL     OW19354   6.436   4.521   6.428
 6152SOL    HW119355   6.453   4.494   6.523
 6152SOL    HW219356   6.523   4.537   6.382
 6153SOL     OW19357   3.961   3.710   1.494
 6153SOL    HW119358   3.931   3.804   1.479
 6153SOL    HW219359   3.883   3.649   1.484
 6154SOL     OW19360   5.091   3.103   3.059
 6154SOL    HW119361   5.111   3.059   2.971
 6154SOL    HW219362   5.137   3.054   3.133
 6155SOL     OW19363   0.378   3.756   5.109
 6155SOL    HW119364   0.434   3.676   5.132
 6155SOL    HW219365   0.331   3.788   5.190
 6156SOL     OW19366   6.255   6.968   3.727
 6156SOL    HW119367   6.315   0.002   3.667
 6156SOL    HW219368   6.308   6.897   3.773
 6157SOL     OW19369   2.353   0.984   3.966
 6157SOL    HW119370   2.269   0.929   3.967
 6157SOL    HW219371   2.379   1.007   4.060
 6158SOL     OW19372   4.684   1.294   5.961
 6158SOL    HW119373   4.589   1.311   5.936
 6158SOL    HW219374   4.744   1.320   5.885
 6159SOL     OW19375   5.301   3.289   0.025
 6159SOL    HW119376   5.346   3.354   6.984
 6159SOL    HW219377   5.333   3.197   0.005
 6160SOL     OW19378   5.758   5.857   1.967
 6160SOL    HW119379   5.854   5.871   1.943
 6160SOL    HW219380   5.700   5.872   1.886
 6161SOL     OW19381   5.638   0.209   6.046
 6161SOL    HW119382   5.539   0.215   6.037
 6161SOL    HW219383   5.665   0.113   6.054
 6162SOL     OW19384   6.446   4.780   4.707
 6162SOL    HW119385   6.460   4.740   4.616
 6162SOL    HW219386   6.432   4.707   4.774
 6163SOL     OW19387   6.584   4.275   1.878
 6163SOL    HW119388   6.585   4.282   1.978
 6163SOL    HW219389   6.647   4.202   1.849
 6164SOL     OW19390   3.791   2.084   1.144
 6164SOL    HW119391   3.714   2.034   1.104
 6164SOL    HW219392   3.845   2.023   1.201
 6165SOL     OW19393   3.393   5.889   0.047
 6165SOL    HW119394   3.486   5.918   0.024
 6165SOL    HW219395   3.351   5.844   6.988
 6166SOL     OW19396   2.869   1.515   5.849
 6166SOL    HW119397   2.798   1.490   5.783
 6166SOL    HW219398   2.827   1.542   5.936
 6167SOL     OW19399   0.464   3.996   3.579
 6167SOL    HW119400   0.395   3.987   3.507
 6167SOL    HW219401   0.536   3.928   3.565
 6168SOL     OW19402   0.308   3.839   2.493
 6168SOL    HW119403   0.223   3.791   2.471
 6168SOL    HW219404   0.347   3.878   2.409
 6169SOL     OW19405   1.903   4.009   2.268
 6169SOL    HW119406   1.919   3.926   2.214
 6169SOL    HW219407   1.823   3.996   2.326
 6170SOL     OW19408   0.575   3.200   5.411
 6170SOL    HW119409   0.502   3.140   5.378
 6170SOL    HW219410   0.629   3.232   5.333
 6171SOL     OW19411   6.958   0.577   6.539
 6171SOL    HW119412   6.933   0.666   6.578
 6171SOL    HW219413   6.892   0.508   6.568
 6172SOL     OW19414   0.421   3.586   2.924
 6172SOL    HW119415   0.423   3.621   2.830
 6172SOL    HW219416   0.352   3.636   2.976
 6173SOL     OW19417   6.669   6.895   3.250
 6173SOL    HW119418   6.674   6.912   3.348
 6173SOL    HW219419   6.577   6.862   3.227
 6174SOL     OW19420   5.524   3.990   2.874
 6174SOL    HW119421   5.537   3.951   2.966
 6174SOL    HW219422   5.517   4.090   2.881
 6175SOL     OW19423   2.588   1.993   5.645
 6175SOL    HW119424   2.491   2.006   5.627
 6175SOL    HW219425   2.632   2.082   5.655
 6176SOL     OW19426   4.064   4.128   5.314
 6176SOL    HW119427   4.144   4.188   5.321
 6176SOL    HW219428   3.989   4.177   5.268
 6177SOL     OW19429   5.908   0.685   1.652
 6177SOL    HW119430   5.999   0.683   1.693
 6177SOL    HW219431   5.914   0.725   1.560
 6178SOL     OW19432   4.307   4.338   1.430
 6178SOL    HW119433   4.310   4.270   1.503
 6178SOL    HW219434   4.228   4.321   1.371
 6179SOL     OW19435   5.558   4.924   2.953
 6179SOL    HW119436   5.647   4.886   2.928
 6179SOL    HW219437   5.570   4.995   3.023
 6180SOL     OW19438   2.759   4.225   0.156
 6180SOL    HW119439   2.760   4.176   0.069
 6180SOL    HW219440   2.812   4.175   0.224
 6181SOL     OW19441   4.770   5.125   6.117
 6181SOL    HW119442   4.736   5.102   6.026
 6181SOL    HW219443   4.838   5.057   6.146
 6182SOL     OW19444   3.230   3.080   0.308
 6182SOL    HW119445   3.257   2.985   0.328
 6182SOL    HW219446   3.146   3.079   0.253
 6183SOL     OW19447   0.819   1.838   1.596
 6183SOL    HW119448   0.838   1.886   1.682
 6183SOL    HW219449   0.904   1.832   1.543
 6184SOL     OW19450   2.528   0.264   6.002
 6184SOL    HW119451   2.493   0.231   5.914
 6184SOL    HW219452   2.539   0.363   5.999
 6185SOL     OW19453   3.209   2.863   5.542
 6185SOL    HW119454   3.297   2.827   5.511
 6185SOL    HW219455   3.140   2.791   5.539
 6186SOL     OW19456   6.516   1.437   2.113
 6186SOL    HW119457   6.584   1.369   2.141
 6186SOL    HW219458   6.425   1.396   2.117
 6187SOL     OW19459   5.645   1.860   5.366
 6187SOL    HW119460   5.607   1.794   5.301
 6187SOL    HW219461   5.656   1.948   5.321
 6188SOL     OW19462   1.382   2.075   5.391
 6188SOL    HW119463   1.446   2.049   5.318
 6188SOL    HW219464   1.421   2.048   5.479
 6189SOL     OW19465   6.316   6.107   2.332
 6189SOL    HW119466   6.344   6.015   2.303
 6189SOL    HW219467   6.394   6.168   2.331
 6190SOL     OW19468   0.150   2.442   5.668
 6190SOL    HW119469   0.207   2.377   5.618
 6190SOL    HW219470   0.185   2.534   5.653
 6191SOL     OW19471   3.813   3.367   6.467
 6191SOL    HW119472   3.801   3.352   6.369
 6191SOL    HW219473   3.858   3.455   6.483
 6192SOL     OW19474   2.801   1.297   0.054
 6192SOL    HW119475   2.831   1.366   0.120
 6192SOL    HW219476   2.881   1.254   0.013
 6193SOL     OW19477   4.441   5.412   6.718
 6193SOL    HW119478   4.376   5.366   6.657
 6193SOL    HW219479   4.514   5.453   6.664
 6194SOL     OW19480   6.381   0.137   5.885
 6194SOL    HW119481   6.481   0.132   5.877
 6194SOL    HW219482   6.352   0.232   5.875
 6195SOL     OW19483   6.818   6.747   6.028
 6195SOL    HW119484   6.752   6.729   6.101
 6195SOL    HW219485   6.887   6.675   6.027
 6196SOL     OW19486   5.768   3.804   3.294
 6196SOL    HW119487   5.796   3.747   3.216
 6196SOL    HW219488   5.705   3.752   3.352
 6197SOL     OW19489   3.265   5.875   1.634
 6197SOL    HW119490   3.283   5.871   1.732
 6197SOL    HW219491   3.191   5.811   1.611
 6198SOL     OW19492   6.379   6.739   6.406
 6198SOL    HW119493   6.365   6.675   6.481
 6198SOL    HW219494   6.296   6.745   6.351
 6199SOL     OW19495   1.381   0.445   0.653
 6199SOL    HW119496   1.436   0.460   0.571
 6199SOL    HW219497   1.441   0.421   0.729
 6200SOL     OW19498   1.787   2.225   2.756
 6200SOL    HW119499   1.881   2.254   2.776
 6200SOL    HW219500   1.786   2.127   2.736
 6201SOL     OW19501   6.899   3.825   3.903
 6201SOL    HW119502   6.918   3.778   3.990
 6201SOL    HW219503   6.983   3.867   3.869
 6202SOL     OW19504   6.530   1.296   2.679
 6202SOL    HW119505   6.496   1.389   2.691
 6202SOL    HW219506   6.595   1.294   2.603
 6203SOL     OW19507   6.672   6.337   2.054
 6203SOL    HW119508   6.721   6.252   2.075
 6203SOL    HW219509   6.736   6.414   2.057
 6204SOL     OW19510   2.573   6.806   5.222
 6204SOL    HW119511   2.636   6.842   5.153
 6204SOL    HW219512   2.553   6.877   5.289
 6205SOL     OW19513   5.104   4.388   3.258
 6205SOL    HW119514   5.039   4.347   3.322
 6205SOL    HW219515   5.129   4.479   3.289
 6206SOL     OW19516   5.184   2.194   3.718
 6206SOL    HW119517   5.223   2.103   3.732
 6206SOL    HW219518   5.247   2.249   3.664
 6207SOL     OW19519   2.055   5.146   4.454
 6207SOL    HW119520   2.000   5.214   4.406
 6207SOL    HW219521   2.151   5.171   4.448
 6208SOL     OW19522   3.666   3.339   5.581
 6208SOL    HW119523   3.628   3.423   5.543
 6208SOL    HW219524   3.638   3.261   5.524
 6209SOL     OW19525   3.501   3.047   0.744
 6209SOL    HW119526   3.542   3.092   0.824
 6209SOL    HW219527   3.414   3.091   0.722
 6210SOL     OW19528   4.696   1.766   3.918
 6210SOL    HW119529   4.728   1.858   3.897
 6210SOL    HW219530   4.775   1.706   3.935
 6211SOL     OW19531   5.639   4.833   4.931
 6211SOL    HW119532   5.664   4.787   4.846
 6211SOL    HW219533   5.722   4.858   4.981
 6212SOL     OW19534   4.283   4.687   5.410
 6212SOL    HW119535   4.318   4.744   5.336
 6212SOL    HW219536   4.192   4.719   5.437
 6213SOL     OW19537   3.960   6.043   0.124
 6213SOL    HW119538   3.948   5.988   0.041
 6213SOL    HW219539   3.950   6.140   0.101
 6214SOL     OW19540   5.851   5.561   6.401
 6214SOL    HW119541   5.888   5.569   6.309
 6214SOL    HW219542   5.920   5.589   6.468
 6215SOL     OW19543   5.911   2.601   5.856
 6215SOL    HW119544   5.989   2.539   5.867
 6215SOL    HW219545   5.829   2.548   5.836
 6216SOL     OW19546   4.626   2.180   2.758
 6216SOL    HW119547   4.721   2.182   2.789
 6216SOL    HW219548   4.577   2.106   2.803
 6217SOL     OW19549   0.596   4.600   2.056
 6217SOL    HW119550   0.522   4.600   1.989
 6217SOL    HW219551   0.663   4.529   2.033
 6218SOL     OW19552   4.731   6.576   6.678
 6218SOL    HW119553   4.660   6.608   6.614
 6218SOL    HW219554   4.718   6.619   6.767
 6219SOL     OW19555   1.098   0.783   6.261
 6219SOL    HW119556   1.013   0.827   6.231
 6219SOL    HW219557   1.082   0.734   6.346
 6220SOL     OW19558   4.100   0.643   0.987
 6220SOL    HW119559   4.127   0.727   1.034
 6220SOL    HW219560   4.005   0.621   1.010
 6221SOL     OW19561   6.088   5.616   6.528
 6221SOL    HW119562   6.146   5.536   6.516
 6221SOL    HW219563   6.140   5.698   6.504
 6222SOL     OW19564   6.289   1.291   2.088
 6222SOL    HW119565   6.304   1.228   2.164
 6222SOL    HW219566   6.279   1.239   2.003
 6223SOL     OW19567   0.074   4.867   3.322
 6223SOL    HW119568   6.999   4.874   3.292
 6223SOL    HW219569   0.130   4.936   3.275
 6224SOL     OW19570   3.853   1.286   6.468
 6224SOL    HW119571   3.946   1.315   6.448
 6224SOL    HW219572   3.852   1.234   6.554
 6225SOL     OW19573   4.680   6.285   6.611
 6225SOL    HW119574   4.681   6.384   6.625
 6225SOL    HW219575   4.715   6.239   6.693
 6226SOL     OW19576   1.516   1.213   4.701
 6226SOL    HW119577   1.585   1.250   4.639
 6226SOL    HW219578   1.433   1.269   4.696
 6227SOL     OW19579   2.870   4.031   5.686
 6227SOL    HW119580   2.803   3.999   5.618
 6227SOL    HW219581   2.904   4.121   5.658
 6228SOL     OW19582   1.463   3.311   4.235
 6228SOL    HW119583   1.532   3.290   4.304
 6228SOL    HW219584   1.447   3.230   4.178
 6229SOL     OW19585   0.558   3.982   4.072
 6229SOL    HW119586   0.524   3.960   4.164
 6229SOL    HW219587   0.627   3.915   4.045
 6230SOL     OW19588   0.265   0.814   2.099
 6230SOL    HW119589   0.205   0.776   2.169
 6230SOL    HW219590   0.254   0.762   2.014
 6231SOL     OW19591   1.284   5.347   0.086
 6231SOL    HW119592   1.380   5.365   0.104
 6231SOL    HW219593   1.253   5.270   0.142
 6232SOL     OW19594   4.079   1.080   6.296
 6232SOL    HW119595   4.067   1.027   6.212
 6232SOL    HW219596   4.056   1.176   6.279
 6233SOL     OW19597   6.993   3.735   1.616
 6233SOL    HW119598   0.002   3.658   1.558
 6233SOL    HW219599   6.899   3.760   1.594
 6234SOL     OW19600   4.678   6.314   4.977
 6234SOL    HW119601   4.619   6.321   4.896
 6234SOL    HW219602   4.730   6.399   4.987
 6235SOL     OW19603   6.671   0.747   2.933
 6235SOL    HW119604   6.609   0.674   2.963
 6235SOL    HW219605   6.699   0.801   3.013
 6236SOL     OW19606   1.099   5.378   0.925
 6236SOL    HW119607   1.022   5.334   0.972
 6236SOL    HW219608   1.129   5.457   0.979
 6237SOL     OW19609   3.752   1.767   0.715
 6237SOL    HW119610   3.661   1.735   0.742
 6237SOL    HW219611   3.822   1.710   0.759
 6238SOL     OW19612   2.411   6.651   4.466
 6238SOL    HW119613   2.395   6.557   4.492
 6238SOL    HW219614   2.493   6.685   4.512
 6239SOL     OW19615   4.611   1.387   3.277
 6239SOL    HW119616   4.644   1.397   3.371
 6239SOL    HW219617   4.686   1.404   3.214
 6240SOL     OW19618   4.090   3.581   4.141
 6240SOL    HW119619   4.138   3.554   4.225
 6240SOL    HW219620   4.005   3.627   4.165
 6241SOL     OW19621   3.875   0.440   2.766
 6241SOL    HW119622   3.957   0.496   2.771
 6241SOL    HW219623   3.794   0.499   2.770
 6242SOL     OW19624   2.713   2.073   3.963
 6242SOL    HW119625   2.762   2.004   3.910
 6242SOL    HW219626   2.777   2.143   3.995
 6243SOL     OW19627   5.034   1.010   5.864
 6243SOL    HW119628   5.039   1.108   5.844
 6243SOL    HW219629   5.078   0.959   5.790
 6244SOL     OW19630   4.395   4.678   2.914
 6244SOL    HW119631   4.320   4.715   2.859
 6244SOL    HW219632   4.416   4.585   2.883
 6245SOL     OW19633   0.560   4.324   2.534
 6245SOL    HW119634   0.522   4.391   2.470
 6245SOL    HW219635   0.489   4.258   2.559
 6246SOL     OW19636   6.701   6.384   4.435
 6246SOL    HW119637   6.627   6.361   4.373
 6246SOL    HW219638   6.703   6.318   4.511
 6247SOL     OW19639   6.300   6.748   2.411
 6247SOL    HW119640   6.373   6.694   2.369
 6247SOL    HW219641   6.262   6.697   2.488
 6248SOL     OW19642   3.201   3.087   6.077
 6248SOL    HW119643   3.260   3.100   6.156
 6248SOL    HW219644   3.249   3.115   5.994
 6249SOL     OW19645   6.226   3.277   1.685
 6249SOL    HW119646   6.131   3.247   1.688
 6249SOL    HW219647   6.235   3.352   1.619
 6250SOL     OW19648   6.722   0.011   0.268
 6250SOL    HW119649   6.737   0.109   0.288
 6250SOL    HW219650   6.626   7.015   0.247
 6251SOL     OW19651   2.675   6.738   4.273
 6251SOL    HW119652   2.720   6.714   4.359
 6251SOL    HW219653   2.715   6.686   4.198
 6252SOL     OW19654   2.845   5.458   6.618
 6252SOL    HW119655   2.798   5.372   6.637
 6252SOL    HW219656   2.925   5.440   6.560
 6253SOL     OW19657   3.654   4.996   4.756
 6253SOL    HW119658   3.690   4.966   4.668
 6253SOL    HW219659   3.559   4.965   4.766
 6254SOL     OW19660   0.551   6.929   1.364
 6254SOL    HW119661   0.505   6.957   1.448
 6254SOL    HW219662   0.532   6.996   1.291
 6255SOL     OW19663   0.475   1.016   2.157
 6255SOL    HW119664   0.455   1.087   2.089
 6255SOL    HW219665   0.420   0.935   2.139
 6256SOL     OW19666   4.767   5.774   1.992
 6256SOL    HW119667   4.851   5.811   2.033
 6256SOL    HW219668   4.690   5.789   2.054
 6257SOL     OW19669   3.593   4.076   1.442
 6257SOL    HW119670   3.516   4.119   1.394
 6257SOL    HW219671   3.558   4.020   1.516
 6258SOL     OW19672   3.930   5.775   5.326
 6258SOL    HW119673   3.876   5.735   5.252
 6258SOL    HW219674   3.968   5.863   5.296
 6259SOL     OW19675   2.981   0.422   4.533
 6259SOL    HW119676   2.905   0.435   4.597
 6259SOL    HW219677   3.003   0.325   4.528
 6260SOL     OW19678   1.937   1.605   0.466
 6260SOL    HW119679   1.951   1.704   0.460
 6260SOL    HW219680   2.018   1.558   0.432
 6261SOL     OW19681   3.394   0.342   0.995
 6261SOL    HW119682   3.391   0.277   1.070
 6261SOL    HW219683   3.334   0.420   1.015
 6262SOL     OW19684   6.251   0.155   2.484
 6262SOL    HW119685   6.312   0.081   2.455
 6262SOL    HW219686   6.276   0.239   2.436
 6263SOL     OW19687   5.798   5.804   6.161
 6263SOL    HW119688   5.838   5.719   6.127
 6263SOL    HW219689   5.699   5.801   6.149
 6264SOL     OW19690   1.709   0.052   0.582
 6264SOL    HW119691   1.724   0.142   0.625
 6264SOL    HW219692   1.616   0.047   0.548
 6265SOL     OW19693   4.777   0.746   0.080
 6265SOL    HW119694   4.700   0.761   0.142
 6265SOL    HW219695   4.752   0.677   0.012
 6266SOL     OW19696   2.224   5.012   2.621
 6266SOL    HW119697   2.199   5.108   2.611
 6266SOL    HW219698   2.266   4.999   2.711
 6267SOL     OW19699   1.659   6.333   5.049
 6267SOL    HW119700   1.703   6.407   5.100
 6267SOL    HW219701   1.617   6.269   5.113
 6268SOL     OW19702   3.332   1.431   1.350
 6268SOL    HW119703   3.407   1.381   1.394
 6268SOL    HW219704   3.304   1.508   1.408
 6269SOL     OW19705   6.286   5.346   0.395
 6269SOL    HW119706   6.267   5.444   0.406
 6269SOL    HW219707   6.213   5.305   0.340
 6270SOL     OW19708   2.037   6.562   0.314
 6270SOL    HW119709   2.027   6.543   0.216
 6270SOL    HW219710   2.130   6.539   0.342
 6271SOL     OW19711   5.848   3.245   6.453
 6271SOL    HW119712   5.841   3.228   6.552
 6271SOL    HW219713   5.764   3.215   6.408
 6272SOL     OW19714   0.697   6.671   1.001
 6272SOL    HW119715   0.603   6.704   0.998
 6272SOL    HW219716   0.702   6.587   1.056
 6273SOL     OW19717   0.442   6.687   1.273
 6273SOL    HW119718   0.469   6.773   1.317
 6273SOL    HW219719   0.468   6.610   1.332
 6274SOL     OW19720   3.238   5.750   4.240
 6274SOL    HW119721   3.257   5.693   4.320
 6274SOL    HW219722   3.312   5.740   4.173
 6275SOL     OW19723   1.932   5.503   6.926
 6275SOL    HW119724   1.881   5.541   6.849
 6275SOL    HW219725   2.005   5.567   6.951
 6276SOL     OW19726   1.473   5.474   2.996
 6276SOL    HW119727   1.435   5.449   3.085
 6276SOL    HW219728   1.559   5.524   3.010
 6277SOL     OW19729   5.148   3.576   0.913
 6277SOL    HW119730   5.137   3.521   0.996
 6277SOL    HW219731   5.061   3.619   0.890
 6278SOL     OW19732   2.489   1.347   6.291
 6278SOL    HW119733   2.486   1.251   6.263
 6278SOL    HW219734   2.428   1.361   6.369
 6279SOL     OW19735   2.451   0.121   1.571
 6279SOL    HW119736   2.364   0.085   1.537
 6279SOL    HW219737   2.444   0.139   1.669
 6280SOL     OW19738   6.443   2.260   0.526
 6280SOL    HW119739   6.424   2.269   0.428
 6280SOL    HW219740   6.360   2.278   0.578
 6281SOL     OW19741   5.737   3.781   5.896
 6281SOL    HW119742   5.797   3.752   5.971
 6281SOL    HW219743   5.707   3.701   5.845
 6282SOL     OW19744   0.224   3.137   5.898
 6282SOL    HW119745   0.316   3.145   5.859
 6282SOL    HW219746   0.227   3.166   5.994
 6283SOL     OW19747   0.906   6.009   4.499
 6283SOL    HW119748   0.815   6.001   4.539
 6283SOL    HW219749   0.968   5.946   4.545
 6284SOL     OW19750   1.893   4.526   6.512
 6284SOL    HW119751   1.986   4.558   6.526
 6284SOL    HW219752   1.877   4.509   6.415
 6285SOL     OW19753   0.790   3.719   3.151
 6285SOL    HW119754   0.887   3.712   3.125
 6285SOL    HW219755   0.744   3.784   3.091
 6286SOL     OW19756   0.722   2.422   6.936
 6286SOL    HW119757   0.638   2.474   6.921
 6286SOL    HW219758   0.717   2.336   6.884
 6287SOL     OW19759   5.058   5.009   4.823
 6287SOL    HW119760   5.012   5.081   4.772
 6287SOL    HW219761   5.098   4.943   4.760
 6288SOL     OW19762   3.357   3.233   6.548
 6288SOL    HW119763   3.281   3.284   6.508
 6288SOL    HW219764   3.348   3.233   6.648
 6289SOL     OW19765   2.519   4.461   5.815
 6289SOL    HW119766   2.587   4.532   5.795
 6289SOL    HW219767   2.487   4.421   5.728
 6290SOL     OW19768   5.524   5.789   3.963
 6290SOL    HW119769   5.425   5.799   3.949
 6290SOL    HW219770   5.555   5.856   4.031
 6291SOL     OW19771   3.977   3.824   3.015
 6291SOL    HW119772   3.979   3.876   3.100
 6291SOL    HW219773   4.014   3.732   3.031
 6292SOL     OW19774   1.228   3.392   4.338
 6292SOL    HW119775   1.308   3.346   4.299
 6292SOL    HW219776   1.206   3.352   4.427
 6293SOL     OW19777   3.580   1.101   6.447
 6293SOL    HW119778   3.627   1.104   6.535
 6293SOL    HW219779   3.645   1.074   6.375
 6294SOL     OW19780   1.508   1.541   3.217
 6294SOL    HW119781   1.413   1.522   3.239
 6294SOL    HW219782   1.568   1.482   3.271
 6295SOL     OW19783   5.365   3.628   6.111
 6295SOL    HW119784   5.416   3.701   6.156
 6295SOL    HW219785   5.383   3.630   6.013
 6296SOL     OW19786   0.669   2.777   7.017
 6296SOL    HW119787   0.694   2.723   0.078
 6296SOL    HW219788   0.740   2.845   7.000
 6297SOL     OW19789   5.764   0.968   4.038
 6297SOL    HW119790   5.787   1.004   3.948
 6297SOL    HW219791   5.822   1.010   4.108
 6298SOL     OW19792   6.300   5.637   0.694
 6298SOL    HW119793   6.381   5.644   0.751
 6298SOL    HW219794   6.326   5.649   0.598
 6299SOL     OW19795   4.153   1.429   2.285
 6299SOL    HW119796   4.054   1.419   2.285
 6299SOL    HW219797   4.195   1.340   2.301
 6300SOL     OW19798   2.813   1.192   6.089
 6300SOL    HW119799   2.768   1.280   6.072
 6300SOL    HW219800   2.852   1.158   6.003
 6301SOL     OW19801   3.564   6.242   6.858
 6301SOL    HW119802   3.494   6.262   6.926
 6301SOL    HW219803   3.594   6.147   6.867
 6302SOL     OW19804   3.154   2.199   6.440
 6302SOL    HW119805   3.098   2.280   6.454
 6302SOL    HW219806   3.100   2.117   6.461
 6303SOL     OW19807   1.002   6.017   5.078
 6303SOL    HW119808   0.948   6.020   5.162
 6303SOL    HW219809   0.973   5.939   5.022
 6304SOL     OW19810   4.212   0.957   3.655
 6304SOL    HW119811   4.239   0.982   3.561
 6304SOL    HW219812   4.128   1.004   3.680
 6305SOL     OW19813   1.076   6.202   6.073
 6305SOL    HW119814   1.061   6.136   6.146
 6305SOL    HW219815   1.161   6.252   6.089
 6306SOL     OW19816   0.004   4.726   4.387
 6306SOL    HW119817   0.071   4.779   4.335
 6306SOL    HW219818   6.955   4.688   4.324
 6307SOL     OW19819   4.111   3.590   3.087
 6307SOL    HW119820   4.122   3.569   3.185
 6307SOL    HW219821   4.152   3.517   3.033
 6308SOL     OW19822   0.206   2.435   0.667
 6308SOL    HW119823   0.227   2.455   0.762
 6308SOL    HW219824   0.210   2.336   0.652
 6309SOL     OW19825   2.353   6.185   4.864
 6309SOL    HW119826   2.254   6.195   4.878
 6309SOL    HW219827   2.394   6.276   4.853
 6310SOL     OW19828   1.415   6.851   3.269
 6310SOL    HW119829   1.411   6.758   3.233
 6310SOL    HW219830   1.373   6.914   3.203
 6311SOL     OW19831   5.417   0.893   5.909
 6311SOL    HW119832   5.486   0.918   5.978
 6311SOL    HW219833   5.335   0.860   5.955
 6312SOL     OW19834   3.585   5.929   6.681
 6312SOL    HW119835   3.643   5.867   6.628
 6312SOL    HW219836   3.585   6.019   6.639
 6313SOL     OW19837   5.792   5.462   4.582
 6313SOL    HW119838   5.746   5.547   4.608
 6313SOL    HW219839   5.763   5.435   4.490
 6314SOL     OW19840   1.816   0.177   2.478
 6314SOL    HW119841   1.842   0.264   2.436
 6314SOL    HW219842   1.860   0.102   2.430
 6315SOL     OW19843   2.029   2.817   4.596
 6315SOL    HW119844   1.949   2.836   4.654
 6315SOL    HW219845   2.112   2.850   4.641
 6316SOL     OW19846   5.002   0.945   4.689
 6316SOL    HW119847   5.028   1.041   4.689
 6316SOL    HW219848   5.034   0.901   4.773
 6317SOL     OW19849   5.273   4.917   1.494
 6317SOL    HW119850   5.285   4.819   1.512
 6317SOL    HW219851   5.193   4.950   1.544
 6318SOL     OW19852   7.011   6.610   6.663
 6318SOL    HW119853   6.913   6.620   6.647
 6318SOL    HW219854   0.035   6.700   6.662
 6319SOL     OW19855   5.266   0.746   4.196
 6319SOL    HW119856   5.231   0.791   4.114
 6319SOL    HW219857   5.343   0.687   4.171
 6320SOL     OW19858   6.288   0.419   5.727
 6320SOL    HW119859   6.309   0.500   5.672
 6320SOL    HW219860   6.194   0.424   5.760
 6321SOL     OW19861   5.955   2.270   6.734
 6321SOL    HW119862   5.865   2.291   6.697
 6321SOL    HW219863   5.949   2.190   6.794
 6322SOL     OW19864   1.210   1.463   2.062
 6322SOL    HW119865   1.275   1.483   1.988
 6322SOL    HW219866   1.229   1.523   2.140
 6323SOL     OW19867   2.468   4.142   1.484
 6323SOL    HW119868   2.481   4.064   1.422
 6323SOL    HW219869   2.414   4.212   1.439
 6324SOL     OW19870   4.764   1.633   0.945
 6324SOL    HW119871   4.733   1.728   0.952
 6324SOL    HW219872   4.753   1.602   0.851
 6325SOL     OW19873   1.550   3.107   4.046
 6325SOL    HW119874   1.633   3.128   4.099
 6325SOL    HW219875   1.568   3.123   3.949
 6326SOL     OW19876   5.509   4.763   6.105
 6326SOL    HW119877   5.492   4.666   6.126
 6326SOL    HW219878   5.558   4.770   6.019
 6327SOL     OW19879   6.885   0.774   4.097
 6327SOL    HW119880   6.979   0.765   4.063
 6327SOL    HW219881   6.852   0.866   4.079
 6328SOL     OW19882   4.385   3.403   5.312
 6328SOL    HW119883   4.452   3.472   5.286
 6328SOL    HW219884   4.302   3.415   5.258
 6329SOL     OW19885   0.977   2.279   6.032
 6329SOL    HW119886   1.004   2.187   6.062
 6329SOL    HW219887   0.894   2.273   5.977
 6330SOL     OW19888   5.404   1.632   3.403
 6330SOL    HW119889   5.361   1.547   3.372
 6330SOL    HW219890   5.488   1.609   3.453
 6331SOL     OW19891   1.105   3.260   3.672
 6331SOL    HW119892   1.202   3.284   3.677
 6331SOL    HW219893   1.084   3.218   3.584
 6332SOL     OW19894   3.444   1.473   0.089
 6332SOL    HW119895   3.455   1.497   0.185
 6332SOL    HW219896   3.519   1.512   0.036
 6333SOL     OW19897   5.272   1.989   0.700
 6333SOL    HW119898   5.322   1.951   0.778
 6333SOL    HW219899   5.335   2.043   0.644
 6334SOL     OW19900   1.558   1.371   2.450
 6334SOL    HW119901   1.586   1.372   2.546
 6334SOL    HW219902   1.469   1.325   2.442
 6335SOL     OW19903   6.420   1.642   0.141
 6335SOL    HW119904   6.503   1.588   0.152
 6335SOL    HW219905   6.361   1.629   0.221
 6336SOL     OW19906   0.890   3.321   5.879
 6336SOL    HW119907   0.940   3.275   5.953
 6336SOL    HW219908   0.798   3.343   5.911
 6337SOL     OW19909   4.924   5.429   5.339
 6337SOL    HW119910   5.008   5.424   5.393
 6337SOL    HW219911   4.847   5.397   5.393
 6338SOL     OW19912   2.410   1.223   3.186
 6338SOL    HW119913   2.461   1.292   3.237
 6338SOL    HW219914   2.389   1.146   3.247
 6339SOL     OW19915   0.592   4.661   3.548
 6339SOL    HW119916   0.508   4.684   3.498
 6339SOL    HW219917   0.570   4.593   3.618
 6340SOL     OW19918   2.246   4.209   0.802
 6340SOL    HW119919   2.306   4.141   0.845
 6340SOL    HW219920   2.273   4.300   0.832
 6341SOL     OW19921   0.335   5.002   3.423
 6341SOL    HW119922   0.432   5.024   3.431
 6341SOL    HW219923   0.325   4.910   3.383
 6342SOL     OW19924   2.237   1.584   1.444
 6342SOL    HW119925   2.207   1.546   1.356
 6342SOL    HW219926   2.180   1.546   1.517
 6343SOL     OW19927   1.300   5.763   1.229
 6343SOL    HW119928   1.305   5.663   1.221
 6343SOL    HW219929   1.392   5.801   1.216
 6344SOL     OW19930   6.799   1.051   4.113
 6344SOL    HW119931   6.837   1.115   4.046
 6344SOL    HW219932   6.706   1.026   4.085
 6345SOL     OW19933   5.726   3.571   2.039
 6345SOL    HW119934   5.741   3.585   1.942
 6345SOL    HW219935   5.628   3.573   2.059
 6346SOL     OW19936   6.640   4.134   5.442
 6346SOL    HW119937   6.700   4.165   5.516
 6346SOL    HW219938   6.628   4.207   5.375
 6347SOL     OW19939   1.852   2.000   3.299
 6347SOL    HW119940   1.752   1.998   3.287
 6347SOL    HW219941   1.882   1.912   3.335
 6348SOL     OW19942   0.345   2.024   6.275
 6348SOL    HW119943   0.363   2.023   6.177
 6348SOL    HW219944   0.363   1.934   6.313
 6349SOL     OW19945   7.009   1.258   6.982
 6349SOL    HW119946   6.993   1.317   6.903
 6349SOL    HW219947   0.060   1.191   6.959
 6350SOL     OW19948   0.961   5.163   1.988
 6350SOL    HW119949   1.055   5.180   1.958
 6350SOL    HW219950   0.899   5.223   1.937
 6351SOL     OW19951   5.729   2.884   1.927
 6351SOL    HW119952   5.670   2.811   1.891
 6351SOL    HW219953   5.700   2.907   2.020
 6352SOL     OW19954   3.162   0.632   4.520
 6352SOL    HW119955   3.231   0.597   4.584
 6352SOL    HW219956   3.094   0.561   4.503
 6353SOL     OW19957   3.252   6.192   5.715
 6353SOL    HW119958   3.330   6.212   5.655
 6353SOL    HW219959   3.279   6.123   5.782
 6354SOL     OW19960   4.808   5.460   1.681
 6354SOL    HW119961   4.818   5.556   1.707
 6354SOL    HW219962   4.730   5.420   1.730
 6355SOL     OW19963   2.275   4.777   0.964
 6355SOL    HW119964   2.290   4.823   0.877
 6355SOL    HW219965   2.362   4.740   0.997
 6356SOL     OW19966   6.244   4.739   6.461
 6356SOL    HW119967   6.298   4.819   6.432
 6356SOL    HW219968   6.302   4.658   6.460
 6357SOL     OW19969   5.757   1.000   1.686
 6357SOL    HW119970   5.685   1.063   1.716
 6357SOL    HW219971   5.824   1.049   1.631
 6358SOL     OW19972   1.392   2.043   6.185
 6358SOL    HW119973   1.415   2.125   6.239
 6358SOL    HW219974   1.401   1.962   6.243
 6359SOL     OW19975   5.640   6.622   0.540
 6359SOL    HW119976   5.542   6.612   0.560
 6359SOL    HW219977   5.670   6.546   0.483
 6360SOL     OW19978   0.749   2.199   2.249
 6360SOL    HW119979   0.692   2.138   2.304
 6360SOL    HW219980   0.698   2.227   2.167
 6361SOL     OW19981   0.212   0.684   6.642
 6361SOL    HW119982   0.151   0.676   6.721
 6361SOL    HW219983   0.207   0.600   6.588
 6362SOL     OW19984   1.617   5.772   0.721
 6362SOL    HW119985   1.598   5.700   0.787
 6362SOL    HW219986   1.577   5.858   0.754
 6363SOL     OW19987   2.314   4.322   3.213
 6363SOL    HW119988   2.276   4.301   3.303
 6363SOL    HW219989   2.275   4.260   3.145
 6364SOL     OW19990   2.300   2.878   4.387
 6364SOL    HW119991   2.285   2.831   4.300
 6364SOL    HW219992   2.267   2.972   4.381
 6365SOL     OW19993   5.766   5.971   2.985
 6365SOL    HW119994   5.742   5.949   3.080
 6365SOL    HW219995   5.707   6.045   2.953
 6366SOL     OW19996   6.252   0.093   4.932
 6366SOL    HW119997   6.224   0.027   4.862
 6366SOL    HW219998   6.304   0.167   4.890
 6367SOL     OW19999   1.901   2.190   2.113
 6367SOL    HW120000   1.852   2.180   2.200
 6367SOL    HW220001   1.964   2.113   2.102
 6368SOL     OW20002   4.869   3.032   4.421
 6368SOL    HW120003   4.838   2.954   4.365
 6368SOL    HW220004   4.887   3.001   4.514
 6369SOL     OW20005   3.790   5.646   6.985
 6369SOL    HW120006   3.729   5.569   7.001
 6369SOL    HW220007   3.827   5.678   0.053
 6370SOL     OW20008   5.266   3.604   4.302
 6370SOL    HW120009   5.353   3.564   4.328
 6370SOL    HW220010   5.255   3.693   4.346
 6371SOL     OW20011   5.177   4.018   1.404
 6371SOL    HW120012   5.234   3.979   1.331
 6371SOL    HW220013   5.083   4.027   1.371
 6372SOL     OW20014   6.516   1.551   2.580
 6372SOL    HW120015   6.463   1.635   2.564
 6372SOL    HW220016   6.607   1.562   2.540
 6373SOL     OW20017   4.463   4.165   1.238
 6373SOL    HW120018   4.469   4.198   1.332
 6373SOL    HW220019   4.501   4.233   1.175
 6374SOL     OW20020   4.595   3.972   6.752
 6374SOL    HW120021   4.561   3.914   6.679
 6374SOL    HW220022   4.578   3.929   6.841
 6375SOL     OW20023   5.405   2.087   2.046
 6375SOL    HW120024   5.329   2.105   1.984
 6375SOL    HW220025   5.431   2.172   2.092
 6376SOL     OW20026   3.319   1.039   6.596
 6376SOL    HW120027   3.352   1.123   6.640
 6376SOL    HW220028   3.360   0.960   6.642
 6377SOL     OW20029   6.945   0.725   0.539
 6377SOL    HW120030   6.904   0.774   0.617
 6377SOL    HW220031   0.012   0.768   0.516
 6378SOL     OW20032   5.451   5.211   1.834
 6378SOL    HW120033   5.351   5.204   1.831
 6378SOL    HW220034   5.477   5.305   1.856
 6379SOL     OW20035   2.040   6.054   6.606
 6379SOL    HW120036   2.036   6.126   6.675
 6379SOL    HW220037   2.126   6.005   6.614
 6380SOL     OW20038   1.116   3.460   4.945
 6380SOL    HW120039   1.172   3.463   5.028
 6380SOL    HW220040   1.149   3.386   4.886
 6381SOL     OW20041   3.957   2.207   6.950
 6381SOL    HW120042   3.977   2.137   7.018
 6381SOL    HW220043   3.914   2.164   6.870
 6382SOL     OW20044   1.636   1.994   0.906
 6382SOL    HW120045   1.674   1.915   0.955
 6382SOL    HW220046   1.675   2.078   0.943
 6383SOL     OW20047   2.482   2.542   2.281
 6383SOL    HW120048   2.455   2.504   2.369
 6383SOL    HW220049   2.458   2.639   2.278
 6384SOL     OW20050   6.627   2.570   2.485
 6384SOL    HW120051   6.723   2.542   2.479
 6384SOL    HW220052   6.570   2.488   2.492
 6385SOL     OW20053   6.890   3.250   1.473
 6385SOL    HW120054   6.814   3.275   1.412
 6385SOL    HW220055   6.958   3.199   1.421
 6386SOL     OW20056   2.141   4.008   0.656
 6386SOL    HW120057   2.178   3.927   0.700
 6386SOL    HW220058   2.184   4.090   0.695
 6387SOL     OW20059   6.950   0.136   6.390
 6387SOL    HW120060   6.919   0.169   6.301
 6387SOL    HW220061   6.982   0.042   6.381
 6388SOL     OW20062   6.588   5.229   2.145
 6388SOL    HW120063   6.538   5.160   2.197
 6388SOL    HW220064   6.649   5.279   2.206
 6389SOL     OW20065   0.544   0.514   0.244
 6389SOL    HW120066   0.482   0.581   0.203
 6389SOL    HW220067   0.498   0.471   0.322
 6390SOL     OW20068   5.561   0.520   6.660
 6390SOL    HW120069   5.615   0.490   6.739
 6390SOL    HW220070   5.622   0.553   6.588
 6391SOL     OW20071   0.800   1.531   5.362
 6391SOL    HW120072   0.851   1.607   5.322
 6391SOL    HW220073   0.740   1.490   5.293
 6392SOL     OW20074   4.023   6.706   3.334
 6392SOL    HW120075   4.062   6.652   3.409
 6392SOL    HW220076   4.006   6.647   3.256
 6393SOL     OW20077   0.539   5.631   0.352
 6393SOL    HW120078   0.534   5.718   0.302
 6393SOL    HW220079   0.625   5.627   0.403
 6394SOL     OW20080   1.075   5.552   1.589
 6394SOL    HW120081   1.076   5.649   1.565
 6394SOL    HW220082   1.151   5.532   1.651
 6395SOL     OW20083   2.195   3.925   3.238
 6395SOL    HW120084   2.209   4.005   3.180
 6395SOL    HW220085   2.158   3.850   3.184
 6396SOL     OW20086   1.147   3.591   6.473
 6396SOL    HW120087   1.060   3.628   6.442
 6396SOL    HW220088   1.211   3.666   6.492
 6397SOL     OW20089   5.343   3.247   4.204
 6397SOL    HW120090   5.282   3.307   4.152
 6397SOL    HW220091   5.322   3.151   4.183
 6398SOL     OW20092   2.152   0.503   0.964
 6398SOL    HW120093   2.182   0.594   0.934
 6398SOL    HW220094   2.096   0.513   1.046
 6399SOL     OW20095   3.367   0.864   6.031
 6399SOL    HW120096   3.277   0.879   5.989
 6399SOL    HW220097   3.410   0.783   5.990
 6400SOL     OW20098   1.641   6.478   3.558
 6400SOL    HW120099   1.584   6.408   3.516
 6400SOL    HW220100   1.587   6.528   3.626
 6401SOL     OW20101   3.577   5.675   3.406
 6401SOL    HW120102   3.642   5.689   3.332
 6401SOL    HW220103   3.591   5.744   3.477
 6402SOL     OW20104   1.850   4.557   4.869
 6402SOL    HW120105   1.875   4.472   4.824
 6402SOL    HW220106   1.751   4.568   4.868
 6403SOL     OW20107   4.983   5.710   5.367
 6403SOL    HW120108   4.959   5.788   5.310
 6403SOL    HW220109   4.964   5.625   5.317
 6404SOL     OW20110   4.640   6.950   1.954
 6404SOL    HW120111   4.700   6.995   2.021
 6404SOL    HW220112   4.584   6.881   2.001
 6405SOL     OW20113   5.310   1.752   2.288
 6405SOL    HW120114   5.284   1.838   2.333
 6405SOL    HW220115   5.398   1.765   2.242
 6406SOL     OW20116   0.371   3.186   3.135
 6406SOL    HW120117   0.371   3.086   3.134
 6406SOL    HW220118   0.286   3.219   3.174
 6407SOL     OW20119   1.026   5.952   2.647
 6407SOL    HW120120   1.034   6.007   2.564
 6407SOL    HW220121   1.095   5.880   2.646
 6408SOL     OW20122   6.780   0.435   1.883
 6408SOL    HW120123   6.845   0.425   1.807
 6408SOL    HW220124   6.703   0.492   1.853
 6409SOL     OW20125   5.706   5.167   3.588
 6409SOL    HW120126   5.726   5.191   3.493
 6409SOL    HW220127   5.613   5.197   3.611
 6410SOL     OW20128   2.028   1.430   6.280
 6410SOL    HW120129   2.018   1.527   6.258
 6410SOL    HW220130   2.122   1.413   6.310
 6411SOL     OW20131   0.631   2.339   2.029
 6411SOL    HW120132   0.554   2.402   2.020
 6411SOL    HW220133   0.694   2.352   1.952
 6412SOL     OW20134   3.438   0.887   0.186
 6412SOL    HW120135   3.513   0.883   0.252
 6412SOL    HW220136   3.475   0.893   0.093
 6413SOL     OW20137   4.885   6.672   3.098
 6413SOL    HW120138   4.789   6.677   3.126
 6413SOL    HW220139   4.890   6.667   2.998
 6414SOL     OW20140   1.475   0.323   0.338
 6414SOL    HW120141   1.545   0.373   0.389
 6414SOL    HW220142   1.479   0.227   0.363
 6415SOL     OW20143   0.357   2.358   3.576
 6415SOL    HW120144   0.395   2.438   3.529
 6415SOL    HW220145   0.266   2.338   3.539
 6416SOL     OW20146   2.677   6.728   0.009
 6416SOL    HW120147   2.696   6.824   7.009
 6416SOL    HW220148   2.764   6.680   0.023
 6417SOL     OW20149   3.911   2.090   0.415
 6417SOL    HW120150   3.963   2.175   0.417
 6417SOL    HW220151   3.850   2.086   0.494
 6418SOL     OW20152   4.046   4.748   0.462
 6418SOL    HW120153   4.113   4.730   0.533
 6418SOL    HW220154   4.057   4.682   0.388
 6419SOL     OW20155   1.359   6.590   6.370
 6419SOL    HW120156   1.304   6.553   6.445
 6419SOL    HW220157   1.328   6.551   6.283
 6420SOL     OW20158   2.331   4.213   4.455
 6420SOL    HW120159   2.431   4.215   4.463
 6420SOL    HW220160   2.298   4.304   4.430
 6421SOL     OW20161   4.085   0.049   1.965
 6421SOL    HW120162   4.062   0.111   1.889
 6421SOL    HW220163   4.169   7.019   1.942
 6422SOL     OW20164   5.913   1.907   4.375
 6422SOL    HW120165   5.833   1.959   4.346
 6422SOL    HW220166   5.935   1.838   4.306
 6423SOL     OW20167   2.080   4.691   4.381
 6423SOL    HW120168   2.141   4.767   4.403
 6423SOL    HW220169   1.987   4.712   4.411
 6424SOL     OW20170   6.133   4.358   5.471
 6424SOL    HW120171   6.168   4.401   5.387
 6424SOL    HW220172   6.181   4.272   5.486
 6425SOL     OW20173   6.662   5.394   3.987
 6425SOL    HW120174   6.708   5.482   3.994
 6425SOL    HW220175   6.609   5.377   4.071
 6426SOL     OW20176   4.712   4.233   5.217
 6426SOL    HW120177   4.800   4.195   5.244
 6426SOL    HW220178   4.695   4.212   5.121
 6427SOL     OW20179   3.996   3.279   3.251
 6427SOL    HW120180   3.976   3.181   3.240
 6427SOL    HW220181   3.948   3.330   3.181
 6428SOL     OW20182   5.371   3.340   0.525
 6428SOL    HW120183   5.462   3.314   0.493
 6428SOL    HW220184   5.378   3.386   0.613
 6429SOL     OW20185   2.299   1.390   5.504
 6429SOL    HW120186   2.374   1.442   5.464
 6429SOL    HW220187   2.300   1.400   5.604
 6430SOL     OW20188   6.883   6.941   5.086
 6430SOL    HW120189   6.901   6.984   5.175
 6430SOL    HW220190   6.946   6.979   5.018
 6431SOL     OW20191   3.689   4.753   1.640
 6431SOL    HW120192   3.774   4.701   1.627
 6431SOL    HW220193   3.633   4.709   1.710
 6432SOL     OW20194   4.599   4.536   6.001
 6432SOL    HW120195   4.607   4.441   6.033
 6432SOL    HW220196   4.623   4.540   5.904
 6433SOL     OW20197   3.203   5.177   6.881
 6433SOL    HW120198   3.158   5.093   6.911
 6433SOL    HW220199   3.179   5.194   6.785
 6434SOL     OW20200   4.134   5.375   6.299
 6434SOL    HW120201   4.234   5.380   6.286
 6434SOL    HW220202   4.098   5.297   6.247
 6435SOL     OW20203   4.996   1.917   1.081
 6435SOL    HW120204   4.994   1.818   1.072
 6435SOL    HW220205   5.054   1.942   1.159
 6436SOL     OW20206   6.850   3.798   4.200
 6436SOL    HW120207   6.758   3.759   4.210
 6436SOL    HW220208   6.843   3.896   4.187
 6437SOL     OW20209   0.932   2.087   5.386
 6437SOL    HW120210   0.962   1.995   5.360
 6437SOL    HW220211   0.850   2.111   5.335
 6438SOL     OW20212   0.348   4.987   0.499
 6438SOL    HW120213   0.398   4.943   0.573
 6438SOL    HW220214   0.412   5.031   0.436
 6439SOL     OW20215   5.773   0.051   2.990
 6439SOL    HW120216   5.731   0.038   3.080
 6439SOL    HW220217   5.834   0.130   2.993
 6440SOL     OW20218   2.975   2.044   6.893
 6440SOL    HW120219   3.020   1.960   6.925
 6440SOL    HW220220   2.877   2.027   6.883
 6441SOL     OW20221   1.004   1.603   2.895
 6441SOL    HW120222   0.967   1.688   2.859
 6441SOL    HW220223   1.066   1.563   2.828
 6442SOL     OW20224   2.600   2.616   5.291
 6442SOL    HW120225   2.508   2.631   5.328
 6442SOL    HW220226   2.668   2.656   5.351
 6443SOL     OW20227   4.906   2.950   0.140
 6443SOL    HW120228   4.823   2.913   0.180
 6443SOL    HW220229   4.956   3.004   0.208
 6444SOL     OW20230   6.380   3.212   5.015
 6444SOL    HW120231   6.413   3.303   4.991
 6444SOL    HW220232   6.297   3.220   5.070
 6445SOL     OW20233   3.451   2.917   3.062
 6445SOL    HW120234   3.433   3.011   3.032
 6445SOL    HW220235   3.500   2.919   3.149
 6446SOL     OW20236   2.129   1.017   6.489
 6446SOL    HW120237   2.128   0.930   6.539
 6446SOL    HW220238   2.093   1.003   6.397
 6447SOL     OW20239   6.323   3.014   1.716
 6447SOL    HW120240   6.298   3.104   1.683
 6447SOL    HW220241   6.415   3.018   1.756
 6448SOL     OW20242   3.561   5.642   1.263
 6448SOL    HW120243   3.578   5.655   1.361
 6448SOL    HW220244   3.468   5.672   1.242
 6449SOL     OW20245   2.216   5.598   1.449
 6449SOL    HW120246   2.238   5.501   1.454
 6449SOL    HW220247   2.293   5.652   1.485
 6450SOL     OW20248   0.739   4.329   1.065
 6450SOL    HW120249   0.816   4.293   1.012
 6450SOL    HW220250   0.679   4.382   1.006
 6451SOL     OW20251   4.380   2.608   1.305
 6451SOL    HW120252   4.344   2.532   1.252
 6451SOL    HW220253   4.305   2.666   1.335
 6452SOL     OW20254   4.753   2.114   3.363
 6452SOL    HW120255   4.737   2.080   3.456
 6452SOL    HW220256   4.703   2.057   3.298
 6453SOL     OW20257   2.416   0.991   1.385
 6453SOL    HW120258   2.480   0.985   1.461
 6453SOL    HW220259   2.462   1.032   1.306
 6454SOL     OW20260   5.520   2.456   3.684
 6454SOL    HW120261   5.455   2.398   3.634
 6454SOL    HW220262   5.469   2.523   3.738
 6455SOL     OW20263   6.914   3.769   3.642
 6455SOL    HW120264   6.997   3.819   3.617
 6455SOL    HW220265   6.900   3.775   3.741
 6456SOL     OW20266   6.132   1.214   2.623
 6456SOL    HW120267   6.046   1.206   2.673
 6456SOL    HW220268   6.158   1.310   2.616
 6457SOL     OW20269   3.710   0.335   1.844
 6457SOL    HW120270   3.705   0.264   1.914
 6457SOL    HW220271   3.648   0.410   1.869
 6458SOL     OW20272   6.942   5.189   3.686
 6458SOL    HW120273   6.903   5.275   3.652
 6458SOL    HW220274   6.996   5.146   3.614
 6459SOL     OW20275   6.705   3.714   2.533
 6459SOL    HW120276   6.699   3.732   2.631
 6459SOL    HW220277   6.700   3.615   2.518
 6460SOL     OW20278   0.849   5.798   6.124
 6460SOL    HW120279   0.878   5.889   6.152
 6460SOL    HW220280   0.871   5.732   6.196
 6461SOL     OW20281   1.800   5.702   1.306
 6461SOL    HW120282   1.746   5.622   1.331
 6461SOL    HW220283   1.881   5.708   1.364
 6462SOL     OW20284   1.852   3.695   5.514
 6462SOL    HW120285   1.782   3.748   5.467
 6462SOL    HW220286   1.843   3.706   5.612
 6463SOL     OW20287   4.684   2.070   1.433
 6463SOL    HW120288   4.707   2.044   1.339
 6463SOL    HW220289   4.615   2.006   1.468
 6464SOL     OW20290   0.840   4.589   4.220
 6464SOL    HW120291   0.938   4.583   4.239
 6464SOL    HW220292   0.792   4.521   4.275
 6465SOL     OW20293   4.069   1.198   3.269
 6465SOL    HW120294   4.002   1.221   3.198
 6465SOL    HW220295   4.021   1.174   3.354
 6466SOL     OW20296   0.436   3.301   0.256
 6466SOL    HW120297   0.435   3.392   0.297
 6466SOL    HW220298   0.476   3.236   0.321
 6467SOL     OW20299   2.780   3.038   0.769
 6467SOL    HW120300   2.694   3.077   0.804
 6467SOL    HW220301   2.839   3.015   0.846
 6468SOL     OW20302   2.379   1.688   0.905
 6468SOL    HW120303   2.284   1.691   0.936
 6468SOL    HW220304   2.384   1.725   0.812
 6469SOL     OW20305   3.507   1.254   2.623
 6469SOL    HW120306   3.515   1.195   2.542
 6469SOL    HW220307   3.536   1.204   2.704
 6470SOL     OW20308   6.615   2.108   0.090
 6470SOL    HW120309   6.601   2.176   0.018
 6470SOL    HW220310   6.546   2.036   0.081
 6471SOL     OW20311   1.052   6.629   5.957
 6471SOL    HW120312   1.101   6.560   5.905
 6471SOL    HW220313   0.954   6.621   5.939
 6472SOL     OW20314   6.474   6.065   2.742
 6472SOL    HW120315   6.386   6.018   2.756
 6472SOL    HW220316   6.468   6.157   2.779
 6473SOL     OW20317   2.628   0.996   3.883
 6473SOL    HW120318   2.531   1.000   3.905
 6473SOL    HW220319   2.681   1.023   3.963
 6474SOL     OW20320   3.590   5.298   4.949
 6474SOL    HW120321   3.674   5.325   4.996
 6474SOL    HW220322   3.612   5.270   4.856
 6475SOL     OW20323   6.154   5.103   2.650
 6475SOL    HW120324   6.059   5.081   2.669
 6475SOL    HW220325   6.211   5.078   2.728
 6476SOL     OW20326   3.738   1.818   6.221
 6476SOL    HW120327   3.755   1.914   6.246
 6476SOL    HW220328   3.697   1.770   6.299
 6477SOL     OW20329   6.605   5.869   1.382
 6477SOL    HW120330   6.686   5.815   1.359
 6477SOL    HW220331   6.523   5.812   1.371
 6478SOL     OW20332   3.294   5.717   1.298
 6478SOL    HW120333   3.308   5.815   1.288
 6478SOL    HW220334   3.255   5.698   1.388
 6479SOL     OW20335   3.278   5.996   3.616
 6479SOL    HW120336   3.361   5.968   3.664
 6479SOL    HW220337   3.299   6.071   3.553
 6480SOL     OW20338   3.707   2.089   6.537
 6480SOL    HW120339   3.774   2.084   6.463
 6480SOL    HW220340   3.754   2.104   6.624
 6481SOL     OW20341   3.332   2.682   1.823
 6481SOL    HW120342   3.266   2.647   1.757
 6481SOL    HW220343   3.405   2.614   1.836
 6482SOL     OW20344   5.456   3.995   5.813
 6482SOL    HW120345   5.429   3.979   5.718
 6482SOL    HW220346   5.517   4.074   5.817
 6483SOL     OW20347   1.132   6.578   5.101
 6483SOL    HW120348   1.164   6.523   5.024
 6483SOL    HW220349   1.192   6.563   5.180
 6484SOL     OW20350   2.604   0.698   4.106
 6484SOL    HW120351   2.559   0.765   4.166
 6484SOL    HW220352   2.702   0.713   4.107
 6485SOL     OW20353   2.164   6.437   4.801
 6485SOL    HW120354   2.139   6.342   4.784
 6485SOL    HW220355   2.214   6.473   4.722
 6486SOL     OW20356   1.824   5.094   3.165
 6486SOL    HW120357   1.914   5.111   3.205
 6486SOL    HW220358   1.821   5.001   3.128
 6487SOL     OW20359   6.043   4.767   3.516
 6487SOL    HW120360   6.103   4.711   3.460
 6487SOL    HW220361   6.095   4.842   3.557
 6488SOL     OW20362   4.607   5.419   4.685
 6488SOL    HW120363   4.585   5.477   4.607
 6488SOL    HW220364   4.700   5.439   4.717
 6489SOL     OW20365   4.891   2.789   5.799
 6489SOL    HW120366   4.939   2.741   5.726
 6489SOL    HW220367   4.955   2.845   5.850
 6490SOL     OW20368   1.497   2.366   0.011
 6490SOL    HW120369   1.501   2.455   6.985
 6490SOL    HW220370   1.590   2.336   0.033
 6491SOL     OW20371   2.862   0.287   1.726
 6491SOL    HW120372   2.806   0.369   1.730
 6491SOL    HW220373   2.865   0.253   1.632
 6492SOL     OW20374   3.657   3.483   4.982
 6492SOL    HW120375   3.634   3.474   4.886
 6492SOL    HW220376   3.743   3.534   4.991
 6493SOL     OW20377   0.488   3.889   5.413
 6493SOL    HW120378   0.554   3.838   5.358
 6493SOL    HW220379   0.415   3.828   5.444
 6494SOL     OW20380   6.005   0.443   1.423
 6494SOL    HW120381   6.086   0.384   1.427
 6494SOL    HW220382   6.018   0.512   1.352
 6495SOL     OW20383   5.842   0.416   3.683
 6495SOL    HW120384   5.793   0.394   3.768
 6495SOL    HW220385   5.923   0.471   3.704
 6496SOL     OW20386   3.716   1.668   1.143
 6496SOL    HW120387   3.702   1.732   1.219
 6496SOL    HW220388   3.725   1.575   1.179
 6497SOL     OW20389   0.286   1.516   0.417
 6497SOL    HW120390   0.374   1.512   0.464
 6497SOL    HW220391   0.238   1.429   0.426
 6498SOL     OW20392   0.692   4.431   4.400
 6498SOL    HW120393   0.750   4.365   4.448
 6498SOL    HW220394   0.628   4.381   4.341
 6499SOL     OW20395   5.125   3.690   3.079
 6499SOL    HW120396   5.080   3.759   3.022
 6499SOL    HW220397   5.114   3.600   3.038
 6500SOL     OW20398   1.155   4.089   3.038
 6500SOL    HW120399   1.200   4.072   2.950
 6500SOL    HW220400   1.065   4.044   3.038
 6501SOL     OW20401   6.098   2.015   1.362
 6501SOL    HW120402   6.128   1.920   1.373
 6501SOL    HW220403   6.031   2.037   1.433
 6502SOL     OW20404   6.687   3.607   2.056
 6502SOL    HW120405   6.761   3.655   2.008
 6502SOL    HW220406   6.679   3.514   2.019
 6503SOL     OW20407   6.619   3.104   5.611
 6503SOL    HW120408   6.522   3.112   5.587
 6503SOL    HW220409   6.631   3.030   5.677
 6504SOL     OW20410   4.767   6.038   6.482
 6504SOL    HW120411   4.715   6.016   6.400
 6504SOL    HW220412   4.804   6.131   6.474
 6505SOL     OW20413   0.191   5.635   0.572
 6505SOL    HW120414   0.146   5.643   0.661
 6505SOL    HW220415   0.128   5.666   0.501
 6506SOL     OW20416   6.966   3.973   2.148
 6506SOL    HW120417   6.892   3.926   2.197
 6506SOL    HW220418   0.033   3.928   2.170
 6507SOL     OW20419   3.533   4.486   6.535
 6507SOL    HW120420   3.546   4.503   6.437
 6507SOL    HW220421   3.616   4.447   6.574
 6508SOL     OW20422   0.678   0.058   2.668
 6508SOL    HW120423   0.762   0.076   2.616
 6508SOL    HW220424   0.679   6.983   2.699
 6509SOL     OW20425   3.013   1.846   6.136
 6509SOL    HW120426   3.091   1.784   6.120
 6509SOL    HW220427   2.931   1.806   6.096
 6510SOL     OW20428   3.526   5.942   5.722
 6510SOL    HW120429   3.448   5.933   5.783
 6510SOL    HW220430   3.567   5.853   5.706
 6511SOL     OW20431   3.010   1.335   0.613
 6511SOL    HW120432   2.981   1.299   0.701
 6511SOL    HW220433   3.086   1.280   0.577
 6512SOL     OW20434   3.840   1.774   0.354
 6512SOL    HW120435   3.874   1.778   0.260
 6512SOL    HW220436   3.826   1.867   0.388
 6513SOL     OW20437   2.313   5.085   3.171
 6513SOL    HW120438   2.239   5.095   3.236
 6513SOL    HW220439   2.381   5.157   3.185
 6514SOL     OW20440   5.227   6.938   5.807
 6514SOL    HW120441   5.326   6.930   5.791
 6514SOL    HW220442   5.210   6.946   5.906
 6515SOL     OW20443   1.818   5.280   2.247
 6515SOL    HW120444   1.856   5.217   2.179
 6515SOL    HW220445   1.720   5.293   2.230
 6516SOL     OW20446   6.833   4.185   1.111
 6516SOL    HW120447   6.863   4.158   1.203
 6516SOL    HW220448   6.733   4.189   1.108
 6517SOL     OW20449   0.052   3.009   0.894
 6517SOL    HW120450   0.127   3.024   0.830
 6517SOL    HW220451   0.084   3.028   0.987
 6518SOL     OW20452   1.367   1.869   2.965
 6518SOL    HW120453   1.433   1.794   2.961
 6518SOL    HW220454   1.289   1.842   3.021
 6519SOL     OW20455   1.393   0.955   3.201
 6519SOL    HW120456   1.323   0.954   3.130
 6519SOL    HW220457   1.349   0.954   3.291
 6520SOL     OW20458   0.346   4.832   6.910
 6520SOL    HW120459   0.385   4.892   6.841
 6520SOL    HW220460   0.418   4.777   6.952
 6521SOL     OW20461   0.819   4.214   4.015
 6521SOL    HW120462   0.887   4.157   4.062
 6521SOL    HW220463   0.850   4.309   4.014
 6522SOL     OW20464   2.375   3.314   5.347
 6522SOL    HW120465   2.401   3.229   5.302
 6522SOL    HW220466   2.338   3.294   5.438
 6523SOL     OW20467   6.112   0.057   0.468
 6523SOL    HW120468   6.176   6.999   0.467
 6523SOL    HW220469   6.069   0.064   0.558
 6524SOL     OW20470   2.349   2.925   1.315
 6524SOL    HW120471   2.341   2.975   1.401
 6524SOL    HW220472   2.297   2.840   1.320
 6525SOL     OW20473   1.161   4.566   3.179
 6525SOL    HW120474   1.236   4.512   3.219
 6525SOL    HW220475   1.173   4.572   3.080
 6526SOL     OW20476   0.874   6.425   6.642
 6526SOL    HW120477   0.862   6.415   6.543
 6526SOL    HW220478   0.812   6.495   6.676
 6527SOL     OW20479   0.135   1.999   0.085
 6527SOL    HW120480   0.109   2.093   0.105
 6527SOL    HW220481   0.076   1.936   0.135
 6528SOL     OW20482   4.853   0.177   6.944
 6528SOL    HW120483   4.787   0.118   6.897
 6528SOL    HW220484   4.927   0.121   6.981
 6529SOL     OW20485   6.791   0.885   2.415
 6529SOL    HW120486   6.706   0.854   2.458
 6529SOL    HW220487   6.799   0.984   2.427
 6530SOL     OW20488   1.080   3.215   2.588
 6530SOL    HW120489   1.126   3.126   2.591
 6530SOL    HW220490   1.139   3.281   2.542
 6531SOL     OW20491   3.905   4.100   4.993
 6531SOL    HW120492   3.981   4.165   4.999
 6531SOL    HW220493   3.921   4.038   4.916
 6532SOL     OW20494   1.092   0.719   0.705
 6532SOL    HW120495   1.078   0.714   0.803
 6532SOL    HW220496   1.190   0.730   0.686
 6533SOL     OW20497   4.696   3.645   0.544
 6533SOL    HW120498   4.770   3.581   0.565
 6533SOL    HW220499   4.610   3.608   0.578
 6534SOL     OW20500   6.604   4.408   3.031
 6534SOL    HW120501   6.547   4.391   2.950
 6534SOL    HW220502   6.646   4.498   3.023
 6535SOL     OW20503   5.806   2.833   5.301
 6535SOL    HW120504   5.840   2.758   5.244
 6535SOL    HW220505   5.872   2.853   5.374
 6536SOL     OW20506   0.582   4.066   5.606
 6536SOL    HW120507   0.551   4.028   5.519
 6536SOL    HW220508   0.645   4.142   5.588
 6537SOL     OW20509   6.088   5.400   4.335
 6537SOL    HW120510   6.132   5.354   4.413
 6537SOL    HW220511   6.037   5.332   4.282
 6538SOL     OW20512   2.108   3.186   5.784
 6538SOL    HW120513   2.023   3.145   5.752
 6538SOL    HW220514   2.184   3.123   5.766
 6539SOL     OW20515   5.444   1.102   5.741
 6539SOL    HW120516   5.534   1.081   5.703
 6539SOL    HW220517   5.406   1.021   5.785
 6540SOL     OW20518   6.217   2.662   5.674
 6540SOL    HW120519   6.173   2.640   5.761
 6540SOL    HW220520   6.148   2.664   5.601
 6541SOL     OW20521   6.270   0.855   4.646
 6541SOL    HW120522   6.212   0.776   4.627
 6541SOL    HW220523   6.305   0.849   4.740
 6542SOL     OW20524   1.446   3.999   3.134
 6542SOL    HW120525   1.495   3.912   3.137
 6542SOL    HW220526   1.348   3.982   3.150
 6543SOL     OW20527   3.701   1.816   5.087
 6543SOL    HW120528   3.746   1.885   5.143
 6543SOL    HW220529   3.664   1.859   5.004
 6544SOL     OW20530   1.183   6.434   1.705
 6544SOL    HW120531   1.154   6.481   1.622
 6544SOL    HW220532   1.282   6.445   1.717
 6545SOL     OW20533   4.339   6.828   0.196
 6545SOL    HW120534   4.269   6.773   0.241
 6545SOL    HW220535   4.419   6.834   0.256
 6546SOL     OW20536   4.539   3.301   6.440
 6546SOL    HW120537   4.573   3.266   6.527
 6546SOL    HW220538   4.515   3.224   6.380
 6547SOL     OW20539   6.733   5.268   6.587
 6547SOL    HW120540   6.815   5.307   6.628
 6547SOL    HW220541   6.758   5.188   6.532
 6548SOL     OW20542   0.459   1.398   5.388
 6548SOL    HW120543   0.474   1.482   5.439
 6548SOL    HW220544   0.526   1.392   5.313
 6549SOL     OW20545   4.657   0.553   2.050
 6549SOL    HW120546   4.710   0.469   2.061
 6549SOL    HW220547   4.718   0.632   2.063
 6550SOL     OW20548   6.039   0.112   3.791
 6550SOL    HW120549   6.122   0.084   3.741
 6550SOL    HW220550   6.031   0.057   3.874
 6551SOL     OW20551   3.037   4.108   0.253
 6551SOL    HW120552   3.090   4.037   0.207
 6551SOL    HW220553   3.092   4.149   0.326
 6552SOL     OW20554   2.205   5.991   0.364
 6552SOL    HW120555   2.237   5.976   0.458
 6552SOL    HW220556   2.284   5.996   0.303
 6553SOL     OW20557   0.467   1.249   4.169
 6553SOL    HW120558   0.528   1.220   4.242
 6553SOL    HW220559   0.431   1.340   4.189
 6554SOL     OW20560   2.230   1.287   4.430
 6554SOL    HW120561   2.329   1.284   4.426
 6554SOL    HW220562   2.195   1.330   4.346
 6555SOL     OW20563   6.662   3.923   3.513
 6555SOL    HW120564   6.734   3.984   3.545
 6555SOL    HW220565   6.701   3.833   3.493
 6556SOL     OW20566   4.893   2.834   2.916
 6556SOL    HW120567   4.825   2.761   2.910
 6556SOL    HW220568   4.902   2.865   3.011
 6557SOL     OW20569   2.054   0.952   1.535
 6557SOL    HW120570   2.080   1.043   1.504
 6557SOL    HW220571   2.000   0.960   1.619
 6558SOL     OW20572   5.164   5.405   6.866
 6558SOL    HW120573   5.235   5.474   6.875
 6558SOL    HW220574   5.134   5.399   6.771
 6559SOL     OW20575   0.096   2.187   6.236
 6559SOL    HW120576   0.173   2.125   6.222
 6559SOL    HW220577   0.100   2.261   6.169
 6560SOL     OW20578   5.654   5.005   0.511
 6560SOL    HW120579   5.570   5.004   0.457
 6560SOL    HW220580   5.699   4.916   0.505
 6561SOL     OW20581   3.784   4.451   0.251
 6561SOL    HW120582   3.841   4.400   0.315
 6561SOL    HW220583   3.723   4.388   0.204
 6562SOL     OW20584   5.289   3.069   1.327
 6562SOL    HW120585   5.347   3.150   1.321
 6562SOL    HW220586   5.343   2.992   1.360
 6563SOL     OW20587   5.437   5.702   5.236
 6563SOL    HW120588   5.379   5.657   5.168
 6563SOL    HW220589   5.380   5.738   5.310
 6564SOL     OW20590   6.291   3.687   2.768
 6564SOL    HW120591   6.297   3.697   2.669
 6564SOL    HW220592   6.306   3.776   2.811
 6565SOL     OW20593   5.605   0.641   3.339
 6565SOL    HW120594   5.622   0.645   3.241
 6565SOL    HW220595   5.679   0.590   3.384
 6566SOL     OW20596   4.745   6.051   2.679
 6566SOL    HW120597   4.812   5.982   2.705
 6566SOL    HW220598   4.784   6.142   2.694
 6567SOL     OW20599   4.391   0.865   1.138
 6567SOL    HW120600   4.457   0.858   1.063
 6567SOL    HW220601   4.301   0.888   1.102
 6568SOL     OW20602   4.340   1.570   0.934
 6568SOL    HW120603   4.350   1.665   0.907
 6568SOL    HW220604   4.395   1.551   1.015
 6569SOL     OW20605   6.856   4.287   5.581
 6569SOL    HW120606   6.913   4.257   5.656
 6569SOL    HW220607   6.766   4.314   5.616
 6570SOL     OW20608   4.226   6.769   1.939
 6570SOL    HW120609   4.225   6.768   2.039
 6570SOL    HW220610   4.320   6.786   1.908
 6571SOL     OW20611   3.387   5.994   2.694
 6571SOL    HW120612   3.434   6.072   2.653
 6571SOL    HW220613   3.305   5.973   2.642
 6572SOL     OW20614   1.079   5.590   4.098
 6572SOL    HW120615   1.127   5.615   4.014
 6572SOL    HW220616   1.043   5.673   4.142
 6573SOL     OW20617   1.305   1.422   4.081
 6573SOL    HW120618   1.238   1.465   4.142
 6573SOL    HW220619   1.397   1.453   4.105
 6574SOL     OW20620   1.777   6.079   2.180
 6574SOL    HW120621   1.871   6.090   2.212
 6574SOL    HW220622   1.714   6.099   2.255
 6575SOL     OW20623   6.857   1.305   2.999
 6575SOL    HW120624   6.866   1.227   2.938
 6575SOL    HW220625   6.768   1.302   3.044
 6576SOL     OW20626   4.584   6.036   1.040
 6576SOL    HW120627   4.651   6.068   1.106
 6576SOL    HW220628   4.511   6.104   1.030
 6577SOL     OW20629   2.762   0.716   3.584
 6577SOL    HW120630   2.738   0.713   3.681
 6577SOL    HW220631   2.854   0.755   3.574
 6578SOL     OW20632   1.422   5.108   1.775
 6578SOL    HW120633   1.510   5.132   1.814
 6578SOL    HW220634   1.435   5.078   1.680
 6579SOL     OW20635   6.110   1.076   4.037
 6579SOL    HW120636   6.188   1.137   4.041
 6579SOL    HW220637   6.097   1.032   4.126
 6580SOL     OW20638   1.769   1.477   7.002
 6580SOL    HW120639   1.795   1.507   6.910
 6580SOL    HW220640   1.671   1.460   7.005
 6581SOL     OW20641   0.711   2.223   0.300
 6581SOL    HW120642   0.708   2.319   0.328
 6581SOL    HW220643   0.621   2.181   0.316
 6582SOL     OW20644   6.792   1.533   3.676
 6582SOL    HW120645   6.838   1.619   3.698
 6582SOL    HW220646   6.775   1.528   3.578
 6583SOL     OW20647   3.804   5.815   6.167
 6583SOL    HW120648   3.735   5.821   6.240
 6583SOL    HW220649   3.866   5.739   6.186
 6584SOL     OW20650   3.638   3.061   0.445
 6584SOL    HW120651   3.718   3.104   0.488
 6584SOL    HW220652   3.581   3.019   0.515
 6585SOL     OW20653   6.064   6.528   0.716
 6585SOL    HW120654   5.966   6.541   0.730
 6585SOL    HW220655   6.106   6.497   0.802
 6586SOL     OW20656   6.398   1.968   6.749
 6586SOL    HW120657   6.353   1.879   6.740
 6586SOL    HW220658   6.467   1.977   6.677
 6587SOL     OW20659   1.339   4.789   5.419
 6587SOL    HW120660   1.385   4.802   5.331
 6587SOL    HW220661   1.318   4.692   5.432
 6588SOL     OW20662   6.442   3.279   0.471
 6588SOL    HW120663   6.484   3.283   0.561
 6588SOL    HW220664   6.508   3.243   0.405
 6589SOL     OW20665   0.182   0.449   2.196
 6589SOL    HW120666   0.145   0.462   2.289
 6589SOL    HW220667   0.114   0.402   2.140
 6590SOL     OW20668   1.540   6.916   4.090
 6590SOL    HW120669   1.547   6.986   4.019
 6590SOL    HW220670   1.614   6.929   4.156
 6591SOL     OW20671   5.861   4.202   4.368
 6591SOL    HW120672   5.961   4.191   4.364
 6591SOL    HW220673   5.837   4.293   4.335
 6592SOL     OW20674   6.027   6.958   2.722
 6592SOL    HW120675   5.969   6.877   2.719
 6592SOL    HW220676   6.122   6.931   2.707
 6593SOL     OW20677   2.790   2.070   1.949
 6593SOL    HW120678   2.818   2.164   1.965
 6593SOL    HW220679   2.692   2.068   1.930
 6594SOL     OW20680   4.658   1.105   6.383
 6594SOL    HW120681   4.696   1.017   6.353
 6594SOL    HW220682   4.704   1.180   6.336
 6595SOL     OW20683   1.326   2.565   5.794
 6595SOL    HW120684   1.266   2.487   5.812
 6595SOL    HW220685   1.417   2.532   5.768
 6596SOL     OW20686   5.937   6.295   2.646
 6596SOL    HW120687   5.936   6.332   2.553
 6596SOL    HW220688   5.921   6.369   2.712
 6597SOL     OW20689   1.581   5.037   2.121
 6597SOL    HW120690   1.636   5.006   2.043
 6597SOL    HW220691   1.556   4.958   2.177
 6598SOL     OW20692   2.300   4.843   4.461
 6598SOL    HW120693   2.322   4.897   4.542
 6598SOL    HW220694   2.383   4.801   4.425
 6599SOL     OW20695   6.161   5.143   6.379
 6599SOL    HW120696   6.245   5.135   6.325
 6599SOL    HW220697   6.179   5.117   6.474
 6600SOL     OW20698   4.696   0.130   5.491
 6600SOL    HW120699   4.764   0.199   5.514
 6600SOL    HW220700   4.606   0.173   5.483
 6601SOL     OW20701   1.250   2.040   1.508
 6601SOL    HW120702   1.223   2.118   1.452
 6601SOL    HW220703   1.350   2.032   1.509
 6602SOL     OW20704   1.708   6.697   1.633
 6602SOL    HW120705   1.741   6.602   1.631
 6602SOL    HW220706   1.654   6.712   1.715
 6603SOL     OW20707   0.248   3.842   2.753
 6603SOL    HW120708   0.249   3.846   2.654
 6603SOL    HW220709   0.309   3.769   2.784
 6604SOL     OW20710   2.425   6.145   2.606
 6604SOL    HW120711   2.449   6.090   2.526
 6604SOL    HW220712   2.394   6.235   2.576
 6605SOL     OW20713   0.008   5.509   1.168
 6605SOL    HW120714   0.036   5.446   1.241
 6605SOL    HW220715   0.088   5.558   1.134
 6606SOL     OW20716   1.901   4.040   3.366
 6606SOL    HW120717   1.846   3.978   3.423
 6606SOL    HW220718   1.994   4.045   3.402
 6607SOL     OW20719   6.006   3.918   3.632
 6607SOL    HW120720   5.908   3.936   3.629
 6607SOL    HW220721   6.042   3.944   3.721
 6608SOL     OW20722   1.350   6.073   6.087
 6608SOL    HW120723   1.281   6.006   6.061
 6608SOL    HW220724   1.377   6.058   6.183
 6609SOL     OW20725   4.534   1.763   6.216
 6609SOL    HW120726   4.564   1.702   6.290
 6609SOL    HW220727   4.494   1.708   6.142
 6610SOL     OW20728   2.606   5.305   1.085
 6610SOL    HW120729   2.624   5.379   1.021
 6610SOL    HW220730   2.679   5.238   1.081
 6611SOL     OW20731   4.375   1.536   3.953
 6611SOL    HW120732   4.352   1.439   3.946
 6611SOL    HW220733   4.355   1.582   3.867
 6612SOL     OW20734   0.400   1.069   6.320
 6612SOL    HW120735   0.349   1.018   6.250
 6612SOL    HW220736   0.409   1.164   6.292
 6613SOL     OW20737   4.715   6.624   6.941
 6613SOL    HW120738   4.709   6.532   6.979
 6613SOL    HW220739   4.629   6.672   6.957
 6614SOL     OW20740   4.288   5.196   0.904
 6614SOL    HW120741   4.353   5.163   0.835
 6614SOL    HW220742   4.331   5.269   0.957
 6615SOL     OW20743   3.353   4.398   6.715
 6615SOL    HW120744   3.343   4.298   6.714
 6615SOL    HW220745   3.417   4.425   6.644
 6616SOL     OW20746   4.407   1.200   5.523
 6616SOL    HW120747   4.449   1.113   5.497
 6616SOL    HW220748   4.389   1.255   5.441
 6617SOL     OW20749   3.895   0.237   3.967
 6617SOL    HW120750   3.892   0.211   4.064
 6617SOL    HW220751   3.818   0.297   3.947
 6618SOL     OW20752   6.807   2.145   2.847
 6618SOL    HW120753   6.745   2.078   2.888
 6618SOL    HW220754   6.754   2.223   2.812
 6619SOL     OW20755   4.964   6.187   3.822
 6619SOL    HW120756   4.953   6.135   3.906
 6619SOL    HW220757   4.893   6.160   3.756
 6620SOL     OW20758   0.575   3.462   3.281
 6620SOL    HW120759   0.552   3.373   3.240
 6620SOL    HW220760   0.671   3.483   3.263
 6621SOL     OW20761   3.846   3.289   4.859
 6621SOL    HW120762   3.756   3.296   4.815
 6621SOL    HW220763   3.909   3.242   4.797
 6622SOL     OW20764   0.772   5.405   0.575
 6622SOL    HW120765   0.688   5.394   0.627
 6622SOL    HW220766   0.791   5.503   0.564
 6623SOL     OW20767   3.571   3.606   5.495
 6623SOL    HW120768   3.472   3.622   5.497
 6623SOL    HW220769   3.599   3.582   5.402
 6624SOL     OW20770   1.507   2.168   3.926
 6624SOL    HW120771   1.492   2.104   3.851
 6624SOL    HW220772   1.494   2.262   3.892
 6625SOL     OW20773   6.174   3.171   6.008
 6625SOL    HW120774   6.201   3.164   6.104
 6625SOL    HW220775   6.092   3.227   6.001
 6626SOL     OW20776   2.113   6.235   5.067
 6626SOL    HW120777   2.178   6.311   5.080
 6626SOL    HW220778   2.060   6.223   5.151
 6627SOL     OW20779   1.686   5.710   4.229
 6627SOL    HW120780   1.759   5.654   4.189
 6627SOL    HW220781   1.624   5.652   4.282
 6628SOL     OW20782   4.081   6.028   4.336
 6628SOL    HW120783   4.088   6.100   4.267
 6628SOL    HW220784   4.014   6.054   4.405
 6629SOL     OW20785   5.270   5.361   6.404
 6629SOL    HW120786   5.217   5.298   6.347
 6629SOL    HW220787   5.238   5.355   6.498
 6630SOL     OW20788   2.197   1.287   1.701
 6630SOL    HW120789   2.219   1.276   1.604
 6630SOL    HW220790   2.270   1.249   1.757
 6631SOL     OW20791   2.126   4.519   6.219
 6631SOL    HW120792   2.135   4.510   6.318
 6631SOL    HW220793   2.160   4.436   6.175
 6632SOL     OW20794   1.104   1.265   1.200
 6632SOL    HW120795   1.012   1.258   1.236
 6632SOL    HW220796   1.165   1.206   1.253
 6633SOL     OW20797   3.625   5.709   5.962
 6633SOL    HW120798   3.669   5.751   6.042
 6633SOL    HW220799   3.527   5.729   5.964
 6634SOL     OW20800   4.322   1.916   4.063
 6634SOL    HW120801   4.413   1.876   4.065
 6634SOL    HW220802   4.283   1.914   4.155
 6635SOL     OW20803   5.441   5.032   3.723
 6635SOL    HW120804   5.359   5.021   3.668
 6635SOL    HW220805   5.419   5.081   3.808
 6636SOL     OW20806   3.863   0.260   0.431
 6636SOL    HW120807   3.791   0.299   0.373
 6636SOL    HW220808   3.947   0.251   0.378
 6637SOL     OW20809   1.616   1.210   1.274
 6637SOL    HW120810   1.698   1.236   1.325
 6637SOL    HW220811   1.556   1.155   1.332
 6638SOL     OW20812   3.095   3.320   3.604
 6638SOL    HW120813   3.146   3.360   3.527
 6638SOL    HW220814   3.156   3.263   3.659
 6639SOL     OW20815   4.771   2.924   1.476
 6639SOL    HW120816   4.672   2.910   1.483
 6639SOL    HW220817   4.813   2.915   1.566
 6640SOL     OW20818   0.737   2.655   4.798
 6640SOL    HW120819   0.670   2.723   4.768
 6640SOL    HW220820   0.800   2.696   4.863
 6641SOL     OW20821   4.829   2.200   0.723
 6641SOL    HW120822   4.908   2.201   0.784
 6641SOL    HW220823   4.781   2.288   0.728
 6642SOL     OW20824   1.459   5.998   0.818
 6642SOL    HW120825   1.405   5.952   0.889
 6642SOL    HW220826   1.401   6.063   0.770
 6643SOL     OW20827   3.983   6.251   6.869
 6643SOL    HW120828   4.001   6.157   6.840
 6643SOL    HW220829   3.915   6.293   6.809
 6644SOL     OW20830   1.991   6.763   3.424
 6644SOL    HW120831   1.972   6.762   3.522
 6644SOL    HW220832   2.090   6.773   3.409
 6645SOL     OW20833   5.854   2.575   0.431
 6645SOL    HW120834   5.943   2.575   0.476
 6645SOL    HW220835   5.782   2.574   0.500
 6646SOL     OW20836   4.750   0.012   6.136
 6646SOL    HW120837   4.746   0.112   6.148
 6646SOL    HW220838   4.786   6.990   6.219
 6647SOL     OW20839   4.606   5.103   1.079
 6647SOL    HW120840   4.560   5.065   0.998
 6647SOL    HW220841   4.604   5.036   1.153
 6648SOL     OW20842   2.825   6.272   5.776
 6648SOL    HW120843   2.731   6.238   5.767
 6648SOL    HW220844   2.888   6.194   5.783
 6649SOL     OW20845   5.662   2.866   6.867
 6649SOL    HW120846   5.594   2.835   6.801
 6649SOL    HW220847   5.701   2.953   6.837
 6650SOL     OW20848   2.401   1.797   5.444
 6650SOL    HW120849   2.400   1.897   5.454
 6650SOL    HW220850   2.445   1.773   5.357
 6651SOL     OW20851   6.732   1.511   6.449
 6651SOL    HW120852   6.704   1.559   6.532
 6651SOL    HW220853   6.686   1.552   6.370
 6652SOL     OW20854   0.113   4.147   0.502
 6652SOL    HW120855   0.037   4.213   0.501
 6652SOL    HW220856   0.123   4.108   0.593
 6653SOL     OW20857   5.446   4.468   0.325
 6653SOL    HW120858   5.367   4.434   0.275
 6653SOL    HW220859   5.430   4.561   0.356
 6654SOL     OW20860   6.919   4.258   2.849
 6654SOL    HW120861   6.967   4.315   2.915
 6654SOL    HW220862   6.868   4.187   2.898
 6655SOL     OW20863   6.413   5.059   2.293
 6655SOL    HW120864   6.338   5.121   2.269
 6655SOL    HW220865   6.429   4.996   2.218
 6656SOL     OW20866   3.948   1.421   2.630
 6656SOL    HW120867   3.878   1.479   2.587
 6656SOL    HW220868   4.018   1.480   2.672
 6657SOL     OW20869   5.619   2.010   3.375
 6657SOL    HW120870   5.695   2.074   3.383
 6657SOL    HW220871   5.537   2.060   3.346
 6658SOL     OW20872   6.109   6.114   5.588
 6658SOL    HW120873   6.046   6.088   5.514
 6658SOL    HW220874   6.130   6.033   5.643
 6659SOL     OW20875   1.182   5.055   2.253
 6659SOL    HW120876   1.241   5.102   2.187
 6659SOL    HW220877   1.124   4.989   2.205
 6660SOL     OW20878   6.754   6.279   3.342
 6660SOL    HW120879   6.768   6.232   3.255
 6660SOL    HW220880   6.772   6.377   3.330
 6661SOL     OW20881   3.761   6.046   4.227
 6661SOL    HW120882   3.792   6.093   4.310
 6661SOL    HW220883   3.712   6.111   4.169
 6662SOL     OW20884   3.545   7.010   2.876
 6662SOL    HW120885   3.632   6.970   2.905
 6662SOL    HW220886   3.495   0.024   2.956
 6663SOL     OW20887   0.991   4.255   5.948
 6663SOL    HW120888   1.007   4.169   5.996
 6663SOL    HW220889   1.072   4.280   5.895
 6664SOL     OW20890   2.716   0.524   1.442
 6664SOL    HW120891   2.698   0.610   1.396
 6664SOL    HW220892   2.637   0.463   1.432
 6665SOL     OW20893   1.948   0.615   5.968
 6665SOL    HW120894   1.946   0.516   5.981
 6665SOL    HW220895   2.005   0.657   6.038
 6666SOL     OW20896   4.324   6.347   5.567
 6666SOL    HW120897   4.283   6.257   5.553
 6666SOL    HW220898   4.422   6.341   5.549
 6667SOL     OW20899   0.202   6.363   6.377
 6667SOL    HW120900   0.295   6.327   6.380
 6667SOL    HW220901   0.137   6.289   6.360
 6668SOL     OW20902   0.132   5.705   0.191
 6668SOL    HW120903   0.067   5.693   0.267
 6668SOL    HW220904   0.176   5.618   0.170
 6669SOL     OW20905   1.634   1.116   3.207
 6669SOL    HW120906   1.698   1.105   3.284
 6669SOL    HW220907   1.555   1.056   3.221
 6670SOL     OW20908   4.118   2.813   0.904
 6670SOL    HW120909   4.018   2.818   0.911
 6670SOL    HW220910   4.150   2.729   0.947
 6671SOL     OW20911   4.292   5.976   0.690
 6671SOL    HW120912   4.362   5.929   0.745
 6671SOL    HW220913   4.204   5.973   0.738
 6672SOL     OW20914   1.500   2.416   1.037
 6672SOL    HW120915   1.584   2.465   1.058
 6672SOL    HW220916   1.503   2.384   0.942
 6673SOL     OW20917   5.440   3.558   3.627
 6673SOL    HW120918   5.438   3.498   3.547
 6673SOL    HW220919   5.347   3.577   3.657
 6674SOL     OW20920   0.020   2.523   0.029
 6674SOL    HW120921   6.944   2.493   0.032
 6674SOL    HW220922   0.060   2.495   6.961
 6675SOL     OW20923   5.266   1.987   0.058
 6675SOL    HW120924   5.252   2.033   6.990
 6675SOL    HW220925   5.335   2.037   0.111
 6676SOL     OW20926   1.722   3.395   3.449
 6676SOL    HW120927   1.630   3.370   3.480
 6676SOL    HW220928   1.716   3.439   3.360
 6677SOL     OW20929   0.160   1.758   0.467
 6677SOL    HW120930   0.094   1.788   0.398
 6677SOL    HW220931   0.196   1.669   0.442
 6678SOL     OW20932   1.975   4.835   0.119
 6678SOL    HW120933   1.941   4.765   0.057
 6678SOL    HW220934   1.912   4.845   0.196
 6679SOL     OW20935   1.701   1.057   3.761
 6679SOL    HW120936   1.630   1.067   3.692
 6679SOL    HW220937   1.684   1.121   3.836
 6680SOL     OW20938   5.978   6.901   1.265
 6680SOL    HW120939   6.074   6.919   1.242
 6680SOL    HW220940   5.922   6.981   1.244
 6681SOL     OW20941   3.169   6.388   1.367
 6681SOL    HW120942   3.135   6.336   1.288
 6681SOL    HW220943   3.121   6.359   1.450
 6682SOL     OW20944   2.915   5.314   6.171
 6682SOL    HW120945   2.982   5.305   6.097
 6682SOL    HW220946   2.828   5.273   6.141
 6683SOL     OW20947   6.537   3.981   6.252
 6683SOL    HW120948   6.543   4.038   6.334
 6683SOL    HW220949   6.522   3.886   6.278
 6684SOL     OW20950   2.715   6.460   1.186
 6684SOL    HW120951   2.803   6.489   1.224
 6684SOL    HW220952   2.728   6.426   1.093
 6685SOL     OW20953   4.856   3.391   6.609
 6685SOL    HW120954   4.889   3.409   6.515
 6685SOL    HW220955   4.934   3.368   6.667
 6686SOL     OW20956   5.380   5.175   3.930
 6686SOL    HW120957   5.452   5.232   3.970
 6686SOL    HW220958   5.322   5.139   4.003
 6687SOL     OW20959   6.447   1.818   1.556
 6687SOL    HW120960   6.369   1.807   1.495
 6687SOL    HW220961   6.445   1.745   1.625
 6688SOL     OW20962   3.927   5.576   0.368
 6688SOL    HW120963   3.914   5.653   0.306
 6688SOL    HW220964   3.961   5.609   0.456
 6689SOL     OW20965   1.978   4.748   5.924
 6689SOL    HW120966   1.986   4.808   5.844
 6689SOL    HW220967   2.047   4.676   5.919
 6690SOL     OW20968   0.961   0.188   6.416
 6690SOL    HW120969   1.030   0.116   6.415
 6690SOL    HW220970   0.881   0.157   6.468
 6691SOL     OW20971   2.697   2.318   2.796
 6691SOL    HW120972   2.747   2.300   2.712
 6691SOL    HW220973   2.756   2.300   2.875
 6692SOL     OW20974   4.607   5.297   1.271
 6692SOL    HW120975   4.632   5.252   1.356
 6692SOL    HW220976   4.594   5.229   1.199
 6693SOL     OW20977   4.454   1.751   4.391
 6693SOL    HW120978   4.451   1.714   4.298
 6693SOL    HW220979   4.514   1.694   4.447
 6694SOL     OW20980   3.302   4.744   0.953
 6694SOL    HW120981   3.264   4.767   0.863
 6694SOL    HW220982   3.395   4.778   0.960
 6695SOL     OW20983   2.895   2.198   6.255
 6695SOL    HW120984   2.962   2.234   6.191
 6695SOL    HW220985   2.929   2.113   6.296
 6696SOL     OW20986   3.787   3.934   4.568
 6696SOL    HW120987   3.744   3.876   4.498
 6696SOL    HW220988   3.841   4.006   4.523
 6697SOL     OW20989   4.498   2.465   2.369
 6697SOL    HW120990   4.468   2.461   2.274
 6697SOL    HW220991   4.428   2.424   2.427
 6698SOL     OW20992   3.388   4.166   1.309
 6698SOL    HW120993   3.304   4.143   1.359
 6698SOL    HW220994   3.366   4.234   1.238
 6699SOL     OW20995   1.445   4.314   5.503
 6699SOL    HW120996   1.418   4.299   5.597
 6699SOL    HW220997   1.415   4.238   5.446
 6700SOL     OW20998   5.561   0.120   0.116
 6700SOL    HW120999   5.583   0.203   0.167
 6700SOL    HW221000   5.645   0.071   0.093
 6701SOL     OW21001   6.000   0.597   1.182
 6701SOL    HW121002   6.082   0.647   1.153
 6701SOL    HW221003   5.989   0.516   1.125
 6702SOL     OW21004   2.751   2.727   1.089
 6702SOL    HW121005   2.814   2.725   1.166
 6702SOL    HW221006   2.673   2.785   1.112
 6703SOL     OW21007   0.268   1.279   6.894
 6703SOL    HW121008   0.301   1.185   6.901
 6703SOL    HW221009   0.275   1.323   6.984
 6704SOL     OW21010   3.211   1.042   5.039
 6704SOL    HW121011   3.143   0.992   5.093
 6704SOL    HW221012   3.252   0.980   4.972
 6705SOL     OW21013   6.537   3.639   2.268
 6705SOL    HW121014   6.619   3.639   2.210
 6705SOL    HW221015   6.473   3.708   2.234
 6706SOL     OW21016   0.358   6.921   1.940
 6706SOL    HW121017   0.378   7.019   1.937
 6706SOL    HW221018   0.260   6.906   1.937
 6707SOL     OW21019   5.903   0.612   2.036
 6707SOL    HW121020   5.863   0.524   2.014
 6707SOL    HW221021   5.849   0.656   2.108
 6708SOL     OW21022   0.723   4.198   1.657
 6708SOL    HW121023   0.694   4.140   1.581
 6708SOL    HW221024   0.643   4.244   1.696
 6709SOL     OW21025   1.977   5.225   2.744
 6709SOL    HW121026   1.995   5.168   2.825
 6709SOL    HW221027   2.064   5.249   2.701
 6710SOL     OW21028   4.174   1.342   0.976
 6710SOL    HW121029   4.221   1.425   0.946
 6710SOL    HW221030   4.235   1.289   1.035
 6711SOL     OW21031   3.680   6.119   6.236
 6711SOL    HW121032   3.635   6.062   6.167
 6711SOL    HW221033   3.774   6.087   6.249
 6712SOL     OW21034   6.102   3.910   1.077
 6712SOL    HW121035   6.066   3.828   1.123
 6712SOL    HW221036   6.026   3.965   1.043
 6713SOL     OW21037   1.221   6.108   4.539
 6713SOL    HW121038   1.143   6.074   4.487
 6713SOL    HW221039   1.200   6.200   4.574
 6714SOL     OW21040   5.284   1.173   0.698
 6714SOL    HW121041   5.279   1.267   0.666
 6714SOL    HW221042   5.231   1.163   0.782
 6715SOL     OW21043   1.170   1.192   0.321
 6715SOL    HW121044   1.093   1.149   0.369
 6715SOL    HW221045   1.171   1.160   0.226
 6716SOL     OW21046   6.935   5.331   2.976
 6716SOL    HW121047   6.983   5.293   3.056
 6716SOL    HW221048   6.987   5.408   2.939
 6717SOL     OW21049   4.228   2.259   5.821
 6717SOL    HW121050   4.240   2.240   5.724
 6717SOL    HW221051   4.317   2.275   5.863
 6718SOL     OW21052   3.527   0.350   1.544
 6718SOL    HW121053   3.589   0.405   1.600
 6718SOL    HW221054   3.548   0.364   1.447
 6719SOL     OW21055   1.722   0.988   6.952
 6719SOL    HW121056   1.747   1.068   6.897
 6719SOL    HW221057   1.709   1.015   0.027
 6720SOL     OW21058   1.650   0.879   6.136
 6720SOL    HW121059   1.636   0.972   6.169
 6720SOL    HW221060   1.687   0.881   6.044
 6721SOL     OW21061   0.640   1.774   0.660
 6721SOL    HW121062   0.541   1.778   0.665
 6721SOL    HW221063   0.679   1.815   0.743
 6722SOL     OW21064   6.504   3.316   0.749
 6722SOL    HW121065   6.411   3.286   0.768
 6722SOL    HW221066   6.564   3.289   0.825
 6723SOL     OW21067   1.713   2.121   6.823
 6723SOL    HW121068   1.743   2.208   6.786
 6723SOL    HW221069   1.613   2.117   6.822
 6724SOL     OW21070   1.953   3.613   5.822
 6724SOL    HW121071   1.914   3.677   5.888
 6724SOL    HW221072   1.883   3.546   5.795
 6725SOL     OW21073   5.562   2.874   3.397
 6725SOL    HW121074   5.545   2.829   3.310
 6725SOL    HW221075   5.479   2.871   3.453
 6726SOL     OW21076   0.040   1.002   5.421
 6726SOL    HW121077   6.984   0.937   5.412
 6726SOL    HW221078   0.003   1.094   5.431
 6727SOL     OW21079   1.272   4.939   5.719
 6727SOL    HW121080   1.217   4.888   5.653
 6727SOL    HW221081   1.252   5.037   5.710
 6728SOL     OW21082   4.050   2.068   3.809
 6728SOL    HW121083   3.984   2.116   3.866
 6728SOL    HW221084   4.009   2.048   3.720
 6729SOL     OW21085   4.966   1.414   1.410
 6729SOL    HW121086   4.986   1.316   1.414
 6729SOL    HW221087   4.955   1.450   1.502
 6730SOL     OW21088   0.884   1.336   1.409
 6730SOL    HW121089   0.974   1.376   1.426
 6730SOL    HW221090   0.889   1.237   1.413
 6731SOL     OW21091   3.180   6.286   6.811
 6731SOL    HW121092   3.174   6.352   6.735
 6731SOL    HW221093   3.150   6.196   6.779
 6732SOL     OW21094   5.913   5.193   4.687
 6732SOL    HW121095   5.893   5.275   4.633
 6732SOL    HW221096   5.952   5.220   4.775
 6733SOL     OW21097   4.129   5.104   6.196
 6733SOL    HW121098   4.223   5.132   6.216
 6733SOL    HW221099   4.124   5.068   6.103
 6734SOL     OW21100   5.791   1.359   4.709
 6734SOL    HW121101   5.829   1.363   4.802
 6734SOL    HW221102   5.771   1.264   4.685
 6735SOL     OW21103   6.127   3.205   3.498
 6735SOL    HW121104   6.125   3.188   3.400
 6735SOL    HW221105   6.145   3.119   3.547
 6736SOL     OW21106   3.196   4.088   0.475
 6736SOL    HW121107   3.211   3.990   0.465
 6736SOL    HW221108   3.226   4.117   0.566
 6737SOL     OW21109   0.648   3.537   1.088
 6737SOL    HW121110   0.716   3.604   1.058
 6737SOL    HW221111   0.650   3.531   1.188
 6738SOL     OW21112   2.098   6.064   3.004
 6738SOL    HW121113   2.097   5.980   3.058
 6738SOL    HW221114   2.004   6.100   2.997
 6739SOL     OW21115   6.730   6.728   4.766
 6739SOL    HW121116   6.764   6.821   4.778
 6739SOL    HW221117   6.781   6.683   4.693
 6740SOL     OW21118   0.222   6.730   4.335
 6740SOL    HW121119   0.278   6.746   4.253
 6740SOL    HW221120   0.173   6.644   4.325
 6741SOL     OW21121   4.883   1.917   5.634
 6741SOL    HW121122   4.968   1.911   5.686
 6741SOL    HW221123   4.897   1.972   5.552
 6742SOL     OW21124   5.720   4.610   3.834
 6742SOL    HW121125   5.705   4.532   3.895
 6742SOL    HW221126   5.682   4.693   3.875
 6743SOL     OW21127   4.112   3.923   1.263
 6743SOL    HW121128   4.021   3.909   1.223
 6743SOL    HW221129   4.174   3.958   1.192
 6744SOL     OW21130   0.188   5.566   5.964
 6744SOL    HW121131   0.205   5.605   6.054
 6744SOL    HW221132   0.151   5.474   5.973
 6745SOL     OW21133   6.885   6.397   4.052
 6745SOL    HW121134   6.816   6.361   3.989
 6745SOL    HW221135   6.888   6.339   4.134
 6746SOL     OW21136   1.824   1.364   2.788
 6746SOL    HW121137   1.869   1.311   2.860
 6746SOL    HW221138   1.798   1.303   2.713
 6747SOL     OW21139   1.264   6.759   6.771
 6747SOL    HW121140   1.319   6.786   6.692
 6747SOL    HW221141   1.322   6.708   6.836
 6748SOL     OW21142   2.335   1.643   4.601
 6748SOL    HW121143   2.425   1.645   4.557
 6748SOL    HW221144   2.347   1.648   4.700
 6749SOL     OW21145   3.866   4.727   1.030
 6749SOL    HW121146   3.940   4.795   1.030
 6749SOL    HW221147   3.890   4.652   0.968
 6750SOL     OW21148   3.223   1.605   4.436
 6750SOL    HW121149   3.241   1.514   4.398
 6750SOL    HW221150   3.306   1.641   4.478
 6751SOL     OW21151   3.891   6.685   3.828
 6751SOL    HW121152   3.959   6.690   3.901
 6751SOL    HW221153   3.926   6.733   3.747
 6752SOL     OW21154   2.007   6.299   2.572
 6752SOL    HW121155   2.069   6.301   2.649
 6752SOL    HW221156   1.958   6.386   2.565
 6753SOL     OW21157   3.690   2.902   5.534
 6753SOL    HW121158   3.734   2.960   5.466
 6753SOL    HW221159   3.599   2.939   5.556
 6754SOL     OW21160   6.043   1.265   1.657
 6754SOL    HW121161   6.015   1.181   1.610
 6754SOL    HW221162   6.140   1.258   1.682
 6755SOL     OW21163   2.376   5.488   6.312
 6755SOL    HW121164   2.447   5.557   6.297
 6755SOL    HW221165   2.419   5.405   6.347
 6756SOL     OW21166   2.514   2.257   5.441
 6756SOL    HW121167   2.606   2.227   5.464
 6756SOL    HW221168   2.490   2.338   5.495
 6757SOL     OW21169   3.642   0.877   0.359
 6757SOL    HW121170   3.664   0.927   0.443
 6757SOL    HW221171   3.690   0.790   0.358
 6758SOL     OW21172   6.086   2.676   2.244
 6758SOL    HW121173   6.157   2.606   2.235
 6758SOL    HW221174   6.051   2.699   2.153
 6759SOL     OW21175   0.810   3.277   2.944
 6759SOL    HW121176   0.830   3.244   3.037
 6759SOL    HW221177   0.756   3.208   2.896
 6760SOL     OW21178   5.492   2.780   3.143
 6760SOL    HW121179   5.413   2.831   3.174
 6760SOL    HW221180   5.463   2.709   3.078
 6761SOL     OW21181   5.031   2.011   4.677
 6761SOL    HW121182   5.109   1.964   4.717
 6761SOL    HW221183   4.953   1.948   4.671
 6762SOL     OW21184   0.052   5.315   4.025
 6762SOL    HW121185   6.993   5.265   3.989
 6762SOL    HW221186   0.136   5.282   3.981
 6763SOL     OW21187   4.920   5.195   4.626
 6763SOL    HW121188   4.950   5.290   4.634
 6763SOL    HW221189   4.860   5.186   4.546
 6764SOL     OW21190   1.279   5.543   1.811
 6764SOL    HW121191   1.197   5.523   1.865
 6764SOL    HW221192   1.329   5.618   1.855
 6765SOL     OW21193   6.250   4.587   2.637
 6765SOL    HW121194   6.208   4.512   2.586
 6765SOL    HW221195   6.205   4.673   2.612
 6766SOL     OW21196   5.008   6.936   0.513
 6766SOL    HW121197   4.988   6.853   0.565
 6766SOL    HW221198   4.934   6.954   0.449
 6767SOL     OW21199   3.090   1.409   0.279
 6767SOL    HW121200   3.016   1.471   0.252
 6767SOL    HW221201   3.137   1.446   0.360
 6768SOL     OW21202   2.035   0.984   0.899
 6768SOL    HW121203   2.012   0.967   0.803
 6768SOL    HW221204   1.951   0.988   0.953
 6769SOL     OW21205   3.950   2.545   1.456
 6769SOL    HW121206   3.857   2.548   1.421
 6769SOL    HW221207   3.974   2.450   1.479
 6770SOL     OW21208   6.635   0.220   2.007
 6770SOL    HW121209   6.673   0.302   1.965
 6770SOL    HW221210   6.604   0.241   2.100
 6771SOL     OW21211   4.029   2.186   2.918
 6771SOL    HW121212   4.022   2.198   2.819
 6771SOL    HW221213   3.940   2.158   2.955
 6772SOL     OW21214   2.616   1.875   2.851
 6772SOL    HW121215   2.605   1.961   2.800
 6772SOL    HW221216   2.713   1.857   2.867
 6773SOL     OW21217   6.802   4.084   1.629
 6773SOL    HW121218   6.802   3.992   1.591
 6773SOL    HW221219   6.836   4.082   1.723
 6774SOL     OW21220   0.615   2.768   6.304
 6774SOL    HW121221   0.652   2.741   6.392
 6774SOL    HW221222   0.604   2.867   6.301
 6775SOL     OW21223   2.692   4.460   0.912
 6775SOL    HW121224   2.666   4.412   0.995
 6775SOL    HW221225   2.748   4.400   0.854
 6776SOL     OW21226   5.798   5.148   6.953
 6776SOL    HW121227   5.727   5.191   6.896
 6776SOL    HW221228   5.813   5.054   6.922
 6777SOL     OW21229   4.522   4.848   5.950
 6777SOL    HW121230   4.547   4.763   5.997
 6777SOL    HW221231   4.605   4.892   5.915
 6778SOL     OW21232   0.585   4.496   2.907
 6778SOL    HW121233   0.525   4.416   2.899
 6778SOL    HW221234   0.645   4.484   2.986
 6779SOL     OW21235   0.182   4.403   0.304
 6779SOL    HW121236   0.210   4.498   0.289
 6779SOL    HW221237   0.187   4.353   0.218
 6780SOL     OW21238   0.290   2.610   2.864
 6780SOL    HW121239   0.221   2.578   2.799
 6780SOL    HW221240   0.304   2.708   2.853
 6781SOL     OW21241   5.194   6.445   5.827
 6781SOL    HW121242   5.178   6.523   5.887
 6781SOL    HW221243   5.157   6.464   5.737
 6782SOL     OW21244   6.736   1.114   2.558
 6782SOL    HW121245   6.768   1.042   2.618
 6782SOL    HW221246   6.812   1.172   2.530
 6783SOL     OW21247   0.133   6.152   6.037
 6783SOL    HW121248   0.120   6.130   5.940
 6783SOL    HW221249   0.204   6.092   6.075
 6784SOL     OW21250   3.790   4.345   6.599
 6784SOL    HW121251   3.879   4.338   6.645
 6784SOL    HW221252   3.795   4.298   6.511
 6785SOL     OW21253   6.225   5.636   1.829
 6785SOL    HW121254   6.197   5.619   1.923
 6785SOL    HW221255   6.149   5.680   1.780
 6786SOL     OW21256   1.618   2.286   6.580
 6786SOL    HW121257   1.588   2.221   6.511
 6786SOL    HW221258   1.538   2.325   6.626
 6787SOL     OW21259   1.611   3.811   1.419
 6787SOL    HW121260   1.551   3.821   1.340
 6787SOL    HW221261   1.562   3.764   1.492
 6788SOL     OW21262   2.840   3.850   1.648
 6788SOL    HW121263   2.885   3.826   1.734
 6788SOL    HW221264   2.874   3.791   1.575
 6789SOL     OW21265   1.004   6.888   1.911
 6789SOL    HW121266   0.945   6.927   1.839
 6789SOL    HW221267   1.018   6.956   1.983
 6790SOL     OW21268   1.743   2.887   0.234
 6790SOL    HW121269   1.727   2.876   0.332
 6790SOL    HW221270   1.834   2.855   0.211
 6791SOL     OW21271   3.883   2.996   6.629
 6791SOL    HW121272   3.907   3.029   6.538
 6791SOL    HW221273   3.909   2.900   6.638
 6792SOL     OW21274   6.293   5.950   6.640
 6792SOL    HW121275   6.214   6.009   6.651
 6792SOL    HW221276   6.376   6.006   6.631
 6793SOL     OW21277   1.457   2.098   0.324
 6793SOL    HW121278   1.516   2.018   0.312
 6793SOL    HW221279   1.498   2.177   0.277
 6794SOL     OW21280   4.878   0.813   4.472
 6794SOL    HW121281   4.837   0.731   4.511
 6794SOL    HW221282   4.904   0.876   4.545
 6795SOL     OW21283   2.980   5.917   0.701
 6795SOL    HW121284   2.952   5.991   0.640
 6795SOL    HW221285   2.924   5.836   0.682
 6796SOL     OW21286   5.289   1.369   2.844
 6796SOL    HW121287   5.360   1.299   2.832
 6796SOL    HW221288   5.327   1.446   2.895
 6797SOL     OW21289   5.676   3.967   2.097
 6797SOL    HW121290   5.770   3.938   2.116
 6797SOL    HW221291   5.616   3.934   2.170
 6798SOL     OW21292   5.437   5.448   2.780
 6798SOL    HW121293   5.401   5.427   2.689
 6798SOL    HW221294   5.396   5.532   2.814
 6799SOL     OW21295   4.528   5.948   0.318
 6799SOL    HW121296   4.618   5.911   0.297
 6799SOL    HW221297   4.479   5.969   0.233
 6800SOL     OW21298   1.599   4.805   0.562
 6800SOL    HW121299   1.613   4.813   0.661
 6800SOL    HW221300   1.508   4.767   0.544
 6801SOL     OW21301   1.604   2.520   2.367
 6801SOL    HW121302   1.577   2.581   2.292
 6801SOL    HW221303   1.607   2.572   2.453
 6802SOL     OW21304   2.369   5.889   0.896
 6802SOL    HW121305   2.299   5.943   0.943
 6802SOL    HW221306   2.327   5.808   0.856
 6803SOL     OW21307   5.128   1.891   5.745
 6803SOL    HW121308   5.142   1.990   5.749
 6803SOL    HW221309   5.193   1.846   5.806
 6804SOL     OW21310   1.575   5.591   3.561
 6804SOL    HW121311   1.627   5.545   3.634
 6804SOL    HW221312   1.569   5.689   3.582
 6805SOL     OW21313   6.122   6.896   4.821
 6805SOL    HW121314   6.074   6.851   4.896
 6805SOL    HW221315   6.185   6.831   4.778
 6806SOL     OW21316   4.666   1.098   4.586
 6806SOL    HW121317   4.690   1.030   4.655
 6806SOL    HW221318   4.730   1.090   4.509
 6807SOL     OW21319   2.636   3.002   0.343
 6807SOL    HW121320   2.569   2.981   0.272
 6807SOL    HW221321   2.605   2.966   0.431
 6808SOL     OW21322   0.175   2.396   4.916
 6808SOL    HW121323   0.103   2.454   4.878
 6808SOL    HW221324   0.135   2.317   4.963
 6809SOL     OW21325   1.683   4.520   6.957
 6809SOL    HW121326   1.692   4.570   6.871
 6809SOL    HW221327   1.636   4.577   0.004
 6810SOL     OW21328   0.457   0.906   2.530
 6810SOL    HW121329   0.495   0.814   2.541
 6810SOL    HW221330   0.527   0.974   2.551
 6811SOL     OW21331   6.441   4.580   0.989
 6811SOL    HW121332   6.473   4.656   1.045
 6811SOL    HW221333   6.348   4.555   1.015
 6812SOL     OW21334   3.943   3.937   3.307
 6812SOL    HW121335   3.954   4.033   3.332
 6812SOL    HW221336   3.976   3.879   3.382
 6813SOL     OW21337   4.562   2.431   1.035
 6813SOL    HW121338   4.644   2.398   1.081
 6813SOL    HW221339   4.486   2.369   1.053
 6814SOL     OW21340   2.658   3.492   0.999
 6814SOL    HW121341   2.643   3.471   0.903
 6814SOL    HW221342   2.754   3.517   1.013
 6815SOL     OW21343   2.761   0.097   1.930
 6815SOL    HW121344   2.804   0.011   1.903
 6815SOL    HW221345   2.754   0.157   1.850
 6816SOL     OW21346   6.353   5.299   7.013
 6816SOL    HW121347   6.263   5.274   0.029
 6816SOL    HW221348   6.408   5.341   0.065
 6817SOL     OW21349   6.636   1.672   5.629
 6817SOL    HW121350   6.538   1.692   5.624
 6817SOL    HW221351   6.669   1.648   5.537
 6818SOL     OW21352   3.605   6.666   2.146
 6818SOL    HW121353   3.650   6.704   2.065
 6818SOL    HW221354   3.581   6.740   2.209
 6819SOL     OW21355   3.234   0.516   3.686
 6819SOL    HW121356   3.204   0.535   3.779
 6819SOL    HW221357   3.309   0.577   3.662
 6820SOL     OW21358   0.812   4.136   3.446
 6820SOL    HW121359   0.801   4.146   3.545
 6820SOL    HW221360   0.766   4.212   3.399
 6821SOL     OW21361   2.545   2.465   4.876
 6821SOL    HW121362   2.479   2.424   4.938
 6821SOL    HW221363   2.545   2.565   4.888
 6822SOL     OW21364   5.492   1.704   5.779
 6822SOL    HW121365   5.491   1.773   5.707
 6822SOL    HW221366   5.421   1.725   5.846
 6823SOL     OW21367   3.494   3.170   3.592
 6823SOL    HW121368   3.416   3.207   3.541
 6823SOL    HW221369   3.574   3.168   3.532
 6824SOL     OW21370   0.581   4.107   6.368
 6824SOL    HW121371   0.568   4.047   6.289
 6824SOL    HW221372   0.508   4.175   6.371
 6825SOL     OW21373   5.341   0.116   2.111
 6825SOL    HW121374   5.318   0.030   2.157
 6825SOL    HW221375   5.293   0.120   2.023
 6826SOL     OW21376   2.118   3.235   2.680
 6826SOL    HW121377   2.082   3.150   2.642
 6826SOL    HW221378   2.186   3.273   2.617
 6827SOL     OW21379   4.979   5.791   6.824
 6827SOL    HW121380   4.948   5.749   6.909
 6827SOL    HW221381   5.077   5.811   6.830
 6828SOL     OW21382   1.492   2.122   1.153
 6828SOL    HW121383   1.573   2.170   1.119
 6828SOL    HW221384   1.410   2.175   1.133
 6829SOL     OW21385   5.246   6.259   3.769
 6829SOL    HW121386   5.310   6.240   3.843
 6829SOL    HW221387   5.165   6.200   3.780
 6830SOL     OW21388   5.361   1.846   3.216
 6830SOL    HW121389   5.383   1.758   3.258
 6830SOL    HW221390   5.330   1.831   3.122
 6831SOL     OW21391   0.864   0.925   6.145
 6831SOL    HW121392   0.788   0.928   6.209
 6831SOL    HW221393   0.831   0.901   6.054
 6832SOL     OW21394   2.874   4.819   2.260
 6832SOL    HW121395   2.796   4.773   2.219
 6832SOL    HW221396   2.952   4.814   2.199
 6833SOL     OW21397   3.803   4.774   6.517
 6833SOL    HW121398   3.850   4.848   6.469
 6833SOL    HW221399   3.727   4.740   6.460
 6834SOL     OW21400   4.513   6.694   1.873
 6834SOL    HW121401   4.505   6.615   1.933
 6834SOL    HW221402   4.479   6.670   1.782
 6835SOL     OW21403   4.345   0.277   4.798
 6835SOL    HW121404   4.340   0.346   4.727
 6835SOL    HW221405   4.431   0.225   4.789
 6836SOL     OW21406   3.027   6.611   0.387
 6836SOL    HW121407   2.979   6.669   0.452
 6836SOL    HW221408   3.109   6.658   0.354
 6837SOL     OW21409   1.822   3.578   1.801
 6837SOL    HW121410   1.831   3.677   1.800
 6837SOL    HW221411   1.913   3.536   1.808
 6838SOL     OW21412   2.594   1.196   0.203
 6838SOL    HW121413   2.608   1.136   0.282
 6838SOL    HW221414   2.681   1.215   0.160
 6839SOL     OW21415   4.203   1.025   0.869
 6839SOL    HW121416   4.279   0.982   0.822
 6839SOL    HW221417   4.205   1.124   0.854
 6840SOL     OW21418   2.629   1.402   6.073
 6840SOL    HW121419   2.571   1.386   6.153
 6840SOL    HW221420   2.660   1.498   6.073
 6841SOL     OW21421   6.386   2.943   6.343
 6841SOL    HW121422   6.354   2.866   6.287
 6841SOL    HW221423   6.426   2.909   6.428
 6842SOL     OW21424   1.877   5.378   1.796
 6842SOL    HW121425   1.803   5.374   1.728
 6842SOL    HW221426   1.956   5.327   1.763
 6843SOL     OW21427   5.285   6.743   6.758
 6843SOL    HW121428   5.333   6.828   6.736
 6843SOL    HW221429   5.350   6.676   6.794
 6844SOL     OW21430   4.860   0.541   3.830
 6844SOL    HW121431   4.828   0.630   3.796
 6844SOL    HW221432   4.809   0.517   3.912
 6845SOL     OW21433   4.896   2.534   3.145
 6845SOL    HW121434   4.814   2.477   3.155
 6845SOL    HW221435   4.871   2.630   3.157
 6846SOL     OW21436   2.824   4.102   0.474
 6846SOL    HW121437   2.784   4.018   0.511
 6846SOL    HW221438   2.884   4.079   0.397
 6847SOL     OW21439   5.855   3.695   4.265
 6847SOL    HW121440   5.766   3.740   4.254
 6847SOL    HW221441   5.844   3.596   4.254
 6848SOL     OW21442   5.046   4.383   3.661
 6848SOL    HW121443   5.005   4.335   3.583
 6848SOL    HW221444   5.139   4.409   3.638
 6849SOL     OW21445   4.064   3.669   6.078
 6849SOL    HW121446   4.087   3.598   6.012
 6849SOL    HW221447   3.964   3.680   6.083
 6850SOL     OW21448   4.215   1.976   3.283
 6850SOL    HW121449   4.227   2.021   3.194
 6850SOL    HW221450   4.232   1.878   3.273
 6851SOL     OW21451   1.626   2.738   3.228
 6851SOL    HW121452   1.651   2.641   3.228
 6851SOL    HW221453   1.679   2.786   3.297
 6852SOL     OW21454   2.900   5.484   0.351
 6852SOL    HW121455   2.956   5.521   0.425
 6852SOL    HW221456   2.826   5.428   0.390
 6853SOL     OW21457   4.922   3.261   6.363
 6853SOL    HW121458   4.898   3.288   6.270
 6853SOL    HW221459   4.853   3.196   6.397
 6854SOL     OW21460   5.429   6.429   6.050
 6854SOL    HW121461   5.523   6.399   6.034
 6854SOL    HW221462   5.366   6.360   6.013
 6855SOL     OW21463   3.798   4.869   3.476
 6855SOL    HW121464   3.882   4.825   3.446
 6855SOL    HW221465   3.803   4.891   3.573
 6856SOL     OW21466   1.057   2.311   6.667
 6856SOL    HW121467   0.988   2.268   6.609
 6856SOL    HW221468   1.074   2.254   6.747
 6857SOL     OW21469   0.943   3.611   6.152
 6857SOL    HW121470   1.008   3.535   6.164
 6857SOL    HW221471   0.944   3.639   6.056
 6858SOL     OW21472   3.083   4.261   1.738
 6858SOL    HW121473   3.008   4.320   1.767
 6858SOL    HW221474   3.171   4.302   1.764
 6859SOL     OW21475   1.054   1.315   2.499
 6859SOL    HW121476   1.057   1.264   2.413
 6859SOL    HW221477   0.977   1.378   2.498
 6860SOL     OW21478   0.162   6.506   2.030
 6860SOL    HW121479   0.147   6.419   1.982
 6860SOL    HW221480   0.079   6.562   2.023
 6861SOL     OW21481   5.055   2.837   5.220
 6861SOL    HW121482   5.069   2.936   5.224
 6861SOL    HW221483   4.970   2.818   5.171
 6862SOL     OW21484   0.286   4.755   5.748
 6862SOL    HW121485   0.327   4.666   5.729
 6862SOL    HW221486   0.305   4.781   5.843
 6863SOL     OW21487   0.134   6.660   5.285
 6863SOL    HW121488   0.178   6.717   5.355
 6863SOL    HW221489   0.065   6.602   5.329
 6864SOL     OW21490   1.900   3.526   5.308
 6864SOL    HW121491   1.866   3.571   5.391
 6864SOL    HW221492   1.989   3.565   5.283
 6865SOL     OW21493   1.747   0.229   4.707
 6865SOL    HW121494   1.710   0.287   4.780
 6865SOL    HW221495   1.677   0.216   4.636
 6866SOL     OW21496   0.082   4.508   1.953
 6866SOL    HW121497   0.037   4.523   2.040
 6866SOL    HW221498   0.068   4.413   1.923
 6867SOL     OW21499   2.073   3.090   0.709
 6867SOL    HW121500   2.136   3.032   0.658
 6867SOL    HW221501   2.017   3.034   0.771
 6868SOL     OW21502   2.140   5.371   4.631
 6868SOL    HW121503   2.188   5.414   4.708
 6868SOL    HW221504   2.207   5.323   4.574
 6869SOL     OW21505   3.701   0.043   5.937
 6869SOL    HW121506   3.758   7.014   6.003
 6869SOL    HW221507   3.607   0.049   5.972
 6870SOL     OW21508   0.334   2.766   0.331
 6870SOL    HW121509   0.259   2.830   0.317
 6870SOL    HW221510   0.327   2.691   0.265
 6871SOL     OW21511   0.070   3.724   2.476
 6871SOL    HW121512   0.036   3.642   2.522
 6871SOL    HW221513   0.039   3.724   2.381
 6872SOL     OW21514   1.600   2.841   1.593
 6872SOL    HW121515   1.635   2.931   1.568
 6872SOL    HW221516   1.523   2.817   1.533
 6873SOL     OW21517   1.102   3.988   4.625
 6873SOL    HW121518   1.055   3.991   4.714
 6873SOL    HW221519   1.198   3.965   4.639
 6874SOL     OW21520   5.758   5.547   2.557
 6874SOL    HW121521   5.746   5.449   2.573
 6874SOL    HW221522   5.841   5.578   2.602
 6875SOL     OW21523   1.347   2.859   1.183
 6875SOL    HW121524   1.270   2.913   1.219
 6875SOL    HW221525   1.432   2.907   1.201
 6876SOL     OW21526   4.528   5.647   3.334
 6876SOL    HW121527   4.464   5.649   3.411
 6876SOL    HW221528   4.519   5.561   3.285
 6877SOL     OW21529   1.923   3.775   2.122
 6877SOL    HW121530   1.838   3.722   2.121
 6877SOL    HW221531   1.954   3.789   2.028
 6878SOL     OW21532   2.106   0.852   3.902
 6878SOL    HW121533   2.059   0.925   3.851
 6878SOL    HW221534   2.042   0.777   3.919
 6879SOL     OW21535   2.299   2.272   0.878
 6879SOL    HW121536   2.302   2.297   0.975
 6879SOL    HW221537   2.205   2.251   0.852
 6880SOL     OW21538   1.570   5.542   6.533
 6880SOL    HW121539   1.550   5.565   6.628
 6880SOL    HW221540   1.613   5.620   6.487
 6881SOL     OW21541   1.328   3.100   0.298
 6881SOL    HW121542   1.357   3.175   0.358
 6881SOL    HW221543   1.375   3.109   0.210
 6882SOL     OW21544   2.987   6.386   0.194
 6882SOL    HW121545   2.897   6.394   0.149
 6882SOL    HW221546   3.017   6.477   0.222
 6883SOL     OW21547   4.728   0.144   6.528
 6883SOL    HW121548   4.698   0.216   6.590
 6883SOL    HW221549   4.705   0.169   6.434
 6884SOL     OW21550   2.093   3.727   3.086
 6884SOL    HW121551   2.059   3.742   2.993
 6884SOL    HW221552   2.039   3.655   3.130
 6885SOL     OW21553   5.481   5.754   3.590
 6885SOL    HW121554   5.500   5.657   3.608
 6885SOL    HW221555   5.404   5.784   3.646
 6886SOL     OW21556   5.038   1.229   5.742
 6886SOL    HW121557   4.954   1.284   5.742
 6886SOL    HW221558   5.056   1.197   5.649
 6887SOL     OW21559   5.255   5.945   6.143
 6887SOL    HW121560   5.191   5.963   6.218
 6887SOL    HW221561   5.210   5.890   6.073
 6888SOL     OW21562   5.746   4.809   6.428
 6888SOL    HW121563   5.681   4.861   6.371
 6888SOL    HW221564   5.839   4.833   6.401
 6889SOL     OW21565   0.780   2.750   6.510
 6889SOL    HW121566   0.744   2.795   6.592
 6889SOL    HW221567   0.847   2.681   6.537
 6890SOL     OW21568   3.740   5.197   2.648
 6890SOL    HW121569   3.680   5.246   2.711
 6890SOL    HW221570   3.737   5.242   2.558
 6891SOL     OW21571   2.215   2.331   1.171
 6891SOL    HW121572   2.265   2.409   1.135
 6891SOL    HW221573   2.201   2.343   1.269
 6892SOL     OW21574   3.757   1.121   3.815
 6892SOL    HW121575   3.724   1.043   3.761
 6892SOL    HW221576   3.681   1.160   3.867
 6893SOL     OW21577   6.385   2.772   6.973
 6893SOL    HW121578   6.476   2.772   7.016
 6893SOL    HW221579   6.335   2.691   7.002
 6894SOL     OW21580   5.445   4.814   0.929
 6894SOL    HW121581   5.427   4.838   0.833
 6894SOL    HW221582   5.492   4.890   0.974
 6895SOL     OW21583   1.458   6.482   1.769
 6895SOL    HW121584   1.529   6.413   1.754
 6895SOL    HW221585   1.500   6.572   1.774
 6896SOL     OW21586   4.332   1.932   4.519
 6896SOL    HW121587   4.239   1.949   4.488
 6896SOL    HW221588   4.371   1.857   4.466
 6897SOL     OW21589   5.096   3.931   5.029
 6897SOL    HW121590   5.147   3.995   4.971
 6897SOL    HW221591   5.153   3.852   5.050
 6898SOL     OW21592   2.508   1.786   1.762
 6898SOL    HW121593   2.604   1.791   1.734
 6898SOL    HW221594   2.476   1.877   1.790
 6899SOL     OW21595   6.290   5.655   3.144
 6899SOL    HW121596   6.283   5.728   3.076
 6899SOL    HW221597   6.342   5.579   3.106
 6900SOL     OW21598   6.112   4.200   5.925
 6900SOL    HW121599   6.163   4.285   5.915
 6900SOL    HW221600   6.022   4.219   5.965
 6901SOL     OW21601   4.756   5.119   6.693
 6901SOL    HW121602   4.689   5.181   6.652
 6901SOL    HW221603   4.714   5.029   6.705
 6902SOL     OW21604   0.588   5.868   6.308
 6902SOL    HW121605   0.573   5.833   6.215
 6902SOL    HW221606   0.500   5.881   6.353
 6903SOL     OW21607   2.721   5.044   4.904
 6903SOL    HW121608   2.790   5.002   4.964
 6903SOL    HW221609   2.724   5.001   4.814
 6904SOL     OW21610   0.092   6.258   4.546
 6904SOL    HW121611   0.030   6.288   4.619
 6904SOL    HW221612   0.040   6.208   4.477
 6905SOL     OW21613   5.399   5.534   6.182
 6905SOL    HW121614   5.299   5.528   6.173
 6905SOL    HW221615   5.425   5.515   6.277
 6906SOL     OW21616   3.930   1.107   3.476
 6906SOL    HW121617   3.830   1.103   3.485
 6906SOL    HW221618   3.972   1.088   3.565
 6907SOL     OW21619   6.023   1.519   1.389
 6907SOL    HW121620   5.971   1.600   1.412
 6907SOL    HW221621   6.041   1.517   1.290
 6908SOL     OW21622   2.327   4.591   6.858
 6908SOL    HW121623   2.229   4.606   6.843
 6908SOL    HW221624   2.341   4.521   6.927
 6909SOL     OW21625   5.483   4.930   1.336
 6909SOL    HW121626   5.408   4.927   1.402
 6909SOL    HW221627   5.538   4.847   1.344
 6910SOL     OW21628   1.380   2.489   3.308
 6910SOL    HW121629   1.453   2.452   3.249
 6910SOL    HW221630   1.386   2.589   3.310
 6911SOL     OW21631   2.954   0.117   6.124
 6911SOL    HW121632   2.935   0.025   6.089
 6911SOL    HW221633   2.875   0.150   6.176
 6912SOL     OW21634   2.121   3.883   6.456
 6912SOL    HW121635   2.040   3.939   6.473
 6912SOL    HW221636   2.185   3.935   6.398
 6913SOL     OW21637   4.439   5.886   5.630
 6913SOL    HW121638   4.433   5.953   5.704
 6913SOL    HW221639   4.388   5.803   5.656
 6914SOL     OW21640   6.563   3.349   2.120
 6914SOL    HW121641   6.528   3.438   2.150
 6914SOL    HW221642   6.491   3.299   2.073
 6915SOL     OW21643   1.422   3.070   2.387
 6915SOL    HW121644   1.499   3.098   2.330
 6915SOL    HW221645   1.391   2.979   2.357
 6916SOL     OW21646   4.429   6.322   6.734
 6916SOL    HW121647   4.515   6.297   6.689
 6916SOL    HW221648   4.352   6.294   6.676
 6917SOL     OW21649   5.719   5.453   1.409
 6917SOL    HW121650   5.787   5.437   1.480
 6917SOL    HW221651   5.660   5.372   1.400
 6918SOL     OW21652   1.398   3.187   2.023
 6918SOL    HW121653   1.472   3.179   2.091
 6918SOL    HW221654   1.438   3.202   1.933
 6919SOL     OW21655   6.606   6.422   3.023
 6919SOL    HW121656   6.688   6.369   3.043
 6919SOL    HW221657   6.544   6.419   3.102
 6920SOL     OW21658   5.024   0.569   5.553
 6920SOL    HW121659   5.107   0.594   5.504
 6920SOL    HW221660   4.986   0.651   5.597
 6921SOL     OW21661   3.408   0.284   4.541
 6921SOL    HW121662   3.427   0.189   4.563
 6921SOL    HW221663   3.489   0.340   4.563
 6922SOL     OW21664   1.046   6.296   5.555
 6922SOL    HW121665   1.050   6.392   5.525
 6922SOL    HW221666   0.984   6.288   5.633
 6923SOL     OW21667   6.245   7.009   1.865
 6923SOL    HW121668   6.193   0.050   1.805
 6923SOL    HW221669   6.287   0.042   1.938
 6924SOL     OW21670   3.585   6.584   0.397
 6924SOL    HW121671   3.576   6.684   0.399
 6924SOL    HW221672   3.586   6.553   0.302
 6925SOL     OW21673   5.626   6.281   6.462
 6925SOL    HW121674   5.696   6.327   6.407
 6925SOL    HW221675   5.667   6.203   6.509
 6926SOL     OW21676   2.920   2.232   0.751
 6926SOL    HW121677   2.867   2.155   0.787
 6926SOL    HW221678   2.997   2.251   0.812
 6927SOL     OW21679   4.282   0.951   0.198
 6927SOL    HW121680   4.331   1.000   0.125
 6927SOL    HW221681   4.188   0.985   0.204
 6928SOL     OW21682   4.524   4.982   0.844
 6928SOL    HW121683   4.516   5.030   0.756
 6928SOL    HW221684   4.476   4.894   0.839
 6929SOL     OW21685   5.433   5.737   0.990
 6929SOL    HW121686   5.468   5.824   1.026
 6929SOL    HW221687   5.335   5.747   0.972
 6930SOL     OW21688   0.398   0.833   0.308
 6930SOL    HW121689   0.483   0.852   0.358
 6930SOL    HW221690   0.421   0.787   0.222
 6931SOL     OW21691   2.439   2.569   1.324
 6931SOL    HW121692   2.464   2.473   1.336
 6931SOL    HW221693   2.412   2.607   1.412
 6932SOL     OW21694   4.435   5.628   0.366
 6932SOL    HW121695   4.483   5.609   0.281
 6932SOL    HW221696   4.348   5.673   0.346
 6933SOL     OW21697   3.039   5.456   6.394
 6933SOL    HW121698   3.025   5.379   6.332
 6933SOL    HW221699   3.031   5.542   6.343
 6934SOL     OW21700   4.888   4.081   6.032
 6934SOL    HW121701   4.988   4.079   6.030
 6934SOL    HW221702   4.855   4.005   6.088
 6935SOL     OW21703   5.657   5.152   1.322
 6935SOL    HW121704   5.578   5.092   1.311
 6935SOL    HW221705   5.704   5.129   1.408
 6936SOL     OW21706   0.877   1.879   5.035
 6936SOL    HW121707   0.876   1.979   5.037
 6936SOL    HW221708   0.889   1.847   4.941
 6937SOL     OW21709   5.155   5.669   0.440
 6937SOL    HW121710   5.060   5.669   0.471
 6937SOL    HW221711   5.168   5.595   0.374
 6938SOL     OW21712   0.305   0.629   4.492
 6938SOL    HW121713   0.291   0.656   4.397
 6938SOL    HW221714   0.398   0.652   4.520
 6939SOL     OW21715   6.351   4.745   3.370
 6939SOL    HW121716   6.422   4.765   3.437
 6939SOL    HW221717   6.304   4.660   3.396
 6940SOL     OW21718   4.230   6.751   0.577
 6940SOL    HW121719   4.157   6.775   0.641
 6940SOL    HW221720   4.251   6.830   0.520
 6941SOL     OW21721   3.480   3.343   2.555
 6941SOL    HW121722   3.468   3.441   2.540
 6941SOL    HW221723   3.406   3.293   2.511
 6942SOL     OW21724   6.257   6.862   1.664
 6942SOL    HW121725   6.259   6.910   1.751
 6942SOL    HW221726   6.162   6.857   1.631
 6943SOL     OW21727   3.975   4.932   6.358
 6943SOL    HW121728   3.928   4.875   6.290
 6943SOL    HW221729   4.026   5.004   6.311
 6944SOL     OW21730   1.264   3.646   5.906
 6944SOL    HW121731   1.207   3.607   5.833
 6944SOL    HW221732   1.285   3.741   5.885
 6945SOL     OW21733   5.316   3.035   0.968
 6945SOL    HW121734   5.291   3.129   0.992
 6945SOL    HW221735   5.278   3.013   0.878
 6946SOL     OW21736   4.459   5.754   2.568
 6946SOL    HW121737   4.420   5.779   2.656
 6946SOL    HW221738   4.465   5.654   2.562
 6947SOL     OW21739   5.168   5.389   5.444
 6947SOL    HW121740   5.218   5.471   5.471
 6947SOL    HW221741   5.155   5.330   5.523
 6948SOL     OW21742   0.526   5.419   0.190
 6948SOL    HW121743   0.594   5.391   0.122
 6948SOL    HW221744   0.561   5.497   0.242
 6949SOL     OW21745   2.810   2.334   3.940
 6949SOL    HW121746   2.747   2.358   3.866
 6949SOL    HW221747   2.815   2.411   4.005
 6950SOL     OW21748   0.946   6.629   4.817
 6950SOL    HW121749   1.019   6.560   4.821
 6950SOL    HW221750   0.947   6.682   4.902
 6951SOL     OW21751   6.956   4.962   6.751
 6951SOL    HW121752   6.936   4.935   6.657
 6951SOL    HW221753   6.886   4.923   6.812
 6952SOL     OW21754   3.444   4.874   3.072
 6952SOL    HW121755   3.381   4.855   3.148
 6952SOL    HW221756   3.445   4.972   3.055
 6953SOL     OW21757   5.106   0.998   1.148
 6953SOL    HW121758   5.196   1.032   1.177
 6953SOL    HW221759   5.101   0.900   1.166
 6954SOL     OW21760   6.445   3.547   0.491
 6954SOL    HW121761   6.424   3.594   0.405
 6954SOL    HW221762   6.434   3.449   0.479
 6955SOL     OW21763   5.395   6.340   2.430
 6955SOL    HW121764   5.346   6.386   2.503
 6955SOL    HW221765   5.368   6.243   2.427
 6956SOL     OW21766   5.181   5.486   2.213
 6956SOL    HW121767   5.177   5.450   2.120
 6956SOL    HW221768   5.168   5.411   2.278
 6957SOL     OW21769   5.305   5.102   6.283
 6957SOL    HW121770   5.300   5.086   6.185
 6957SOL    HW221771   5.213   5.101   6.322
 6958SOL     OW21772   3.648   2.868   3.242
 6958SOL    HW121773   3.716   2.906   3.304
 6958SOL    HW221774   3.691   2.799   3.184
 6959SOL     OW21775   0.892   4.039   3.085
 6959SOL    HW121776   0.808   4.011   3.129
 6959SOL    HW221777   0.878   4.126   3.038
 6960SOL     OW21778   2.676   4.737   0.168
 6960SOL    HW121779   2.650   4.640   0.163
 6960SOL    HW221780   2.750   4.747   0.235
 6961SOL     OW21781   4.571   2.183   5.558
 6961SOL    HW121782   4.553   2.164   5.655
 6961SOL    HW221783   4.585   2.097   5.509
 6962SOL     OW21784   2.802   6.814   6.195
 6962SOL    HW121785   2.863   6.856   6.262
 6962SOL    HW221786   2.773   6.724   6.229
 6963SOL     OW21787   5.385   6.512   1.093
 6963SOL    HW121788   5.316   6.444   1.069
 6963SOL    HW221789   5.428   6.546   1.009
 6964SOL     OW21790   1.700   0.262   6.255
 6964SOL    HW121791   1.709   0.263   6.156
 6964SOL    HW221792   1.660   0.349   6.286
 6965SOL     OW21793   0.415   1.955   6.711
 6965SOL    HW121794   0.508   1.970   6.677
 6965SOL    HW221795   0.403   1.859   6.735
 6966SOL     OW21796   0.911   0.676   1.580
 6966SOL    HW121797   0.854   0.618   1.639
 6966SOL    HW221798   0.904   0.771   1.610
 6967SOL     OW21799   4.376   1.595   6.017
 6967SOL    HW121800   4.410   1.519   5.962
 6967SOL    HW221801   4.279   1.580   6.038
 6968SOL     OW21802   3.837   6.666   2.732
 6968SOL    HW121803   3.893   6.713   2.664
 6968SOL    HW221804   3.844   6.713   2.820
 6969SOL     OW21805   2.166   1.837   1.801
 6969SOL    HW121806   2.243   1.894   1.774
 6969SOL    HW221807   2.192   1.779   1.879
 6970SOL     OW21808   3.578   4.541   5.999
 6970SOL    HW121809   3.548   4.554   6.093
 6970SOL    HW221810   3.616   4.627   5.964
 6971SOL     OW21811   6.894   4.309   0.466
 6971SOL    HW121812   6.861   4.345   0.553
 6971SOL    HW221813   6.890   4.381   0.397
 6972SOL     OW21814   4.914   3.510   2.492
 6972SOL    HW121815   4.928   3.557   2.405
 6972SOL    HW221816   4.936   3.413   2.481
 6973SOL     OW21817   1.129   2.811   3.127
 6973SOL    HW121818   1.084   2.874   3.064
 6973SOL    HW221819   1.131   2.719   3.088
 6974SOL     OW21820   3.476   3.896   2.995
 6974SOL    HW121821   3.547   3.898   3.065
 6974SOL    HW221822   3.412   3.822   3.015
 6975SOL     OW21823   2.986   5.921   4.898
 6975SOL    HW121824   3.070   5.945   4.849
 6975SOL    HW221825   2.922   5.877   4.835
 6976SOL     OW21826   5.349   4.326   5.886
 6976SOL    HW121827   5.305   4.240   5.861
 6976SOL    HW221828   5.381   4.320   5.981
 6977SOL     OW21829   4.162   4.679   1.619
 6977SOL    HW121830   4.259   4.656   1.615
 6977SOL    HW221831   4.108   4.596   1.635
 6978SOL     OW21832   5.324   3.812   1.811
 6978SOL    HW121833   5.281   3.726   1.838
 6978SOL    HW221834   5.395   3.794   1.743
 6979SOL     OW21835   1.026   3.993   1.350
 6979SOL    HW121836   0.985   3.906   1.377
 6979SOL    HW221837   1.051   3.990   1.253
 6980SOL     OW21838   1.373   6.596   3.595
 6980SOL    HW121839   1.427   6.671   3.557
 6980SOL    HW221840   1.291   6.583   3.540
 6981SOL     OW21841   3.511   3.487   6.477
 6981SOL    HW121842   3.548   3.526   6.561
 6981SOL    HW221843   3.422   3.528   6.457
 6982SOL     OW21844   1.333   1.158   4.048
 6982SOL    HW121845   1.328   1.258   4.044
 6982SOL    HW221846   1.258   1.123   4.105
 6983SOL     OW21847   5.048   0.259   4.106
 6983SOL    HW121848   5.136   0.252   4.153
 6983SOL    HW221849   5.063   0.273   4.009
 6984SOL     OW21850   0.492   2.653   3.154
 6984SOL    HW121851   0.419   2.586   3.140
 6984SOL    HW221852   0.483   2.725   3.086
 6985SOL     OW21853   6.054   3.382   0.020
 6985SOL    HW121854   6.100   3.471   0.014
 6985SOL    HW221855   6.117   3.314   0.056
 6986SOL     OW21856   3.738   5.061   5.466
 6986SOL    HW121857   3.701   4.978   5.507
 6986SOL    HW221858   3.662   5.121   5.438
 6987SOL     OW21859   0.584   1.775   6.504
 6987SOL    HW121860   0.625   1.707   6.443
 6987SOL    HW221861   0.584   1.740   6.597
 6988SOL     OW21862   3.064   1.401   6.127
 6988SOL    HW121863   3.010   1.421   6.209
 6988SOL    HW221864   3.044   1.308   6.096
 6989SOL     OW21865   0.030   4.899   2.690
 6989SOL    HW121866   0.097   4.825   2.694
 6989SOL    HW221867   0.066   4.979   2.738
 6990SOL     OW21868   3.310   2.928   1.532
 6990SOL    HW121869   3.402   2.899   1.509
 6990SOL    HW221870   3.246   2.851   1.520
 6991SOL     OW21871   5.477   3.583   2.164
 6991SOL    HW121872   5.417   3.664   2.166
 6991SOL    HW221873   5.497   3.555   2.257
 6992SOL     OW21874   0.892   6.818   0.010
 6992SOL    HW121875   0.857   6.888   0.071
 6992SOL    HW221876   0.855   6.729   0.037
 6993SOL     OW21877   5.080   1.146   1.392
 6993SOL    HW121878   5.091   1.116   1.298
 6993SOL    HW221879   5.113   1.075   1.454
 6994SOL     OW21880   2.290   6.822   4.295
 6994SOL    HW121881   2.338   6.757   4.354
 6994SOL    HW221882   2.256   6.774   4.214
 6995SOL     OW21883   0.426   3.533   0.922
 6995SOL    HW121884   0.500   3.541   0.989
 6995SOL    HW221885   0.368   3.455   0.946
 6996SOL     OW21886   1.365   1.636   7.006
 6996SOL    HW121887   1.410   1.717   6.969
 6996SOL    HW221888   1.415   1.554   6.978
 6997SOL     OW21889   6.461   5.458   5.226
 6997SOL    HW121890   6.379   5.405   5.205
 6997SOL    HW221891   6.490   5.439   5.320
 6998SOL     OW21892   6.984   1.393   0.949
 6998SOL    HW121893   6.974   1.370   0.852
 6998SOL    HW221894   0.061   1.401   0.971
 6999SOL     OW21895   0.956   3.167   0.179
 6999SOL    HW121896   0.879   3.216   0.219
 6999SOL    HW221897   1.042   3.203   0.218
 7000SOL     OW21898   6.719   0.197   2.648
 7000SOL    HW121899   6.659   0.182   2.727
 7000SOL    HW221900   6.771   0.281   2.661
 7001SOL     OW21901   1.068   1.576   4.741
 7001SOL    HW121902   1.120   1.654   4.706
 7001SOL    HW221903   1.062   1.583   4.841
 7002SOL     OW21904   0.150   5.897   3.128
 7002SOL    HW121905   0.200   5.810   3.125
 7002SOL    HW221906   0.061   5.886   3.084
 7003SOL     OW21907   6.034   4.284   1.016
 7003SOL    HW121908   6.009   4.373   0.979
 7003SOL    HW221909   6.081   4.231   0.947
 7004SOL     OW21910   1.762   5.411   0.526
 7004SOL    HW121911   1.814   5.395   0.442
 7004SOL    HW221912   1.740   5.324   0.569
 7005SOL     OW21913   1.330   0.294   6.982
 7005SOL    HW121914   1.276   0.308   0.044
 7005SOL    HW221915   1.308   0.204   6.943
 7006SOL     OW21916   0.391   0.070   4.213
 7006SOL    HW121917   0.377   6.992   4.194
 7006SOL    HW221918   0.414   0.117   4.128
 7007SOL     OW21919   3.899   0.597   5.551
 7007SOL    HW121920   3.809   0.556   5.532
 7007SOL    HW221921   3.887   0.673   5.615
 7008SOL     OW21922   6.109   4.315   3.654
 7008SOL    HW121923   6.161   4.326   3.738
 7008SOL    HW221924   6.049   4.394   3.641
 7009SOL     OW21925   4.566   5.749   1.715
 7009SOL    HW121926   4.661   5.725   1.694
 7009SOL    HW221927   4.536   5.698   1.796
 7010SOL     OW21928   5.039   4.205   1.881
 7010SOL    HW121929   5.072   4.117   1.915
 7010SOL    HW221930   5.108   4.245   1.821
 7011SOL     OW21931   3.354   6.327   6.990
 7011SOL    HW121932   3.294   6.329   6.911
 7011SOL    HW221933   3.299   6.333   0.054
 7012SOL     OW21934   0.330   1.777   0.671
 7012SOL    HW121935   0.244   1.764   0.623
 7012SOL    HW221936   0.362   1.871   0.659
 7013SOL     OW21937   2.768   1.602   6.838
 7013SOL    HW121938   2.712   1.601   6.755
 7013SOL    HW221939   2.711   1.628   6.916
 7014SOL     OW21940   6.516   3.571   1.560
 7014SOL    HW121941   6.488   3.517   1.480
 7014SOL    HW221942   6.586   3.521   1.611
 7015SOL     OW21943   4.694   5.396   0.861
 7015SOL    HW121944   4.748   5.348   0.930
 7015SOL    HW221945   4.721   5.365   0.769
 7016SOL     OW21946   3.240   4.972   0.745
 7016SOL    HW121947   3.214   4.908   0.672
 7016SOL    HW221948   3.175   5.049   0.745
 7017SOL     OW21949   4.661   5.432   3.904
 7017SOL    HW121950   4.574   5.460   3.944
 7017SOL    HW221951   4.699   5.356   3.957
 7018SOL     OW21952   4.820   3.141   4.117
 7018SOL    HW121953   4.910   3.112   4.085
 7018SOL    HW221954   4.831   3.203   4.196
 7019SOL     OW21955   5.023   4.779   1.801
 7019SOL    HW121956   5.058   4.743   1.714
 7019SOL    HW221957   4.937   4.734   1.823
 7020SOL     OW21958   0.538   3.383   6.538
 7020SOL    HW121959   0.459   3.329   6.511
 7020SOL    HW221960   0.616   3.323   6.553
 7021SOL     OW21961   1.235   2.210   4.973
 7021SOL    HW121962   1.288   2.246   5.050
 7021SOL    HW221963   1.254   2.112   4.962
 7022SOL     OW21964   3.731   1.166   0.830
 7022SOL    HW121965   3.812   1.139   0.883
 7022SOL    HW221966   3.730   1.265   0.819
 7023SOL     OW21967   0.662   2.036   1.529
 7023SOL    HW121968   0.708   2.121   1.554
 7023SOL    HW221969   0.722   1.958   1.550
 7024SOL     OW21970   3.743   3.531   3.967
 7024SOL    HW121971   3.825   3.580   3.936
 7024SOL    HW221972   3.705   3.479   3.891
 7025SOL     OW21973   3.306   0.035   0.269
 7025SOL    HW121974   3.224   0.079   0.231
 7025SOL    HW221975   3.367   0.008   0.194
 7026SOL     OW21976   3.499   2.022   1.262
 7026SOL    HW121977   3.441   2.046   1.185
 7026SOL    HW221978   3.491   2.091   1.334
 7027SOL     OW21979   2.013   5.764   1.480
 7027SOL    HW121980   2.001   5.808   1.570
 7027SOL    HW221981   2.099   5.715   1.478
 7028SOL     OW21982   3.401   0.335   3.464
 7028SOL    HW121983   3.380   0.433   3.467
 7028SOL    HW221984   3.333   0.288   3.408
 7029SOL     OW21985   3.500   3.278   5.089
 7029SOL    HW121986   3.532   3.373   5.086
 7029SOL    HW221987   3.551   3.224   5.022
 7030SOL     OW21988   6.461   1.778   4.682
 7030SOL    HW121989   6.427   1.868   4.712
 7030SOL    HW221990   6.514   1.737   4.756
 7031SOL     OW21991   4.478   6.652   0.598
 7031SOL    HW121992   4.498   6.653   0.500
 7031SOL    HW221993   4.387   6.690   0.613
 7032SOL     OW21994   3.878   0.009   4.685
 7032SOL    HW121995   3.968   7.007   4.646
 7032SOL    HW221996   3.864   6.976   4.769
 7033SOL     OW21997   1.407   2.324   5.464
 7033SOL    HW121998   1.402   2.226   5.449
 7033SOL    HW221999   1.326   2.355   5.514
 7034SOL     OW22000   6.233   1.514   2.887
 7034SOL    HW122001   6.311   1.549   2.938
 7034SOL    HW222002   6.196   1.432   2.932
 7035SOL     OW22003   2.204   0.762   0.918
 7035SOL    HW122004   2.259   0.797   0.994
 7035SOL    HW222005   2.150   0.837   0.880
 7036SOL     OW22006   0.194   1.362   2.230
 7036SOL    HW122007   0.269   1.364   2.296
 7036SOL    HW222008   0.153   1.270   2.230
 7037SOL     OW22009   0.506   0.607   6.369
 7037SOL    HW122010   0.439   0.627   6.298
 7037SOL    HW222011   0.479   0.525   6.419
 7038SOL     OW22012   1.686   2.906   6.408
 7038SOL    HW122013   1.594   2.895   6.370
 7038SOL    HW222014   1.680   2.957   6.494
 7039SOL     OW22015   6.944   5.822   3.010
 7039SOL    HW122016   6.870   5.755   2.998
 7039SOL    HW222017   6.952   5.877   2.927
 7040SOL     OW22018   4.575   2.411   5.281
 7040SOL    HW122019   4.674   2.421   5.275
 7040SOL    HW222020   4.531   2.495   5.249
 7041SOL     OW22021   1.348   0.231   4.013
 7041SOL    HW122022   1.352   0.324   3.977
 7041SOL    HW222023   1.287   0.229   4.092
 7042SOL     OW22024   4.711   6.331   5.253
 7042SOL    HW122025   4.699   6.430   5.267
 7042SOL    HW222026   4.672   6.306   5.164
 7043SOL     OW22027   2.172   4.446   2.829
 7043SOL    HW122028   2.269   4.443   2.851
 7043SOL    HW222029   2.118   4.446   2.913
 7044SOL     OW22030   5.467   6.552   4.090
 7044SOL    HW122031   5.475   6.564   3.991
 7044SOL    HW222032   5.522   6.621   4.136
 7045SOL     OW22033   6.259   5.492   2.668
 7045SOL    HW122034   6.317   5.572   2.684
 7045SOL    HW222035   6.247   5.442   2.754
 7046SOL     OW22036   3.142   2.063   4.464
 7046SOL    HW122037   3.085   1.982   4.481
 7046SOL    HW222038   3.148   2.117   4.548
 7047SOL     OW22039   0.737   6.962   0.410
 7047SOL    HW122040   0.769   6.892   0.474
 7047SOL    HW222041   0.693   0.016   0.461
 7048SOL     OW22042   6.782   5.375   4.987
 7048SOL    HW122043   6.731   5.290   4.982
 7048SOL    HW222044   6.822   5.385   5.078
 7049SOL     OW22045   3.756   1.018   2.318
 7049SOL    HW122046   3.843   0.971   2.300
 7049SOL    HW222047   3.703   1.023   2.233
 7050SOL     OW22048   4.152   4.100   0.661
 7050SOL    HW122049   4.123   4.013   0.701
 7050SOL    HW222050   4.179   4.086   0.566
 7051SOL     OW22051   0.664   0.074   1.094
 7051SOL    HW122052   0.568   0.080   1.121
 7051SOL    HW222053   0.722   0.092   1.173
 7052SOL     OW22054   5.560   0.228   2.206
 7052SOL    HW122055   5.624   0.259   2.136
 7052SOL    HW222056   5.487   0.175   2.164
 7053SOL     OW22057   1.628   2.631   3.590
 7053SOL    HW122058   1.683   2.583   3.522
 7053SOL    HW222059   1.585   2.711   3.549
 7054SOL     OW22060   6.876   0.155   0.756
 7054SOL    HW122061   6.936   0.101   0.814
 7054SOL    HW222062   6.932   0.215   0.698
 7055SOL     OW22063   2.484   0.936   6.926
 7055SOL    HW122064   2.442   0.849   6.901
 7055SOL    HW222065   2.413   0.998   6.961
 7056SOL     OW22066   0.369   5.576   1.460
 7056SOL    HW122067   0.323   5.488   1.477
 7056SOL    HW222068   0.466   5.567   1.482
 7057SOL     OW22069   3.181   4.944   5.181
 7057SOL    HW122070   3.169   5.043   5.170
 7057SOL    HW222071   3.221   4.926   5.271
 7058SOL     OW22072   5.114   2.544   6.105
 7058SOL    HW122073   5.075   2.468   6.052
 7058SOL    HW222074   5.058   2.561   6.185
 7059SOL     OW22075   1.591   0.718   4.842
 7059SOL    HW122076   1.661   0.788   4.852
 7059SOL    HW222077   1.503   0.755   4.873
 7060SOL     OW22078   3.415   0.417   2.126
 7060SOL    HW122079   3.320   0.436   2.150
 7060SOL    HW222080   3.441   0.474   2.048
 7061SOL     OW22081   1.082   2.576   2.968
 7061SOL    HW122082   0.982   2.580   2.961
 7061SOL    HW222083   1.112   2.482   2.953
 7062SOL     OW22084   3.965   1.738   3.270
 7062SOL    HW122085   4.041   1.674   3.260
 7062SOL    HW222086   3.918   1.747   3.182
 7063SOL     OW22087   0.502   1.036   1.775
 7063SOL    HW122088   0.592   1.058   1.812
 7063SOL    HW222089   0.496   0.937   1.761
 7064SOL     OW22090   4.829   1.944   5.086
 7064SOL    HW122091   4.773   1.863   5.106
 7064SOL    HW222092   4.894   1.922   5.014
 7065SOL     OW22093   3.594   4.359   5.595
 7065SOL    HW122094   3.655   4.282   5.577
 7065SOL    HW222095   3.594   4.421   5.516
 7066SOL     OW22096   3.744   0.710   0.150
 7066SOL    HW122097   3.702   0.768   0.081
 7066SOL    HW222098   3.843   0.729   0.154
 7067SOL     OW22099   1.976   3.331   6.846
 7067SOL    HW122100   1.946   3.415   6.800
 7067SOL    HW222101   1.980   3.256   6.779
 7068SOL     OW22102   5.142   4.182   4.273
 7068SOL    HW122103   5.231   4.140   4.253
 7068SOL    HW222104   5.130   4.262   4.215
 7069SOL     OW22105   5.842   7.007   6.568
 7069SOL    HW122106   5.776   0.007   6.496
 7069SOL    HW222107   5.797   6.960   6.643
 7070SOL     OW22108   0.281   6.538   4.862
 7070SOL    HW122109   0.326   6.459   4.903
 7070SOL    HW222110   0.221   6.581   4.929
 7071SOL     OW22111   5.336   5.816   6.363
 7071SOL    HW122112   5.423   5.859   6.385
 7071SOL    HW222113   5.308   5.843   6.271
 7072SOL     OW22114   0.290   3.598   6.730
 7072SOL    HW122115   0.295   3.643   6.641
 7072SOL    HW222116   0.195   3.570   6.748
 7073SOL     OW22117   5.659   1.573   3.128
 7073SOL    HW122118   5.739   1.518   3.104
 7073SOL    HW222119   5.684   1.636   3.202
 7074SOL     OW22120   5.864   4.088   3.043
 7074SOL    HW122121   5.849   4.176   3.000
 7074SOL    HW222122   5.796   4.023   3.011
 7075SOL     OW22123   2.945   5.555   4.169
 7075SOL    HW122124   2.986   5.629   4.114
 7075SOL    HW222125   2.969   5.467   4.129
 7076SOL     OW22126   5.817   3.125   2.684
 7076SOL    HW122127   5.752   3.052   2.664
 7076SOL    HW222128   5.810   3.196   2.614
 7077SOL     OW22129   3.055   5.278   1.450
 7077SOL    HW122130   2.993   5.215   1.403
 7077SOL    HW222131   3.043   5.270   1.549
 7078SOL     OW22132   5.305   6.953   0.545
 7078SOL    HW122133   5.208   6.935   0.555
 7078SOL    HW222134   5.319   0.005   0.477
 7079SOL     OW22135   1.277   0.043   4.519
 7079SOL    HW122136   1.370   0.014   4.543
 7079SOL    HW222137   1.265   0.038   4.420
 7080SOL     OW22138   4.038   1.704   5.156
 7080SOL    HW122139   4.072   1.755   5.234
 7080SOL    HW222140   3.995   1.766   5.090
 7081SOL     OW22141   2.044   1.366   0.063
 7081SOL    HW122142   2.031   1.271   0.091
 7081SOL    HW222143   1.954   1.409   0.052
 7082SOL     OW22144   6.383   4.449   2.820
 7082SOL    HW122145   6.448   4.404   2.759
 7082SOL    HW222146   6.312   4.495   2.767
 7083SOL     OW22147   0.214   3.086   2.497
 7083SOL    HW122148   0.215   2.991   2.528
 7083SOL    HW222149   0.119   3.118   2.490
 7084SOL     OW22150   0.790   5.911   0.321
 7084SOL    HW122151   0.692   5.905   0.337
 7084SOL    HW222152   0.823   6.001   0.351
 7085SOL     OW22153   0.848   3.142   2.170
 7085SOL    HW122154   0.933   3.097   2.197
 7085SOL    HW222155   0.802   3.178   2.251
 7086SOL     OW22156   5.762   1.081   4.744
 7086SOL    HW122157   5.847   1.082   4.692
 7086SOL    HW222158   5.739   0.987   4.768
 7087SOL     OW22159   5.684   3.106   3.302
 7087SOL    HW122160   5.775   3.064   3.302
 7087SOL    HW222161   5.615   3.037   3.322
 7088SOL     OW22162   6.133   1.641   4.808
 7088SOL    HW122163   6.172   1.550   4.790
 7088SOL    HW222164   6.084   1.673   4.726
 7089SOL     OW22165   3.117   5.658   1.533
 7089SOL    HW122166   3.025   5.642   1.569
 7089SOL    HW222167   3.171   5.574   1.541
 7090SOL     OW22168   4.124   2.169   1.273
 7090SOL    HW122169   4.099   2.073   1.274
 7090SOL    HW222170   4.217   2.179   1.308
 7091SOL     OW22171   0.225   6.707   6.168
 7091SOL    HW122172   0.210   6.692   6.266
 7091SOL    HW222173   0.235   6.618   6.123
 7092SOL     OW22174   4.439   2.180   6.856
 7092SOL    HW122175   4.349   2.138   6.854
 7092SOL    HW222176   4.506   2.117   6.815
 7093SOL     OW22177   3.429   4.031   1.040
 7093SOL    HW122178   3.424   4.059   1.136
 7093SOL    HW222179   3.337   4.012   1.005
 7094SOL     OW22180   2.911   6.994   5.175
 7094SOL    HW122181   2.933   0.070   5.157
 7094SOL    HW222182   2.825   6.988   5.225
 7095SOL     OW22183   2.539   4.395   5.269
 7095SOL    HW122184   2.596   4.389   5.351
 7095SOL    HW222185   2.569   4.473   5.214
 7096SOL     OW22186   0.161   1.007   0.979
 7096SOL    HW122187   0.244   1.004   0.923
 7096SOL    HW222188   0.090   1.057   0.930
 7097SOL     OW22189   4.595   0.590   1.757
 7097SOL    HW122190   4.583   0.578   1.856
 7097SOL    HW222191   4.578   0.686   1.733
 7098SOL     OW22192   0.722   6.772   4.427
 7098SOL    HW122193   0.636   6.769   4.477
 7098SOL    HW222194   0.733   6.689   4.373
 7099SOL     OW22195   2.980   2.129   4.239
 7099SOL    HW122196   3.029   2.104   4.323
 7099SOL    HW222197   2.888   2.160   4.262
 7100SOL     OW22198   6.298   3.824   0.889
 7100SOL    HW122199   6.228   3.839   0.960
 7100SOL    HW222200   6.342   3.911   0.867
 7101SOL     OW22201   2.178   6.348   5.342
 7101SOL    HW122202   2.079   6.344   5.330
 7101SOL    HW222203   2.210   6.265   5.387
 7102SOL     OW22204   5.930   0.782   1.389
 7102SOL    HW122205   5.945   0.721   1.311
 7102SOL    HW222206   5.840   0.824   1.381
 7103SOL     OW22207   4.714   4.112   3.099
 7103SOL    HW122208   4.748   4.063   3.179
 7103SOL    HW222209   4.752   4.072   3.016
 7104SOL     OW22210   4.929   3.356   3.413
 7104SOL    HW122211   5.026   3.370   3.433
 7104SOL    HW222212   4.914   3.361   3.315
 7105SOL     OW22213   2.964   3.649   3.971
 7105SOL    HW122214   2.895   3.577   3.978
 7105SOL    HW222215   2.967   3.683   3.877
 7106SOL     OW22216   2.706   3.194   1.257
 7106SOL    HW122217   2.649   3.273   1.234
 7106SOL    HW222218   2.791   3.198   1.204
 7107SOL     OW22219   3.845   0.742   6.279
 7107SOL    HW122220   3.759   0.700   6.251
 7107SOL    HW222221   3.920   0.698   6.231
 7108SOL     OW22222   3.607   0.025   2.586
 7108SOL    HW122223   3.599   7.006   2.677
 7108SOL    HW222224   3.599   0.125   2.592
 7109SOL     OW22225   2.041   0.159   5.578
 7109SOL    HW122226   2.042   0.135   5.481
 7109SOL    HW222227   1.994   0.246   5.590
 7110SOL     OW22228   3.578   6.157   4.721
 7110SOL    HW122229   3.581   6.069   4.769
 7110SOL    HW222230   3.513   6.151   4.645
 7111SOL     OW22231   6.860   0.797   4.445
 7111SOL    HW122232   6.835   0.837   4.357
 7111SOL    HW222233   6.785   0.810   4.510
 7112SOL     OW22234   2.070   4.963   4.231
 7112SOL    HW122235   2.107   4.870   4.230
 7112SOL    HW222236   2.095   5.008   4.317
 7113SOL     OW22237   3.448   5.006   5.359
 7113SOL    HW122238   3.449   5.105   5.341
 7113SOL    HW222239   3.465   4.956   5.274
 7114SOL     OW22240   4.785   5.041   0.378
 7114SOL    HW122241   4.702   4.986   0.392
 7114SOL    HW222242   4.762   5.123   0.325
 7115SOL     OW22243   6.388   4.372   0.240
 7115SOL    HW122244   6.449   4.408   0.311
 7115SOL    HW222245   6.409   4.276   0.224
 7116SOL     OW22246   6.603   3.697   4.290
 7116SOL    HW122247   6.526   3.753   4.260
 7116SOL    HW222248   6.623   3.719   4.386
 7117SOL     OW22249   6.151   0.168   3.197
 7117SOL    HW122250   6.114   0.122   3.277
 7117SOL    HW222251   6.156   0.267   3.214
 7118SOL     OW22252   4.172   4.476   5.285
 7118SOL    HW122253   4.237   4.457   5.212
 7118SOL    HW222254   4.204   4.553   5.340
 7119SOL     OW22255   3.854   6.558   4.551
 7119SOL    HW122256   3.924   6.533   4.618
 7119SOL    HW222257   3.777   6.495   4.558
 7120SOL     OW22258   4.680   0.761   0.504
 7120SOL    HW122259   4.737   0.681   0.524
 7120SOL    HW222260   4.733   0.827   0.451
 7121SOL     OW22261   1.561   6.461   3.006
 7121SOL    HW122262   1.510   6.516   3.073
 7121SOL    HW222263   1.655   6.450   3.036
 7122SOL     OW22264   2.507   0.545   5.982
 7122SOL    HW122265   2.469   0.576   5.895
 7122SOL    HW222266   2.602   0.574   5.990
 7123SOL     OW22267   5.259   5.013   6.016
 7123SOL    HW122268   5.267   4.935   6.078
 7123SOL    HW222269   5.193   4.993   5.944
 7124SOL     OW22270   1.453   2.355   1.579
 7124SOL    HW122271   1.441   2.400   1.667
 7124SOL    HW222272   1.469   2.425   1.508
 7125SOL     OW22273   1.385   6.714   0.915
 7125SOL    HW122274   1.464   6.704   0.854
 7125SOL    HW222275   1.397   6.655   0.995
 7126SOL     OW22276   4.065   5.609   1.324
 7126SOL    HW122277   3.989   5.555   1.360
 7126SOL    HW222278   4.100   5.566   1.241
 7127SOL     OW22279   2.820   6.600   5.206
 7127SOL    HW122280   2.753   6.666   5.172
 7127SOL    HW222281   2.910   6.644   5.210
 7128SOL     OW22282   3.859   4.108   6.427
 7128SOL    HW122283   3.886   4.012   6.431
 7128SOL    HW222284   3.836   4.131   6.332
 7129SOL     OW22285   0.615   0.174   0.463
 7129SOL    HW122286   0.673   0.253   0.485
 7129SOL    HW222287   0.592   0.125   0.547
 7130SOL     OW22288   3.614   6.767   4.510
 7130SOL    HW122289   3.610   6.857   4.554
 7130SOL    HW222290   3.609   6.778   4.411
 7131SOL     OW22291   3.837   0.763   2.477
 7131SOL    HW122292   3.864   0.742   2.383
 7131SOL    HW222293   3.890   0.842   2.510
 7132SOL     OW22294   5.358   4.154   0.503
 7132SOL    HW122295   5.279   4.094   0.496
 7132SOL    HW222296   5.406   4.157   0.415
 7133SOL     OW22297   3.621   5.367   3.165
 7133SOL    HW122298   3.572   5.372   3.078
 7133SOL    HW222299   3.555   5.369   3.240
 7134SOL     OW22300   5.771   4.981   1.021
 7134SOL    HW122301   5.747   5.004   0.926
 7134SOL    HW222302   5.718   5.039   1.083
 7135SOL     OW22303   1.988   3.041   1.417
 7135SOL    HW122304   2.082   3.057   1.386
 7135SOL    HW222305   1.967   3.106   1.490
 7136SOL     OW22306   2.018   1.525   2.027
 7136SOL    HW122307   1.961   1.447   2.053
 7136SOL    HW222308   2.111   1.495   2.010
 7137SOL     OW22309   2.642   2.051   1.557
 7137SOL    HW122310   2.704   2.128   1.544
 7137SOL    HW222311   2.582   2.043   1.478
 7138SOL     OW22312   1.266   2.559   0.853
 7138SOL    HW122313   1.338   2.489   0.848
 7138SOL    HW222314   1.307   2.647   0.876
 7139SOL     OW22315   6.132   5.860   1.485
 7139SOL    HW122316   6.185   5.801   1.424
 7139SOL    HW222317   6.103   5.808   1.565
 7140SOL     OW22318   6.891   3.067   0.428
 7140SOL    HW122319   6.874   3.158   0.467
 7140SOL    HW222320   6.951   3.016   0.489
 7141SOL     OW22321   3.591   0.613   1.095
 7141SOL    HW122322   3.626   0.607   1.001
 7141SOL    HW222323   3.523   0.686   1.100
 7142SOL     OW22324   2.958   0.221   5.082
 7142SOL    HW122325   2.962   0.302   5.140
 7142SOL    HW222326   3.047   0.207   5.038
 7143SOL     OW22327   2.632   4.646   6.839
 7143SOL    HW122328   2.557   4.600   6.887
 7143SOL    HW222329   2.606   4.741   6.820
 7144SOL     OW22330   6.715   0.486   5.454
 7144SOL    HW122331   6.695   0.428   5.375
 7144SOL    HW222332   6.672   0.575   5.441
 7145SOL     OW22333   5.052   2.216   6.391
 7145SOL    HW122334   5.132   2.194   6.447
 7145SOL    HW222335   4.985   2.263   6.448
 7146SOL     OW22336   1.793   1.782   5.250
 7146SOL    HW122337   1.881   1.779   5.202
 7146SOL    HW222338   1.728   1.836   5.197
 7147SOL     OW22339   6.043   5.927   1.986
 7147SOL    HW122340   6.088   5.840   2.002
 7147SOL    HW222341   6.056   5.986   2.065
 7148SOL     OW22342   6.653   6.620   0.736
 7148SOL    HW122343   6.691   6.712   0.737
 7148SOL    HW222344   6.555   6.625   0.755
 7149SOL     OW22345   6.327   4.566   4.843
 7149SOL    HW122346   6.244   4.605   4.805
 7149SOL    HW222347   6.330   4.468   4.824
 7150SOL     OW22348   3.879   3.651   6.708
 7150SOL    HW122349   3.925   3.591   6.772
 7150SOL    HW222350   3.896   3.621   6.614
 7151SOL     OW22351   3.578   0.999   1.006
 7151SOL    HW122352   3.642   1.053   0.952
 7151SOL    HW222353   3.492   1.050   1.015
 7152SOL     OW22354   6.469   1.361   6.430
 7152SOL    HW122355   6.456   1.434   6.363
 7152SOL    HW222356   6.491   1.401   6.519
 7153SOL     OW22357   4.178   6.214   1.071
 7153SOL    HW122358   4.185   6.181   1.165
 7153SOL    HW222359   4.090   6.260   1.058
 7154SOL     OW22360   4.273   1.968   1.596
 7154SOL    HW122361   4.211   1.890   1.592
 7154SOL    HW222362   4.274   2.005   1.689
 7155SOL     OW22363   2.942   1.452   2.197
 7155SOL    HW122364   2.862   1.508   2.221
 7155SOL    HW222365   2.979   1.411   2.280
 7156SOL     OW22366   6.092   3.824   6.756
 7156SOL    HW122367   6.178   3.778   6.778
 7156SOL    HW222368   6.086   3.910   6.806
 7157SOL     OW22369   6.183   4.772   6.736
 7157SOL    HW122370   6.111   4.703   6.751
 7157SOL    HW222371   6.212   4.768   6.640
 7158SOL     OW22372   4.662   6.627   4.160
 7158SOL    HW122373   4.573   6.618   4.204
 7158SOL    HW222374   4.678   6.549   4.100
 7159SOL     OW22375   0.926   6.003   3.246
 7159SOL    HW122376   0.850   6.009   3.181
 7159SOL    HW222377   1.005   5.962   3.200
 7160SOL     OW22378   6.425   0.069   3.541
 7160SOL    HW122379   6.423   0.060   3.442
 7160SOL    HW222380   6.392   0.160   3.567
 7161SOL     OW22381   4.092   3.547   3.614
 7161SOL    HW122382   4.029   3.470   3.614
 7161SOL    HW222383   4.171   3.526   3.672
 7162SOL     OW22384   0.300   5.919   2.006
 7162SOL    HW122385   0.280   5.824   2.031
 7162SOL    HW222386   0.369   5.956   2.068
 7163SOL     OW22387   0.594   1.389   2.169
 7163SOL    HW122388   0.668   1.452   2.192
 7163SOL    HW222389   0.547   1.420   2.086
 7164SOL     OW22390   1.948   1.321   6.614
 7164SOL    HW122391   1.933   1.411   6.656
 7164SOL    HW222392   2.044   1.313   6.587
 7165SOL     OW22393   5.685   1.148   0.302
 7165SOL    HW122394   5.658   1.144   0.398
 7165SOL    HW222395   5.663   1.239   0.265
 7166SOL     OW22396   6.098   6.478   5.975
 7166SOL    HW122397   6.191   6.501   5.945
 7166SOL    HW222398   6.099   6.391   6.024
 7167SOL     OW22399   5.676   2.208   4.745
 7167SOL    HW122400   5.709   2.271   4.815
 7167SOL    HW222401   5.576   2.211   4.742
 7168SOL     OW22402   2.915   0.921   2.214
 7168SOL    HW122403   2.890   0.882   2.126
 7168SOL    HW222404   2.942   1.016   2.202
 7169SOL     OW22405   1.246   4.211   6.580
 7169SOL    HW122406   1.295   4.216   6.493
 7169SOL    HW222407   1.247   4.300   6.624
 7170SOL     OW22408   3.954   1.404   0.778
 7170SOL    HW122409   4.009   1.355   0.845
 7170SOL    HW222410   3.937   1.497   0.810
 7171SOL     OW22411   6.774   4.429   0.686
 7171SOL    HW122412   6.710   4.383   0.747
 7171SOL    HW222413   6.788   4.523   0.716
 7172SOL     OW22414   1.617   1.186   3.969
 7172SOL    HW122415   1.523   1.164   3.992
 7172SOL    HW222416   1.676   1.170   4.048
 7173SOL     OW22417   5.087   5.594   6.177
 7173SOL    HW122418   5.036   5.589   6.263
 7173SOL    HW222419   5.110   5.502   6.146
 7174SOL     OW22420   6.376   4.500   1.731
 7174SOL    HW122421   6.301   4.545   1.683
 7174SOL    HW222422   6.340   4.426   1.787
 7175SOL     OW22423   5.553   3.558   6.379
 7175SOL    HW122424   5.470   3.614   6.373
 7175SOL    HW222425   5.544   3.478   6.319
 7176SOL     OW22426   0.714   0.520   5.971
 7176SOL    HW122427   0.750   0.496   5.882
 7176SOL    HW222428   0.786   0.514   6.040
 7177SOL     OW22429   1.771   5.159   3.620
 7177SOL    HW122430   1.770   5.254   3.651
 7177SOL    HW222431   1.708   5.149   3.544
 7178SOL     OW22432   1.606   1.071   5.450
 7178SOL    HW122433   1.694   1.119   5.454
 7178SOL    HW222434   1.620   0.979   5.413
 7179SOL     OW22435   3.221   5.905   6.174
 7179SOL    HW122436   3.238   5.924   6.271
 7179SOL    HW222437   3.155   5.971   6.138
 7180SOL     OW22438   1.475   4.105   1.137
 7180SOL    HW122439   1.482   4.090   1.039
 7180SOL    HW222440   1.415   4.183   1.155
 7181SOL     OW22441   2.776   1.662   6.120
 7181SOL    HW122442   2.806   1.647   6.215
 7181SOL    HW222443   2.681   1.691   6.120
 7182SOL     OW22444   1.756   2.112   4.752
 7182SOL    HW122445   1.749   2.028   4.806
 7182SOL    HW222446   1.666   2.153   4.743
 7183SOL     OW22447   0.378   6.633   1.901
 7183SOL    HW122448   0.309   6.589   1.959
 7183SOL    HW222449   0.390   6.728   1.929
 7184SOL     OW22450   6.198   0.310   3.893
 7184SOL    HW122451   6.186   0.320   3.992
 7184SOL    HW222452   6.146   0.232   3.860
 7185SOL     OW22453   4.470   0.817   4.443
 7185SOL    HW122454   4.525   0.801   4.525
 7185SOL    HW222455   4.508   0.894   4.392
 7186SOL     OW22456   0.392   0.104   6.676
 7186SOL    HW122457   0.411   0.044   6.598
 7186SOL    HW222458   0.476   0.153   6.701
 7187SOL     OW22459   3.329   2.944   3.978
 7187SOL    HW122460   3.258   2.948   4.047
 7187SOL    HW222461   3.311   2.869   3.915
 7188SOL     OW22462   3.596   4.121   6.892
 7188SOL    HW122463   3.604   4.140   6.990
 7188SOL    HW222464   3.680   4.077   6.860
 7189SOL     OW22465   6.218   2.663   5.963
 7189SOL    HW122466   6.179   2.750   5.933
 7189SOL    HW222467   6.225   2.663   6.063
 7190SOL     OW22468   5.820   5.670   1.248
 7190SOL    HW122469   5.797   5.587   1.299
 7190SOL    HW222470   5.780   5.665   1.156
 7191SOL     OW22471   0.267   4.670   3.672
 7191SOL    HW122472   0.254   4.671   3.772
 7191SOL    HW222473   0.235   4.756   3.634
 7192SOL     OW22474   1.753   4.986   6.870
 7192SOL    HW122475   1.803   5.066   6.904
 7192SOL    HW222476   1.685   4.958   6.938
 7193SOL     OW22477   2.578   2.478   2.618
 7193SOL    HW122478   2.614   2.443   2.704
 7193SOL    HW222479   2.649   2.532   2.572
 7194SOL     OW22480   2.747   2.571   6.163
 7194SOL    HW122481   2.684   2.648   6.172
 7194SOL    HW222482   2.698   2.486   6.177
 7195SOL     OW22483   0.124   3.769   5.649
 7195SOL    HW122484   0.054   3.721   5.596
 7195SOL    HW222485   0.211   3.769   5.599
 7196SOL     OW22486   3.298   3.813   2.027
 7196SOL    HW122487   3.280   3.856   1.938
 7196SOL    HW222488   3.346   3.878   2.086
 7197SOL     OW22489   2.264   3.900   5.756
 7197SOL    HW122490   2.329   3.944   5.694
 7197SOL    HW222491   2.291   3.917   5.851
 7198SOL     OW22492   0.168   0.587   1.683
 7198SOL    HW122493   0.187   0.684   1.664
 7198SOL    HW222494   0.234   0.531   1.633
 7199SOL     OW22495   0.766   1.219   2.477
 7199SOL    HW122496   0.680   1.209   2.428
 7199SOL    HW222497   0.753   1.278   2.557
 7200SOL     OW22498   1.087   2.345   0.895
 7200SOL    HW122499   1.097   2.285   0.816
 7200SOL    HW222500   1.150   2.422   0.888
 7201SOL     OW22501   5.621   5.308   4.010
 7201SOL    HW122502   5.619   5.252   4.093
 7201SOL    HW222503   5.660   5.398   4.031
 7202SOL     OW22504   5.335   0.392   5.627
 7202SOL    HW122505   5.417   0.335   5.636
 7202SOL    HW222506   5.299   0.383   5.534
 7203SOL     OW22507   0.544   1.467   1.566
 7203SOL    HW122508   0.511   1.542   1.624
 7203SOL    HW222509   0.628   1.495   1.520
 7204SOL     OW22510   6.672   6.851   1.164
 7204SOL    HW122511   6.612   6.909   1.110
 7204SOL    HW222512   6.620   6.772   1.199
 7205SOL     OW22513   2.406   2.404   4.639
 7205SOL    HW122514   2.311   2.430   4.624
 7205SOL    HW222515   2.436   2.438   4.729
 7206SOL     OW22516   1.684   2.988   0.910
 7206SOL    HW122517   1.645   2.994   0.818
 7206SOL    HW222518   1.613   3.005   0.978
 7207SOL     OW22519   1.894   1.370   4.275
 7207SOL    HW122520   1.987   1.375   4.239
 7207SOL    HW222521   1.841   1.448   4.241
 7208SOL     OW22522   3.008   0.409   4.259
 7208SOL    HW122523   3.082   0.471   4.234
 7208SOL    HW222524   2.982   0.425   4.355
 7209SOL     OW22525   2.730   2.029   2.392
 7209SOL    HW122526   2.722   2.110   2.333
 7209SOL    HW222527   2.639   2.001   2.422
 7210SOL     OW22528   2.803   0.985   3.172
 7210SOL    HW122529   2.900   0.982   3.148
 7210SOL    HW222530   2.751   0.928   3.108
 7211SOL     OW22531   3.130   5.571   4.836
 7211SOL    HW122532   3.108   5.477   4.863
 7211SOL    HW222533   3.119   5.632   4.914
 7212SOL     OW22534   6.263   4.428   5.965
 7212SOL    HW122535   6.274   4.373   6.049
 7212SOL    HW222536   6.205   4.507   5.985
 7213SOL     OW22537   4.300   1.538   0.546
 7213SOL    HW122538   4.206   1.572   0.541
 7213SOL    HW222539   4.361   1.612   0.574
 7214SOL     OW22540   0.126   1.108   6.512
 7214SOL    HW122541   0.196   1.090   6.443
 7214SOL    HW222542   0.120   1.207   6.528
 7215SOL     OW22543   6.882   2.512   2.435
 7215SOL    HW122544   6.961   2.452   2.447
 7215SOL    HW222545   6.914   2.604   2.411
 7216SOL     OW22546   3.391   6.305   2.938
 7216SOL    HW122547   3.361   6.395   2.971
 7216SOL    HW222548   3.468   6.273   2.993
 7217SOL     OW22549   1.488   4.072   3.415
 7217SOL    HW122550   1.461   4.119   3.331
 7217SOL    HW222551   1.580   4.101   3.441
 7218SOL     OW22552   6.350   3.899   4.491
 7218SOL    HW122553   6.310   3.950   4.567
 7218SOL    HW222554   6.375   3.807   4.522
 7219SOL     OW22555   3.811   5.898   2.147
 7219SOL    HW122556   3.801   5.994   2.122
 7219SOL    HW222557   3.736   5.845   2.106
 7220SOL     OW22558   5.969   5.059   4.419
 7220SOL    HW122559   6.004   5.130   4.480
 7220SOL    HW222560   5.949   5.099   4.330
 7221SOL     OW22561   3.348   5.647   4.706
 7221SOL    HW122562   3.258   5.632   4.746
 7221SOL    HW222563   3.416   5.592   4.754
 7222SOL     OW22564   0.044   6.944   4.313
 7222SOL    HW122565   0.132   6.898   4.328
 7222SOL    HW222566   0.045   0.013   4.358
 7223SOL     OW22567   0.912   2.551   0.928
 7223SOL    HW122568   0.830   2.553   0.871
 7223SOL    HW222569   0.963   2.467   0.911
 7224SOL     OW22570   3.923   2.044   3.292
 7224SOL    HW122571   3.850   1.984   3.323
 7224SOL    HW222572   4.004   1.990   3.270
 7225SOL     OW22573   1.494   0.283   0.877
 7225SOL    HW122574   1.485   0.185   0.896
 7225SOL    HW222575   1.583   0.300   0.834
 7226SOL     OW22576   6.181   6.240   0.618
 7226SOL    HW122577   6.118   6.204   0.550
 7226SOL    HW222578   6.143   6.225   0.709
 7227SOL     OW22579   2.747   1.127   1.796
 7227SOL    HW122580   2.681   1.066   1.839
 7227SOL    HW222581   2.839   1.088   1.804
 7228SOL     OW22582   0.371   3.670   1.971
 7228SOL    HW122583   0.448   3.613   2.001
 7228SOL    HW222584   0.290   3.648   2.025
 7229SOL     OW22585   0.191   0.257   4.870
 7229SOL    HW122586   0.252   0.244   4.792
 7229SOL    HW222587   0.245   0.286   4.949
 7230SOL     OW22588   1.963   4.987   3.969
 7230SOL    HW122589   2.045   5.036   3.940
 7230SOL    HW222590   1.968   4.969   4.068
 7231SOL     OW22591   4.676   1.571   6.359
 7231SOL    HW122592   4.629   1.515   6.427
 7231SOL    HW222593   4.764   1.599   6.395
 7232SOL     OW22594   6.134   6.856   3.192
 7232SOL    HW122595   6.107   6.941   3.146
 7232SOL    HW222596   6.130   6.870   3.291
 7233SOL     OW22597   6.688   1.617   5.092
 7233SOL    HW122598   6.684   1.662   5.181
 7233SOL    HW222599   6.761   1.548   5.093
 7234SOL     OW22600   5.317   3.832   2.764
 7234SOL    HW122601   5.397   3.890   2.784
 7234SOL    HW222602   5.306   3.823   2.665
 7235SOL     OW22603   0.209   6.059   1.529
 7235SOL    HW122604   0.160   6.132   1.483
 7235SOL    HW222605   0.145   6.008   1.588
 7236SOL     OW22606   2.707   2.434   3.439
 7236SOL    HW122607   2.759   2.409   3.357
 7236SOL    HW222608   2.631   2.493   3.413
 7237SOL     OW22609   5.232   0.487   0.177
 7237SOL    HW122610   5.199   0.404   0.131
 7237SOL    HW222611   5.155   0.549   0.193
 7238SOL     OW22612   4.544   3.472   0.211
 7238SOL    HW122613   4.626   3.420   0.237
 7238SOL    HW222614   4.472   3.455   0.278
 7239SOL     OW22615   0.608   3.599   2.258
 7239SOL    HW122616   0.638   3.694   2.244
 7239SOL    HW222617   0.641   3.566   2.346
 7240SOL     OW22618   6.591   1.939   5.982
 7240SOL    HW122619   6.595   2.032   5.945
 7240SOL    HW222620   6.682   1.898   5.978
 7241SOL     OW22621   2.741   1.628   2.277
 7241SOL    HW122622   2.773   1.720   2.253
 7241SOL    HW222623   2.719   1.625   2.374
 7242SOL     OW22624   6.743   5.089   4.216
 7242SOL    HW122625   6.812   5.136   4.271
 7242SOL    HW222626   6.775   5.084   4.121
 7243SOL     OW22627   6.257   4.055   6.327
 7243SOL    HW122628   6.195   3.995   6.378
 7243SOL    HW222629   6.335   4.002   6.293
 7244SOL     OW22630   0.180   6.614   6.416
 7244SOL    HW122631   0.127   6.647   6.494
 7244SOL    HW222632   0.181   6.514   6.416
 7245SOL     OW22633   1.434   2.665   6.493
 7245SOL    HW122634   1.378   2.585   6.471
 7245SOL    HW222635   1.420   2.736   6.424
 7246SOL     OW22636   3.325   0.311   4.039
 7246SOL    HW122637   3.348   0.268   4.126
 7246SOL    HW222638   3.274   0.246   3.982
 7247SOL     OW22639   2.330   2.639   5.326
 7247SOL    HW122640   2.263   2.644   5.400
 7247SOL    HW222641   2.307   2.707   5.256
 7248SOL     OW22642   3.697   1.088   4.357
 7248SOL    HW122643   3.670   0.996   4.387
 7248SOL    HW222644   3.796   1.099   4.371
 7249SOL     OW22645   3.887   5.277   1.725
 7249SOL    HW122646   3.820   5.274   1.800
 7249SOL    HW222647   3.867   5.204   1.660
 7250SOL     OW22648   5.311   5.658   5.552
 7250SOL    HW122649   5.287   5.650   5.649
 7250SOL    HW222650   5.276   5.746   5.517
 7251SOL     OW22651   0.476   6.066   5.596
 7251SOL    HW122652   0.530   6.001   5.650
 7251SOL    HW222653   0.381   6.037   5.594
 7252SOL     OW22654   2.997   3.816   2.473
 7252SOL    HW122655   2.976   3.851   2.565
 7252SOL    HW222656   2.970   3.720   2.467
 7253SOL     OW22657   1.203   5.862   5.413
 7253SOL    HW122658   1.171   5.956   5.412
 7253SOL    HW222659   1.267   5.847   5.337
 7254SOL     OW22660   5.412   4.283   3.990
 7254SOL    HW122661   5.425   4.232   4.076
 7254SOL    HW222662   5.330   4.248   3.944
 7255SOL     OW22663   4.709   3.035   6.467
 7255SOL    HW122664   4.784   2.984   6.427
 7255SOL    HW222665   4.627   3.024   6.410
 7256SOL     OW22666   3.449   6.626   6.359
 7256SOL    HW122667   3.500   6.607   6.275
 7256SOL    HW222668   3.452   6.546   6.418
 7257SOL     OW22669   0.574   1.218   4.638
 7257SOL    HW122670   0.499   1.229   4.703
 7257SOL    HW222671   0.641   1.154   4.674
 7258SOL     OW22672   5.985   1.904   2.610
 7258SOL    HW122673   6.007   1.832   2.676
 7258SOL    HW222674   5.979   1.865   2.519
 7259SOL     OW22675   0.729   3.843   3.382
 7259SOL    HW122676   0.739   3.771   3.313
 7259SOL    HW222677   0.689   3.804   3.465
 7260SOL     OW22678   5.359   2.865   0.266
 7260SOL    HW122679   5.445   2.901   0.303
 7260SOL    HW222680   5.358   2.765   0.277
 7261SOL     OW22681   0.226   3.993   0.302
 7261SOL    HW122682   0.179   4.048   0.371
 7261SOL    HW222683   0.231   3.898   0.333
 7262SOL     OW22684   6.032   2.191   6.056
 7262SOL    HW122685   6.059   2.274   6.007
 7262SOL    HW222686   6.089   2.115   6.027
 7263SOL     OW22687   0.511   5.901   0.273
 7263SOL    HW122688   0.570   5.962   0.221
 7263SOL    HW222689   0.417   5.911   0.242
 7264SOL     OW22690   5.500   0.959   0.476
 7264SOL    HW122691   5.478   0.961   0.379
 7264SOL    HW222692   5.599   0.952   0.488
 7265SOL     OW22693   4.454   5.885   5.313
 7265SOL    HW122694   4.476   5.977   5.282
 7265SOL    HW222695   4.438   5.886   5.412
 7266SOL     OW22696   6.743   0.538   4.118
 7266SOL    HW122697   6.745   0.482   4.036
 7266SOL    HW222698   6.778   0.629   4.096
 7267SOL     OW22699   6.531   5.577   4.997
 7267SOL    HW122700   6.499   5.561   5.090
 7267SOL    HW222701   6.622   5.538   4.985
 7268SOL     OW22702   6.518   6.155   4.503
 7268SOL    HW122703   6.570   6.156   4.589
 7268SOL    HW222704   6.565   6.097   4.437
 7269SOL     OW22705   2.297   5.105   5.618
 7269SOL    HW122706   2.367   5.059   5.673
 7269SOL    HW222707   2.225   5.140   5.677
 7270SOL     OW22708   0.734   1.432   4.166
 7270SOL    HW122709   0.760   1.491   4.243
 7270SOL    HW222710   0.668   1.363   4.198
 7271SOL     OW22711   0.358   4.486   3.986
 7271SOL    HW122712   0.285   4.549   3.960
 7271SOL    HW222713   0.337   4.394   3.953
 7272SOL     OW22714   6.296   5.488   2.184
 7272SOL    HW122715   6.366   5.516   2.119
 7272SOL    HW222716   6.335   5.482   2.276
 7273SOL     OW22717   6.660   2.968   5.863
 7273SOL    HW122718   6.754   3.001   5.867
 7273SOL    HW222719   6.604   3.016   5.930
 7274SOL     OW22720   0.190   4.335   0.011
 7274SOL    HW122721   0.214   4.313   6.937
 7274SOL    HW222722   0.248   4.410   0.044
 7275SOL     OW22723   6.517   0.504   3.082
 7275SOL    HW122724   6.436   0.453   3.110
 7275SOL    HW222725   6.581   0.443   3.036
 7276SOL     OW22726   4.689   6.626   3.793
 7276SOL    HW122727   4.627   6.585   3.860
 7276SOL    HW222728   4.783   6.619   3.827
 7277SOL     OW22729   4.263   0.751   5.724
 7277SOL    HW122730   4.283   0.658   5.754
 7277SOL    HW222731   4.233   0.749   5.629
 7278SOL     OW22732   3.007   3.807   2.135
 7278SOL    HW122733   2.995   3.883   2.200
 7278SOL    HW222734   3.101   3.810   2.099
 7279SOL     OW22735   3.782   6.014   0.341
 7279SOL    HW122736   3.836   6.031   0.259
 7279SOL    HW222737   3.843   6.008   0.420
 7280SOL     OW22738   4.500   6.873   5.444
 7280SOL    HW122739   4.581   6.818   5.466
 7280SOL    HW222740   4.520   6.970   5.461
 7281SOL     OW22741   3.874   2.085   6.313
 7281SOL    HW122742   3.827   2.171   6.294
 7281SOL    HW222743   3.960   2.083   6.263
 7282SOL     OW22744   5.904   5.400   1.642
 7282SOL    HW122745   5.874   5.470   1.706
 7282SOL    HW222746   5.857   5.314   1.662
 7283SOL     OW22747   2.820   0.842   2.660
 7283SOL    HW122748   2.818   0.826   2.758
 7283SOL    HW222749   2.871   0.926   2.641
 7284SOL     OW22750   6.864   3.705   5.249
 7284SOL    HW122751   6.957   3.697   5.285
 7284SOL    HW222752   6.865   3.766   5.169
 7285SOL     OW22753   4.689   5.337   1.893
 7285SOL    HW122754   4.705   5.238   1.889
 7285SOL    HW222755   4.764   5.381   1.942
 7286SOL     OW22756   2.332   2.584   1.065
 7286SOL    HW122757   2.405   2.588   0.996
 7286SOL    HW222758   2.373   2.583   1.157
 7287SOL     OW22759   6.016   1.272   6.513
 7287SOL    HW122760   6.091   1.234   6.460
 7287SOL    HW222761   6.032   1.255   6.611
 7288SOL     OW22762   3.979   0.386   6.387
 7288SOL    HW122763   3.958   0.416   6.293
 7288SOL    HW222764   3.955   0.290   6.397
 7289SOL     OW22765   5.845   1.567   3.467
 7289SOL    HW122766   5.837   1.650   3.412
 7289SOL    HW222767   5.862   1.489   3.408
 7290SOL     OW22768   2.653   5.183   5.481
 7290SOL    HW122769   2.683   5.145   5.393
 7290SOL    HW222770   2.557   5.212   5.474
 7291SOL     OW22771   2.064   0.233   1.431
 7291SOL    HW122772   2.113   0.268   1.351
 7291SOL    HW222773   2.110   0.152   1.466
 7292SOL     OW22774   3.319   6.653   3.484
 7292SOL    HW122775   3.296   6.570   3.535
 7292SOL    HW222776   3.324   6.731   3.547
 7293SOL     OW22777   2.037   1.693   5.102
 7293SOL    HW122778   2.015   1.636   5.023
 7293SOL    HW222779   2.102   1.645   5.161
 7294SOL     OW22780   2.958   5.307   6.977
 7294SOL    HW122781   2.973   5.315   0.055
 7294SOL    HW222782   3.040   5.270   6.933
 7295SOL     OW22783   0.853   2.001   0.356
 7295SOL    HW122784   0.951   1.987   0.367
 7295SOL    HW222785   0.837   2.091   0.315
 7296SOL     OW22786   2.666   4.906   1.084
 7296SOL    HW122787   2.618   4.960   1.014
 7296SOL    HW222788   2.754   4.949   1.104
 7297SOL     OW22789   4.034   6.242   0.550
 7297SOL    HW122790   4.125   6.251   0.591
 7297SOL    HW222791   3.966   6.278   0.613
 7298SOL     OW22792   5.504   4.151   4.193
 7298SOL    HW122793   5.575   4.091   4.156
 7298SOL    HW222794   5.503   4.144   4.293
 7299SOL     OW22795   6.894   2.453   0.685
 7299SOL    HW122796   6.887   2.549   0.658
 7299SOL    HW222797   6.964   2.443   0.755
 7300SOL     OW22798   5.186   5.885   0.710
 7300SOL    HW122799   5.095   5.885   0.666
 7300SOL    HW222800   5.183   5.830   0.793
 7301SOL     OW22801   0.072   0.427   5.742
 7301SOL    HW122802   0.158   0.384   5.770
 7301SOL    HW222803   0.010   0.357   5.708
 7302SOL     OW22804   0.065   1.381   0.202
 7302SOL    HW122805   7.010   1.435   0.240
 7302SOL    HW222806   0.041   1.353   0.109
 7303SOL     OW22807   3.923   0.287   6.779
 7303SOL    HW122808   3.859   0.245   6.843
 7303SOL    HW222809   4.014   0.250   6.794
 7304SOL     OW22810   4.386   3.839   6.389
 7304SOL    HW122811   4.387   3.921   6.331
 7304SOL    HW222812   4.351   3.862   6.480
 7305SOL     OW22813   5.174   2.209   0.393
 7305SOL    HW122814   5.168   2.300   0.435
 7305SOL    HW222815   5.096   2.154   0.424
 7306SOL     OW22816   5.032   3.868   1.760
 7306SOL    HW122817   5.131   3.862   1.751
 7306SOL    HW222818   5.009   3.908   1.849
 7307SOL     OW22819   2.533   6.519   1.628
 7307SOL    HW122820   2.616   6.576   1.625
 7307SOL    HW222821   2.557   6.426   1.652
 7308SOL     OW22822   6.675   3.271   4.863
 7308SOL    HW122823   6.596   3.331   4.851
 7308SOL    HW222824   6.739   3.285   4.787
 7309SOL     OW22825   4.919   5.930   0.564
 7309SOL    HW122826   4.932   6.020   0.522
 7309SOL    HW222827   4.822   5.907   0.563
 7310SOL     OW22828   2.002   5.032   0.969
 7310SOL    HW122829   2.084   5.038   1.026
 7310SOL    HW222830   1.948   5.115   0.979
 7311SOL     OW22831   3.003   1.831   1.944
 7311SOL    HW122832   2.913   1.873   1.951
 7311SOL    HW222833   3.024   1.783   2.028
 7312SOL     OW22834   6.801   2.027   5.734
 7312SOL    HW122835   6.728   2.024   5.665
 7312SOL    HW222836   6.861   2.105   5.715
 7313SOL     OW22837   4.324   2.643   6.108
 7313SOL    HW122838   4.400   2.615   6.165
 7313SOL    HW222839   4.270   2.563   6.081
 7314SOL     OW22840   6.471   3.478   5.000
 7314SOL    HW122841   6.551   3.457   5.057
 7314SOL    HW222842   6.414   3.545   5.047
 7315SOL     OW22843   5.721   0.287   4.125
 7315SOL    HW122844   5.666   0.301   4.042
 7315SOL    HW222845   5.787   0.362   4.133
 7316SOL     OW22846   3.545   3.191   5.385
 7316SOL    HW122847   3.479   3.246   5.334
 7316SOL    HW222848   3.603   3.140   5.321
 7317SOL     OW22849   4.242   0.889   2.491
 7317SOL    HW122850   4.207   0.934   2.573
 7317SOL    HW222851   4.236   0.951   2.413
 7318SOL     OW22852   1.072   1.532   1.475
 7318SOL    HW122853   1.085   1.581   1.389
 7318SOL    HW222854   1.116   1.582   1.549
 7319SOL     OW22855   6.377   4.491   6.906
 7319SOL    HW122856   6.334   4.545   6.978
 7319SOL    HW222857   6.345   4.396   6.912
 7320SOL     OW22858   6.978   3.558   2.211
 7320SOL    HW122859   6.883   3.588   2.217
 7320SOL    HW222860   0.003   3.607   2.136
 7321SOL     OW22861   2.519   1.178   4.739
 7321SOL    HW122862   2.439   1.125   4.712
 7321SOL    HW222863   2.490   1.266   4.776
 7322SOL     OW22864   1.512   3.358   3.059
 7322SOL    HW122865   1.589   3.407   3.020
 7322SOL    HW222866   1.461   3.312   2.987
 7323SOL     OW22867   1.570   2.033   3.051
 7323SOL    HW122868   1.644   1.968   3.070
 7323SOL    HW222869   1.495   1.985   3.005
 7324SOL     OW22870   5.331   0.264   3.084
 7324SOL    HW122871   5.268   0.327   3.130
 7324SOL    HW222872   5.411   0.250   3.142
 7325SOL     OW22873   4.078   6.740   6.087
 7325SOL    HW122874   3.998   6.799   6.084
 7325SOL    HW222875   4.051   6.645   6.073
 7326SOL     OW22876   2.556   6.019   5.158
 7326SOL    HW122877   2.499   5.965   5.096
 7326SOL    HW222878   2.651   6.015   5.129
 7327SOL     OW22879   0.670   3.213   5.651
 7327SOL    HW122880   0.639   3.190   5.559
 7327SOL    HW222881   0.765   3.243   5.648
 7328SOL     OW22882   3.378   0.581   0.200
 7328SOL    HW122883   3.312   0.564   0.273
 7328SOL    HW222884   3.331   0.624   0.123
 7329SOL     OW22885   4.492   3.551   0.935
 7329SOL    HW122886   4.419   3.526   0.999
 7329SOL    HW222887   4.489   3.649   0.918
 7330SOL     OW22888   3.208   1.651   0.100
 7330SOL    HW122889   3.276   1.578   0.098
 7330SOL    HW222890   3.193   1.680   0.195
 7331SOL     OW22891   5.090   1.009   1.820
 7331SOL    HW122892   5.092   1.089   1.880
 7331SOL    HW222893   5.141   0.935   1.863
 7332SOL     OW22894   2.664   6.023   0.217
 7332SOL    HW122895   2.603   6.083   0.165
 7332SOL    HW222896   2.736   5.989   0.157
 7333SOL     OW22897   0.798   4.504   3.831
 7333SOL    HW122898   0.717   4.447   3.846
 7333SOL    HW222899   0.825   4.499   3.735
 7334SOL     OW22900   3.983   5.911   5.765
 7334SOL    HW122901   3.971   6.010   5.776
 7334SOL    HW222902   3.939   5.881   5.681
 7335SOL     OW22903   1.487   2.501   2.909
 7335SOL    HW122904   1.480   2.584   2.964
 7335SOL    HW222905   1.581   2.492   2.876
 7336SOL     OW22906   1.604   6.224   4.105
 7336SOL    HW122907   1.630   6.145   4.161
 7336SOL    HW222908   1.686   6.278   4.084
 7337SOL     OW22909   1.345   2.775   2.397
 7337SOL    HW122910   1.314   2.714   2.324
 7337SOL    HW222911   1.266   2.810   2.447
 7338SOL     OW22912   6.694   2.518   1.375
 7338SOL    HW122913   6.680   2.617   1.376
 7338SOL    HW222914   6.771   2.495   1.435
 7339SOL     OW22915   6.265   6.259   4.226
 7339SOL    HW122916   6.265   6.198   4.306
 7339SOL    HW222917   6.232   6.209   4.146
 7340SOL     OW22918   2.135   0.548   0.221
 7340SOL    HW122919   2.093   0.607   0.152
 7340SOL    HW222920   2.068   0.482   0.253
 7341SOL     OW22921   6.280   1.846   0.496
 7341SOL    HW122922   6.244   1.909   0.427
 7341SOL    HW222923   6.288   1.894   0.584
 7342SOL     OW22924   6.404   6.983   2.354
 7342SOL    HW122925   6.474   6.966   2.285
 7342SOL    HW222926   6.375   6.896   2.393
 7343SOL     OW22927   4.565   2.385   0.203
 7343SOL    HW122928   4.581   2.475   0.163
 7343SOL    HW222929   4.653   2.342   0.224
 7344SOL     OW22930   1.468   6.571   5.980
 7344SOL    HW122931   1.540   6.510   6.012
 7344SOL    HW222932   1.445   6.636   6.052
 7345SOL     OW22933   3.450   3.037   5.609
 7345SOL    HW122934   3.358   3.002   5.593
 7345SOL    HW222935   3.469   3.111   5.544
 7346SOL     OW22936   3.500   6.236   2.626
 7346SOL    HW122937   3.426   6.254   2.561
 7346SOL    HW222938   3.529   6.322   2.667
 7347SOL     OW22939   6.892   2.295   0.462
 7347SOL    HW122940   6.954   2.305   0.383
 7347SOL    HW222941   6.928   2.347   0.539
 7348SOL     OW22942   1.912   4.349   3.547
 7348SOL    HW122943   1.923   4.333   3.448
 7348SOL    HW222944   1.839   4.290   3.582
 7349SOL     OW22945   4.006   0.405   1.150
 7349SOL    HW122946   4.009   0.479   1.218
 7349SOL    HW222947   4.099   0.380   1.124
 7350SOL     OW22948   2.518   0.598   5.094
 7350SOL    HW122949   2.491   0.667   5.161
 7350SOL    HW222950   2.595   0.545   5.131
 7351SOL     OW22951   4.777   4.985   3.739
 7351SOL    HW122952   4.786   5.065   3.680
 7351SOL    HW222953   4.681   4.974   3.766
 7352SOL     OW22954   0.562   2.294   3.320
 7352SOL    HW122955   0.493   2.223   3.330
 7352SOL    HW222956   0.532   2.377   3.366
 7353SOL     OW22957   6.102   0.210   6.878
 7353SOL    HW122958   6.074   0.288   6.822
 7353SOL    HW222959   6.109   0.129   6.821
 7354SOL     OW22960   1.642   1.385   3.400
 7354SOL    HW122961   1.630   1.418   3.493
 7354SOL    HW222962   1.618   1.288   3.395
 7355SOL     OW22963   6.898   1.834   6.551
 7355SOL    HW122964   6.875   1.783   6.634
 7355SOL    HW222965   6.980   1.796   6.510
 7356SOL     OW22966   3.745   3.380   5.859
 7356SOL    HW122967   3.688   3.334   5.792
 7356SOL    HW222968   3.834   3.334   5.865
 7357SOL     OW22969   4.960   5.726   1.324
 7357SOL    HW122970   4.953   5.657   1.251
 7357SOL    HW222971   5.019   5.691   1.397
 7358SOL     OW22972   6.338   2.623   2.131
 7358SOL    HW122973   6.331   2.616   2.032
 7358SOL    HW222974   6.370   2.714   2.156
 7359SOL     OW22975   4.326   0.686   6.162
 7359SOL    HW122976   4.425   0.680   6.149
 7359SOL    HW222977   4.306   0.740   6.243
 7360SOL     OW22978   2.698   3.400   5.449
 7360SOL    HW122979   2.695   3.320   5.508
 7360SOL    HW222980   2.608   3.445   5.449
 7361SOL     OW22981   5.025   0.192   2.400
 7361SOL    HW122982   5.005   0.094   2.389
 7361SOL    HW222983   5.124   0.205   2.403
 7362SOL     OW22984   4.050   5.623   5.924
 7362SOL    HW122985   4.031   5.623   6.022
 7362SOL    HW222986   3.966   5.602   5.874
 7363SOL     OW22987   4.330   1.054   1.388
 7363SOL    HW122988   4.315   0.977   1.449
 7363SOL    HW222989   4.388   1.026   1.312
 7364SOL     OW22990   4.282   6.967   1.550
 7364SOL    HW122991   4.379   6.953   1.570
 7364SOL    HW222992   4.226   6.910   1.610
 7365SOL     OW22993   6.107   4.722   2.440
 7365SOL    HW122994   6.185   4.784   2.454
 7365SOL    HW222995   6.023   4.776   2.430
 7366SOL     OW22996   2.568   0.826   4.384
 7366SOL    HW122997   2.482   0.776   4.379
 7366SOL    HW222998   2.562   0.907   4.324
 7367SOL     OW22999   4.919   1.666   6.481
 7367SOL    HW123000   4.884   1.743   6.534
 7367SOL    HW223001   5.001   1.630   6.525
 7368SOL     OW23002   3.874   3.351   2.668
 7368SOL    HW123003   3.955   3.402   2.699
 7368SOL    HW223004   3.858   3.274   2.729
 7369SOL     OW23005   4.372   2.843   0.228
 7369SOL    HW123006   4.310   2.765   0.225
 7369SOL    HW223007   4.352   2.904   0.151
 7370SOL     OW23008   2.447   1.711   4.860
 7370SOL    HW123009   2.541   1.736   4.836
 7370SOL    HW223010   2.413   1.773   4.930
 7371SOL     OW23011   3.952   0.012   3.414
 7371SOL    HW123012   3.874   6.971   3.426
 7371SOL    HW223013   3.941   0.066   3.330
 7372SOL     OW23014   3.893   0.357   4.760
 7372SOL    HW123015   3.897   0.445   4.712
 7372SOL    HW223016   3.806   0.350   4.809
 7373SOL     OW23017   4.689   2.070   4.762
 7373SOL    HW123018   4.709   2.106   4.671
 7373SOL    HW223019   4.685   2.146   4.827
 7374SOL     OW23020   1.084   1.585   5.007
 7374SOL    HW123021   1.062   1.514   5.074
 7374SOL    HW223022   1.116   1.667   5.055
 7375SOL     OW23023   2.140   2.967   2.246
 7375SOL    HW123024   2.171   2.988   2.153
 7375SOL    HW223025   2.165   3.042   2.307
 7376SOL     OW23026   0.743   3.337   0.906
 7376SOL    HW123027   0.721   3.424   0.950
 7376SOL    HW223028   0.840   3.315   0.922
 7377SOL     OW23029   3.240   5.260   0.491
 7377SOL    HW123030   3.311   5.233   0.427
 7377SOL    HW223031   3.229   5.360   0.490
 7378SOL     OW23032   1.929   6.263   4.290
 7378SOL    HW123033   2.010   6.315   4.316
 7378SOL    HW223034   1.867   6.322   4.238
 7379SOL     OW23035   4.052   0.628   1.313
 7379SOL    HW123036   4.048   0.724   1.342
 7379SOL    HW223037   3.967   0.583   1.337
 7380SOL     OW23038   5.936   4.061   3.299
 7380SOL    HW123039   5.905   4.071   3.204
 7380SOL    HW223040   5.925   4.148   3.347
 7381SOL     OW23041   4.151   1.313   0.144
 7381SOL    HW123042   4.123   1.226   0.186
 7381SOL    HW223043   4.243   1.336   0.175
 7382SOL     OW23044   0.350   1.760   6.116
 7382SOL    HW123045   0.445   1.755   6.086
 7382SOL    HW223046   0.290   1.733   6.040
 7383SOL     OW23047   1.427   0.033   1.783
 7383SOL    HW123048   1.435   7.011   1.693
 7383SOL    HW223049   1.513   0.022   1.833
 7384SOL     OW23050   1.027   6.920   0.868
 7384SOL    HW123051   1.060   6.842   0.816
 7384SOL    HW223052   0.930   6.936   0.847
 7385SOL     OW23053   3.935   5.338   2.963
 7385SOL    HW123054   3.907   5.412   2.902
 7385SOL    HW223055   3.930   5.251   2.915
 7386SOL     OW23056   6.272   3.318   0.894
 7386SOL    HW123057   6.200   3.372   0.850
 7386SOL    HW223058   6.238   3.226   0.912
 7387SOL     OW23059   6.537   4.596   5.622
 7387SOL    HW123060   6.446   4.631   5.598
 7387SOL    HW223061   6.560   4.626   5.715
 7388SOL     OW23062   1.548   6.477   2.446
 7388SOL    HW123063   1.545   6.378   2.455
 7388SOL    HW223064   1.469   6.509   2.393
 7389SOL     OW23065   6.784   3.273   0.582
 7389SOL    HW123066   6.773   3.353   0.642
 7389SOL    HW223067   6.770   3.189   0.635
 7390SOL     OW23068   2.083   1.650   3.050
 7390SOL    HW123069   2.014   1.665   3.121
 7390SOL    HW223070   2.105   1.552   3.046
 7391SOL     OW23071   4.055   3.171   2.453
 7391SOL    HW123072   4.052   3.080   2.412
 7391SOL    HW223073   3.977   3.183   2.515
 7392SOL     OW23074   4.048   5.454   6.691
 7392SOL    HW123075   4.083   5.419   6.778
 7392SOL    HW223076   4.064   5.387   6.619
 7393SOL     OW23077   6.298   4.742   4.226
 7393SOL    HW123078   6.232   4.816   4.211
 7393SOL    HW223079   6.368   4.745   4.155
 7394SOL     OW23080   2.321   2.678   5.880
 7394SOL    HW123081   2.355   2.604   5.937
 7394SOL    HW223082   2.250   2.729   5.930
 7395SOL     OW23083   2.654   4.131   1.045
 7395SOL    HW123084   2.686   4.059   1.107
 7395SOL    HW223085   2.687   4.113   0.952
 7396SOL     OW23086   2.939   5.310   1.728
 7396SOL    HW123087   2.926   5.211   1.725
 7396SOL    HW223088   3.031   5.330   1.763
 7397SOL     OW23089   5.532   3.557   4.328
 7397SOL    HW123090   5.555   3.649   4.359
 7397SOL    HW223091   5.515   3.559   4.229
 7398SOL     OW23092   2.087   4.492   3.111
 7398SOL    HW123093   2.015   4.441   3.157
 7398SOL    HW223094   2.176   4.459   3.142
 7399SOL     OW23095   5.405   2.321   4.881
 7399SOL    HW123096   5.314   2.359   4.898
 7399SOL    HW223097   5.474   2.388   4.909
 7400SOL     OW23098   5.552   2.428   5.244
 7400SOL    HW123099   5.465   2.467   5.214
 7400SOL    HW223100   5.567   2.447   5.341
 7401SOL     OW23101   1.682   3.032   3.457
 7401SOL    HW123102   1.582   3.041   3.463
 7401SOL    HW223103   1.724   3.093   3.524
 7402SOL     OW23104   2.776   5.747   5.046
 7402SOL    HW123105   2.697   5.690   5.023
 7402SOL    HW223106   2.765   5.837   5.002
 7403SOL     OW23107   1.123   2.626   3.916
 7403SOL    HW123108   1.168   2.642   4.003
 7403SOL    HW223109   1.036   2.676   3.913
 7404SOL     OW23110   2.881   3.722   1.357
 7404SOL    HW123111   2.933   3.660   1.416
 7404SOL    HW223112   2.784   3.720   1.383
 7405SOL     OW23113   3.049   5.635   5.365
 7405SOL    HW123114   2.974   5.571   5.350
 7405SOL    HW223115   3.012   5.725   5.386
 7406SOL     OW23116   0.795   0.588   4.822
 7406SOL    HW123117   0.733   0.655   4.781
 7406SOL    HW223118   0.773   0.497   4.787
 7407SOL     OW23119   0.676   5.790   7.015
 7407SOL    HW123120   0.674   5.741   0.082
 7407SOL    HW223121   0.771   5.799   6.984
 7408SOL     OW23122   3.503   4.064   5.330
 7408SOL    HW123123   3.465   4.156   5.322
 7408SOL    HW223124   3.511   4.040   5.427
 7409SOL     OW23125   6.448   4.059   0.869
 7409SOL    HW123126   6.472   4.083   0.963
 7409SOL    HW223127   6.454   4.141   0.811
 7410SOL     OW23128   6.924   0.042   1.243
 7410SOL    HW123129   6.933   6.966   1.269
 7410SOL    HW223130   6.964   0.056   1.152
 7411SOL     OW23131   0.853   1.948   5.830
 7411SOL    HW123132   0.809   1.870   5.785
 7411SOL    HW223133   0.803   1.969   5.914
 7412SOL     OW23134   3.911   0.054   0.060
 7412SOL    HW123135   3.875   0.135   0.105
 7412SOL    HW223136   4.010   0.049   0.075
 7413SOL     OW23137   4.145   5.753   3.428
 7413SOL    HW123138   4.193   5.736   3.514
 7413SOL    HW223139   4.173   5.685   3.360
 7414SOL     OW23140   2.180   2.262   4.416
 7414SOL    HW123141   2.189   2.171   4.375
 7414SOL    HW223142   2.264   2.314   4.399
 7415SOL     OW23143   3.814   6.641   6.664
 7415SOL    HW123144   3.813   6.740   6.683
 7415SOL    HW223145   3.839   6.625   6.569
 7416SOL     OW23146   0.854   1.825   2.717
 7416SOL    HW123147   0.853   1.854   2.621
 7416SOL    HW223148   0.767   1.849   2.759
 7417SOL     OW23149   0.958   1.848   3.846
 7417SOL    HW123150   0.939   1.909   3.923
 7417SOL    HW223151   0.911   1.761   3.860
 7418SOL     OW23152   1.686   3.628   6.396
 7418SOL    HW123153   1.697   3.572   6.478
 7418SOL    HW223154   1.608   3.595   6.344
 7419SOL     OW23155   6.325   4.183   3.798
 7419SOL    HW123156   6.378   4.174   3.882
 7419SOL    HW223157   6.359   4.118   3.730
 7420SOL     OW23158   6.802   7.017   1.938
 7420SOL    HW123159   6.739   0.075   1.935
 7420SOL    HW223160   6.835   7.005   2.031
 7421SOL     OW23161   4.665   3.640   1.703
 7421SOL    HW123162   4.611   3.709   1.654
 7421SOL    HW223163   4.648   3.550   1.663
 7422SOL     OW23164   5.973   2.771   1.990
 7422SOL    HW123165   5.873   2.777   1.985
 7422SOL    HW223166   6.013   2.849   1.943
 7423SOL     OW23167   5.641   2.243   5.507
 7423SOL    HW123168   5.714   2.206   5.565
 7423SOL    HW223169   5.642   2.343   5.511
 7424SOL     OW23170   6.978   0.902   4.946
 7424SOL    HW123171   6.977   0.932   4.851
 7424SOL    HW223172   0.030   0.833   4.958
 7425SOL     OW23173   5.512   6.897   0.756
 7425SOL    HW123174   5.430   6.921   0.704
 7425SOL    HW223175   5.590   6.947   0.720
 7426SOL     OW23176   3.585   2.694   5.723
 7426SOL    HW123177   3.590   2.790   5.750
 7426SOL    HW223178   3.676   2.654   5.727
 7427SOL     OW23179   3.624   1.429   3.662
 7427SOL    HW123180   3.656   1.394   3.750
 7427SOL    HW223181   3.664   1.519   3.645
 7428SOL     OW23182   4.627   6.666   5.638
 7428SOL    HW123183   4.606   6.635   5.731
 7428SOL    HW223184   4.578   6.610   5.572
 7429SOL     OW23185   1.692   0.167   2.709
 7429SOL    HW123186   1.738   0.179   2.621
 7429SOL    HW223187   1.668   0.257   2.746
 7430SOL     OW23188   6.901   5.036   3.058
 7430SOL    HW123189   6.846   4.961   3.094
 7430SOL    HW223190   6.935   5.092   3.133
 7431SOL     OW23191   2.147   2.446   4.759
 7431SOL    HW123192   2.066   2.466   4.704
 7431SOL    HW223193   2.184   2.532   4.796
 7432SOL     OW23194   1.929   0.148   3.733
 7432SOL    HW123195   2.007   0.128   3.792
 7432SOL    HW223196   1.942   0.238   3.690
 7433SOL     OW23197   2.907   6.610   6.824
 7433SOL    HW123198   2.857   6.685   6.780
 7433SOL    HW223199   2.853   6.527   6.819
 7434SOL     OW23200   4.174   6.127   5.552
 7434SOL    HW123201   4.081   6.164   5.556
 7434SOL    HW223202   4.170   6.027   5.541
 7435SOL     OW23203   4.815   6.263   3.050
 7435SOL    HW123204   4.903   6.300   3.022
 7435SOL    HW223205   4.763   6.334   3.098
 7436SOL     OW23206   4.980   3.611   6.299
 7436SOL    HW123207   4.925   3.574   6.224
 7436SOL    HW223208   5.052   3.546   6.322
 7437SOL     OW23209   4.294   6.069   1.344
 7437SOL    HW123210   4.328   6.036   1.432
 7437SOL    HW223211   4.370   6.106   1.291
 7438SOL     OW23212   2.602   0.896   0.226
 7438SOL    HW123213   2.549   0.812   0.213
 7438SOL    HW223214   2.640   0.925   0.137
 7439SOL     OW23215   1.369   4.636   6.307
 7439SOL    HW123216   1.344   4.607   6.214
 7439SOL    HW223217   1.308   4.710   6.336
 7440SOL     OW23218   5.010   2.841   3.812
 7440SOL    HW123219   5.056   2.880   3.733
 7440SOL    HW223220   5.023   2.742   3.813
 7441SOL     OW23221   6.250   6.268   2.054
 7441SOL    HW123222   6.198   6.270   1.969
 7441SOL    HW223223   6.303   6.184   2.059
 7442SOL     OW23224   5.568   0.269   5.584
 7442SOL    HW123225   5.635   0.280   5.657
 7442SOL    HW223226   5.616   0.246   5.499
 7443SOL     OW23227   6.994   6.739   2.073
 7443SOL    HW123228   6.997   6.818   2.136
 7443SOL    HW223229   0.045   6.750   2.004
 7444SOL     OW23230   0.867   6.983   6.069
 7444SOL    HW123231   0.784   0.009   6.102
 7444SOL    HW223232   0.945   7.011   6.124
 7445SOL     OW23233   4.440   6.079   2.206
 7445SOL    HW123234   4.455   6.128   2.292
 7445SOL    HW223235   4.418   6.144   2.133
 7446SOL     OW23236   5.434   3.449   6.825
 7446SOL    HW123237   5.493   3.461   6.905
 7446SOL    HW223238   5.430   3.534   6.773
 7447SOL     OW23239   0.450   4.638   1.143
 7447SOL    HW123240   0.479   4.562   1.200
 7447SOL    HW223241   0.352   4.632   1.126
 7448SOL     OW23242   4.632   5.370   6.091
 7448SOL    HW123243   4.574   5.368   6.009
 7448SOL    HW223244   4.680   5.283   6.101
 7449SOL     OW23245   0.366   4.271   6.778
 7449SOL    HW123246   0.288   4.285   6.718
 7449SOL    HW223247   0.446   4.243   6.724
 7450SOL     OW23248   5.473   1.920   5.591
 7450SOL    HW123249   5.557   1.901   5.539
 7450SOL    HW223250   5.396   1.924   5.527
 7451SOL     OW23251   5.531   4.975   2.366
 7451SOL    HW123252   5.602   5.023   2.417
 7451SOL    HW223253   5.563   4.960   2.272
 7452SOL     OW23254   5.136   6.065   5.155
 7452SOL    HW123255   5.220   6.034   5.200
 7452SOL    HW223256   5.126   6.164   5.169
 7453SOL     OW23257   4.174   5.706   6.548
 7453SOL    HW123258   4.136   5.644   6.617
 7453SOL    HW223259   4.112   5.783   6.534
 7454SOL     OW23260   3.725   2.396   0.569
 7454SOL    HW123261   3.775   2.409   0.483
 7454SOL    HW223262   3.627   2.409   0.552
 7455SOL     OW23263   6.556   2.834   2.523
 7455SOL    HW123264   6.475   2.861   2.471
 7455SOL    HW223265   6.559   2.734   2.531
 7456SOL     OW23266   2.934   2.076   5.647
 7456SOL    HW123267   2.952   2.022   5.730
 7456SOL    HW223268   2.915   2.015   5.571
 7457SOL     OW23269   3.004   0.184   2.938
 7457SOL    HW123270   3.040   0.092   2.943
 7457SOL    HW223271   2.908   0.181   2.909
 7458SOL     OW23272   0.974   6.541   5.502
 7458SOL    HW123273   0.943   6.582   5.416
 7458SOL    HW223274   0.968   6.608   5.575
 7459SOL     OW23275   6.214   1.002   2.956
 7459SOL    HW123276   6.256   0.958   3.035
 7459SOL    HW223277   6.275   0.995   2.877
 7460SOL     OW23278   1.021   0.131   1.153
 7460SOL    HW123279   0.979   0.150   1.065
 7460SOL    HW223280   1.112   0.173   1.157
 7461SOL     OW23281   0.799   5.698   5.869
 7461SOL    HW123282   0.823   5.743   5.955
 7461SOL    HW223283   0.882   5.683   5.815
 7462SOL     OW23284   1.256   5.263   1.388
 7462SOL    HW123285   1.317   5.294   1.461
 7462SOL    HW223286   1.184   5.207   1.427
 7463SOL     OW23287   4.257   4.658   7.009
 7463SOL    HW123288   4.175   4.658   6.953
 7463SOL    HW223289   4.328   4.604   6.963
 7464SOL     OW23290   6.645   5.960   5.233
 7464SOL    HW123291   6.713   6.033   5.244
 7464SOL    HW223292   6.567   5.995   5.181
 7465SOL     OW23293   2.527   5.195   0.153
 7465SOL    HW123294   2.574   5.280   0.180
 7465SOL    HW223295   2.567   5.161   0.068
 7466SOL     OW23296   0.072   6.529   4.288
 7466SOL    HW123297   0.071   6.450   4.350
 7466SOL    HW223298   0.094   6.498   4.196
 7467SOL     OW23299   0.369   3.458   6.054
 7467SOL    HW123300   0.427   3.406   6.117
 7467SOL    HW223301   0.274   3.429   6.064
 7468SOL     OW23302   5.771   3.154   5.703
 7468SOL    HW123303   5.754   3.209   5.621
 7468SOL    HW223304   5.733   3.062   5.689
 7469SOL     OW23305   6.858   2.706   0.612
 7469SOL    HW123306   6.931   2.756   0.566
 7469SOL    HW223307   6.797   2.770   0.658
 7470SOL     OW23308   5.450   3.406   3.893
 7470SOL    HW123309   5.440   3.467   3.814
 7470SOL    HW223310   5.501   3.454   3.965
 7471SOL     OW23311   5.977   5.319   6.609
 7471SOL    HW123312   5.982   5.416   6.632
 7471SOL    HW223313   5.881   5.290   6.606
 7472SOL     OW23314   6.246   6.251   5.379
 7472SOL    HW123315   6.231   6.167   5.325
 7472SOL    HW223316   6.210   6.238   5.471
 7473SOL     OW23317   4.273   6.647   3.780
 7473SOL    HW123318   4.344   6.600   3.833
 7473SOL    HW223319   4.311   6.732   3.742
 7474SOL     OW23320   6.190   1.969   5.990
 7474SOL    HW123321   6.243   1.903   5.937
 7474SOL    HW223322   6.249   2.016   6.055
 7475SOL     OW23323   4.643   2.692   1.162
 7475SOL    HW123324   4.619   2.742   1.079
 7475SOL    HW223325   4.560   2.657   1.205
 7476SOL     OW23326   2.211   1.103   3.015
 7476SOL    HW123327   2.300   1.144   3.033
 7476SOL    HW223328   2.220   1.003   3.014
 7477SOL     OW23329   0.973   4.136   5.569
 7477SOL    HW123330   0.960   4.103   5.663
 7477SOL    HW223331   0.920   4.220   5.556
 7478SOL     OW23332   0.215   1.803   5.077
 7478SOL    HW123333   0.212   1.902   5.059
 7478SOL    HW223334   0.240   1.755   4.993
 7479SOL     OW23335   6.351   3.095   6.792
 7479SOL    HW123336   6.342   3.162   6.717
 7479SOL    HW223337   6.323   3.005   6.759
 7480SOL     OW23338   3.731   4.896   2.227
 7480SOL    HW123339   3.692   4.854   2.145
 7480SOL    HW223340   3.658   4.942   2.278
 7481SOL     OW23341   6.928   4.033   6.788
 7481SOL    HW123342   7.005   3.993   6.838
 7481SOL    HW223343   6.962   4.069   6.701
 7482SOL     OW23344   4.080   2.084   2.421
 7482SOL    HW123345   4.061   2.096   2.323
 7482SOL    HW223346   4.169   2.042   2.433
 7483SOL     OW23347   4.509   2.443   5.565
 7483SOL    HW123348   4.532   2.355   5.523
 7483SOL    HW223349   4.429   2.481   5.519
 7484SOL     OW23350   3.213   6.857   4.535
 7484SOL    HW123351   3.120   6.822   4.531
 7484SOL    HW223352   3.226   6.907   4.620
 7485SOL     OW23353   2.786   0.088   4.166
 7485SOL    HW123354   2.841   0.032   4.104
 7485SOL    HW223355   2.731   0.152   4.113
 7486SOL     OW23356   1.780   6.624   0.388
 7486SOL    HW123357   1.868   6.610   0.343
 7486SOL    HW223358   1.723   6.684   0.331
 7487SOL     OW23359   4.085   6.585   3.565
 7487SOL    HW123360   4.002   6.535   3.589
 7487SOL    HW223361   4.151   6.579   3.640
 7488SOL     OW23362   0.740   5.824   3.741
 7488SOL    HW123363   0.723   5.876   3.825
 7488SOL    HW223364   0.682   5.742   3.740
 7489SOL     OW23365   6.165   3.866   6.478
 7489SOL    HW123366   6.156   3.876   6.577
 7489SOL    HW223367   6.222   3.786   6.458
 7490SOL     OW23368   1.212   2.165   2.669
 7490SOL    HW123369   1.308   2.153   2.692
 7490SOL    HW223370   1.163   2.079   2.683
 7491SOL     OW23371   4.408   3.041   0.036
 7491SOL    HW123372   4.480   3.087   0.088
 7491SOL    HW223373   4.392   3.090   6.970
 7492SOL     OW23374   1.355   0.417   4.531
 7492SOL    HW123375   1.430   0.482   4.547
 7492SOL    HW223376   1.268   0.464   4.544
 7493SOL     OW23377   6.046   3.871   5.156
 7493SOL    HW123378   6.134   3.916   5.172
 7493SOL    HW223379   5.986   3.886   5.234
 7494SOL     OW23380   5.836   1.560   2.618
 7494SOL    HW123381   5.784   1.482   2.654
 7494SOL    HW223382   5.772   1.634   2.596
 7495SOL     OW23383   2.122   3.856   4.693
 7495SOL    HW123384   2.107   3.900   4.782
 7495SOL    HW223385   2.178   3.774   4.705
 7496SOL     OW23386   5.742   4.063   2.543
 7496SOL    HW123387   5.704   4.031   2.456
 7496SOL    HW223388   5.787   3.987   2.589
 7497SOL     OW23389   0.639   6.604   0.619
 7497SOL    HW123390   0.557   6.660   0.612
 7497SOL    HW223391   0.644   6.541   0.541
 7498SOL     OW23392   3.335   0.073   3.110
 7498SOL    HW123393   3.248   0.033   3.082
 7498SOL    HW223394   3.321   0.167   3.140
 7499SOL     OW23395   3.755   2.115   3.733
 7499SOL    HW123396   3.760   2.015   3.733
 7499SOL    HW223397   3.714   2.147   3.818
 7500SOL     OW23398   4.460   6.721   3.120
 7500SOL    HW123399   4.392   6.661   3.162
 7500SOL    HW223400   4.417   6.809   3.098
 7501SOL     OW23401   5.999   2.354   4.728
 7501SOL    HW123402   5.949   2.341   4.643
 7501SOL    HW223403   6.025   2.450   4.736
 7502SOL     OW23404   3.890   0.336   4.219
 7502SOL    HW123405   3.984   0.305   4.228
 7502SOL    HW223406   3.887   0.436   4.224
 7503SOL     OW23407   2.008   6.117   1.363
 7503SOL    HW123408   2.024   6.206   1.320
 7503SOL    HW223409   2.092   6.063   1.361
 7504SOL     OW23410   6.702   6.655   3.528
 7504SOL    HW123411   6.720   6.621   3.620
 7504SOL    HW223412   6.705   6.755   3.529
 7505SOL     OW23413   0.727   6.999   5.052
 7505SOL    HW123414   0.693   6.907   5.036
 7505SOL    HW223415   0.652   0.045   5.049
 7506SOL     OW23416   2.575   1.383   3.321
 7506SOL    HW123417   2.534   1.346   3.404
 7506SOL    HW223418   2.673   1.362   3.321
 7507SOL     OW23419   6.297   3.579   4.761
 7507SOL    HW123420   6.382   3.631   4.767
 7507SOL    HW223421   6.315   3.482   4.775
 7508SOL     OW23422   1.761   5.821   6.972
 7508SOL    HW123423   1.838   5.836   6.909
 7508SOL    HW223424   1.789   5.846   0.045
 7509SOL     OW23425   5.071   3.830   0.214
 7509SOL    HW123426   5.149   3.876   0.256
 7509SOL    HW223427   5.103   3.764   0.146
 7510SOL     OW23428   3.177   4.058   3.708
 7510SOL    HW123429   3.129   4.044   3.794
 7510SOL    HW223430   3.264   4.104   3.725
 7511SOL     OW23431   3.521   5.698   2.931
 7511SOL    HW123432   3.559   5.741   2.849
 7511SOL    HW223433   3.455   5.759   2.974
 7512SOL     OW23434   3.294   6.400   6.220
 7512SOL    HW123435   3.224   6.461   6.258
 7512SOL    HW223436   3.352   6.451   6.157
 7513SOL     OW23437   1.584   1.971   3.332
 7513SOL    HW123438   1.590   2.054   3.388
 7513SOL    HW223439   1.501   1.921   3.355
 7514SOL     OW23440   2.164   4.138   3.059
 7514SOL    HW123441   2.069   4.108   3.057
 7514SOL    HW223442   2.200   4.143   2.966
 7515SOL     OW23443   0.019   4.062   4.669
 7515SOL    HW123444   0.062   4.100   4.751
 7515SOL    HW223445   0.030   3.962   4.669
 7516SOL     OW23446   1.218   5.331   5.401
 7516SOL    HW123447   1.148   5.299   5.465
 7516SOL    HW223448   1.202   5.427   5.378
 7517SOL     OW23449   0.369   2.236   6.828
 7517SOL    HW123450   0.382   2.163   6.762
 7517SOL    HW223451   0.426   2.220   6.909
 7518SOL     OW23452   4.731   2.831   3.811
 7518SOL    HW123453   4.686   2.788   3.890
 7518SOL    HW223454   4.830   2.829   3.823
 7519SOL     OW23455   3.749   6.765   5.288
 7519SOL    HW123456   3.726   6.854   5.250
 7519SOL    HW223457   3.846   6.763   5.311
 7520SOL     OW23458   2.006   2.352   1.693
 7520SOL    HW123459   2.024   2.344   1.791
 7520SOL    HW223460   1.949   2.275   1.664
 7521SOL     OW23461   4.328   1.007   4.935
 7521SOL    HW123462   4.244   1.057   4.911
 7521SOL    HW223463   4.405   1.044   4.883
 7522SOL     OW23464   1.718   6.729   3.088
 7522SOL    HW123465   1.771   6.812   3.075
 7522SOL    HW223466   1.719   6.702   3.184
 7523SOL     OW23467   5.643   1.747   6.383
 7523SOL    HW123468   5.680   1.692   6.308
 7523SOL    HW223469   5.675   1.709   6.470
 7524SOL     OW23470   0.208   2.581   4.661
 7524SOL    HW123471   0.122   2.622   4.633
 7524SOL    HW223472   0.241   2.519   4.589
 7525SOL     OW23473   4.499   5.985   6.132
 7525SOL    HW123474   4.460   5.893   6.131
 7525SOL    HW223475   4.591   5.982   6.172
 7526SOL     OW23476   2.080   3.507   1.724
 7526SOL    HW123477   2.132   3.508   1.638
 7526SOL    HW223478   2.140   3.478   1.798
 7527SOL     OW23479   3.891   5.638   3.717
 7527SOL    HW123480   3.990   5.619   3.722
 7527SOL    HW223481   3.842   5.552   3.702
 7528SOL     OW23482   6.718   2.933   6.358
 7528SOL    HW123483   6.655   2.913   6.433
 7528SOL    HW223484   6.689   2.885   6.276
 7529SOL     OW23485   6.162   2.350   4.002
 7529SOL    HW123486   6.126   2.269   4.048
 7529SOL    HW223487   6.124   2.356   3.910
 7530SOL     OW23488   6.671   1.840   2.026
 7530SOL    HW123489   6.707   1.753   1.994
 7530SOL    HW223490   6.597   1.825   2.091
 7531SOL     OW23491   4.474   2.103   3.683
 7531SOL    HW123492   4.443   2.019   3.729
 7531SOL    HW223493   4.394   2.158   3.657
 7532SOL     OW23494   4.355   5.595   6.897
 7532SOL    HW123495   4.382   5.559   6.808
 7532SOL    HW223496   4.284   5.537   6.936
 7533SOL     OW23497   4.544   3.455   1.498
 7533SOL    HW123498   4.623   3.499   1.454
 7533SOL    HW223499   4.570   3.364   1.529
 7534SOL     OW23500   4.800   0.068   4.102
 7534SOL    HW123501   4.709   0.105   4.082
 7534SOL    HW223502   4.870   0.132   4.073
 7535SOL     OW23503   0.819   5.516   4.330
 7535SOL    HW123504   0.768   5.590   4.374
 7535SOL    HW223505   0.887   5.555   4.267
 7536SOL     OW23506   4.844   5.624   3.961
 7536SOL    HW123507   4.768   5.569   3.927
 7536SOL    HW223508   4.929   5.572   3.954
 7537SOL     OW23509   2.974   6.189   2.744
 7537SOL    HW123510   3.019   6.109   2.783
 7537SOL    HW223511   3.033   6.269   2.751
 7538SOL     OW23512   0.831   3.672   1.283
 7538SOL    HW123513   0.914   3.652   1.336
 7538SOL    HW223514   0.857   3.703   1.192
 7539SOL     OW23515   0.344   5.839   3.371
 7539SOL    HW123516   0.263   5.861   3.425
 7539SOL    HW223517   0.353   5.740   3.363
 7540SOL     OW23518   5.550   5.161   4.227
 7540SOL    HW123519   5.630   5.101   4.222
 7540SOL    HW223520   5.467   5.106   4.225
 7541SOL     OW23521   0.768   3.768   6.885
 7541SOL    HW123522   0.704   3.709   6.836
 7541SOL    HW223523   0.731   3.791   6.975
 7542SOL     OW23524   5.986   5.207   6.189
 7542SOL    HW123525   5.952   5.301   6.185
 7542SOL    HW223526   6.041   5.195   6.272
 7543SOL     OW23527   2.761   0.795   5.522
 7543SOL    HW123528   2.674   0.818   5.565
 7543SOL    HW223529   2.830   0.781   5.593
 7544SOL     OW23530   7.000   3.052   3.575
 7544SOL    HW123531   0.008   3.006   3.659
 7544SOL    HW223532   6.940   2.991   3.522
 7545SOL     OW23533   0.784   5.332   0.091
 7545SOL    HW123534   0.849   5.316   0.165
 7545SOL    HW223535   0.741   5.246   0.065
 7546SOL     OW23536   2.977   3.043   1.744
 7546SOL    HW123537   3.051   3.103   1.713
 7546SOL    HW223538   3.012   2.977   1.810
 7547SOL     OW23539   4.592   0.164   1.791
 7547SOL    HW123540   4.633   0.080   1.826
 7547SOL    HW223541   4.508   0.183   1.841
 7548SOL     OW23542   4.574   2.375   6.418
 7548SOL    HW123543   4.624   2.400   6.501
 7548SOL    HW223544   4.583   2.277   6.401
 7549SOL     OW23545   4.403   2.622   5.194
 7549SOL    HW123546   4.387   2.720   5.186
 7549SOL    HW223547   4.315   2.574   5.198
 7550SOL     OW23548   1.620   3.895   4.010
 7550SOL    HW123549   1.675   3.862   4.086
 7550SOL    HW223550   1.667   3.973   3.967
 7551SOL     OW23551   5.915   2.165   5.554
 7551SOL    HW123552   5.910   2.138   5.650
 7551SOL    HW223553   6.000   2.215   5.538
 7552SOL     OW23554   2.400   5.935   4.917
 7552SOL    HW123555   2.378   6.033   4.921
 7552SOL    HW223556   2.355   5.894   4.837
 7553SOL     OW23557   5.546   6.035   6.121
 7553SOL    HW123558   5.465   5.985   6.090
 7553SOL    HW223559   5.570   6.004   6.213
 7554SOL     OW23560   5.139   1.021   0.510
 7554SOL    HW123561   5.223   1.043   0.559
 7554SOL    HW223562   5.069   0.991   0.574
 7555SOL     OW23563   3.663   5.441   6.032
 7555SOL    HW123564   3.643   5.535   6.003
 7555SOL    HW223565   3.669   5.383   5.951
 7556SOL     OW23566   0.362   0.250   0.825
 7556SOL    HW123567   0.409   0.336   0.801
 7556SOL    HW223568   0.281   0.271   0.879
 7557SOL     OW23569   4.735   0.209   0.577
 7557SOL    HW123570   4.649   0.158   0.578
 7557SOL    HW223571   4.780   0.200   0.666
 7558SOL     OW23572   1.698   2.447   4.093
 7558SOL    HW123573   1.718   2.435   3.995
 7558SOL    HW223574   1.630   2.519   4.105
 7559SOL     OW23575   4.268   2.263   4.802
 7559SOL    HW123576   4.313   2.178   4.830
 7559SOL    HW223577   4.271   2.329   4.878
 7560SOL     OW23578   6.991   0.440   6.139
 7560SOL    HW123579   0.024   0.525   6.139
 7560SOL    HW223580   6.900   0.456   6.176
 7561SOL     OW23581   5.609   2.134   5.261
 7561SOL    HW123582   5.591   2.154   5.357
 7561SOL    HW223583   5.581   2.211   5.205
 7562SOL     OW23584   1.593   4.906   4.096
 7562SOL    HW123585   1.604   4.994   4.050
 7562SOL    HW223586   1.637   4.834   4.043
 7563SOL     OW23587   3.459   5.883   2.199
 7563SOL    HW123588   3.502   5.852   2.284
 7563SOL    HW223589   3.430   5.978   2.209
 7564SOL     OW23590   5.013   1.292   3.954
 7564SOL    HW123591   5.107   1.271   3.930
 7564SOL    HW223592   5.011   1.334   4.045
 7565SOL     OW23593   5.574   3.212   6.386
 7565SOL    HW123594   5.573   3.275   6.464
 7565SOL    HW223595   5.533   3.257   6.306
 7566SOL     OW23596   3.949   4.174   1.570
 7566SOL    HW123597   3.866   4.217   1.604
 7566SOL    HW223598   4.019   4.176   1.641
 7567SOL     OW23599   0.367   0.395   4.723
 7567SOL    HW123600   0.409   0.466   4.780
 7567SOL    HW223601   0.436   0.327   4.699
 7568SOL     OW23602   5.700   5.575   1.005
 7568SOL    HW123603   5.700   5.569   0.905
 7568SOL    HW223604   5.690   5.483   1.044
 7569SOL     OW23605   4.254   3.778   6.717
 7569SOL    HW123606   4.289   3.784   6.811
 7569SOL    HW223607   4.188   3.851   6.702
 7570SOL     OW23608   6.665   3.116   3.350
 7570SOL    HW123609   6.612   3.163   3.280
 7570SOL    HW223610   6.639   3.150   3.441
 7571SOL     OW23611   4.745   2.813   2.628
 7571SOL    HW123612   4.655   2.814   2.671
 7571SOL    HW223613   4.814   2.840   2.694
 7572SOL     OW23614   4.923   5.920   2.366
 7572SOL    HW123615   4.952   5.825   2.352
 7572SOL    HW223616   4.842   5.922   2.425
 7573SOL     OW23617   5.469   6.691   5.982
 7573SOL    HW123618   5.490   6.710   5.886
 7573SOL    HW223619   5.451   6.594   5.994
 7574SOL     OW23620   6.982   1.486   4.364
 7574SOL    HW123621   0.042   1.433   4.393
 7574SOL    HW223622   6.974   1.484   4.265
 7575SOL     OW23623   0.025   6.254   1.419
 7575SOL    HW123624   6.948   6.255   1.444
 7575SOL    HW223625   0.059   6.348   1.413
 7576SOL     OW23626   5.478   3.070   0.616
 7576SOL    HW123627   5.527   3.157   0.601
 7576SOL    HW223628   5.471   3.021   0.530
 7577SOL     OW23629   0.944   0.209   0.920
 7577SOL    HW123630   0.992   0.291   0.889
 7577SOL    HW223631   0.965   0.133   0.860
 7578SOL     OW23632   6.829   6.026   3.366
 7578SOL    HW123633   6.810   6.122   3.386
 7578SOL    HW223634   6.920   6.002   3.401
 7579SOL     OW23635   6.749   1.142   0.509
 7579SOL    HW123636   6.673   1.205   0.489
 7579SOL    HW223637   6.756   1.075   0.435
 7580SOL     OW23638   2.357   4.995   3.477
 7580SOL    HW123639   2.424   4.942   3.425
 7580SOL    HW223640   2.295   4.932   3.525
 7581SOL     OW23641   0.122   1.082   2.251
 7581SOL    HW123642   0.170   1.091   2.338
 7581SOL    HW223643   0.170   1.017   2.192
 7582SOL     OW23644   3.786   1.639   4.303
 7582SOL    HW123645   3.864   1.686   4.344
 7582SOL    HW223646   3.705   1.655   4.359
 7583SOL     OW23647   4.921   3.581   3.578
 7583SOL    HW123648   4.907   3.491   3.537
 7583SOL    HW223649   4.918   3.651   3.506
 7584SOL     OW23650   0.370   0.837   3.024
 7584SOL    HW123651   0.411   0.855   2.935
 7584SOL    HW223652   0.377   0.740   3.046
 7585SOL     OW23653   0.621   2.306   6.585
 7585SOL    HW123654   0.654   2.251   6.662
 7585SOL    HW223655   0.593   2.396   6.618
 7586SOL     OW23656   1.292   1.316   2.893
 7586SOL    HW123657   1.306   1.415   2.901
 7586SOL    HW223658   1.204   1.291   2.932
 7587SOL     OW23659   3.189   1.510   0.510
 7587SOL    HW123660   3.121   1.461   0.564
 7587SOL    HW223661   3.275   1.458   0.510
 7588SOL     OW23662   1.535   2.678   4.564
 7588SOL    HW123663   1.515   2.746   4.635
 7588SOL    HW223664   1.571   2.724   4.483
 7589SOL     OW23665   0.051   0.900   3.181
 7589SOL    HW123666   0.064   0.981   3.124
 7589SOL    HW223667   0.102   0.911   3.266
 7590SOL     OW23668   6.962   1.688   6.950
 7590SOL    HW123669   0.042   1.687   6.949
 7590SOL    HW223670   6.929   1.781   6.970
 7591SOL     OW23671   4.056   3.126   5.857
 7591SOL    HW123672   4.106   3.156   5.776
 7591SOL    HW223673   3.959   3.116   5.835
 7592SOL     OW23674   6.948   6.337   5.179
 7592SOL    HW123675   6.923   6.417   5.124
 7592SOL    HW223676   7.019   6.285   5.132
 7593SOL     OW23677   0.113   1.520   5.737
 7593SOL    HW123678   0.103   1.423   5.762
 7593SOL    HW223679   0.151   1.526   5.645
 7594SOL     OW23680   0.513   4.175   1.105
 7594SOL    HW123681   0.584   4.213   1.047
 7594SOL    HW223682   0.426   4.173   1.055
 7595SOL     OW23683   6.493   2.583   6.017
 7595SOL    HW123684   6.400   2.609   5.990
 7595SOL    HW223685   6.489   2.527   6.100
 7596SOL     OW23686   2.779   0.894   5.004
 7596SOL    HW123687   2.687   0.928   5.024
 7596SOL    HW223688   2.788   0.874   4.907
 7597SOL     OW23689   1.633   4.653   1.961
 7597SOL    HW123690   1.580   4.722   1.912
 7597SOL    HW223691   1.684   4.697   2.034
 7598SOL     OW23692   5.862   0.949   3.389
 7598SOL    HW123693   5.905   0.858   3.393
 7598SOL    HW223694   5.763   0.939   3.392
 7599SOL     OW23695   3.835   2.869   0.987
 7599SOL    HW123696   3.790   2.779   0.995
 7599SOL    HW223697   3.774   2.932   0.939
 7600SOL     OW23698   1.308   1.179   4.445
 7600SOL    HW123699   1.387   1.227   4.408
 7600SOL    HW223700   1.316   1.081   4.424
 7601SOL     OW23701   3.835   5.835   1.780
 7601SOL    HW123702   3.921   5.887   1.784
 7601SOL    HW223703   3.769   5.886   1.723
 7602SOL     OW23704   0.421   1.641   0.869
 7602SOL    HW123705   0.489   1.703   0.908
 7602SOL    HW223706   0.370   1.687   0.796
 7603SOL     OW23707   2.284   0.381   5.398
 7603SOL    HW123708   2.346   0.305   5.381
 7603SOL    HW223709   2.193   0.357   5.363
 7604SOL     OW23710   0.977   2.394   4.908
 7604SOL    HW123711   1.034   2.317   4.936
 7604SOL    HW223712   0.992   2.471   4.970
 7605SOL     OW23713   2.504   0.122   6.923
 7605SOL    HW123714   2.504   0.184   6.844
 7605SOL    HW223715   2.550   0.167   7.000
 7606SOL     OW23716   6.586   1.810   3.457
 7606SOL    HW123717   6.563   1.852   3.369
 7606SOL    HW223718   6.619   1.717   3.443
 7607SOL     OW23719   2.812   5.645   6.077
 7607SOL    HW123720   2.866   5.729   6.071
 7607SOL    HW223721   2.873   5.566   6.071
 7608SOL     OW23722   6.058   2.925   6.413
 7608SOL    HW123723   6.089   3.019   6.429
 7608SOL    HW223724   5.979   2.906   6.470
 7609SOL     OW23725   0.531   2.014   4.994
 7609SOL    HW123726   0.497   2.108   5.000
 7609SOL    HW223727   0.613   2.005   5.051
 7610SOL     OW23728   3.119   4.755   5.545
 7610SOL    HW123729   3.101   4.693   5.468
 7610SOL    HW223730   3.085   4.846   5.523
 7611SOL     OW23731   4.411   3.250   1.201
 7611SOL    HW123732   4.484   3.253   1.133
 7611SOL    HW223733   4.377   3.157   1.209
 7612SOL     OW23734   2.941   1.288   3.273
 7612SOL    HW123735   2.926   1.196   3.238
 7612SOL    HW223736   2.904   1.295   3.366
 7613SOL     OW23737   0.889   1.536   2.534
 7613SOL    HW123738   0.931   1.626   2.542
 7613SOL    HW223739   0.814   1.539   2.468
 7614SOL     OW23740   5.153   3.470   0.448
 7614SOL    HW123741   5.140   3.450   0.351
 7614SOL    HW223742   5.238   3.428   0.480
 7615SOL     OW23743   5.411   3.096   4.614
 7615SOL    HW123744   5.397   3.006   4.571
 7615SOL    HW223745   5.376   3.167   4.553
 7616SOL     OW23746   6.657   6.929   3.524
 7616SOL    HW123747   6.572   6.981   3.527
 7616SOL    HW223748   6.699   6.929   3.615
 7617SOL     OW23749   5.460   5.531   3.324
 7617SOL    HW123750   5.527   5.493   3.261
 7617SOL    HW223751   5.445   5.467   3.399
 7618SOL     OW23752   2.947   3.162   0.620
 7618SOL    HW123753   2.880   3.110   0.673
 7618SOL    HW223754   2.949   3.128   0.526
 7619SOL     OW23755   0.485   2.324   4.203
 7619SOL    HW123756   0.513   2.256   4.136
 7619SOL    HW223757   0.501   2.290   4.296
 7620SOL     OW23758   3.844   3.949   1.484
 7620SOL    HW123759   3.744   3.950   1.491
 7620SOL    HW223760   3.881   4.035   1.520
 7621SOL     OW23761   0.479   5.715   1.047
 7621SOL    HW123762   0.493   5.761   0.959
 7621SOL    HW223763   0.534   5.760   1.117
 7622SOL     OW23764   3.342   4.198   0.721
 7622SOL    HW123765   3.331   4.254   0.639
 7622SOL    HW223766   3.307   4.247   0.800
 7623SOL     OW23767   4.865   4.904   1.147
 7623SOL    HW123768   4.864   4.952   1.060
 7623SOL    HW223769   4.842   4.967   1.221
 7624SOL     OW23770   0.560   2.702   1.975
 7624SOL    HW123771   0.571   2.663   1.885
 7624SOL    HW223772   0.646   2.698   2.025
 7625SOL     OW23773   5.056   1.867   0.580
 7625SOL    HW123774   5.121   1.921   0.634
 7625SOL    HW223775   5.089   1.773   0.572
 7626SOL     OW23776   5.285   0.597   5.056
 7626SOL    HW123777   5.359   0.664   5.046
 7626SOL    HW223778   5.280   0.541   4.973
 7627SOL     OW23779   3.259   1.925   6.591
 7627SOL    HW123780   3.313   1.967   6.518
 7627SOL    HW223781   3.274   1.975   6.677
 7628SOL     OW23782   3.417   3.396   0.554
 7628SOL    HW123783   3.511   3.399   0.588
 7628SOL    HW223784   3.363   3.468   0.599
 7629SOL     OW23785   5.852   3.394   4.287
 7629SOL    HW123786   5.929   3.333   4.302
 7629SOL    HW223787   5.833   3.401   4.189
 7630SOL     OW23788   1.488   6.972   5.626
 7630SOL    HW123789   1.493   0.042   5.669
 7630SOL    HW223790   1.433   6.977   5.543
 7631SOL     OW23791   1.996   6.741   5.215
 7631SOL    HW123792   1.966   6.775   5.304
 7631SOL    HW223793   2.052   6.810   5.169
 7632SOL     OW23794   4.607   5.596   0.596
 7632SOL    HW123795   4.575   5.622   0.505
 7632SOL    HW223796   4.573   5.662   0.663
 7633SOL     OW23797   5.867   1.332   0.982
 7633SOL    HW123798   5.807   1.403   1.020
 7633SOL    HW223799   5.845   1.317   0.886
 7634SOL     OW23800   0.636   1.826   0.379
 7634SOL    HW123801   0.619   1.789   0.470
 7634SOL    HW223802   0.725   1.871   0.377
 7635SOL     OW23803   2.730   5.100   6.094
 7635SOL    HW123804   2.728   5.057   6.184
 7635SOL    HW223805   2.781   5.041   6.031
 7636SOL     OW23806   0.721   3.806   4.817
 7636SOL    HW123807   0.744   3.781   4.723
 7636SOL    HW223808   0.747   3.732   4.878
 7637SOL     OW23809   0.429   6.263   3.830
 7637SOL    HW123810   0.520   6.302   3.844
 7637SOL    HW223811   0.380   6.259   3.917
 7638SOL     OW23812   0.805   5.013   1.730
 7638SOL    HW123813   0.803   5.096   1.673
 7638SOL    HW223814   0.900   4.990   1.751
 7639SOL     OW23815   1.414   1.273   0.169
 7639SOL    HW123816   1.403   1.187   0.220
 7639SOL    HW223817   1.473   1.334   0.221
 7640SOL     OW23818   3.144   0.964   6.268
 7640SOL    HW123819   3.057   1.010   6.285
 7640SOL    HW223820   3.143   0.924   6.176
 7641SOL     OW23821   0.043   3.939   3.028
 7641SOL    HW123822   0.000   3.926   3.118
 7641SOL    HW223823   6.993   3.960   2.961
 7642SOL     OW23824   6.281   0.988   3.627
 7642SOL    HW123825   6.235   0.899   3.632
 7642SOL    HW223826   6.276   1.033   3.716
 7643SOL     OW23827   5.239   2.528   3.201
 7643SOL    HW123828   5.292   2.566   3.125
 7643SOL    HW223829   5.141   2.531   3.179
 7644SOL     OW23830   5.114   3.766   1.334
 7644SOL    HW123831   5.039   3.764   1.399
 7644SOL    HW223832   5.085   3.813   1.250
 7645SOL     OW23833   2.896   3.404   6.132
 7645SOL    HW123834   2.802   3.391   6.102
 7645SOL    HW223835   2.957   3.347   6.076
 7646SOL     OW23836   0.305   2.450   3.103
 7646SOL    HW123837   0.358   2.370   3.075
 7646SOL    HW223838   0.276   2.500   3.022
 7647SOL     OW23839   0.106   3.111   4.991
 7647SOL    HW123840   0.019   3.072   5.019
 7647SOL    HW223841   0.155   3.147   5.070
 7648SOL     OW23842   2.483   1.830   2.380
 7648SOL    HW123843   2.487   1.730   2.374
 7648SOL    HW223844   2.422   1.866   2.310
 7649SOL     OW23845   5.869   1.016   5.294
 7649SOL    HW123846   5.838   1.044   5.203
 7649SOL    HW223847   5.830   0.926   5.316
 7650SOL     OW23848   4.089   1.859   0.979
 7650SOL    HW123849   4.178   1.841   0.938
 7650SOL    HW223850   4.098   1.866   1.078
 7651SOL     OW23851   2.257   4.902   5.406
 7651SOL    HW123852   2.170   4.917   5.359
 7651SOL    HW223853   2.292   4.989   5.440
 7652SOL     OW23854   6.074   1.810   3.872
 7652SOL    HW123855   6.008   1.760   3.815
 7652SOL    HW223856   6.167   1.793   3.838
 7653SOL     OW23857   0.421   1.660   6.738
 7653SOL    HW123858   0.448   1.574   6.695
 7653SOL    HW223859   0.337   1.646   6.790
 7654SOL     OW23860   5.899   2.842   6.207
 7654SOL    HW123861   5.867   2.917   6.148
 7654SOL    HW223862   5.944   2.881   6.288
 7655SOL     OW23863   3.409   0.626   3.300
 7655SOL    HW123864   3.460   0.663   3.222
 7655SOL    HW223865   3.436   0.674   3.384
 7656SOL     OW23866   6.631   3.089   6.784
 7656SOL    HW123867   6.643   3.183   6.817
 7656SOL    HW223868   6.536   3.061   6.796
 7657SOL     OW23869   1.400   3.985   4.563
 7657SOL    HW123870   1.375   4.067   4.511
 7657SOL    HW223871   1.414   3.909   4.499
 7658SOL     OW23872   2.705   1.368   0.724
 7658SOL    HW123873   2.771   1.314   0.777
 7658SOL    HW223874   2.643   1.414   0.788
 7659SOL     OW23875   4.227   3.700   5.480
 7659SOL    HW123876   4.317   3.731   5.452
 7659SOL    HW223877   4.159   3.769   5.456
 7660SOL     OW23878   0.079   5.095   4.645
 7660SOL    HW123879   0.015   5.035   4.597
 7660SOL    HW223880   0.114   5.164   4.581
 7661SOL     OW23881   4.853   3.005   6.073
 7661SOL    HW123882   4.807   2.931   6.122
 7661SOL    HW223883   4.934   2.968   6.027
 7662SOL     OW23884   1.122   1.869   2.399
 7662SOL    HW123885   1.170   1.827   2.476
 7662SOL    HW223886   1.024   1.855   2.409
 7663SOL     OW23887   6.273   5.341   5.396
 7663SOL    HW123888   6.188   5.289   5.384
 7663SOL    HW223889   6.256   5.418   5.457
 7664SOL     OW23890   3.457   1.907   2.667
 7664SOL    HW123891   3.521   1.855   2.611
 7664SOL    HW223892   3.365   1.871   2.655
 7665SOL     OW23893   4.151   1.550   4.654
 7665SOL    HW123894   4.062   1.519   4.686
 7665SOL    HW223895   4.214   1.473   4.651
 7666SOL     OW23896   5.704   5.385   4.322
 7666SOL    HW123897   5.678   5.462   4.264
 7666SOL    HW223898   5.637   5.312   4.313
 7667SOL     OW23899   5.155   6.253   1.801
 7667SOL    HW123900   5.232   6.314   1.782
 7667SOL    HW223901   5.090   6.299   1.863
 7668SOL     OW23902   2.020   5.180   1.331
 7668SOL    HW123903   2.084   5.253   1.308
 7668SOL    HW223904   2.070   5.104   1.372
 7669SOL     OW23905   2.692   6.687   5.541
 7669SOL    HW123906   2.672   6.617   5.472
 7669SOL    HW223907   2.748   6.759   5.501
 7670SOL     OW23908   6.995   6.723   0.679
 7670SOL    HW123909   6.929   6.795   0.698
 7670SOL    HW223910   0.016   6.737   0.589
 7671SOL     OW23911   4.668   0.578   1.127
 7671SOL    HW123912   4.647   0.575   1.225
 7671SOL    HW223913   4.727   0.657   1.109
 7672SOL     OW23914   5.606   5.076   3.205
 7672SOL    HW123915   5.596   4.991   3.256
 7672SOL    HW223916   5.642   5.147   3.266
 7673SOL     OW23917   0.550   5.626   3.775
 7673SOL    HW123918   0.459   5.597   3.805
 7673SOL    HW223919   0.584   5.563   3.706
 7674SOL     OW23920   4.146   6.393   4.488
 7674SOL    HW123921   4.081   6.378   4.563
 7674SOL    HW223922   4.218   6.324   4.492
 7675SOL     OW23923   3.906   0.014   2.605
 7675SOL    HW123924   3.807   0.007   2.602
 7675SOL    HW223925   3.935   0.093   2.549
 7676SOL     OW23926   2.755   3.157   5.574
 7676SOL    HW123927   2.792   3.229   5.632
 7676SOL    HW223928   2.829   3.115   5.522
 7677SOL     OW23929   5.961   4.603   1.659
 7677SOL    HW123930   5.890   4.638   1.721
 7677SOL    HW223931   5.931   4.613   1.564
 7678SOL     OW23932   1.213   1.403   5.531
 7678SOL    HW123933   1.236   1.487   5.580
 7678SOL    HW223934   1.293   1.371   5.480
 7679SOL     OW23935   1.625   5.181   5.343
 7679SOL    HW123936   1.575   5.130   5.413
 7679SOL    HW223937   1.582   5.167   5.254
 7680SOL     OW23938   1.919   0.829   5.330
 7680SOL    HW123939   1.949   0.734   5.343
 7680SOL    HW223940   1.823   0.837   5.357
 7681SOL     OW23941   2.726   3.378   6.680
 7681SOL    HW123942   2.720   3.474   6.650
 7681SOL    HW223943   2.821   3.349   6.679
 7682SOL     OW23944   3.151   1.529   2.807
 7682SOL    HW123945   3.220   1.473   2.762
 7682SOL    HW223946   3.190   1.569   2.890
 7683SOL     OW23947   1.093   1.100   4.602
 7683SOL    HW123948   1.167   1.139   4.548
 7683SOL    HW223949   1.089   1.145   4.691
 7684SOL     OW23950   3.932   2.267   1.501
 7684SOL    HW123951   3.833   2.259   1.511
 7684SOL    HW223952   3.960   2.226   1.414
 7685SOL     OW23953   2.950   0.974   0.159
 7685SOL    HW123954   2.881   0.975   0.087
 7685SOL    HW223955   2.940   1.056   0.216
 7686SOL     OW23956   5.707   0.758   4.201
 7686SOL    HW123957   5.723   0.843   4.151
 7686SOL    HW223958   5.642   0.701   4.150
 7687SOL     OW23959   5.394   5.399   4.796
 7687SOL    HW123960   5.476   5.357   4.835
 7687SOL    HW223961   5.315   5.341   4.815
 7688SOL     OW23962   0.634   4.805   6.464
 7688SOL    HW123963   0.596   4.862   6.537
 7688SOL    HW223964   0.710   4.852   6.421
 7689SOL     OW23965   4.881   0.474   1.724
 7689SOL    HW123966   4.798   0.530   1.715
 7689SOL    HW223967   4.855   0.381   1.749
 7690SOL     OW23968   6.506   5.655   0.877
 7690SOL    HW123969   6.577   5.593   0.845
 7690SOL    HW223970   6.470   5.623   0.964
 7691SOL     OW23971   4.630   4.838   3.036
 7691SOL    HW123972   4.716   4.790   3.055
 7691SOL    HW223973   4.573   4.781   2.977
 7692SOL     OW23974   1.775   6.696   2.396
 7692SOL    HW123975   1.824   6.627   2.449
 7692SOL    HW223976   1.692   6.656   2.358
 7693SOL     OW23977   2.689   1.921   1.162
 7693SOL    HW123978   2.778   1.878   1.162
 7693SOL    HW223979   2.699   2.018   1.185
 7694SOL     OW23980   6.105   1.966   5.216
 7694SOL    HW123981   6.023   2.013   5.248
 7694SOL    HW223982   6.097   1.868   5.235
 7695SOL     OW23983   5.876   0.569   2.776
 7695SOL    HW123984   5.925   0.561   2.689
 7695SOL    HW223985   5.924   0.516   2.845
 7696SOL     OW23986   0.337   2.854   6.397
 7696SOL    HW123987   0.265   2.856   6.465
 7696SOL    HW223988   0.382   2.764   6.398
 7697SOL     OW23989   4.512   6.999   2.813
 7697SOL    HW123990   4.435   7.018   2.752
 7697SOL    HW223991   4.577   6.939   2.766
 7698SOL     OW23992   5.944   1.760   6.875
 7698SOL    HW123993   5.966   1.712   6.790
 7698SOL    HW223994   5.939   1.694   6.951
 7699SOL     OW23995   3.528   5.273   5.320
 7699SOL    HW123996   3.543   5.355   5.375
 7699SOL    HW223997   3.461   5.293   5.248
 7700SOL     OW23998   5.140   4.859   2.412
 7700SOL    HW123999   5.160   4.776   2.360
 7700SOL    HW224000   5.072   4.838   2.482
 7701SOL     OW24001   0.319   2.621   6.155
 7701SOL    HW124002   0.354   2.609   6.248
 7701SOL    HW224003   0.289   2.716   6.143
 7702SOL     OW24004   4.804   0.177   4.916
 7702SOL    HW124005   4.755   0.136   4.993
 7702SOL    HW224006   4.889   0.127   4.901
 7703SOL     OW24007   6.556   6.397   4.834
 7703SOL    HW124008   6.549   6.448   4.919
 7703SOL    HW224009   6.539   6.458   4.757
 7704SOL     OW24010   6.589   1.419   4.301
 7704SOL    HW124011   6.546   1.497   4.346
 7704SOL    HW224012   6.523   1.344   4.292
 7705SOL     OW24013   2.413   5.244   0.435
 7705SOL    HW124014   2.403   5.344   0.430
 7705SOL    HW224015   2.395   5.214   0.529
 7706SOL     OW24016   3.583   3.087   2.354
 7706SOL    HW124017   3.551   3.160   2.293
 7706SOL    HW224018   3.563   3.113   2.449
 7707SOL     OW24019   6.943   5.390   6.744
 7707SOL    HW124020   7.001   5.468   6.768
 7707SOL    HW224021   6.992   5.305   6.760
 7708SOL     OW24022   2.440   7.014   4.687
 7708SOL    HW124023   2.455   6.936   4.747
 7708SOL    HW224024   2.366   6.993   4.623
 7709SOL     OW24025   0.176   4.960   1.521
 7709SOL    HW124026   0.251   5.023   1.544
 7709SOL    HW224027   0.122   4.941   1.603
 7710SOL     OW24028   0.948   3.668   0.629
 7710SOL    HW124029   1.001   3.584   0.639
 7710SOL    HW224030   0.990   3.725   0.558
 7711SOL     OW24031   6.884   5.066   5.151
 7711SOL    HW124032   6.871   5.085   5.053
 7711SOL    HW224033   6.952   4.993   5.162
 7712SOL     OW24034   6.544   4.628   5.897
 7712SOL    HW124035   6.602   4.563   5.947
 7712SOL    HW224036   6.448   4.612   5.920
 7713SOL     OW24037   2.197   4.951   0.376
 7713SOL    HW124038   2.120   4.966   0.438
 7713SOL    HW224039   2.193   4.858   0.339
 7714SOL     OW24040   6.627   0.872   4.668
 7714SOL    HW124041   6.544   0.852   4.616
 7714SOL    HW224042   6.653   0.792   4.722
 7715SOL     OW24043   2.831   2.783   5.778
 7715SOL    HW124044   2.868   2.810   5.866
 7715SOL    HW224045   2.754   2.843   5.754
 7716SOL     OW24046   1.196   5.597   5.360
 7716SOL    HW124047   1.189   5.669   5.428
 7716SOL    HW224048   1.149   5.625   5.276
 7717SOL     OW24049   1.514   1.827   6.910
 7717SOL    HW124050   1.573   1.832   6.990
 7717SOL    HW224051   1.481   1.918   6.886
 7718SOL     OW24052   1.198   4.117   2.470
 7718SOL    HW124053   1.232   4.063   2.393
 7718SOL    HW224054   1.189   4.213   2.441
 7719SOL     OW24055   1.291   3.844   5.053
 7719SOL    HW124056   1.311   3.805   4.963
 7719SOL    HW224057   1.339   3.932   5.062
 7720SOL     OW24058   5.447   1.767   6.976
 7720SOL    HW124059   5.378   1.834   7.005
 7720SOL    HW224060   5.535   1.814   6.962
 7721SOL     OW24061   0.695   0.644   2.330
 7721SOL    HW124062   0.720   0.741   2.338
 7721SOL    HW224063   0.623   0.635   2.261
 7722SOL     OW24064   2.609   5.677   3.333
 7722SOL    HW124065   2.549   5.690   3.412
 7722SOL    HW224066   2.631   5.580   3.324
 7723SOL     OW24067   5.055   4.337   0.451
 7723SOL    HW124068   5.112   4.390   0.514
 7723SOL    HW224069   5.064   4.239   0.472
 7724SOL     OW24070   2.193   4.253   1.869
 7724SOL    HW124071   2.134   4.176   1.845
 7724SOL    HW224072   2.149   4.308   1.940
 7725SOL     OW24073   5.701   3.040   3.593
 7725SOL    HW124074   5.646   3.065   3.673
 7725SOL    HW224075   5.652   2.973   3.538
 7726SOL     OW24076   0.246   2.888   6.144
 7726SOL    HW124077   0.272   2.887   6.240
 7726SOL    HW224078   0.156   2.929   6.133
 7727SOL     OW24079   5.375   2.325   2.224
 7727SOL    HW124080   5.426   2.391   2.169
 7727SOL    HW224081   5.431   2.297   2.302
 7728SOL     OW24082   2.046   3.506   4.678
 7728SOL    HW124083   1.960   3.550   4.653
 7728SOL    HW224084   2.061   3.517   4.777
 7729SOL     OW24085   6.458   2.069   3.855
 7729SOL    HW124086   6.388   2.061   3.925
 7729SOL    HW224087   6.428   2.135   3.786
 7730SOL     OW24088   6.645   4.041   5.141
 7730SOL    HW124089   6.643   4.007   5.235
 7730SOL    HW224090   6.676   3.968   5.080
 7731SOL     OW24091   6.016   0.137   0.097
 7731SOL    HW124092   6.011   0.162   0.000
 7731SOL    HW224093   5.998   0.218   0.153
 7732SOL     OW24094   4.345   6.977   6.653
 7732SOL    HW124095   4.355   0.017   6.573
 7732SOL    HW224096   4.433   6.934   6.673
 7733SOL     OW24097   6.703   5.824   2.335
 7733SOL    HW124098   6.770   5.871   2.278
 7733SOL    HW224099   6.730   5.833   2.431
 7734SOL     OW24100   3.378   3.844   5.227
 7734SOL    HW124101   3.419   3.927   5.265
 7734SOL    HW224102   3.380   3.848   5.127
 7735SOL     OW24103   0.286   5.941   0.865
 7735SOL    HW124104   0.224   6.000   0.813
 7735SOL    HW224105   0.266   5.949   0.962
 7736SOL     OW24106   2.981   3.348   0.825
 7736SOL    HW124107   2.953   3.402   0.746
 7736SOL    HW224108   2.988   3.251   0.799
 7737SOL     OW24109   3.888   4.507   1.416
 7737SOL    HW124110   3.847   4.595   1.394
 7737SOL    HW224111   3.819   4.447   1.457
 7738SOL     OW24112   2.590   6.522   6.864
 7738SOL    HW124113   2.613   6.589   6.934
 7738SOL    HW224114   2.598   6.564   6.774
 7739SOL     OW24115   1.313   1.902   0.612
 7739SOL    HW124116   1.281   1.813   0.645
 7739SOL    HW224117   1.300   1.908   0.513
 7740SOL     OW24118   1.673   0.947   4.513
 7740SOL    HW124119   1.615   0.980   4.587
 7740SOL    HW224120   1.627   0.872   4.465
 7741SOL     OW24121   1.695   4.100   6.379
 7741SOL    HW124122   1.730   4.141   6.295
 7741SOL    HW224123   1.642   4.168   6.429
 7742SOL     OW24124   4.007   1.494   3.807
 7742SOL    HW124125   3.922   1.543   3.826
 7742SOL    HW224126   4.005   1.460   3.713
 7743SOL     OW24127   4.789   1.422   5.733
 7743SOL    HW124128   4.726   1.407   5.657
 7743SOL    HW224129   4.772   1.512   5.773
 7744SOL     OW24130   0.190   6.175   3.738
 7744SOL    HW124131   0.191   6.081   3.772
 7744SOL    HW224132   0.281   6.215   3.749
 7745SOL     OW24133   2.152   6.868   0.857
 7745SOL    HW124134   2.081   6.899   0.795
 7745SOL    HW224135   2.232   6.928   0.851
 7746SOL     OW24136   1.039   6.297   0.972
 7746SOL    HW124137   1.102   6.220   0.978
 7746SOL    HW224138   1.086   6.381   0.997
 7747SOL     OW24139   1.021   6.438   0.718
 7747SOL    HW124140   0.928   6.420   0.751
 7747SOL    HW224141   1.084   6.370   0.756
 7748SOL     OW24142   4.300   2.619   5.555
 7748SOL    HW124143   4.292   2.686   5.629
 7748SOL    HW224144   4.240   2.645   5.480
 7749SOL     OW24145   3.557   3.319   4.142
 7749SOL    HW124146   3.533   3.284   4.233
 7749SOL    HW224147   3.474   3.332   4.088
 7750SOL     OW24148   5.581   4.587   5.285
 7750SOL    HW124149   5.588   4.558   5.189
 7750SOL    HW224150   5.576   4.506   5.344
 7751SOL     OW24151   6.998   1.141   5.094
 7751SOL    HW124152   6.902   1.170   5.089
 7751SOL    HW224153   7.008   1.051   5.051
 7752SOL     OW24154   5.811   5.644   5.203
 7752SOL    HW124155   5.768   5.585   5.135
 7752SOL    HW224156   5.857   5.720   5.157
 7753SOL     OW24157   1.869   0.415   4.473
 7753SOL    HW124158   1.932   0.381   4.543
 7753SOL    HW224159   1.786   0.359   4.474
 7754SOL     OW24160   6.042   0.371   1.035
 7754SOL    HW124161   6.134   0.353   1.069
 7754SOL    HW224162   5.987   0.287   1.042
 7755SOL     OW24163   0.534   5.742   5.483
 7755SOL    HW124164   0.566   5.757   5.577
 7755SOL    HW224165   0.610   5.755   5.420
 7756SOL     OW24166   3.346   5.276   2.135
 7756SOL    HW124167   3.290   5.200   2.102
 7756SOL    HW224168   3.439   5.245   2.151
 7757SOL     OW24169   4.780   6.226   5.896
 7757SOL    HW124170   4.824   6.271   5.819
 7757SOL    HW224171   4.691   6.268   5.912
 7758SOL     OW24172   2.528   2.261   5.851
 7758SOL    HW124173   2.600   2.312   5.804
 7758SOL    HW224174   2.487   2.319   5.921
 7759SOL     OW24175   2.108   0.753   4.184
 7759SOL    HW124176   2.076   0.792   4.097
 7759SOL    HW224177   2.029   0.719   4.235
 7760SOL     OW24178   5.135   3.027   2.336
 7760SOL    HW124179   5.038   3.020   2.312
 7760SOL    HW224180   5.149   3.106   2.395
 7761SOL     OW24181   2.954   6.962   0.083
 7761SOL    HW124182   2.894   6.988   0.007
 7761SOL    HW224183   2.985   0.024   0.130
 7762SOL     OW24184   3.980   1.626   6.934
 7762SOL    HW124185   3.951   1.618   6.839
 7762SOL    HW224186   4.076   1.597   6.942
 7763SOL     OW24187   2.167   1.927   0.657
 7763SOL    HW124188   2.072   1.904   0.681
 7763SOL    HW224189   2.194   2.011   0.705
 7764SOL     OW24190   3.565   2.797   2.223
 7764SOL    HW124191   3.625   2.872   2.195
 7764SOL    HW224192   3.621   2.717   2.247
 7765SOL     OW24193   6.567   2.746   2.800
 7765SOL    HW124194   6.666   2.732   2.812
 7765SOL    HW224195   6.551   2.801   2.718
 7766SOL     OW24196   6.193   1.899   6.952
 7766SOL    HW124197   6.096   1.874   6.957
 7766SOL    HW224198   6.232   1.866   6.866
 7767SOL     OW24199   4.262   5.888   3.902
 7767SOL    HW124200   4.280   5.931   3.990
 7767SOL    HW224201   4.173   5.918   3.868
 7768SOL     OW24202   3.967   5.011   2.171
 7768SOL    HW124203   3.888   4.961   2.205
 7768SOL    HW224204   3.970   5.102   2.212
 7769SOL     OW24205   5.294   2.378   0.813
 7769SOL    HW124206   5.201   2.354   0.788
 7769SOL    HW224207   5.294   2.462   0.867
 7770SOL     OW24208   3.210   4.985   1.686
 7770SOL    HW124209   3.112   5.002   1.688
 7770SOL    HW224210   3.238   4.936   1.769
 7771SOL     OW24211   3.008   2.282   5.805
 7771SOL    HW124212   2.950   2.215   5.759
 7771SOL    HW224213   3.055   2.239   5.883
 7772SOL     OW24214   4.643   0.499   4.004
 7772SOL    HW124215   4.567   0.552   4.041
 7772SOL    HW224216   4.625   0.477   3.908
 7773SOL     OW24217   4.271   3.890   5.864
 7773SOL    HW124218   4.326   3.808   5.880
 7773SOL    HW224219   4.284   3.922   5.770
 7774SOL     OW24220   5.288   1.763   5.948
 7774SOL    HW124221   5.221   1.704   5.994
 7774SOL    HW224222   5.361   1.787   6.013
 7775SOL     OW24223   3.327   6.682   2.081
 7775SOL    HW124224   3.317   6.690   1.982
 7775SOL    HW224225   3.417   6.643   2.101
 7776SOL     OW24226   3.552   3.629   6.233
 7776SOL    HW124227   3.571   3.554   6.296
 7776SOL    HW224228   3.511   3.705   6.283
 7777SOL     OW24229   2.597   0.646   6.666
 7777SOL    HW124230   2.612   0.742   6.646
 7777SOL    HW224231   2.684   0.598   6.667
 7778SOL     OW24232   5.396   0.317   6.828
 7778SOL    HW124233   5.411   0.381   6.904
 7778SOL    HW224234   5.353   0.365   6.752
 7779SOL     OW24235   3.630   2.762   0.452
 7779SOL    HW124236   3.646   2.690   0.384
 7779SOL    HW224237   3.606   2.847   0.406
 7780SOL     OW24238   1.737   6.126   4.883
 7780SOL    HW124239   1.725   6.205   4.943
 7780SOL    HW224240   1.715   6.152   4.789
 7781SOL     OW24241   1.685   3.788   5.258
 7781SOL    HW124242   1.719   3.877   5.227
 7781SOL    HW224243   1.737   3.715   5.213
 7782SOL     OW24244   2.446   4.453   6.299
 7782SOL    HW124245   2.393   4.417   6.375
 7782SOL    HW224246   2.542   4.427   6.310
 7783SOL     OW24247   2.635   5.708   7.015
 7783SOL    HW124248   2.734   5.720   0.000
 7783SOL    HW224249   2.598   5.761   6.939
 7784SOL     OW24250   0.645   3.148   6.866
 7784SOL    HW124251   0.716   3.105   6.922
 7784SOL    HW224252   0.557   3.144   6.914
 7785SOL     OW24253   2.475   6.304   4.381
 7785SOL    HW124254   2.465   6.369   4.305
 7785SOL    HW224255   2.398   6.315   4.444
 7786SOL     OW24256   2.983   4.716   5.302
 7786SOL    HW124257   2.953   4.802   5.343
 7786SOL    HW224258   2.908   4.675   5.251
 7787SOL     OW24259   2.161   2.887   5.187
 7787SOL    HW124260   2.108   2.964   5.223
 7787SOL    HW224261   2.232   2.921   5.126
 7788SOL     OW24262   0.758   1.580   1.439
 7788SOL    HW124263   0.825   1.509   1.414
 7788SOL    HW224264   0.800   1.643   1.505
 7789SOL     OW24265   2.588   0.751   1.317
 7789SOL    HW124266   2.514   0.813   1.343
 7789SOL    HW224267   2.616   0.770   1.223
 7790SOL     OW24268   5.640   3.203   2.925
 7790SOL    HW124269   5.597   3.112   2.924
 7790SOL    HW224270   5.705   3.209   2.849
 7791SOL     OW24271   2.542   5.034   4.446
 7791SOL    HW124272   2.627   5.016   4.396
 7791SOL    HW224273   2.538   4.975   4.526
 7792SOL     OW24274   2.694   6.036   6.049
 7792SOL    HW124275   2.639   6.070   6.126
 7792SOL    HW224276   2.637   5.981   5.989
 7793SOL     OW24277   1.312   0.865   6.106
 7793SOL    HW124278   1.235   0.831   6.160
 7793SOL    HW224279   1.392   0.806   6.120
 7794SOL     OW24280   5.373   5.494   4.213
 7794SOL    HW124281   5.336   5.478   4.121
 7794SOL    HW224282   5.328   5.433   4.278
 7795SOL     OW24283   1.938   4.583   5.528
 7795SOL    HW124284   1.999   4.655   5.562
 7795SOL    HW224285   1.984   4.495   5.534
 7796SOL     OW24286   3.580   4.119   3.389
 7796SOL    HW124287   3.483   4.132   3.410
 7796SOL    HW224288   3.635   4.132   3.471
 7797SOL     OW24289   6.927   6.828   3.150
 7797SOL    HW124290   6.930   6.739   3.106
 7797SOL    HW224291   6.838   6.840   3.194
 7798SOL     OW24292   3.386   5.939   1.076
 7798SOL    HW124293   3.400   6.037   1.062
 7798SOL    HW224294   3.288   5.920   1.087
 7799SOL     OW24295   0.284   5.230   1.067
 7799SOL    HW124296   0.234   5.245   0.981
 7799SOL    HW224297   0.223   5.188   1.134
 7800SOL     OW24298   0.320   5.202   1.994
 7800SOL    HW124299   0.394   5.268   1.983
 7800SOL    HW224300   0.355   5.119   2.038
 7801SOL     OW24301   2.454   1.956   6.907
 7801SOL    HW124302   2.423   1.943   6.813
 7801SOL    HW224303   2.541   2.005   6.907
 7802SOL     OW24304   5.183   2.663   1.697
 7802SOL    HW124305   5.179   2.625   1.789
 7802SOL    HW224306   5.278   2.677   1.671
 7803SOL     OW24307   4.075   4.355   5.983
 7803SOL    HW124308   3.977   4.373   5.971
 7803SOL    HW224309   4.103   4.283   5.920
 7804SOL     OW24310   5.308   1.898   5.356
 7804SOL    HW124311   5.256   1.812   5.362
 7804SOL    HW224312   5.357   1.901   5.269
 7805SOL     OW24313   5.161   2.530   1.959
 7805SOL    HW124314   5.127   2.447   2.003
 7805SOL    HW224315   5.211   2.585   2.027
 7806SOL     OW24316   5.603   2.852   5.936
 7806SOL    HW124317   5.698   2.876   5.956
 7806SOL    HW224318   5.574   2.779   5.998
 7807SOL     OW24319   0.065   3.850   6.092
 7807SOL    HW124320   0.087   3.915   6.019
 7807SOL    HW224321   6.988   3.827   6.088
 7808SOL     OW24322   0.872   0.904   4.570
 7808SOL    HW124323   0.945   0.973   4.568
 7808SOL    HW224324   0.843   0.884   4.477
 7809SOL     OW24325   2.341   5.321   4.887
 7809SOL    HW124326   2.321   5.418   4.904
 7809SOL    HW224327   2.411   5.313   4.817
 7810SOL     OW24328   2.741   0.608   5.259
 7810SOL    HW124329   2.694   0.694   5.239
 7810SOL    HW224330   2.700   0.565   5.339
 7811SOL     OW24331   5.444   4.776   3.519
 7811SOL    HW124332   5.445   4.851   3.584
 7811SOL    HW224333   5.480   4.693   3.562
 7812SOL     OW24334   2.146   1.376   4.163
 7812SOL    HW124335   2.214   1.448   4.175
 7812SOL    HW224336   2.157   1.335   4.072
 7813SOL     OW24337   6.302   2.845   6.727
 7813SOL    HW124338   6.202   2.835   6.731
 7813SOL    HW224339   6.343   2.809   6.811
 7814SOL     OW24340   6.990   3.322   3.600
 7814SOL    HW124341   6.961   3.348   3.692
 7814SOL    HW224342   6.986   3.222   3.591
 7815SOL     OW24343   6.284   1.642   6.414
 7815SOL    HW124344   6.364   1.680   6.461
 7815SOL    HW224345   6.257   1.704   6.341
 7816SOL     OW24346   0.466   3.717   5.760
 7816SOL    HW124347   0.481   3.803   5.710
 7816SOL    HW224348   0.432   3.737   5.851
 7817SOL     OW24349   5.490   4.158   4.482
 7817SOL    HW124350   5.569   4.106   4.514
 7817SOL    HW224351   5.484   4.244   4.533
 7818SOL     OW24352   6.108   6.283   1.810
 7818SOL    HW124353   6.205   6.269   1.789
 7818SOL    HW224354   6.065   6.333   1.735
 7819SOL     OW24355   6.989   2.510   1.430
 7819SOL    HW124356   7.009   2.548   1.521
 7819SOL    HW224357   0.018   2.423   1.419
 7820SOL     OW24358   1.620   1.603   6.439
 7820SOL    HW124359   1.692   1.655   6.394
 7820SOL    HW224360   1.551   1.576   6.372
 7821SOL     OW24361   3.644   5.469   1.077
 7821SOL    HW124362   3.594   5.496   1.158
 7821SOL    HW224363   3.587   5.483   0.996
 7822SOL     OW24364   1.170   5.584   5.048
 7822SOL    HW124365   1.219   5.669   5.065
 7822SOL    HW224366   1.085   5.584   5.101
 7823SOL     OW24367   2.135   4.007   5.262
 7823SOL    HW124368   2.221   4.034   5.218
 7823SOL    HW224369   2.135   3.908   5.276
 7824SOL     OW24370   0.668   2.814   5.293
 7824SOL    HW124371   0.593   2.880   5.291
 7824SOL    HW224372   0.696   2.798   5.387
 7825SOL     OW24373   2.585   1.650   6.619
 7825SOL    HW124374   2.611   1.747   6.617
 7825SOL    HW224375   2.493   1.641   6.656
 7826SOL     OW24376   6.900   2.338   6.672
 7826SOL    HW124377   6.975   2.358   6.735
 7826SOL    HW224378   6.933   2.282   6.597
 7827SOL     OW24379   0.159   6.254   3.346
 7827SOL    HW124380   0.098   6.283   3.420
 7827SOL    HW224381   0.254   6.268   3.374
 7828SOL     OW24382   0.268   4.129   6.424
 7828SOL    HW124383   0.291   4.073   6.503
 7828SOL    HW224384   0.287   4.225   6.445
 7829SOL     OW24385   3.030   2.788   1.471
 7829SOL    HW124386   2.994   2.749   1.386
 7829SOL    HW224387   2.980   2.872   1.492
 7830SOL     OW24388   2.799   4.941   4.392
 7830SOL    HW124389   2.874   4.994   4.353
 7830SOL    HW224390   2.763   4.878   4.323
 7831SOL     OW24391   2.046   2.155   0.845
 7831SOL    HW124392   2.005   2.095   0.913
 7831SOL    HW224393   1.975   2.212   0.804
 7832SOL     OW24394   5.626   0.500   4.801
 7832SOL    HW124395   5.533   0.470   4.777
 7832SOL    HW224396   5.626   0.539   4.893
 7833SOL     OW24397   2.223   0.533   4.026
 7833SOL    HW124398   2.317   0.519   4.058
 7833SOL    HW224399   2.175   0.594   4.090
 7834SOL     OW24400   6.236   2.865   4.985
 7834SOL    HW124401   6.331   2.891   5.004
 7834SOL    HW224402   6.175   2.915   5.047
 7835SOL     OW24403   4.388   1.849   4.991
 7835SOL    HW124404   4.363   1.917   4.923
 7835SOL    HW224405   4.386   1.757   4.950
 7836SOL     OW24406   3.743   4.150   5.224
 7836SOL    HW124407   3.755   4.139   5.125
 7836SOL    HW224408   3.656   4.110   5.252
 7837SOL     OW24409   5.957   6.363   6.705
 7837SOL    HW124410   5.872   6.334   6.748
 7837SOL    HW224411   6.018   6.403   6.774
 7838SOL     OW24412   5.464   5.420   0.907
 7838SOL    HW124413   5.484   5.475   0.827
 7838SOL    HW224414   5.502   5.464   0.989
 7839SOL     OW24415   6.057   3.999   4.652
 7839SOL    HW124416   6.138   3.993   4.710
 7839SOL    HW224417   5.986   3.937   4.685
 7840SOL     OW24418   2.141   3.215   3.609
 7840SOL    HW124419   2.218   3.279   3.603
 7840SOL    HW224420   2.146   3.165   3.696
 7841SOL     OW24421   4.976   2.379   5.930
 7841SOL    HW124422   4.880   2.364   5.954
 7841SOL    HW224423   4.980   2.425   5.841
 7842SOL     OW24424   2.060   1.298   2.480
 7842SOL    HW124425   2.046   1.207   2.519
 7842SOL    HW224426   2.087   1.362   2.552
 7843SOL     OW24427   0.240   6.613   3.159
 7843SOL    HW124428   0.241   6.713   3.150
 7843SOL    HW224429   0.244   6.572   3.068
 7844SOL     OW24430   3.709   0.642   2.687
 7844SOL    HW124431   3.614   0.671   2.677
 7844SOL    HW224432   3.760   0.666   2.605
 7845SOL     OW24433   5.943   2.024   1.578
 7845SOL    HW124434   5.985   2.028   1.668
 7845SOL    HW224435   5.854   2.070   1.580
 7846SOL     OW24436   0.762   2.683   0.283
 7846SOL    HW124437   0.858   2.693   0.310
 7846SOL    HW224438   0.720   2.610   0.337
 7847SOL     OW24439   5.597   2.465   4.396
 7847SOL    HW124440   5.574   2.537   4.331
 7847SOL    HW224441   5.535   2.387   4.383
 7848SOL     OW24442   2.821   4.952   0.823
 7848SOL    HW124443   2.789   4.858   0.811
 7848SOL    HW224444   2.883   4.956   0.901
 7849SOL     OW24445   4.660   3.957   5.756
 7849SOL    HW124446   4.579   4.015   5.742
 7849SOL    HW224447   4.653   3.912   5.845
 7850SOL     OW24448   6.670   1.518   3.376
 7850SOL    HW124449   6.705   1.430   3.343
 7850SOL    HW224450   6.571   1.513   3.386
 7851SOL     OW24451   0.786   4.434   1.983
 7851SOL    HW124452   0.789   4.339   1.950
 7851SOL    HW224453   0.842   4.442   2.065
 7852SOL     OW24454   1.991   2.380   0.270
 7852SOL    HW124455   2.048   2.300   0.248
 7852SOL    HW224456   2.049   2.452   0.308
 7853SOL     OW24457   3.953   2.937   1.750
 7853SOL    HW124458   3.931   2.940   1.847
 7853SOL    HW224459   4.047   2.906   1.738
 7854SOL     OW24460   5.131   2.157   5.770
 7854SOL    HW124461   5.070   2.227   5.807
 7854SOL    HW224462   5.196   2.199   5.706
 7855SOL     OW24463   5.480   6.798   4.430
 7855SOL    HW124464   5.549   6.765   4.365
 7855SOL    HW224465   5.471   6.897   4.421
 7856SOL     OW24466   1.847   5.894   4.769
 7856SOL    HW124467   1.792   5.818   4.733
 7856SOL    HW224468   1.791   5.949   4.831
 7857SOL     OW24469   5.126   4.007   0.470
 7857SOL    HW124470   5.140   3.908   0.466
 7857SOL    HW224471   5.038   4.029   0.427
 7858SOL     OW24472   0.658   5.492   5.965
 7858SOL    HW124473   0.625   5.431   5.893
 7858SOL    HW224474   0.732   5.549   5.929
 7859SOL     OW24475   5.098   2.462   6.864
 7859SOL    HW124476   5.103   2.385   6.928
 7859SOL    HW224477   5.029   2.527   6.895
 7860SOL     OW24478   2.691   0.688   4.589
 7860SOL    HW124479   2.693   0.590   4.605
 7860SOL    HW224480   2.639   0.708   4.505
 7861SOL     OW24481   2.522   6.765   1.020
 7861SOL    HW124482   2.600   6.718   0.978
 7861SOL    HW224483   2.555   6.838   1.080
 7862SOL     OW24484   2.802   6.369   0.941
 7862SOL    HW124485   2.728   6.370   0.874
 7862SOL    HW224486   2.871   6.302   0.914
 7863SOL     OW24487   6.674   4.004   3.876
 7863SOL    HW124488   6.748   3.944   3.848
 7863SOL    HW224489   6.675   4.087   3.820
 7864SOL     OW24490   2.703   6.444   5.397
 7864SOL    HW124491   2.741   6.499   5.322
 7864SOL    HW224492   2.766   6.369   5.418
 7865SOL     OW24493   6.307   5.856   3.868
 7865SOL    HW124494   6.277   5.769   3.830
 7865SOL    HW224495   6.357   5.908   3.799
 7866SOL     OW24496   1.123   0.400   6.478
 7866SOL    HW124497   1.212   0.360   6.456
 7866SOL    HW224498   1.050   0.343   6.440
 7867SOL     OW24499   5.514   6.835   3.736
 7867SOL    HW124500   5.605   6.868   3.713
 7867SOL    HW224501   5.445   6.889   3.687
 7868SOL     OW24502   3.726   6.449   1.179
 7868SOL    HW124503   3.634   6.423   1.210
 7868SOL    HW224504   3.743   6.544   1.203
 7869SOL     OW24505   5.185   4.045   6.061
 7869SOL    HW124506   5.150   3.953   6.077
 7869SOL    HW224507   5.206   4.088   6.149
 7870SOL     OW24508   4.908   5.927   5.221
 7870SOL    HW124509   4.982   5.989   5.196
 7870SOL    HW224510   4.840   5.976   5.275
 7871SOL     OW24511   5.242   1.737   1.472
 7871SOL    HW124512   5.178   1.684   1.529
 7871SOL    HW224513   5.260   1.825   1.515
 7872SOL     OW24514   1.902   6.563   2.586
 7872SOL    HW124515   1.856   6.574   2.674
 7872SOL    HW224516   1.992   6.607   2.589
 7873SOL     OW24517   6.481   1.243   0.420
 7873SOL    HW124518   6.488   1.163   0.361
 7873SOL    HW224519   6.395   1.241   0.471
 7874SOL     OW24520   5.349   2.608   0.932
 7874SOL    HW124521   5.442   2.573   0.926
 7874SOL    HW224522   5.345   2.683   0.998
 7875SOL     OW24523   4.743   4.258   6.417
 7875SOL    HW124524   4.714   4.227   6.326
 7875SOL    HW224525   4.670   4.311   6.459
 7876SOL     OW24526   0.656   0.319   2.170
 7876SOL    HW124527   0.629   0.292   2.262
 7876SOL    HW224528   0.648   0.241   2.108
 7877SOL     OW24529   6.894   1.711   3.180
 7877SOL    HW124530   6.925   1.771   3.106
 7877SOL    HW224531   6.936   1.621   3.170
 7878SOL     OW24532   4.735   4.857   3.414
 7878SOL    HW124533   4.799   4.909   3.357
 7878SOL    HW224534   4.665   4.919   3.451
 7879SOL     OW24535   2.438   4.548   3.286
 7879SOL    HW124536   2.382   4.626   3.260
 7879SOL    HW224537   2.403   4.465   3.243
 7880SOL     OW24538   1.442   4.081   1.909
 7880SOL    HW124539   1.390   4.099   1.826
 7880SOL    HW224540   1.540   4.084   1.889
 7881SOL     OW24541   4.888   3.860   3.832
 7881SOL    HW124542   4.824   3.926   3.872
 7881SOL    HW224543   4.858   3.767   3.853
 7882SOL     OW24544   1.886   3.262   1.601
 7882SOL    HW124545   1.833   3.345   1.585
 7882SOL    HW224546   1.964   3.283   1.661
 7883SOL     OW24547   0.786   1.187   5.315
 7883SOL    HW124548   0.730   1.239   5.250
 7883SOL    HW224549   0.732   1.112   5.353
 7884SOL     OW24550   0.284   2.831   4.784
 7884SOL    HW124551   0.231   2.885   4.719
 7884SOL    HW224552   0.291   2.737   4.750
 7885SOL     OW24553   5.812   5.716   0.089
 7885SOL    HW124554   5.817   5.741   7.012
 7885SOL    HW224555   5.864   5.632   0.104
 7886SOL     OW24556   4.602   5.609   0.142
 7886SOL    HW124557   4.613   5.604   0.042
 7886SOL    HW224558   4.681   5.657   0.181
 7887SOL     OW24559   4.763   2.058   7.017
 7887SOL    HW124560   4.769   2.157   0.005
 7887SOL    HW224561   4.712   2.034   6.935
 7888SOL     OW24562   4.456   0.726   4.074
 7888SOL    HW124563   4.407   0.758   3.992
 7888SOL    HW224564   4.521   0.796   4.103
 7889SOL     OW24565   0.077   6.510   2.335
 7889SOL    HW124566   0.100   6.491   2.240
 7889SOL    HW224567   0.145   6.465   2.394
 7890SOL     OW24568   1.622   3.708   2.211
 7890SOL    HW124569   1.668   3.719   2.299
 7890SOL    HW224570   1.654   3.624   2.167
 7891SOL     OW24571   2.294   4.620   2.215
 7891SOL    HW124572   2.298   4.542   2.277
 7891SOL    HW224573   2.282   4.588   2.121
 7892SOL     OW24574   2.210   2.271   5.982
 7892SOL    HW124575   2.210   2.216   6.065
 7892SOL    HW224576   2.256   2.221   5.908
 7893SOL     OW24577   6.227   6.707   1.214
 7893SOL    HW124578   6.277   6.775   1.267
 7893SOL    HW224579   6.243   6.616   1.253
 7894SOL     OW24580   2.425   6.739   1.716
 7894SOL    HW124581   2.327   6.737   1.734
 7894SOL    HW224582   2.456   6.648   1.688
 7895SOL     OW24583   6.865   1.340   4.770
 7895SOL    HW124584   6.863   1.359   4.672
 7895SOL    HW224585   6.803   1.264   4.791
 7896SOL     OW24586   4.916   3.616   5.471
 7896SOL    HW124587   4.897   3.613   5.570
 7896SOL    HW224588   4.896   3.527   5.431
 7897SOL     OW24589   2.799   3.068   6.655
 7897SOL    HW124590   2.778   3.042   6.749
 7897SOL    HW224591   2.727   3.128   6.620
 7898SOL     OW24592   4.216   2.232   3.484
 7898SOL    HW124593   4.119   2.224   3.508
 7898SOL    HW224594   4.237   2.168   3.410
 7899SOL     OW24595   5.273   2.060   2.690
 7899SOL    HW124596   5.207   2.007   2.744
 7899SOL    HW224597   5.254   2.158   2.702
 7900SOL     OW24598   1.805   5.967   1.252
 7900SOL    HW124599   1.864   6.034   1.298
 7900SOL    HW224600   1.837   5.875   1.274
 7901SOL     OW24601   6.762   6.429   6.528
 7901SOL    HW124602   6.714   6.516   6.542
 7901SOL    HW224603   6.808   6.402   6.612
 7902SOL     OW24604   4.309   3.764   6.967
 7902SOL    HW124605   4.237   3.723   0.003
 7902SOL    HW224606   4.395   3.714   6.980
 7903SOL     OW24607   6.421   1.906   0.093
 7903SOL    HW124608   6.434   1.807   0.096
 7903SOL    HW224609   6.335   1.927   0.046
 7904SOL     OW24610   6.926   1.220   2.397
 7904SOL    HW124611   6.979   1.238   2.479
 7904SOL    HW224612   6.987   1.194   2.322
 7905SOL     OW24613   4.119   0.893   1.084
 7905SOL    HW124614   4.049   0.937   1.142
 7905SOL    HW224615   4.136   0.950   1.004
 7906SOL     OW24616   5.748   6.234   6.857
 7906SOL    HW124617   5.686   6.171   6.903
 7906SOL    HW224618   5.835   6.238   6.907
 7907SOL     OW24619   0.218   2.770   2.617
 7907SOL    HW124620   0.303   2.753   2.567
 7907SOL    HW224621   0.141   2.767   2.553
 7908SOL     OW24622   6.639   2.183   4.037
 7908SOL    HW124623   6.613   2.278   4.051
 7908SOL    HW224624   6.572   2.139   3.978
 7909SOL     OW24625   4.756   4.596   4.768
 7909SOL    HW124626   4.779   4.536   4.845
 7909SOL    HW224627   4.681   4.657   4.795
 7910SOL     OW24628   5.340   3.232   5.553
 7910SOL    HW124629   5.241   3.214   5.557
 7910SOL    HW224630   5.382   3.168   5.488
 7911SOL     OW24631   6.276   4.609   0.122
 7911SOL    HW124632   6.327   4.538   0.171
 7911SOL    HW224633   6.225   4.665   0.187
 7912SOL     OW24634   6.097   4.656   5.995
 7912SOL    HW124635   6.106   4.692   6.087
 7912SOL    HW224636   6.138   4.719   5.930
 7913SOL     OW24637   0.171   5.488   6.477
 7913SOL    HW124638   0.191   5.395   6.509
 7913SOL    HW224639   0.078   5.512   6.503
 7914SOL     OW24640   5.859   4.007   1.019
 7914SOL    HW124641   5.826   4.006   0.925
 7914SOL    HW224642   5.793   3.959   1.078
 7915SOL     OW24643   3.632   1.702   3.325
 7915SOL    HW124644   3.604   1.716   3.230
 7915SOL    HW224645   3.683   1.782   3.356
 7916SOL     OW24646   5.283   3.819   5.275
 7916SOL    HW124647   5.246   3.784   5.361
 7916SOL    HW224648   5.361   3.763   5.246
 7917SOL     OW24649   3.538   3.606   4.167
 7917SOL    HW124650   3.593   3.535   4.122
 7917SOL    HW224651   3.447   3.571   4.185
 7918SOL     OW24652   5.612   1.750   2.616
 7918SOL    HW124653   5.618   1.766   2.517
 7918SOL    HW224654   5.609   1.838   2.664
 7919SOL     OW24655   5.474   5.047   1.618
 7919SOL    HW124656   5.386   5.005   1.596
 7919SOL    HW224657   5.466   5.098   1.703
 7920SOL     OW24658   0.612   4.833   1.296
 7920SOL    HW124659   0.514   4.821   1.279
 7920SOL    HW224660   0.664   4.801   1.216
 7921SOL     OW24661   2.068   0.187   1.134
 7921SOL    HW124662   2.122   0.106   1.158
 7921SOL    HW224663   1.973   0.160   1.116
 7922SOL     OW24664   1.131   5.604   6.632
 7922SOL    HW124665   1.201   5.675   6.643
 7922SOL    HW224666   1.172   5.524   6.588
 7923SOL     OW24667   1.419   1.356   3.770
 7923SOL    HW124668   1.490   1.426   3.757
 7923SOL    HW224669   1.426   1.318   3.862
 7924SOL     OW24670   3.102   0.009   4.014
 7924SOL    HW124671   3.120   0.052   4.102
 7924SOL    HW224672   3.146   6.939   4.010
 7925SOL     OW24673   6.177   1.524   5.812
 7925SOL    HW124674   6.197   1.511   5.909
 7925SOL    HW224675   6.180   1.436   5.765
 7926SOL     OW24676   4.030   0.435   2.014
 7926SOL    HW124677   4.077   0.421   1.927
 7926SOL    HW224678   3.983   0.351   2.041
 7927SOL     OW24679   4.855   5.422   4.242
 7927SOL    HW124680   4.849   5.401   4.339
 7927SOL    HW224681   4.776   5.477   4.215
 7928SOL     OW24682   1.558   5.438   2.006
 7928SOL    HW124683   1.639   5.493   1.984
 7928SOL    HW224684   1.482   5.498   2.030
 7929SOL     OW24685   3.807   3.619   4.225
 7929SOL    HW124686   3.783   3.565   4.144
 7929SOL    HW224687   3.820   3.558   4.303
 7930SOL     OW24688   4.959   5.761   3.643
 7930SOL    HW124689   4.879   5.732   3.696
 7930SOL    HW224690   4.928   5.807   3.560
 7931SOL     OW24691   2.605   1.815   0.492
 7931SOL    HW124692   2.684   1.806   0.553
 7931SOL    HW224693   2.523   1.780   0.538
 7932SOL     OW24694   2.187   0.401   0.645
 7932SOL    HW124695   2.168   0.331   0.576
 7932SOL    HW224696   2.251   0.365   0.712
 7933SOL     OW24697   1.004   0.776   6.858
 7933SOL    HW124698   0.941   0.853   6.869
 7933SOL    HW224699   1.040   0.776   6.765
 7934SOL     OW24700   2.527   3.868   6.526
 7934SOL    HW124701   2.510   3.787   6.582
 7934SOL    HW224702   2.621   3.864   6.490
 7935SOL     OW24703   4.309   6.367   1.792
 7935SOL    HW124704   4.329   6.455   1.750
 7935SOL    HW224705   4.383   6.342   1.855
 7936SOL     OW24706   4.155   5.848   3.005
 7936SOL    HW124707   4.168   5.947   2.997
 7936SOL    HW224708   4.058   5.827   2.994
 7937SOL     OW24709   6.378   6.477   5.894
 7937SOL    HW124710   6.442   6.406   5.922
 7937SOL    HW224711   6.381   6.488   5.795
 7938SOL     OW24712   4.722   5.210   4.412
 7938SOL    HW124713   4.639   5.217   4.356
 7938SOL    HW224714   4.698   5.177   4.503
 7939SOL     OW24715   1.472   0.913   5.630
 7939SOL    HW124716   1.508   0.921   5.723
 7939SOL    HW224717   1.524   0.973   5.568
 7940SOL     OW24718   2.007   5.830   1.092
 7940SOL    HW124719   1.936   5.897   1.110
 7940SOL    HW224720   1.994   5.791   1.001
 7941SOL     OW24721   0.219   0.675   0.789
 7941SOL    HW124722   0.124   0.674   0.823
 7941SOL    HW224723   0.279   0.709   0.861
 7942SOL     OW24724   6.962   0.427   1.677
 7942SOL    HW124725   0.030   0.472   1.663
 7942SOL    HW224726   6.952   0.351   1.612
 7943SOL     OW24727   5.160   1.492   1.199
 7943SOL    HW124728   5.230   1.526   1.262
 7943SOL    HW224729   5.091   1.440   1.250
 7944SOL     OW24730   0.908   4.532   1.294
 7944SOL    HW124731   0.901   4.620   1.342
 7944SOL    HW224732   0.827   4.478   1.312
 7945SOL     OW24733   5.650   6.566   2.647
 7945SOL    HW124734   5.610   6.629   2.580
 7945SOL    HW224735   5.681   6.618   2.727
 7946SOL     OW24736   1.706   2.078   6.032
 7946SOL    HW124737   1.723   2.111   5.939
 7946SOL    HW224738   1.607   2.079   6.050
 7947SOL     OW24739   4.170   3.324   6.394
 7947SOL    HW124740   4.092   3.384   6.375
 7947SOL    HW224741   4.250   3.356   6.344
 7948SOL     OW24742   0.239   6.512   0.798
 7948SOL    HW124743   0.273   6.442   0.735
 7948SOL    HW224744   0.141   6.526   0.784
 7949SOL     OW24745   5.549   4.546   3.652
 7949SOL    HW124746   5.469   4.534   3.711
 7949SOL    HW224747   5.633   4.538   3.706
 7950SOL     OW24748   3.941   5.150   4.198
 7950SOL    HW124749   3.877   5.224   4.216
 7950SOL    HW224750   3.894   5.073   4.155
 7951SOL     OW24751   3.507   3.414   0.965
 7951SOL    HW124752   3.507   3.322   1.004
 7951SOL    HW224753   3.549   3.411   0.874
 7952SOL     OW24754   5.688   3.153   1.215
 7952SOL    HW124755   5.758   3.134   1.284
 7952SOL    HW224756   5.721   3.123   1.126
 7953SOL     OW24757   2.281   2.550   3.078
 7953SOL    HW124758   2.277   2.476   3.010
 7953SOL    HW224759   2.194   2.556   3.126
 7954SOL     OW24760   4.347   5.204   4.930
 7954SOL    HW124761   4.341   5.117   4.882
 7954SOL    HW224762   4.264   5.218   4.984
 7955SOL     OW24763   0.855   6.378   6.360
 7955SOL    HW124764   0.940   6.327   6.377
 7955SOL    HW224765   0.801   6.331   6.290
 7956SOL     OW24766   6.078   6.509   4.310
 7956SOL    HW124767   6.162   6.456   4.299
 7956SOL    HW224768   6.026   6.507   4.225
 7957SOL     OW24769   1.109   1.691   1.239
 7957SOL    HW124770   1.095   1.789   1.249
 7957SOL    HW224771   1.195   1.674   1.191
 7958SOL     OW24772   2.716   4.722   2.886
 7958SOL    HW124773   2.627   4.679   2.899
 7958SOL    HW224774   2.742   4.772   2.968
 7959SOL     OW24775   6.069   4.779   0.810
 7959SOL    HW124776   5.978   4.796   0.771
 7959SOL    HW224777   6.137   4.832   0.759
 7960SOL     OW24778   2.410   1.770   1.448
 7960SOL    HW124779   2.349   1.692   1.458
 7960SOL    HW224780   2.482   1.766   1.518
 7961SOL     OW24781   1.954   5.801   6.434
 7961SOL    HW124782   1.989   5.879   6.486
 7961SOL    HW224783   2.026   5.733   6.423
 7962SOL     OW24784   1.122   1.198   2.262
 7962SOL    HW124785   1.032   1.160   2.239
 7962SOL    HW224786   1.144   1.271   2.198
 7963SOL     OW24787   0.793   0.654   5.653
 7963SOL    HW124788   0.810   0.730   5.591
 7963SOL    HW224789   0.843   0.573   5.622
 7964SOL     OW24790   6.132   5.585   4.113
 7964SOL    HW124791   6.132   5.510   4.179
 7964SOL    HW224792   6.047   5.582   4.060
 7965SOL     OW24793   5.534   2.335   0.237
 7965SOL    HW124794   5.630   2.339   0.211
 7965SOL    HW224795   5.514   2.246   0.277
 7966SOL     OW24796   6.602   4.657   3.982
 7966SOL    HW124797   6.581   4.561   3.965
 7966SOL    HW224798   6.571   4.712   3.904
 7967SOL     OW24799   2.952   6.447   2.270
 7967SOL    HW124800   2.891   6.511   2.223
 7967SOL    HW224801   2.980   6.487   2.357
 7968SOL     OW24802   2.159   1.948   2.777
 7968SOL    HW124803   2.236   1.885   2.787
 7968SOL    HW224804   2.142   1.995   2.864
 7969SOL     OW24805   3.305   1.867   3.593
 7969SOL    HW124806   3.344   1.950   3.552
 7969SOL    HW224807   3.313   1.872   3.692
 7970SOL     OW24808   0.815   4.477   3.124
 7970SOL    HW124809   0.759   4.431   3.193
 7970SOL    HW224810   0.854   4.561   3.164
 7971SOL     OW24811   3.278   1.100   1.321
 7971SOL    HW124812   3.207   1.050   1.270
 7971SOL    HW224813   3.367   1.060   1.301
 7972SOL     OW24814   0.288   4.574   1.762
 7972SOL    HW124815   0.331   4.664   1.758
 7972SOL    HW224816   0.212   4.576   1.827
 7973SOL     OW24817   4.853   3.108   3.507
 7973SOL    HW124818   4.868   3.199   3.469
 7973SOL    HW224819   4.845   3.115   3.607
 7974SOL     OW24820   5.277   0.130   4.252
 7974SOL    HW124821   5.229   0.052   4.211
 7974SOL    HW224822   5.222   0.168   4.326
 7975SOL     OW24823   3.251   1.306   4.318
 7975SOL    HW124824   3.265   1.211   4.292
 7975SOL    HW224825   3.270   1.365   4.239
 7976SOL     OW24826   1.039   5.651   5.753
 7976SOL    HW124827   1.128   5.697   5.749
 7976SOL    HW224828   1.053   5.552   5.758
 7977SOL     OW24829   5.519   6.142   1.647
 7977SOL    HW124830   5.581   6.199   1.593
 7977SOL    HW224831   5.434   6.128   1.597
 7978SOL     OW24832   4.602   3.643   5.609
 7978SOL    HW124833   4.616   3.732   5.652
 7978SOL    HW224834   4.566   3.655   5.517
 7979SOL     OW24835   3.071   0.052   4.291
 7979SOL    HW124836   2.974   0.072   4.296
 7979SOL    HW224837   3.115   0.076   4.378
 7980SOL     OW24838   3.574   6.146   0.477
 7980SOL    HW124839   3.660   6.123   0.434
 7980SOL    HW224840   3.548   6.074   0.541
 7981SOL     OW24841   1.008   5.129   2.484
 7981SOL    HW124842   0.964   5.144   2.395
 7981SOL    HW224843   1.062   5.045   2.480
 7982SOL     OW24844   6.495   2.046   0.859
 7982SOL    HW124845   6.546   2.049   0.773
 7982SOL    HW224846   6.547   1.996   0.927
 7983SOL     OW24847   5.147   2.230   2.349
 7983SOL    HW124848   5.212   2.269   2.285
 7983SOL    HW224849   5.195   2.170   2.413
 7984SOL     OW24850   0.381   1.887   1.900
 7984SOL    HW124851   0.383   1.958   1.829
 7984SOL    HW224852   0.287   1.876   1.934
 7985SOL     OW24853   0.472   1.237   2.660
 7985SOL    HW124854   0.500   1.249   2.565
 7985SOL    HW224855   0.423   1.318   2.691
 7986SOL     OW24856   4.290   1.058   6.493
 7986SOL    HW124857   4.306   1.144   6.542
 7986SOL    HW224858   4.214   1.070   6.429
 7987SOL     OW24859   0.739   2.825   5.039
 7987SOL    HW124860   0.647   2.827   4.999
 7987SOL    HW224861   0.732   2.819   5.138
 7988SOL     OW24862   2.633   1.737   4.435
 7988SOL    HW124863   2.653   1.824   4.480
 7988SOL    HW224864   2.669   1.738   4.342
 7989SOL     OW24865   3.139   2.415   5.595
 7989SOL    HW124866   3.177   2.334   5.551
 7989SOL    HW224867   3.090   2.388   5.678
 7990SOL     OW24868   1.338   2.431   4.828
 7990SOL    HW124869   1.351   2.510   4.888
 7990SOL    HW224870   1.290   2.359   4.878
 7991SOL     OW24871   0.653   2.734   6.030
 7991SOL    HW124872   0.573   2.765   5.980
 7991SOL    HW224873   0.636   2.741   6.129
 7992SOL     OW24874   2.486   0.166   1.088
 7992SOL    HW124875   2.525   0.258   1.090
 7992SOL    HW224876   2.402   0.165   1.142
 7993SOL     OW24877   1.913   6.547   0.059
 7993SOL    HW124878   1.844   6.616   0.079
 7993SOL    HW224879   1.967   6.575   6.999
 7994SOL     OW24880   5.253   1.170   3.858
 7994SOL    HW124881   5.198   1.187   3.776
 7994SOL    HW224882   5.346   1.146   3.832
 7995SOL     OW24883   2.828   5.156   3.784
 7995SOL    HW124884   2.880   5.086   3.833
 7995SOL    HW224885   2.730   5.136   3.791
 7996SOL     OW24886   4.002   6.870   5.333
 7996SOL    HW124887   4.006   6.951   5.274
 7996SOL    HW224888   4.094   6.843   5.359
 7997SOL     OW24889   5.627   2.724   0.955
 7997SOL    HW124890   5.591   2.790   1.022
 7997SOL    HW224891   5.588   2.745   0.865
 7998SOL     OW24892   5.916   4.713   0.021
 7998SOL    HW124893   5.835   4.730   0.078
 7998SOL    HW224894   5.956   4.800   7.013
 7999SOL     OW24895   1.481   0.173   5.816
 7999SOL    HW124896   1.452   0.099   5.877
 7999SOL    HW224897   1.402   0.207   5.765
 8000SOL     OW24898   6.255   6.862   5.618
 8000SOL    HW124899   6.235   6.897   5.709
 8000SOL    HW224900   6.278   6.938   5.558
 8001SOL     OW24901   1.903   6.858   1.491
 8001SOL    HW124902   1.844   6.821   1.563
 8001SOL    HW224903   1.970   6.790   1.463
 8002SOL     OW24904   5.985   2.617   4.895
 8002SOL    HW124905   6.007   2.693   4.834
 8002SOL    HW224906   6.056   2.609   4.965
 8003SOL     OW24907   3.144   4.983   3.366
 8003SOL    HW124908   3.169   5.080   3.374
 8003SOL    HW224909   3.089   4.956   3.445
 8004SOL     OW24910   2.107   3.779   2.765
 8004SOL    HW124911   2.105   3.679   2.756
 8004SOL    HW224912   2.042   3.819   2.701
 8005SOL     OW24913   2.881   1.027   1.433
 8005SOL    HW124914   2.914   1.119   1.453
 8005SOL    HW224915   2.921   0.962   1.498
 8006SOL     OW24916   3.242   6.029   0.733
 8006SOL    HW124917   3.256   6.068   0.642
 8006SOL    HW224918   3.169   5.961   0.729
 8007SOL     OW24919   0.149   0.433   4.363
 8007SOL    HW124920   0.217   0.479   4.420
 8007SOL    HW224921   0.058   0.466   4.387
 8008SOL     OW24922   6.027   6.477   0.351
 8008SOL    HW124923   6.098   6.421   0.309
 8008SOL    HW224924   6.061   6.517   0.436
 8009SOL     OW24925   0.011   6.972   4.053
 8009SOL    HW124926   0.024   6.978   4.152
 8009SOL    HW224927   6.933   6.974   4.032
 8010SOL     OW24928   1.798   2.446   0.087
 8010SOL    HW124929   1.827   2.491   0.003
 8010SOL    HW224930   1.878   2.431   0.146
 8011SOL     OW24931   3.232   2.193   1.321
 8011SOL    HW124932   3.249   2.291   1.314
 8011SOL    HW224933   3.248   2.149   1.233
 8012SOL     OW24934   2.532   6.242   1.746
 8012SOL    HW124935   2.490   6.242   1.837
 8012SOL    HW224936   2.582   6.157   1.733
 8013SOL     OW24937   5.666   4.754   4.616
 8013SOL    HW124938   5.575   4.782   4.586
 8013SOL    HW224939   5.689   4.666   4.574
 8014SOL     OW24940   2.295   6.971   6.907
 8014SOL    HW124941   2.220   7.008   6.961
 8014SOL    HW224942   2.372   0.016   6.908
 8015SOL     OW24943   2.358   2.665   0.200
 8015SOL    HW124944   2.448   2.624   0.186
 8015SOL    HW224945   2.295   2.595   0.233
 8016SOL     OW24946   4.461   6.500   6.926
 8016SOL    HW124947   4.536   6.458   6.978
 8016SOL    HW224948   4.433   6.439   6.852
 8017SOL     OW24949   6.002   4.315   4.625
 8017SOL    HW124950   6.000   4.340   4.722
 8017SOL    HW224951   6.022   4.217   4.616
 8018SOL     OW24952   5.082   1.884   5.005
 8018SOL    HW124953   5.096   1.813   5.074
 8018SOL    HW224954   5.135   1.862   4.923
 8019SOL     OW24955   2.307   5.604   0.742
 8019SOL    HW124956   2.291   5.521   0.796
 8019SOL    HW224957   2.348   5.579   0.654
 8020SOL     OW24958   4.753   5.154   0.075
 8020SOL    HW124959   4.843   5.182   0.041
 8020SOL    HW224960   4.732   5.062   0.041
 8021SOL     OW24961   0.886   0.899   0.737
 8021SOL    HW124962   0.950   0.825   0.719
 8021SOL    HW224963   0.855   0.895   0.831
 8022SOL     OW24964   4.288   6.508   3.172
 8022SOL    HW124965   4.203   6.457   3.188
 8022SOL    HW224966   4.366   6.448   3.189
 8023SOL     OW24967   5.838   5.706   2.897
 8023SOL    HW124968   5.816   5.803   2.898
 8023SOL    HW224969   5.758   5.653   2.868
 8024SOL     OW24970   4.839   5.031   5.369
 8024SOL    HW124971   4.867   4.935   5.379
 8024SOL    HW224972   4.831   5.052   5.272
 8025SOL     OW24973   3.843   5.632   6.685
 8025SOL    HW124974   3.795   5.625   6.773
 8025SOL    HW224975   3.924   5.574   6.687
 8026SOL     OW24976   1.367   3.378   0.081
 8026SOL    HW124977   1.372   3.279   0.066
 8026SOL    HW224978   1.369   3.425   7.013
 8027SOL     OW24979   4.804   1.691   4.922
 8027SOL    HW124980   4.901   1.680   4.943
 8027SOL    HW224981   4.750   1.687   5.006
 8028SOL     OW24982   4.706   4.789   6.632
 8028SOL    HW124983   4.609   4.765   6.627
 8028SOL    HW224984   4.747   4.745   6.712
 8029SOL     OW24985   3.910   4.237   0.428
 8029SOL    HW124986   3.936   4.143   0.406
 8029SOL    HW224987   3.872   4.241   0.521
 8030SOL     OW24988   5.659   4.117   6.189
 8030SOL    HW124989   5.656   4.042   6.123
 8030SOL    HW224990   5.739   4.107   6.248
 8031SOL     OW24991   3.681   5.510   1.584
 8031SOL    HW124992   3.605   5.452   1.554
 8031SOL    HW224993   3.679   5.521   1.683
 8032SOL     OW24994   5.476   3.996   5.536
 8032SOL    HW124995   5.450   4.050   5.456
 8032SOL    HW224996   5.538   3.923   5.507
 8033SOL     OW24997   5.797   2.250   0.207
 8033SOL    HW124998   5.886   2.277   0.243
 8033SOL    HW224999   5.789   2.150   0.211
 8034SOL     OW25000   5.460   6.783   4.730
 8034SOL    HW125001   5.482   6.691   4.699
 8034SOL    HW225002   5.449   6.843   4.652
 8035SOL     OW25003   5.509   6.607   6.883
 8035SOL    HW125004   5.602   6.603   6.846
 8035SOL    HW225005   5.486   6.518   6.925
 8036SOL     OW25006   1.902   4.633   1.640
 8036SOL    HW125007   1.908   4.538   1.612
 8036SOL    HW225008   1.880   4.690   1.560
 8037SOL     OW25009   1.622   2.947   1.211
 8037SOL    HW125010   1.689   2.885   1.251
 8037SOL    HW225011   1.656   3.041   1.219
 8038SOL     OW25012   0.560   2.265   3.736
 8038SOL    HW125013   0.648   2.261   3.688
 8038SOL    HW225014   0.490   2.299   3.673
 8039SOL     OW25015   2.263   6.878   3.355
 8039SOL    HW125016   2.273   6.850   3.260
 8039SOL    HW225017   2.304   6.969   3.368
 8040SOL     OW25018   0.212   5.738   1.090
 8040SOL    HW125019   0.304   5.716   1.059
 8040SOL    HW225020   0.214   5.765   1.186
 8041SOL     OW25021   4.355   1.236   0.389
 8041SOL    HW125022   4.287   1.220   0.460
 8041SOL    HW225023   4.409   1.153   0.374
 8042SOL     OW25024   3.307   2.901   2.399
 8042SOL    HW125025   3.380   2.885   2.334
 8042SOL    HW225026   3.228   2.843   2.376
 8043SOL     OW25027   2.355   0.206   1.814
 8043SOL    HW125028   2.383   0.175   1.905
 8043SOL    HW225029   2.326   0.302   1.818
 8044SOL     OW25030   3.230   3.832   1.138
 8044SOL    HW125031   3.185   3.908   1.185
 8044SOL    HW225032   3.224   3.846   1.039
 8045SOL     OW25033   5.396   2.537   3.414
 8045SOL    HW125034   5.340   2.556   3.334
 8045SOL    HW225035   5.400   2.618   3.472
 8046SOL     OW25036   6.183   4.803   5.503
 8046SOL    HW125037   6.169   4.858   5.421
 8046SOL    HW225038   6.265   4.835   5.551
 8047SOL     OW25039   3.611   5.835   4.375
 8047SOL    HW125040   3.582   5.746   4.338
 8047SOL    HW225041   3.686   5.871   4.319
 8048SOL     OW25042   6.517   6.921   5.339
 8048SOL    HW125043   6.480   6.975   5.414
 8048SOL    HW225044   6.497   6.965   5.251
 8049SOL     OW25045   1.348   6.369   0.961
 8049SOL    HW125046   1.390   6.444   1.010
 8049SOL    HW225047   1.327   6.295   1.025
 8050SOL     OW25048   1.939   3.699   1.238
 8050SOL    HW125049   2.011   3.652   1.188
 8050SOL    HW225050   1.968   3.793   1.257
 8051SOL     OW25051   4.665   0.958   3.467
 8051SOL    HW125052   4.697   1.002   3.383
 8051SOL    HW225053   4.697   1.010   3.546
 8052SOL     OW25054   2.789   1.346   3.040
 8052SOL    HW125055   2.866   1.340   3.103
 8052SOL    HW225056   2.777   1.258   2.994
 8053SOL     OW25057   4.103   3.673   2.643
 8053SOL    HW125058   4.185   3.718   2.606
 8053SOL    HW225059   4.128   3.582   2.676
 8054SOL     OW25060   4.562   6.528   4.531
 8054SOL    HW125061   4.641   6.481   4.493
 8054SOL    HW225062   4.496   6.548   4.458
 8055SOL     OW25063   1.608   6.848   6.120
 8055SOL    HW125064   1.684   6.899   6.078
 8055SOL    HW225065   1.640   6.757   6.146
 8056SOL     OW25066   4.133   1.577   2.772
 8056SOL    HW125067   4.229   1.554   2.783
 8056SOL    HW225068   4.123   1.675   2.754
 8057SOL     OW25069   3.394   6.801   3.156
 8057SOL    HW125070   3.367   6.887   3.199
 8057SOL    HW225071   3.312   6.745   3.138
 8058SOL     OW25072   3.062   1.141   2.197
 8058SOL    HW125073   3.102   1.163   2.109
 8058SOL    HW225074   3.132   1.145   2.268
 8059SOL     OW25075   3.318   1.851   4.338
 8059SOL    HW125076   3.246   1.792   4.375
 8059SOL    HW225077   3.286   1.946   4.336
 8060SOL     OW25078   6.934   0.988   4.659
 8060SOL    HW125079   6.836   0.989   4.679
 8060SOL    HW225080   6.961   0.896   4.632
 8061SOL     OW25081   6.522   5.864   3.082
 8061SOL    HW125082   6.516   5.874   2.982
 8061SOL    HW225083   6.590   5.794   3.104
 8062SOL     OW25084   1.643   4.220   3.581
 8062SOL    HW125085   1.561   4.275   3.563
 8062SOL    HW225086   1.631   4.171   3.668
 8063SOL     OW25087   3.165   3.073   6.959
 8063SOL    HW125088   3.097   3.044   0.006
 8063SOL    HW225089   3.123   3.082   6.869
 8064SOL     OW25090   0.079   3.363   0.454
 8064SOL    HW125091   0.007   3.380   0.521
 8064SOL    HW225092   0.164   3.404   0.485
 8065SOL     OW25093   5.041   0.052   4.878
 8065SOL    HW125094   5.044   6.981   4.836
 8065SOL    HW225095   5.133   0.077   4.910
 8066SOL     OW25096   1.578   1.238   1.708
 8066SOL    HW125097   1.675   1.226   1.730
 8066SOL    HW225098   1.523   1.218   1.789
 8067SOL     OW25099   4.945   2.839   1.687
 8067SOL    HW125100   5.017   2.771   1.677
 8067SOL    HW225101   4.985   2.928   1.707
 8068SOL     OW25102   1.075   4.203   5.154
 8068SOL    HW125103   1.038   4.210   5.061
 8068SOL    HW225104   1.054   4.113   5.191
 8069SOL     OW25105   1.268   6.437   1.998
 8069SOL    HW125106   1.318   6.455   1.914
 8069SOL    HW225107   1.191   6.500   2.006
 8070SOL     OW25108   4.168   6.503   1.386
 8070SOL    HW125109   4.141   6.526   1.293
 8070SOL    HW225110   4.092   6.458   1.433
 8071SOL     OW25111   3.838   6.961   6.160
 8071SOL    HW125112   3.772   6.899   6.202
 8071SOL    HW225113   3.879   7.019   6.231
 8072SOL     OW25114   4.908   1.327   0.673
 8072SOL    HW125115   4.892   1.293   0.766
 8072SOL    HW225116   4.992   1.381   0.672
 8073SOL     OW25117   4.221   6.465   5.785
 8073SOL    HW125118   4.230   6.425   5.694
 8073SOL    HW225119   4.311   6.492   5.819
 8074SOL     OW25120   3.678   3.818   0.056
 8074SOL    HW125121   3.689   3.851   0.150
 8074SOL    HW225122   3.586   3.840   0.024
 8075SOL     OW25123   6.828   1.464   2.748
 8075SOL    HW125124   6.870   1.405   2.679
 8075SOL    HW225125   6.827   1.418   2.836
 8076SOL     OW25126   5.841   2.704   5.597
 8076SOL    HW125127   5.765   2.766   5.616
 8076SOL    HW225128   5.893   2.690   5.682
 8077SOL     OW25129   1.267   0.548   1.007
 8077SOL    HW125130   1.244   0.464   1.055
 8077SOL    HW225131   1.184   0.601   0.990
 8078SOL     OW25132   6.319   2.520   0.998
 8078SOL    HW125133   6.385   2.457   0.957
 8078SOL    HW225134   6.336   2.526   1.097
 8079SOL     OW25135   6.618   2.069   2.471
 8079SOL    HW125136   6.696   2.007   2.484
 8079SOL    HW225137   6.541   2.017   2.434
 8080SOL     OW25138   3.522   4.475   0.376
 8080SOL    HW125139   3.497   4.511   0.286
 8080SOL    HW225140   3.578   4.542   0.424
 8081SOL     OW25141   6.356   0.525   5.007
 8081SOL    HW125142   6.261   0.511   5.034
 8081SOL    HW225143   6.411   0.550   5.087
 8082SOL     OW25144   0.076   2.642   3.547
 8082SOL    HW125145   0.101   2.556   3.504
 8082SOL    HW225146   6.996   2.651   3.550
 8083SOL     OW25147   4.473   2.510   3.446
 8083SOL    HW125148   4.520   2.592   3.478
 8083SOL    HW225149   4.420   2.471   3.521
 8084SOL     OW25150   6.639   6.564   1.584
 8084SOL    HW125151   6.571   6.520   1.643
 8084SOL    HW225152   6.724   6.577   1.635
 8085SOL     OW25153   5.782   0.634   0.994
 8085SOL    HW125154   5.825   0.681   1.072
 8085SOL    HW225155   5.850   0.576   0.949
 8086SOL     OW25156   3.670   0.801   5.276
 8086SOL    HW125157   3.710   0.793   5.185
 8086SOL    HW225158   3.725   0.862   5.332
 8087SOL     OW25159   2.855   2.478   1.479
 8087SOL    HW125160   2.774   2.533   1.460
 8087SOL    HW225161   2.861   2.459   1.577
 8088SOL     OW25162   4.530   1.095   2.628
 8088SOL    HW125163   4.565   1.118   2.718
 8088SOL    HW225164   4.565   1.004   2.601
 8089SOL     OW25165   6.125   2.571   0.275
 8089SOL    HW125166   6.167   2.662   0.285
 8089SOL    HW225167   6.048   2.577   0.212
 8090SOL     OW25168   4.674   1.985   5.406
 8090SOL    HW125169   4.747   2.027   5.352
 8090SOL    HW225170   4.594   1.970   5.347
 8091SOL     OW25171   2.809   4.917   5.907
 8091SOL    HW125172   2.796   4.842   5.971
 8091SOL    HW225173   2.847   4.882   5.822
 8092SOL     OW25174   1.407   1.737   4.967
 8092SOL    HW125175   1.412   1.690   4.879
 8092SOL    HW225176   1.378   1.672   5.037
 8093SOL     OW25177   5.501   5.641   1.270
 8093SOL    HW125178   5.543   5.552   1.284
 8093SOL    HW225179   5.505   5.666   1.173
 8094SOL     OW25180   1.297   3.856   5.714
 8094SOL    HW125181   1.297   3.944   5.666
 8094SOL    HW225182   1.376   3.802   5.683
 8095SOL     OW25183   5.388   3.336   4.440
 8095SOL    HW125184   5.460   3.403   4.420
 8095SOL    HW225185   5.360   3.291   4.355
 8096SOL     OW25186   3.492   6.319   1.578
 8096SOL    HW125187   3.515   6.259   1.654
 8096SOL    HW225188   3.481   6.413   1.611
 8097SOL     OW25189   5.126   0.908   3.978
 8097SOL    HW125190   5.129   0.990   3.922
 8097SOL    HW225191   5.048   0.913   4.040
 8098SOL     OW25192   3.230   6.773   3.932
 8098SOL    HW125193   3.209   6.808   3.841
 8098SOL    HW225194   3.309   6.823   3.970
 8099SOL     OW25195   4.452   0.066   5.057
 8099SOL    HW125196   4.539   0.020   5.040
 8099SOL    HW225197   4.462   0.129   5.133
 8100SOL     OW25198   0.340   6.381   1.039
 8100SOL    HW125199   0.407   6.314   1.008
 8100SOL    HW225200   0.310   6.436   0.961
 8101SOL     OW25201   1.804   6.411   3.808
 8101SOL    HW125202   1.883   6.350   3.798
 8101SOL    HW225203   1.777   6.445   3.719
 8102SOL     OW25204   6.687   5.865   5.960
 8102SOL    HW125205   6.600   5.864   5.910
 8102SOL    HW225206   6.669   5.879   6.058
 8103SOL     OW25207   3.271   1.359   2.567
 8103SOL    HW125208   3.295   1.430   2.501
 8103SOL    HW225209   3.354   1.319   2.605
 8104SOL     OW25210   2.607   6.693   6.353
 8104SOL    HW125211   2.575   6.773   6.303
 8104SOL    HW225212   2.530   6.631   6.368
 8105SOL     OW25213   2.467   2.189   3.643
 8105SOL    HW125214   2.370   2.202   3.662
 8105SOL    HW225215   2.492   2.093   3.659
 8106SOL     OW25216   1.416   4.161   4.019
 8106SOL    HW125217   1.411   4.063   4.034
 8106SOL    HW225218   1.333   4.192   3.972
 8107SOL     OW25219   2.110   6.447   6.161
 8107SOL    HW125220   2.196   6.462   6.114
 8107SOL    HW225221   2.034   6.473   6.101
 8108SOL     OW25222   1.010   3.288   4.206
 8108SOL    HW125223   1.105   3.300   4.236
 8108SOL    HW225224   0.969   3.214   4.259
 8109SOL     OW25225   1.488   5.107   4.764
 8109SOL    HW125226   1.583   5.127   4.744
 8109SOL    HW225227   1.429   5.153   4.697
 8110SOL     OW25228   2.381   5.505   0.456
 8110SOL    HW125229   2.312   5.497   0.384
 8110SOL    HW225230   2.445   5.578   0.433
 8111SOL     OW25231   2.542   5.223   4.729
 8111SOL    HW125232   2.604   5.244   4.653
 8111SOL    HW225233   2.591   5.235   4.815
 8112SOL     OW25234   2.269   1.075   4.655
 8112SOL    HW125235   2.188   1.093   4.712
 8112SOL    HW225236   2.269   1.139   4.578
 8113SOL     OW25237   3.753   2.537   5.977
 8113SOL    HW125238   3.780   2.623   6.021
 8113SOL    HW225239   3.765   2.545   5.878
 8114SOL     OW25240   2.154   3.115   1.993
 8114SOL    HW125241   2.109   3.190   2.041
 8114SOL    HW225242   2.087   3.042   1.975
 8115SOL     OW25243   3.562   1.645   0.878
 8115SOL    HW125244   3.517   1.557   0.865
 8115SOL    HW225245   3.644   1.632   0.935
 8116SOL     OW25246   5.735   0.551   5.137
 8116SOL    HW125247   5.671   0.552   5.214
 8116SOL    HW225248   5.777   0.461   5.129
 8117SOL     OW25249   1.825   2.133   5.361
 8117SOL    HW125250   1.757   2.068   5.328
 8117SOL    HW225251   1.782   2.222   5.376
 8118SOL     OW25252   0.526   3.544   5.273
 8118SOL    HW125253   0.496   3.483   5.201
 8118SOL    HW225254   0.622   3.525   5.295
 8119SOL     OW25255   0.661   6.241   2.684
 8119SOL    HW125256   0.686   6.250   2.587
 8119SOL    HW225257   0.636   6.146   2.704
 8120SOL     OW25258   4.481   3.859   1.635
 8120SOL    HW125259   4.381   3.870   1.631
 8120SOL    HW225260   4.519   3.923   1.701
 8121SOL     OW25261   6.184   0.546   2.644
 8121SOL    HW125262   6.177   0.644   2.665
 8121SOL    HW225263   6.120   0.523   2.571
 8122SOL     OW25264   6.524   6.666   2.163
 8122SOL    HW125265   6.545   6.617   2.247
 8122SOL    HW225266   6.474   6.606   2.101
 8123SOL     OW25267   1.736   6.271   6.765
 8123SOL    HW125268   1.796   6.201   6.805
 8123SOL    HW225269   1.647   6.268   6.809
 8124SOL     OW25270   1.138   6.277   2.232
 8124SOL    HW125271   1.152   6.239   2.141
 8124SOL    HW225272   1.080   6.358   2.226
 8125SOL     OW25273   5.822   5.431   2.908
 8125SOL    HW125274   5.872   5.501   2.958
 8125SOL    HW225275   5.866   5.414   2.820
 8126SOL     OW25276   5.493   4.507   2.713
 8126SOL    HW125277   5.394   4.509   2.703
 8126SOL    HW225278   5.527   4.416   2.691
 8127SOL     OW25279   2.043   5.051   6.988
 8127SOL    HW125280   2.035   4.972   0.029
 8127SOL    HW225281   2.137   5.059   6.956
 8128SOL     OW25282   3.870   2.362   5.282
 8128SOL    HW125283   3.903   2.456   5.284
 8128SOL    HW225284   3.908   2.315   5.201
 8129SOL     OW25285   5.271   0.266   6.396
 8129SOL    HW125286   5.326   0.208   6.336
 8129SOL    HW225287   5.318   0.353   6.411
 8130SOL     OW25288   1.885   5.907   0.174
 8130SOL    HW125289   1.861   5.968   0.249
 8130SOL    HW225290   1.954   5.842   0.205
 8131SOL     OW25291   2.703   1.193   0.520
 8131SOL    HW125292   2.691   1.104   0.565
 8131SOL    HW225293   2.712   1.265   0.589
 8132SOL     OW25294   6.307   5.378   3.940
 8132SOL    HW125295   6.353   5.381   4.029
 8132SOL    HW225296   6.214   5.414   3.949
 8133SOL     OW25297   2.062   5.355   2.335
 8133SOL    HW125298   1.963   5.353   2.323
 8133SOL    HW225299   2.099   5.439   2.296
 8134SOL     OW25300   2.393   2.497   3.739
 8134SOL    HW125301   2.332   2.423   3.767
 8134SOL    HW225302   2.485   2.460   3.726
 8135SOL     OW25303   4.098   5.496   1.984
 8135SOL    HW125304   4.125   5.589   2.009
 8135SOL    HW225305   4.000   5.484   2.001
 8136SOL     OW25306   4.423   5.664   2.228
 8136SOL    HW125307   4.461   5.756   2.234
 8136SOL    HW225308   4.441   5.626   2.137
 8137SOL     OW25309   2.283   4.270   4.926
 8137SOL    HW125310   2.195   4.303   4.959
 8137SOL    HW225311   2.316   4.196   4.984
 8138SOL     OW25312   4.915   0.967   3.104
 8138SOL    HW125313   4.913   0.887   3.164
 8138SOL    HW225314   4.990   0.957   3.038
 8139SOL     OW25315   1.372   2.075   3.650
 8139SOL    HW125316   1.370   2.037   3.557
 8139SOL    HW225317   1.300   2.033   3.705
 8140SOL     OW25318   4.607   0.994   0.721
 8140SOL    HW125319   4.597   1.091   0.742
 8140SOL    HW225320   4.517   0.955   0.704
 8141SOL     OW25321   4.956   1.238   5.116
 8141SOL    HW125322   5.033   1.298   5.091
 8141SOL    HW225323   4.878   1.293   5.145
 8142SOL     OW25324   2.114   5.764   0.249
 8142SOL    HW125325   2.111   5.700   0.325
 8142SOL    HW225326   2.158   5.849   0.277
 8143SOL     OW25327   5.796   4.786   0.734
 8143SOL    HW125328   5.786   4.774   0.635
 8143SOL    HW225329   5.755   4.873   0.761
 8144SOL     OW25330   6.715   4.505   6.254
 8144SOL    HW125331   6.669   4.419   6.229
 8144SOL    HW225332   6.669   4.582   6.210
 8145SOL     OW25333   4.913   5.424   6.975
 8145SOL    HW125334   4.993   5.371   6.946
 8145SOL    HW225335   4.854   5.441   6.896
 8146SOL     OW25336   6.060   0.247   4.768
 8146SOL    HW125337   6.121   0.232   4.846
 8146SOL    HW225338   6.006   0.164   4.751
 8147SOL     OW25339   1.701   1.176   5.942
 8147SOL    HW125340   1.619   1.122   5.961
 8147SOL    HW225341   1.703   1.256   6.003
 8148SOL     OW25342   4.138   4.957   0.082
 8148SOL    HW125343   4.067   4.984   0.147
 8148SOL    HW225344   4.103   4.886   0.022
 8149SOL     OW25345   0.905   5.812   4.915
 8149SOL    HW125346   0.809   5.818   4.890
 8149SOL    HW225347   0.932   5.716   4.920
 8150SOL     OW25348   0.909   2.755   0.706
 8150SOL    HW125349   0.842   2.681   0.719
 8150SOL    HW225350   0.885   2.832   0.765
 8151SOL     OW25351   6.302   5.001   3.310
 8151SOL    HW125352   6.321   4.906   3.335
 8151SOL    HW225353   6.259   5.048   3.387
 8152SOL     OW25354   4.525   1.707   3.126
 8152SOL    HW125355   4.581   1.665   3.054
 8152SOL    HW225356   4.566   1.686   3.215
 8153SOL     OW25357   0.221   1.810   3.674
 8153SOL    HW125358   0.206   1.757   3.758
 8153SOL    HW225359   0.245   1.904   3.698
 8154SOL     OW25360   1.956   1.058   3.773
 8154SOL    HW125361   1.857   1.051   3.770
 8154SOL    HW225362   1.989   1.102   3.689
 8155SOL     OW25363   1.372   5.291   2.549
 8155SOL    HW125364   1.392   5.298   2.452
 8155SOL    HW225365   1.453   5.256   2.597
 8156SOL     OW25366   6.416   5.636   1.503
 8156SOL    HW125367   6.381   5.679   1.586
 8156SOL    HW225368   6.497   5.582   1.525
 8157SOL     OW25369   6.937   2.771   6.021
 8157SOL    HW125370   6.997   2.707   5.974
 8157SOL    HW225371   6.907   2.843   5.958
 8158SOL     OW25372   5.332   5.007   6.591
 8158SOL    HW125373   5.423   5.005   6.549
 8158SOL    HW225374   5.267   5.048   6.527
 8159SOL     OW25375   3.128   6.211   5.459
 8159SOL    HW125376   3.185   6.270   5.402
 8159SOL    HW225377   3.167   6.207   5.551
 8160SOL     OW25378   5.161   1.092   3.550
 8160SOL    HW125379   5.126   1.180   3.585
 8160SOL    HW225380   5.090   1.022   3.561
 8161SOL     OW25381   5.652   2.858   1.200
 8161SOL    HW125382   5.747   2.826   1.203
 8161SOL    HW225383   5.647   2.951   1.237
 8162SOL     OW25384   0.152   4.656   6.210
 8162SOL    HW125385   0.202   4.643   6.296
 8162SOL    HW225386   0.169   4.749   6.175
 8163SOL     OW25387   4.623   4.795   4.960
 8163SOL    HW125388   4.715   4.826   4.986
 8163SOL    HW225389   4.558   4.869   4.975
 8164SOL     OW25390   5.374   1.228   0.392
 8164SOL    HW125391   5.383   1.305   0.455
 8164SOL    HW225392   5.313   1.159   0.432
 8165SOL     OW25393   6.727   1.575   6.899
 8165SOL    HW125394   6.820   1.591   6.932
 8165SOL    HW225395   6.697   1.654   6.846
 8166SOL     OW25396   1.886   2.160   4.999
 8166SOL    HW125397   1.863   2.158   4.902
 8166SOL    HW225398   1.806   2.191   5.051
 8167SOL     OW25399   0.455   2.825   4.118
 8167SOL    HW125400   0.403   2.859   4.196
 8167SOL    HW225401   0.393   2.795   4.046
 8168SOL     OW25402   2.601   0.863   1.975
 8168SOL    HW125403   2.686   0.812   1.984
 8168SOL    HW225404   2.552   0.832   1.893
 8169SOL     OW25405   5.097   2.670   0.973
 8169SOL    HW125406   5.181   2.646   0.925
 8169SOL    HW225407   5.035   2.717   0.911
 8170SOL     OW25408   6.040   4.763   2.005
 8170SOL    HW125409   5.956   4.709   1.999
 8170SOL    HW225410   6.019   4.854   2.039
 8171SOL     OW25411   1.870   1.189   0.626
 8171SOL    HW125412   1.787   1.134   0.616
 8171SOL    HW225413   1.882   1.215   0.722
 8172SOL     OW25414   0.811   3.178   1.598
 8172SOL    HW125415   0.757   3.213   1.675
 8172SOL    HW225416   0.904   3.215   1.603
 8173SOL     OW25417   5.423   1.104   1.852
 8173SOL    HW125418   5.350   1.157   1.895
 8173SOL    HW225419   5.503   1.163   1.837
 8174SOL     OW25420   2.773   5.225   2.592
 8174SOL    HW125421   2.676   5.242   2.575
 8174SOL    HW225422   2.811   5.173   2.516
 8175SOL     OW25423   0.653   1.673   5.033
 8175SOL    HW125424   0.610   1.646   4.948
 8175SOL    HW225425   0.722   1.743   5.015
 8176SOL     OW25426   1.976   4.358   0.828
 8176SOL    HW125427   1.936   4.401   0.747
 8176SOL    HW225428   2.054   4.302   0.801
 8177SOL     OW25429   3.801   1.234   2.764
 8177SOL    HW125430   3.843   1.303   2.704
 8177SOL    HW225431   3.863   1.215   2.840
 8178SOL     OW25432   2.068   6.383   0.926
 8178SOL    HW125433   2.161   6.390   0.962
 8178SOL    HW225434   2.025   6.474   0.926
 8179SOL     OW25435   5.447   1.102   3.436
 8179SOL    HW125436   5.354   1.075   3.461
 8179SOL    HW225437   5.502   1.019   3.421
 8180SOL     OW25438   4.672   6.367   7.018
 8180SOL    HW125439   4.684   6.303   6.942
 8180SOL    HW225440   4.743   6.351   0.066
 8181SOL     OW25441   0.769   1.048   0.563
 8181SOL    HW125442   0.829   0.999   0.627
 8181SOL    HW225443   0.796   1.144   0.559
 8182SOL     OW25444   3.017   3.798   4.785
 8182SOL    HW125445   2.961   3.805   4.867
 8182SOL    HW225446   3.109   3.769   4.810
 8183SOL     OW25447   6.895   0.518   5.166
 8183SOL    HW125448   6.966   0.547   5.230
 8183SOL    HW225449   6.847   0.439   5.203
 8184SOL     OW25450   0.483   6.316   6.364
 8184SOL    HW125451   0.488   6.376   6.444
 8184SOL    HW225452   0.555   6.247   6.369
 8185SOL     OW25453   1.034   6.608   0.154
 8185SOL    HW125454   1.033   6.588   0.252
 8185SOL    HW225455   0.945   6.583   0.114
 8186SOL     OW25456   1.324   5.411   6.711
 8186SOL    HW125457   1.329   5.377   6.617
 8186SOL    HW225458   1.409   5.458   6.734
 8187SOL     OW25459   1.036   0.657   6.490
 8187SOL    HW125460   1.079   0.567   6.495
 8187SOL    HW225461   0.941   0.650   6.520
 8188SOL     OW25462   2.604   1.967   3.667
 8188SOL    HW125463   2.643   1.880   3.636
 8188SOL    HW225464   2.565   1.954   3.758
 8189SOL     OW25465   4.952   4.646   3.772
 8189SOL    HW125466   5.018   4.713   3.806
 8189SOL    HW225467   4.998   4.581   3.712
 8190SOL     OW25468   6.194   3.511   3.200
 8190SOL    HW125469   6.233   3.509   3.108
 8190SOL    HW225470   6.150   3.599   3.215
 8191SOL     OW25471   3.831   5.047   1.629
 8191SOL    HW125472   3.916   5.002   1.655
 8191SOL    HW225473   3.812   5.030   1.533
 8192SOL     OW25474   1.278   5.162   4.029
 8192SOL    HW125475   1.286   5.063   4.019
 8192SOL    HW225476   1.367   5.201   4.050
 8193SOL     OW25477   0.752   3.789   5.269
 8193SOL    HW125478   0.808   3.775   5.351
 8193SOL    HW225479   0.811   3.793   5.189
 8194SOL     OW25480   4.948   6.397   2.000
 8194SOL    HW125481   4.860   6.370   1.961
 8194SOL    HW225482   4.988   6.320   2.050
 8195SOL     OW25483   5.784   6.900   3.641
 8195SOL    HW125484   5.778   6.828   3.572
 8195SOL    HW225485   5.785   6.989   3.596
 8196SOL     OW25486   4.562   0.015   0.185
 8196SOL    HW125487   4.612   0.091   0.226
 8196SOL    HW225488   4.558   0.026   0.086
 8197SOL     OW25489   4.718   1.814   1.995
 8197SOL    HW125490   4.781   1.860   2.059
 8197SOL    HW225491   4.630   1.862   1.996
 8198SOL     OW25492   2.167   0.429   2.296
 8198SOL    HW125493   2.109   0.507   2.320
 8198SOL    HW225494   2.135   0.389   2.210
 8199SOL     OW25495   5.328   2.891   5.838
 8199SOL    HW125496   5.362   2.854   5.751
 8199SOL    HW225497   5.403   2.891   5.905
 8200SOL     OW25498   4.239   3.083   1.474
 8200SOL    HW125499   4.257   3.105   1.570
 8200SOL    HW225500   4.155   3.128   1.445
 8201SOL     OW25501   6.727   0.057   5.412
 8201SOL    HW125502   6.763   0.021   5.498
 8201SOL    HW225503   6.657   7.014   5.376
 8202SOL     OW25504   0.639   6.535   2.004
 8202SOL    HW125505   0.609   6.561   1.912
 8202SOL    HW225506   0.572   6.472   2.044
 8203SOL     OW25507   1.348   3.239   1.204
 8203SOL    HW125508   1.327   3.147   1.173
 8203SOL    HW225509   1.414   3.281   1.141
 8204SOL     OW25510   3.873   3.244   1.624
 8204SOL    HW125511   3.937   3.216   1.552
 8204SOL    HW225512   3.918   3.240   1.713
 8205SOL     OW25513   1.261   3.508   0.787
 8205SOL    HW125514   1.333   3.548   0.731
 8205SOL    HW225515   1.245   3.414   0.758
 8206SOL     OW25516   4.085   1.278   6.639
 8206SOL    HW125517   4.183   1.294   6.626
 8206SOL    HW225518   4.063   1.280   6.737
 8207SOL     OW25519   3.887   2.950   4.902
 8207SOL    HW125520   3.916   3.041   4.932
 8207SOL    HW225521   3.965   2.902   4.863
 8208SOL     OW25522   1.731   0.956   0.205
 8208SOL    HW125523   1.768   0.863   0.212
 8208SOL    HW225524   1.803   1.022   0.226
 8209SOL     OW25525   6.492   0.999   5.614
 8209SOL    HW125526   6.466   1.096   5.611
 8209SOL    HW225527   6.484   0.960   5.523
 8210SOL     OW25528   1.619   3.003   0.631
 8210SOL    HW125529   1.653   2.919   0.588
 8210SOL    HW225530   1.660   3.082   0.585
 8211SOL     OW25531   2.788   4.680   0.767
 8211SOL    HW125532   2.777   4.631   0.681
 8211SOL    HW225533   2.750   4.625   0.842
 8212SOL     OW25534   1.719   2.289   3.005
 8212SOL    HW125535   1.672   2.212   3.048
 8212SOL    HW225536   1.756   2.260   2.917
 8213SOL     OW25537   0.376   4.831   1.822
 8213SOL    HW125538   0.396   4.886   1.903
 8213SOL    HW225539   0.448   4.845   1.754
 8214SOL     OW25540   5.382   4.458   3.043
 8214SOL    HW125541   5.412   4.426   3.133
 8214SOL    HW225542   5.462   4.470   2.983
 8215SOL     OW25543   3.392   4.977   4.817
 8215SOL    HW125544   3.299   4.939   4.821
 8215SOL    HW225545   3.391   5.061   4.761
 8216SOL     OW25546   4.784   4.390   3.926
 8216SOL    HW125547   4.854   4.427   3.865
 8216SOL    HW225548   4.800   4.424   4.019
 8217SOL     OW25549   2.434   6.276   0.488
 8217SOL    HW125550   2.347   6.246   0.527
 8217SOL    HW225551   2.499   6.200   0.490
 8218SOL     OW25552   0.316   1.367   0.121
 8218SOL    HW125553   0.374   1.436   0.166
 8218SOL    HW225554   0.229   1.360   0.169
 8219SOL     OW25555   5.674   2.043   6.440
 8219SOL    HW125556   5.686   2.060   6.342
 8219SOL    HW225557   5.675   1.944   6.457
 8220SOL     OW25558   3.601   3.724   2.806
 8220SOL    HW125559   3.566   3.803   2.857
 8220SOL    HW225560   3.694   3.741   2.776
 8221SOL     OW25561   5.700   5.887   3.786
 8221SOL    HW125562   5.664   5.978   3.765
 8221SOL    HW225563   5.640   5.841   3.851
 8222SOL     OW25564   6.006   1.402   1.921
 8222SOL    HW125565   6.105   1.411   1.923
 8222SOL    HW225566   5.979   1.342   1.846
 8223SOL     OW25567   0.393   4.410   6.403
 8223SOL    HW125568   0.483   4.454   6.407
 8223SOL    HW225569   0.372   4.385   6.308
 8224SOL     OW25570   1.010   2.985   2.941
 8224SOL    HW125571   1.072   3.055   2.974
 8224SOL    HW225572   0.959   3.020   2.862
 8225SOL     OW25573   5.103   1.611   6.687
 8225SOL    HW125574   5.068   1.590   6.779
 8225SOL    HW225575   5.167   1.540   6.659
 8226SOL     OW25576   4.962   0.487   1.105
 8226SOL    HW125577   4.948   0.562   1.040
 8226SOL    HW225578   4.929   0.515   1.196
 8227SOL     OW25579   6.239   3.152   3.238
 8227SOL    HW125580   6.338   3.153   3.247
 8227SOL    HW225581   6.212   3.183   3.147
 8228SOL     OW25582   6.820   2.369   4.930
 8228SOL    HW125583   6.815   2.461   4.891
 8228SOL    HW225584   6.814   2.302   4.857
 8229SOL     OW25585   3.260   5.604   0.066
 8229SOL    HW125586   3.257   5.509   0.098
 8229SOL    HW225587   3.337   5.651   0.108
 8230SOL     OW25588   5.328   0.111   4.973
 8230SOL    HW125589   5.334   0.139   4.877
 8230SOL    HW225590   5.270   0.177   5.022
 8231SOL     OW25591   5.483   5.214   0.733
 8231SOL    HW125592   5.493   5.245   0.639
 8231SOL    HW225593   5.466   5.292   0.793
 8232SOL     OW25594   3.857   1.801   0.078
 8232SOL    HW125595   3.758   1.807   0.085
 8232SOL    HW225596   3.882   1.728   0.014
 8233SOL     OW25597   0.823   5.369   6.389
 8233SOL    HW125598   0.850   5.465   6.390
 8233SOL    HW225599   0.801   5.341   6.295
 8234SOL     OW25600   2.974   2.457   6.790
 8234SOL    HW125601   3.004   2.492   6.701
 8234SOL    HW225602   2.880   2.424   6.783
 8235SOL     OW25603   3.989   3.550   1.173
 8235SOL    HW125604   4.076   3.600   1.171
 8235SOL    HW225605   3.980   3.504   1.261
 8236SOL     OW25606   6.472   2.771   0.307
 8236SOL    HW125607   6.536   2.762   0.232
 8236SOL    HW225608   6.381   2.793   0.271
 8237SOL     OW25609   3.573   5.849   5.157
 8237SOL    HW125610   3.640   5.775   5.144
 8237SOL    HW225611   3.537   5.845   5.250
 8238SOL     OW25612   2.389   3.600   6.715
 8238SOL    HW125613   2.298   3.603   6.756
 8238SOL    HW225614   2.384   3.557   6.625
 8239SOL     OW25615   6.952   1.883   5.558
 8239SOL    HW125616   6.907   1.901   5.471
 8239SOL    HW225617   6.913   1.943   5.629
 8240SOL     OW25618   3.141   4.093   2.632
 8240SOL    HW125619   3.098   4.183   2.623
 8240SOL    HW225620   3.240   4.103   2.635
 8241SOL     OW25621   3.219   6.782   0.289
 8241SOL    HW125622   3.247   6.878   0.296
 8241SOL    HW225623   3.260   6.741   0.207
 8242SOL     OW25624   0.589   4.454   5.164
 8242SOL    HW125625   0.572   4.428   5.070
 8242SOL    HW225626   0.554   4.384   5.226
 8243SOL     OW25627   0.531   3.112   5.856
 8243SOL    HW125628   0.596   3.146   5.788
 8243SOL    HW225629   0.551   3.154   5.945
 8244SOL     OW25630   0.897   6.417   4.070
 8244SOL    HW125631   0.825   6.348   4.072
 8244SOL    HW225632   0.986   6.372   4.072
 8245SOL     OW25633   4.768   1.928   0.888
 8245SOL    HW125634   4.769   1.964   0.794
 8245SOL    HW225635   4.832   1.980   0.944
 8246SOL     OW25636   5.900   3.724   6.133
 8246SOL    HW125637   5.954   3.807   6.153
 8246SOL    HW225638   5.868   3.684   6.218
 8247SOL     OW25639   0.570   0.290   1.576
 8247SOL    HW125640   0.651   0.332   1.537
 8247SOL    HW225641   0.572   0.300   1.675
 8248SOL     OW25642   5.754   3.995   3.645
 8248SOL    HW125643   5.663   3.966   3.613
 8248SOL    HW225644   5.743   4.072   3.708
 8249SOL     OW25645   1.863   4.497   4.485
 8249SOL    HW125646   1.918   4.428   4.439
 8249SOL    HW225647   1.851   4.472   4.581
 8250SOL     OW25648   3.670   3.932   3.196
 8250SOL    HW125649   3.767   3.953   3.187
 8250SOL    HW225650   3.632   3.983   3.274
 8251SOL     OW25651   5.467   1.883   4.842
 8251SOL    HW125652   5.465   1.957   4.775
 8251SOL    HW225653   5.551   1.830   4.832
 8252SOL     OW25654   2.364   3.035   6.031
 8252SOL    HW125655   2.322   3.017   5.942
 8252SOL    HW225656   2.462   3.050   6.020
 8253SOL     OW25657   3.118   2.927   5.278
 8253SOL    HW125658   3.148   2.920   5.374
 8253SOL    HW225659   3.175   2.866   5.222
 8254SOL     OW25660   4.306   4.651   4.110
 8254SOL    HW125661   4.355   4.564   4.119
 8254SOL    HW225662   4.371   4.727   4.112
 8255SOL     OW25663   4.483   5.714   3.917
 8255SOL    HW125664   4.398   5.765   3.900
 8255SOL    HW225665   4.484   5.682   4.012
 8256SOL     OW25666   5.198   1.170   4.283
 8256SOL    HW125667   5.159   1.083   4.316
 8256SOL    HW225668   5.137   1.245   4.309
 8257SOL     OW25669   5.766   4.493   3.182
 8257SOL    HW125670   5.785   4.562   3.252
 8257SOL    HW225671   5.706   4.533   3.112
 8258SOL     OW25672   4.348   1.516   0.246
 8258SOL    HW125673   4.318   1.605   0.281
 8258SOL    HW225674   4.377   1.459   0.323
 8259SOL     OW25675   3.456   2.080   3.484
 8259SOL    HW125676   3.452   2.087   3.384
 8259SOL    HW225677   3.426   2.166   3.525
 8260SOL     OW25678   2.636   6.803   1.876
 8260SOL    HW125679   2.555   6.792   1.818
 8260SOL    HW225680   2.614   6.864   1.952
 8261SOL     OW25681   5.650   1.119   1.400
 8261SOL    HW125682   5.706   1.199   1.421
 8261SOL    HW225683   5.581   1.108   1.472
 8262SOL     OW25684   1.034   2.461   1.633
 8262SOL    HW125685   1.021   2.558   1.653
 8262SOL    HW225686   1.022   2.408   1.717
 8263SOL     OW25687   6.666   1.349   1.620
 8263SOL    HW125688   6.646   1.252   1.631
 8263SOL    HW225689   6.688   1.369   1.525
 8264SOL     OW25690   1.229   5.765   2.649
 8264SOL    HW125691   1.273   5.788   2.563
 8264SOL    HW225692   1.226   5.665   2.660
 8265SOL     OW25693   1.515   0.735   1.572
 8265SOL    HW125694   1.477   0.643   1.566
 8265SOL    HW225695   1.610   0.734   1.538
 8266SOL     OW25696   2.597   6.793   2.825
 8266SOL    HW125697   2.545   6.796   2.739
 8266SOL    HW225698   2.627   6.886   2.849
 8267SOL     OW25699   1.733   3.693   1.005
 8267SOL    HW125700   1.640   3.660   1.024
 8267SOL    HW225701   1.769   3.740   1.086
 8268SOL     OW25702   2.402   6.531   6.210
 8268SOL    HW125703   2.367   6.563   6.122
 8268SOL    HW225704   2.491   6.486   6.197
 8269SOL     OW25705   5.340   1.951   1.178
 8269SOL    HW125706   5.382   2.042   1.175
 8269SOL    HW225707   5.272   1.949   1.251
 8270SOL     OW25708   3.437   6.570   3.938
 8270SOL    HW125709   3.470   6.539   4.027
 8270SOL    HW225710   3.356   6.627   3.950
 8271SOL     OW25711   6.610   1.920   2.895
 8271SOL    HW125712   6.661   1.850   2.844
 8271SOL    HW225713   6.516   1.925   2.861
 8272SOL     OW25714   4.473   0.638   2.223
 8272SOL    HW125715   4.443   0.569   2.289
 8272SOL    HW225716   4.559   0.610   2.181
 8273SOL     OW25717   1.818   0.126   1.086
 8273SOL    HW125718   1.770   0.039   1.074
 8273SOL    HW225719   1.809   0.155   1.182
 8274SOL     OW25720   4.410   5.314   3.381
 8274SOL    HW125721   4.459   5.342   3.299
 8274SOL    HW225722   4.313   5.302   3.359
 8275SOL     OW25723   4.581   2.074   6.305
 8275SOL    HW125724   4.601   1.978   6.325
 8275SOL    HW225725   4.625   2.100   6.219
 8276SOL     OW25726   1.173   2.338   4.614
 8276SOL    HW125727   1.076   2.343   4.592
 8276SOL    HW225728   1.188   2.371   4.708
 8277SOL     OW25729   6.736   0.401   6.547
 8277SOL    HW125730   6.722   0.320   6.490
 8277SOL    HW225731   6.666   0.469   6.527
 8278SOL     OW25732   2.714   1.753   0.247
 8278SOL    HW125733   2.750   1.843   0.227
 8278SOL    HW225734   2.680   1.751   0.341
 8279SOL     OW25735   0.606   6.126   3.637
 8279SOL    HW125736   0.608   6.211   3.689
 8279SOL    HW225737   0.697   6.108   3.599
 8280SOL     OW25738   3.154   2.640   6.606
 8280SOL    HW125739   3.217   2.566   6.632
 8280SOL    HW225740   3.190   2.727   6.638
 8281SOL     OW25741   0.741   5.332   1.857
 8281SOL    HW125742   0.779   5.416   1.817
 8281SOL    HW225743   0.701   5.276   1.784
 8282SOL     OW25744   5.104   2.956   6.289
 8282SOL    HW125745   5.014   2.928   6.320
 8282SOL    HW225746   5.098   3.044   6.242
 8283SOL     OW25747   1.262   4.588   6.013
 8283SOL    HW125748   1.201   4.519   5.974
 8283SOL    HW225749   1.264   4.669   5.955
 8284SOL     OW25750   0.280   4.507   2.193
 8284SOL    HW125751   0.205   4.506   2.260
 8284SOL    HW225752   0.283   4.597   2.149
 8285SOL     OW25753   4.093   3.288   5.022
 8285SOL    HW125754   4.151   3.369   5.017
 8285SOL    HW225755   4.007   3.305   4.975
 8286SOL     OW25756   6.743   2.444   5.612
 8286SOL    HW125757   6.790   2.519   5.566
 8286SOL    HW225758   6.721   2.472   5.706
 8287SOL     OW25759   0.979   5.807   4.257
 8287SOL    HW125760   1.012   5.900   4.237
 8287SOL    HW225761   1.006   5.781   4.349
 8288SOL     OW25762   2.632   2.439   3.065
 8288SOL    HW125763   2.716   2.390   3.088
 8288SOL    HW225764   2.613   2.429   2.968
 8289SOL     OW25765   0.895   0.637   0.557
 8289SOL    HW125766   0.900   0.698   0.478
 8289SOL    HW225767   0.953   0.672   0.631
 8290SOL     OW25768   6.272   1.966   0.761
 8290SOL    HW125769   6.188   1.986   0.811
 8290SOL    HW225770   6.348   2.015   0.802
 8291SOL     OW25771   4.420   0.163   6.455
 8291SOL    HW125772   4.357   0.241   6.456
 8291SOL    HW225773   4.436   0.135   6.360
 8292SOL     OW25774   2.727   6.701   0.817
 8292SOL    HW125775   2.781   6.707   0.900
 8292SOL    HW225776   2.691   6.792   0.795
 8293SOL     OW25777   4.529   6.569   5.886
 8293SOL    HW125778   4.546   6.476   5.920
 8293SOL    HW225779   4.566   6.636   5.950
 8294SOL     OW25780   6.254   2.476   6.779
 8294SOL    HW125781   6.193   2.484   6.858
 8294SOL    HW225782   6.227   2.397   6.724
 8295SOL     OW25783   5.521   4.633   1.878
 8295SOL    HW125784   5.475   4.689   1.947
 8295SOL    HW225785   5.454   4.572   1.835
 8296SOL     OW25786   1.084   5.921   6.935
 8296SOL    HW125787   1.048   6.010   6.907
 8296SOL    HW225788   1.023   5.849   6.902
 8297SOL     OW25789   6.406   2.267   3.376
 8297SOL    HW125790   6.373   2.182   3.418
 8297SOL    HW225791   6.336   2.302   3.313
 8298SOL     OW25792   4.602   1.376   1.589
 8298SOL    HW125793   4.554   1.403   1.673
 8298SOL    HW225794   4.695   1.413   1.591
 8299SOL     OW25795   0.310   2.852   1.792
 8299SOL    HW125796   0.241   2.885   1.728
 8299SOL    HW225797   0.332   2.925   1.857
 8300SOL     OW25798   0.788   4.570   5.057
 8300SOL    HW125799   0.813   4.660   5.094
 8300SOL    HW225800   0.702   4.541   5.098
 8301SOL     OW25801   4.176   2.705   1.432
 8301SOL    HW125802   4.155   2.789   1.482
 8301SOL    HW225803   4.094   2.648   1.428
 8302SOL     OW25804   5.904   6.666   6.524
 8302SOL    HW125805   5.976   6.711   6.575
 8302SOL    HW225806   5.891   6.712   6.436
 8303SOL     OW25807   0.483   0.141   4.691
 8303SOL    HW125808   0.474   0.100   4.600
 8303SOL    HW225809   0.569   0.112   4.732
 8304SOL     OW25810   0.490   3.776   6.565
 8304SOL    HW125811   0.553   3.715   6.613
 8304SOL    HW225812   0.512   3.777   6.467
 8305SOL     OW25813   2.960   5.338   3.968
 8305SOL    HW125814   3.046   5.300   3.936
 8305SOL    HW225815   2.884   5.294   3.919
 8306SOL     OW25816   0.880   2.544   5.606
 8306SOL    HW125817   0.902   2.632   5.648
 8306SOL    HW225818   0.817   2.559   5.529
 8307SOL     OW25819   3.492   5.503   0.844
 8307SOL    HW125820   3.540   5.512   0.757
 8307SOL    HW225821   3.403   5.459   0.828
 8308SOL     OW25822   3.888   6.950   1.692
 8308SOL    HW125823   3.906   0.010   1.749
 8308SOL    HW225824   3.829   6.976   1.615
 8309SOL     OW25825   6.036   5.862   2.700
 8309SOL    HW125826   6.068   5.913   2.621
 8309SOL    HW225827   5.936   5.853   2.696
 8310SOL     OW25828   0.640   4.831   0.591
 8310SOL    HW125829   0.580   4.766   0.638
 8310SOL    HW225830   0.733   4.797   0.593
 8311SOL     OW25831   6.715   0.876   6.616
 8311SOL    HW125832   6.703   0.853   6.519
 8311SOL    HW225833   6.805   0.918   6.629
 8312SOL     OW25834   4.880   6.552   1.634
 8312SOL    HW125835   4.845   6.622   1.696
 8312SOL    HW225836   4.978   6.538   1.651
 8313SOL     OW25837   3.690   1.666   2.883
 8313SOL    HW125838   3.694   1.578   2.930
 8313SOL    HW225839   3.658   1.652   2.789
 8314SOL     OW25840   5.698   0.081   1.503
 8314SOL    HW125841   5.772   0.047   1.560
 8314SOL    HW225842   5.729   0.160   1.450
 8315SOL     OW25843   4.801   3.174   0.523
 8315SOL    HW125844   4.725   3.121   0.560
 8315SOL    HW225845   4.883   3.159   0.578
 8316SOL     OW25846   0.525   4.425   0.845
 8316SOL    HW125847   0.545   4.382   0.757
 8316SOL    HW225848   0.538   4.524   0.837
 8317SOL     OW25849   1.956   3.939   2.555
 8317SOL    HW125850   1.903   3.993   2.620
 8317SOL    HW225851   1.988   3.998   2.481
 8318SOL     OW25852   4.392   1.603   4.868
 8318SOL    HW125853   4.468   1.569   4.923
 8318SOL    HW225854   4.307   1.559   4.899
 8319SOL     OW25855   3.391   1.403   5.251
 8319SOL    HW125856   3.395   1.485   5.193
 8319SOL    HW225857   3.325   1.418   5.325
 8320SOL     OW25858   2.928   4.728   1.309
 8320SOL    HW125859   2.941   4.724   1.210
 8320SOL    HW225860   3.014   4.706   1.354
 8321SOL     OW25861   0.166   1.264   0.422
 8321SOL    HW125862   0.105   1.316   0.363
 8321SOL    HW225863   0.194   1.180   0.377
 8322SOL     OW25864   0.180   0.271   6.781
 8322SOL    HW125865   0.256   0.211   6.757
 8322SOL    HW225866   0.096   0.236   6.739
 8323SOL     OW25867   0.863   0.997   2.400
 8323SOL    HW125868   0.827   1.088   2.420
 8323SOL    HW225869   0.955   0.988   2.437
 8324SOL     OW25870   6.160   0.669   2.145
 8324SOL    HW125871   6.129   0.663   2.240
 8324SOL    HW225872   6.082   0.655   2.083
 8325SOL     OW25873   3.903   3.044   4.126
 8325SOL    HW125874   3.982   3.014   4.073
 8325SOL    HW225875   3.873   3.134   4.093
 8326SOL     OW25876   4.559   3.370   5.544
 8326SOL    HW125877   4.589   3.459   5.578
 8326SOL    HW225878   4.472   3.379   5.496
 8327SOL     OW25879   5.356   2.543   5.942
 8327SOL    HW125880   5.440   2.553   5.996
 8327SOL    HW225881   5.277   2.570   5.997
 8328SOL     OW25882   2.366   3.964   6.308
 8328SOL    HW125883   2.331   3.901   6.238
 8328SOL    HW225884   2.392   3.912   6.389
 8329SOL     OW25885   0.445   2.955   5.272
 8329SOL    HW125886   0.411   3.002   5.191
 8329SOL    HW225887   0.376   2.890   5.304
 8330SOL     OW25888   1.607   6.453   0.751
 8330SOL    HW125889   1.582   6.367   0.795
 8330SOL    HW225890   1.689   6.440   0.695
 8331SOL     OW25891   3.199   0.537   1.061
 8331SOL    HW125892   3.115   0.515   1.011
 8331SOL    HW225893   3.229   0.630   1.037
 8332SOL     OW25894   4.923   5.072   1.747
 8332SOL    HW125895   4.840   5.090   1.799
 8332SOL    HW225896   4.975   4.999   1.792
 8333SOL     OW25897   0.589   6.129   0.102
 8333SOL    HW125898   0.535   6.214   0.104
 8333SOL    HW225899   0.581   6.087   0.012
 8334SOL     OW25900   5.878   1.683   3.707
 8334SOL    HW125901   5.811   1.670   3.779
 8334SOL    HW225902   5.851   1.631   3.626
 8335SOL     OW25903   6.241   5.554   6.180
 8335SOL    HW125904   6.338   5.578   6.189
 8335SOL    HW225905   6.210   5.509   6.264
 8336SOL     OW25906   0.093   1.652   2.373
 8336SOL    HW125907   0.089   1.745   2.410
 8336SOL    HW225908   0.153   1.596   2.431
 8337SOL     OW25909   0.759   6.086   3.060
 8337SOL    HW125910   0.831   6.074   2.992
 8337SOL    HW225911   0.748   6.183   3.080
 8338SOL     OW25912   1.751   5.129   1.419
 8338SOL    HW125913   1.840   5.165   1.391
 8338SOL    HW225914   1.692   5.120   1.339
 8339SOL     OW25915   6.323   0.958   2.442
 8339SOL    HW125916   6.230   0.949   2.404
 8339SOL    HW225917   6.321   1.020   2.520
 8340SOL     OW25918   4.910   3.712   0.917
 8340SOL    HW125919   4.841   3.650   0.955
 8340SOL    HW225920   4.918   3.792   0.977
 8341SOL     OW25921   1.983   0.038   0.596
 8341SOL    HW125922   2.018   0.128   0.622
 8341SOL    HW225923   1.883   0.043   0.586
 8342SOL     OW25924   3.704   0.624   0.834
 8342SOL    HW125925   3.791   0.643   0.791
 8342SOL    HW225926   3.694   0.525   0.847
 8343SOL     OW25927   1.683   5.590   6.156
 8343SOL    HW125928   1.663   5.661   6.089
 8343SOL    HW225929   1.617   5.516   6.147
 8344SOL     OW25930   4.452   6.097   5.889
 8344SOL    HW125931   4.405   6.181   5.917
 8344SOL    HW225932   4.489   6.052   5.971
 8345SOL     OW25933   5.864   1.796   3.031
 8345SOL    HW125934   5.903   1.757   2.947
 8345SOL    HW225935   5.829   1.888   3.012
 8346SOL     OW25936   2.592   4.970   0.434
 8346SOL    HW125937   2.586   4.875   0.464
 8346SOL    HW225938   2.669   5.014   0.480
 8347SOL     OW25939   2.743   6.447   4.944
 8347SOL    HW125940   2.793   6.533   4.952
 8347SOL    HW225941   2.705   6.422   5.034
 8348SOL     OW25942   1.105   0.887   1.363
 8348SOL    HW125943   1.092   0.824   1.439
 8348SOL    HW225944   1.142   0.838   1.284
 8349SOL     OW25945   5.707   3.736   0.811
 8349SOL    HW125946   5.638   3.784   0.865
 8349SOL    HW225947   5.662   3.671   0.750
 8350SOL     OW25948   6.192   1.041   4.970
 8350SOL    HW125949   6.237   0.953   4.953
 8350SOL    HW225950   6.133   1.063   4.893
 8351SOL     OW25951   3.421   6.050   4.313
 8351SOL    HW125952   3.492   5.982   4.296
 8351SOL    HW225953   3.336   6.005   4.341
 8352SOL     OW25954   6.553   6.958   2.135
 8352SOL    HW125955   6.591   0.005   2.070
 8352SOL    HW225956   6.590   6.868   2.114
 8353SOL     OW25957   6.169   3.336   2.293
 8353SOL    HW125958   6.074   3.366   2.281
 8353SOL    HW225959   6.226   3.377   2.222
 8354SOL     OW25960   3.033   1.616   6.772
 8354SOL    HW125961   3.089   1.535   6.790
 8354SOL    HW225962   2.945   1.607   6.819
 8355SOL     OW25963   3.047   0.404   0.304
 8355SOL    HW125964   3.004   0.489   0.273
 8355SOL    HW225965   3.106   0.423   0.382
 8356SOL     OW25966   1.197   6.044   0.594
 8356SOL    HW125967   1.229   6.114   0.658
 8356SOL    HW225968   1.262   6.034   0.520
 8357SOL     OW25969   3.215   5.286   4.473
 8357SOL    HW125970   3.120   5.305   4.496
 8357SOL    HW225971   3.265   5.259   4.555
 8358SOL     OW25972   1.879   2.375   5.602
 8358SOL    HW125973   1.907   2.280   5.613
 8358SOL    HW225974   1.930   2.432   5.666
 8359SOL     OW25975   4.246   5.373   4.463
 8359SOL    HW125976   4.153   5.345   4.484
 8359SOL    HW225977   4.247   5.469   4.437
 8360SOL     OW25978   4.450   0.174   2.978
 8360SOL    HW125979   4.474   0.250   2.917
 8360SOL    HW225980   4.464   0.087   2.931
 8361SOL     OW25981   1.735   1.605   2.756
 8361SOL    HW125982   1.774   1.520   2.789
 8361SOL    HW225983   1.803   1.678   2.762
 8362SOL     OW25984   2.364   2.757   0.763
 8362SOL    HW125985   2.389   2.787   0.855
 8362SOL    HW225986   2.446   2.730   0.712
 8363SOL     OW25987   1.195   3.034   0.847
 8363SOL    HW125988   1.182   3.126   0.812
 8363SOL    HW225989   1.111   3.002   0.890
 8364SOL     OW25990   6.371   3.484   2.917
 8364SOL    HW125991   6.462   3.444   2.906
 8364SOL    HW225992   6.358   3.555   2.848
 8365SOL     OW25993   1.735   3.518   0.652
 8365SOL    HW125994   1.681   3.595   0.686
 8365SOL    HW225995   1.824   3.552   0.621
 8366SOL     OW25996   4.643   5.918   2.465
 8366SOL    HW125997   4.680   5.954   2.551
 8366SOL    HW225998   4.575   5.848   2.485
 8367SOL     OW25999   4.599   6.204   3.589
 8367SOL    HW126000   4.675   6.153   3.630
 8367SOL    HW226001   4.590   6.180   3.493
 8368SOL     OW26002   2.787   5.428   5.840
 8368SOL    HW126003   2.700   5.410   5.886
 8368SOL    HW226004   2.837   5.342   5.827
 8369SOL     OW26005   2.006   0.775   0.156
 8369SOL    HW126006   1.951   0.758   0.238
 8369SOL    HW226007   2.075   0.844   0.175
 8370SOL     OW26008   1.843   2.053   6.267
 8370SOL    HW126009   1.777   2.064   6.193
 8370SOL    HW226010   1.886   2.141   6.286
 8371SOL     OW26011   1.359   2.909   0.680
 8371SOL    HW126012   1.433   2.965   0.642
 8371SOL    HW226013   1.293   2.968   0.726
 8372SOL     OW26014   0.415   0.133   2.677
 8372SOL    HW126015   0.507   0.094   2.677
 8372SOL    HW226016   0.380   0.136   2.771
 8373SOL     OW26017   0.976   6.711   5.695
 8373SOL    HW126018   0.911   6.746   5.762
 8373SOL    HW226019   1.065   6.757   5.708
 8374SOL     OW26020   6.633   1.103   0.158
 8374SOL    HW126021   6.659   1.049   0.237
 8374SOL    HW226022   6.694   1.183   0.150
 8375SOL     OW26023   3.283   5.963   5.866
 8375SOL    HW126024   3.186   5.952   5.846
 8375SOL    HW226025   3.294   5.994   5.961
 8376SOL     OW26026   2.977   0.150   3.791
 8376SOL    HW126027   3.060   0.203   3.775
 8376SOL    HW226028   2.999   0.070   3.848
 8377SOL     OW26029   6.053   5.582   1.142
 8377SOL    HW126030   6.059   5.627   1.053
 8377SOL    HW226031   5.964   5.603   1.184
 8378SOL     OW26032   5.281   3.286   3.084
 8378SOL    HW126033   5.239   3.354   3.144
 8378SOL    HW226034   5.212   3.220   3.055
 8379SOL     OW26035   6.525   3.783   1.907
 8379SOL    HW126036   6.439   3.753   1.865
 8379SOL    HW226037   6.577   3.703   1.938
 8380SOL     OW26038   6.008   0.995   2.433
 8380SOL    HW126039   5.915   0.983   2.468
 8380SOL    HW226040   6.044   1.084   2.464
 8381SOL     OW26041   1.290   5.381   4.648
 8381SOL    HW126042   1.217   5.440   4.614
 8381SOL    HW226043   1.273   5.357   4.743
 8382SOL     OW26044   1.433   1.928   2.705
 8382SOL    HW126045   1.492   2.008   2.712
 8382SOL    HW226046   1.404   1.901   2.797
 8383SOL     OW26047   2.664   2.352   6.926
 8383SOL    HW126048   2.711   2.370   7.012
 8383SOL    HW226049   2.656   2.437   6.874
 8384SOL     OW26050   6.860   6.337   1.045
 8384SOL    HW126051   6.850   6.312   0.948
 8384SOL    HW226052   6.880   6.434   1.052
 8385SOL     OW26053   4.847   1.922   2.188
 8385SOL    HW126054   4.944   1.932   2.207
 8385SOL    HW226055   4.803   1.875   2.265
 8386SOL     OW26056   0.785   4.044   2.653
 8386SOL    HW126057   0.843   4.123   2.672
 8386SOL    HW226058   0.827   3.962   2.691
 8387SOL     OW26059   1.497   1.417   1.146
 8387SOL    HW126060   1.403   1.410   1.113
 8387SOL    HW226061   1.521   1.335   1.198
 8388SOL     OW26062   3.091   6.234   1.588
 8388SOL    HW126063   3.114   6.144   1.624
 8388SOL    HW226064   2.993   6.237   1.565
 8389SOL     OW26065   5.270   2.981   1.903
 8389SOL    HW126066   5.329   2.979   1.983
 8389SOL    HW226067   5.184   2.933   1.923
 8390SOL     OW26068   4.455   1.769   5.832
 8390SOL    HW126069   4.415   1.709   5.902
 8390SOL    HW226070   4.547   1.737   5.810
 8391SOL     OW26071   6.597   0.117   0.698
 8391SOL    HW126072   6.620   0.182   0.626
 8391SOL    HW226073   6.634   0.149   0.785
 8392SOL     OW26074   5.817   3.561   4.549
 8392SOL    HW126075   5.719   3.558   4.570
 8392SOL    HW226076   5.830   3.563   4.450
 8393SOL     OW26077   4.802   6.776   1.811
 8393SOL    HW126078   4.742   6.823   1.876
 8393SOL    HW226079   4.897   6.784   1.843
 8394SOL     OW26080   6.063   3.853   2.479
 8394SOL    HW126081   6.130   3.917   2.518
 8394SOL    HW226082   6.071   3.764   2.524
 8395SOL     OW26083   2.338   0.649   5.454
 8395SOL    HW126084   2.304   0.559   5.431
 8395SOL    HW226085   2.264   0.716   5.450
 8396SOL     OW26086   4.776   5.552   4.921
 8396SOL    HW126087   4.871   5.582   4.933
 8396SOL    HW226088   4.722   5.627   4.883
 8397SOL     OW26089   6.520   1.303   3.609
 8397SOL    HW126090   6.515   1.364   3.531
 8397SOL    HW226091   6.497   1.354   3.693
 8398SOL     OW26092   5.358   2.242   5.571
 8398SOL    HW126093   5.287   2.194   5.519
 8398SOL    HW226094   5.448   2.217   5.536
 8399SOL     OW26095   6.984   5.720   6.974
 8399SOL    HW126096   6.998   5.800   6.916
 8399SOL    HW226097   0.044   5.705   0.012
 8400SOL     OW26098   1.682   2.173   4.139
 8400SOL    HW126099   1.615   2.170   4.065
 8400SOL    HW226100   1.706   2.268   4.158
 8401SOL     OW26101   2.623   0.267   5.419
 8401SOL    HW126102   2.567   0.256   5.337
 8401SOL    HW226103   2.652   0.362   5.428
 8402SOL     OW26104   4.648   1.010   5.717
 8402SOL    HW126105   4.623   1.026   5.813
 8402SOL    HW226106   4.583   0.947   5.676
 8403SOL     OW26107   6.251   4.242   4.254
 8403SOL    HW126108   6.220   4.163   4.306
 8403SOL    HW226109   6.317   4.213   4.185
 8404SOL     OW26110   2.431   2.045   6.458
 8404SOL    HW126111   2.477   2.121   6.504
 8404SOL    HW226112   2.500   1.984   6.419
 8405SOL     OW26113   3.720   1.372   5.138
 8405SOL    HW126114   3.790   1.316   5.183
 8405SOL    HW226115   3.710   1.458   5.187
 8406SOL     OW26116   5.023   1.115   6.319
 8406SOL    HW126117   5.046   1.152   6.229
 8406SOL    HW226118   4.986   1.188   6.377
 8407SOL     OW26119   3.628   6.383   3.323
 8407SOL    HW126120   3.613   6.314   3.393
 8407SOL    HW226121   3.616   6.474   3.363
 8408SOL     OW26122   5.304   0.140   1.096
 8408SOL    HW126123   5.258   0.078   1.032
 8408SOL    HW226124   5.237   0.185   1.154
 8409SOL     OW26125   4.460   2.412   2.098
 8409SOL    HW126126   4.506   2.323   2.103
 8409SOL    HW226127   4.519   2.477   2.050
 8410SOL     OW26128   6.816   1.962   1.633
 8410SOL    HW126129   6.825   2.055   1.596
 8410SOL    HW226130   6.789   1.900   1.559
 8411SOL     OW26131   0.753   6.410   0.819
 8411SOL    HW126132   0.690   6.478   0.782
 8411SOL    HW226133   0.722   6.382   0.910
 8412SOL     OW26134   2.838   3.480   0.604
 8412SOL    HW126135   2.850   3.576   0.580
 8412SOL    HW226136   2.853   3.423   0.523
 8413SOL     OW26137   3.945   5.415   5.532
 8413SOL    HW126138   4.009   5.367   5.592
 8413SOL    HW226139   3.883   5.470   5.587
 8414SOL     OW26140   1.468   0.964   2.566
 8414SOL    HW126141   1.464   0.931   2.472
 8414SOL    HW226142   1.499   0.891   2.626
 8415SOL     OW26143   2.647   6.994   4.378
 8415SOL    HW126144   2.695   0.019   4.303
 8415SOL    HW226145   2.636   6.896   4.357
 8416SOL     OW26146   6.463   1.554   4.532
 8416SOL    HW126147   6.443   1.645   4.567
 8416SOL    HW226148   6.498   1.496   4.605
 8417SOL     OW26149   0.916   2.977   4.895
 8417SOL    HW126150   0.848   2.919   4.941
 8417SOL    HW226151   0.996   2.987   4.954
 8418SOL     OW26152   1.240   5.822   2.350
 8418SOL    HW126153   1.334   5.803   2.321
 8418SOL    HW226154   1.176   5.770   2.294
 8419SOL     OW26155   5.157   0.503   3.471
 8419SOL    HW126156   5.225   0.560   3.516
 8419SOL    HW226157   5.080   0.488   3.532
 8420SOL     OW26158   3.096   6.459   2.036
 8420SOL    HW126159   3.159   6.537   2.041
 8420SOL    HW226160   3.051   6.447   2.125
 8421SOL     OW26161   3.941   6.475   6.094
 8421SOL    HW126162   3.904   6.464   6.001
 8421SOL    HW226163   3.865   6.481   6.159
 8422SOL     OW26164   4.531   2.566   2.655
 8422SOL    HW126165   4.542   2.557   2.556
 8422SOL    HW226166   4.434   2.571   2.678
 8423SOL     OW26167   5.638   4.198   5.871
 8423SOL    HW126168   5.560   4.262   5.876
 8423SOL    HW226169   5.702   4.219   5.945
 8424SOL     OW26170   1.988   0.181   3.300
 8424SOL    HW126171   2.074   0.179   3.351
 8424SOL    HW226172   1.929   0.106   3.330
 8425SOL     OW26173   2.911   3.355   3.197
 8425SOL    HW126174   2.952   3.390   3.113
 8425SOL    HW226175   2.937   3.414   3.274
 8426SOL     OW26176   3.805   2.980   2.261
 8426SOL    HW126177   3.721   3.017   2.299
 8426SOL    HW226178   3.859   3.053   2.219
 8427SOL     OW26179   3.000   3.152   3.357
 8427SOL    HW126180   2.931   3.199   3.303
 8427SOL    HW226181   2.983   3.168   3.455
 8428SOL     OW26182   6.826   0.824   0.778
 8428SOL    HW126183   6.806   0.824   0.877
 8428SOL    HW226184   6.740   0.829   0.728
 8429SOL     OW26185   1.959   5.523   6.145
 8429SOL    HW126186   2.010   5.526   6.231
 8429SOL    HW226187   1.862   5.543   6.163
 8430SOL     OW26188   4.298   5.967   4.161
 8430SOL    HW126189   4.385   6.009   4.187
 8430SOL    HW226190   4.230   5.981   4.233
 8431SOL     OW26191   2.575   3.175   6.516
 8431SOL    HW126192   2.632   3.247   6.478
 8431SOL    HW226193   2.484   3.211   6.537
 8432SOL     OW26194   0.030   5.718   6.245
 8432SOL    HW126195   0.012   5.742   6.340
 8432SOL    HW226196   0.125   5.688   6.236
 8433SOL     OW26197   4.568   2.674   0.895
 8433SOL    HW126198   4.553   2.598   0.958
 8433SOL    HW226199   4.501   2.669   0.821
 8434SOL     OW26200   2.134   5.534   5.130
 8434SOL    HW126201   2.182   5.621   5.132
 8434SOL    HW226202   2.060   5.538   5.063
 8435SOL     OW26203   5.034   1.079   2.416
 8435SOL    HW126204   4.952   1.037   2.376
 8435SOL    HW226205   5.008   1.157   2.472
 8436SOL     OW26206   2.537   6.726   3.392
 8436SOL    HW126207   2.541   6.717   3.492
 8436SOL    HW226208   2.451   6.770   3.366
 8437SOL     OW26209   2.374   2.772   2.371
 8437SOL    HW126210   2.374   2.732   2.462
 8437SOL    HW226211   2.298   2.837   2.363
 8438SOL     OW26212   1.573   4.416   3.298
 8438SOL    HW126213   1.640   4.353   3.338
 8438SOL    HW226214   1.487   4.368   3.282
 8439SOL     OW26215   5.912   5.758   3.321
 8439SOL    HW126216   5.965   5.805   3.391
 8439SOL    HW226217   5.816   5.783   3.329
 8440SOL     OW26218   2.184   1.409   3.360
 8440SOL    HW126219   2.222   1.344   3.294
 8440SOL    HW226220   2.114   1.465   3.315
 8441SOL     OW26221   5.449   6.994   5.581
 8441SOL    HW126222   5.481   0.067   5.596
 8441SOL    HW226223   5.493   6.956   5.500
 8442SOL     OW26224   3.843   0.757   5.067
 8442SOL    HW126225   3.918   0.707   5.111
 8442SOL    HW226226   3.881   0.834   5.015
 8443SOL     OW26227   1.494   4.911   3.463
 8443SOL    HW126228   1.542   4.827   3.439
 8443SOL    HW226229   1.559   4.988   3.463
 8444SOL     OW26230   4.461   5.860   3.190
 8444SOL    HW126231   4.490   5.784   3.248
 8444SOL    HW226232   4.365   5.882   3.210
 8445SOL     OW26233   3.204   6.901   6.924
 8445SOL    HW126234   3.193   6.828   6.857
 8445SOL    HW226235   3.176   6.868   7.014
 8446SOL     OW26236   0.239   6.113   5.189
 8446SOL    HW126237   0.331   6.074   5.196
 8446SOL    HW226238   0.214   6.154   5.277
 8447SOL     OW26239   3.904   1.296   2.316
 8447SOL    HW126240   3.906   1.236   2.396
 8447SOL    HW226241   3.945   1.249   2.238
 8448SOL     OW26242   4.905   6.663   2.749
 8448SOL    HW126243   4.866   6.574   2.725
 8448SOL    HW226244   4.975   6.688   2.682
 8449SOL     OW26245   1.805   2.473   3.439
 8449SOL    HW126246   1.881   2.522   3.482
 8449SOL    HW226247   1.793   2.384   3.485
 8450SOL     OW26248   6.354   1.104   6.835
 8450SOL    HW126249   6.391   1.194   6.812
 8450SOL    HW226250   6.376   1.039   6.762
 8451SOL     OW26251   4.503   2.095   1.166
 8451SOL    HW126252   4.602   2.103   1.163
 8451SOL    HW226253   4.472   2.095   1.261
 8452SOL     OW26254   5.210   1.821   4.775
 8452SOL    HW126255   5.309   1.825   4.788
 8452SOL    HW226256   5.178   1.728   4.791
 8453SOL     OW26257   0.836   6.250   0.090
 8453SOL    HW126258   0.913   6.199   0.128
 8453SOL    HW226259   0.754   6.194   0.093
 8454SOL     OW26260   0.568   4.670   7.010
 8454SOL    HW126261   0.617   4.634   6.931
 8454SOL    HW226262   0.611   4.636   0.074
 8455SOL     OW26263   1.048   0.695   2.560
 8455SOL    HW126264   0.981   0.660   2.626
 8455SOL    HW226265   1.085   0.782   2.592
 8456SOL     OW26266   5.544   1.274   3.178
 8456SOL    HW126267   5.526   1.368   3.148
 8456SOL    HW226268   5.478   1.247   3.248
 8457SOL     OW26269   6.328   6.300   5.026
 8457SOL    HW126270   6.254   6.335   5.084
 8457SOL    HW226271   6.392   6.374   5.006
 8458SOL     OW26272   6.589   0.414   6.816
 8458SOL    HW126273   6.651   0.408   6.737
 8458SOL    HW226274   6.600   0.502   6.861
 8459SOL     OW26275   1.638   6.094   3.272
 8459SOL    HW126276   1.736   6.111   3.257
 8459SOL    HW226277   1.627   6.014   3.330
 8460SOL     OW26278   3.196   4.158   5.084
 8460SOL    HW126279   3.104   4.120   5.095
 8460SOL    HW226280   3.255   4.089   5.043
 8461SOL     OW26281   6.780   2.793   5.108
 8461SOL    HW126282   6.757   2.726   5.038
 8461SOL    HW226283   6.696   2.825   5.152
 8462SOL     OW26284   2.395   2.043   1.739
 8462SOL    HW126285   2.436   2.095   1.814
 8462SOL    HW226286   2.454   2.046   1.659
 8463SOL     OW26287   5.987   0.723   2.341
 8463SOL    HW126288   5.900   0.681   2.313
 8463SOL    HW226289   5.974   0.821   2.349
 8464SOL     OW26290   5.971   3.149   4.482
 8464SOL    HW126291   6.015   3.121   4.568
 8464SOL    HW226292   5.873   3.156   4.496
 8465SOL     OW26293   1.786   1.962   0.470
 8465SOL    HW126294   1.872   1.953   0.420
 8465SOL    HW226295   1.762   2.058   0.479
 8466SOL     OW26296   0.874   5.595   3.325
 8466SOL    HW126297   0.936   5.529   3.368
 8466SOL    HW226298   0.837   5.557   3.241
 8467SOL     OW26299   2.933   5.511   0.978
 8467SOL    HW126300   2.921   5.480   1.072
 8467SOL    HW226301   3.029   5.533   0.963
 8468SOL     OW26302   4.617   2.025   6.730
 8468SOL    HW126303   4.692   2.019   6.664
 8468SOL    HW226304   4.563   1.941   6.726
 8469SOL     OW26305   3.128   2.809   6.330
 8469SOL    HW126306   3.180   2.743   6.385
 8469SOL    HW226307   3.160   2.806   6.235
 8470SOL     OW26308   2.567   3.267   6.887
 8470SOL    HW126309   2.591   3.294   6.794
 8470SOL    HW226310   2.630   3.196   6.918
 8471SOL     OW26311   3.356   0.908   3.789
 8471SOL    HW126312   3.266   0.883   3.753
 8471SOL    HW226313   3.353   1.000   3.826
 8472SOL     OW26314   0.931   6.849   4.310
 8472SOL    HW126315   0.851   6.806   4.351
 8472SOL    HW226316   1.003   6.781   4.298
 8473SOL     OW26317   0.083   5.181   6.808
 8473SOL    HW126318   0.033   5.098   6.789
 8473SOL    HW226319   0.173   5.158   6.846
 8474SOL     OW26320   3.404   3.732   1.308
 8474SOL    HW126321   3.486   3.707   1.257
 8474SOL    HW226322   3.331   3.757   1.244
 8475SOL     OW26323   6.048   1.507   2.433
 8475SOL    HW126324   6.128   1.501   2.492
 8475SOL    HW226325   5.966   1.517   2.489
 8476SOL     OW26326   4.479   1.034   1.982
 8476SOL    HW126327   4.571   1.057   1.949
 8476SOL    HW226328   4.418   1.111   1.967
 8477SOL     OW26329   2.851   0.562   1.178
 8477SOL    HW126330   2.753   0.540   1.181
 8477SOL    HW226331   2.901   0.484   1.140
 8478SOL     OW26332   1.314   0.689   5.583
 8478SOL    HW126333   1.375   0.767   5.593
 8478SOL    HW226334   1.230   0.706   5.636
 8479SOL     OW26335   5.928   1.101   0.611
 8479SOL    HW126336   5.892   1.097   0.704
 8479SOL    HW226337   6.027   1.112   0.614
 8480SOL     OW26338   3.274   0.878   1.503
 8480SOL    HW126339   3.293   0.951   1.437
 8480SOL    HW226340   3.325   0.796   1.478
 8481SOL     OW26341   3.804   1.357   4.328
 8481SOL    HW126342   3.708   1.331   4.336
 8481SOL    HW226343   3.811   1.457   4.324
 8482SOL     OW26344   1.319   6.984   2.112
 8482SOL    HW126345   1.372   6.948   2.035
 8482SOL    HW226346   1.376   0.025   2.167
 8483SOL     OW26347   3.817   5.985   0.835
 8483SOL    HW126348   3.807   5.929   0.917
 8483SOL    HW226349   3.758   6.066   0.843
 8484SOL     OW26350   0.598   5.065   4.641
 8484SOL    HW126351   0.574   4.993   4.576
 8484SOL    HW226352   0.587   5.031   4.735
 8485SOL     OW26353   2.255   4.053   0.216
 8485SOL    HW126354   2.168   4.092   0.187
 8485SOL    HW226355   2.238   3.973   0.275
 8486SOL     OW26356   5.721   0.813   1.887
 8486SOL    HW126357   5.748   0.865   1.806
 8486SOL    HW226358   5.771   0.726   1.888
 8487SOL     OW26359   5.108   0.251   1.228
 8487SOL    HW126360   5.037   0.181   1.239
 8487SOL    HW226361   5.070   0.326   1.173
 8488SOL     OW26362   4.875   3.626   3.992
 8488SOL    HW126363   4.908   3.609   4.085
 8488SOL    HW226364   4.884   3.544   3.937
 8489SOL     OW26365   5.055   4.687   1.546
 8489SOL    HW126366   5.046   4.776   1.501
 8489SOL    HW226367   5.083   4.619   1.479
 8490SOL     OW26368   4.431   4.965   3.181
 8490SOL    HW126369   4.358   4.896   3.190
 8490SOL    HW226370   4.514   4.921   3.146
 8491SOL     OW26371   2.258   0.751   2.260
 8491SOL    HW126372   2.326   0.700   2.313
 8491SOL    HW226373   2.300   0.836   2.227
 8492SOL     OW26374   6.158   2.590   5.106
 8492SOL    HW126375   6.157   2.505   5.158
 8492SOL    HW226376   6.244   2.597   5.056
 8493SOL     OW26377   4.381   1.668   6.492
 8493SOL    HW126378   4.433   1.714   6.564
 8493SOL    HW226379   4.313   1.607   6.533
 8494SOL     OW26380   3.170   5.795   6.592
 8494SOL    HW126381   3.093   5.794   6.528
 8494SOL    HW226382   3.156   5.725   6.662
 8495SOL     OW26383   0.013   2.349   0.921
 8495SOL    HW126384   0.103   2.364   0.962
 8495SOL    HW226385   6.969   2.417   0.956
 8496SOL     OW26386   0.152   2.442   3.363
 8496SOL    HW126387   0.072   2.410   3.313
 8496SOL    HW226388   0.232   2.442   3.303
 8497SOL     OW26389   6.120   5.197   3.461
 8497SOL    HW126390   6.082   5.206   3.369
 8497SOL    HW226391   6.055   5.236   3.527
 8498SOL     OW26392   0.144   0.942   1.380
 8498SOL    HW126393   0.144   0.917   1.477
 8498SOL    HW226394   0.077   1.015   1.365
 8499SOL     OW26395   3.111   4.357   6.421
 8499SOL    HW126396   3.054   4.309   6.487
 8499SOL    HW226397   3.189   4.300   6.396
 8500SOL     OW26398   2.652   6.586   6.000
 8500SOL    HW126399   2.744   6.612   5.972
 8500SOL    HW226400   2.657   6.524   6.078
 8501SOL     OW26401   1.901   3.546   6.727
 8501SOL    HW126402   1.971   3.596   6.676
 8501SOL    HW226403   1.830   3.610   6.757
 8502SOL     OW26404   6.719   6.738   1.801
 8502SOL    HW126405   6.787   6.810   1.788
 8502SOL    HW226406   6.710   6.717   1.899
 8503SOL     OW26407   2.573   4.870   3.307
 8503SOL    HW126408   2.579   4.821   3.221
 8503SOL    HW226409   2.665   4.880   3.346
 8504SOL     OW26410   1.270   5.428   3.747
 8504SOL    HW126411   1.242   5.428   3.651
 8504SOL    HW226412   1.312   5.340   3.769
 8505SOL     OW26413   4.973   3.771   3.381
 8505SOL    HW126414   4.926   3.848   3.338
 8505SOL    HW226415   5.039   3.731   3.317
 8506SOL     OW26416   1.547   6.743   0.294
 8506SOL    HW126417   1.518   6.653   0.260
 8506SOL    HW226418   1.474   6.783   0.350
 8507SOL     OW26419   1.609   1.122   6.298
 8507SOL    HW126420   1.511   1.140   6.309
 8507SOL    HW226421   1.661   1.192   6.347
 8508SOL     OW26422   6.945   2.253   5.649
 8508SOL    HW126423   6.885   2.333   5.639
 8508SOL    HW226424   0.020   2.283   5.659
 8509SOL     OW26425   6.282   2.010   4.052
 8509SOL    HW126426   6.183   2.023   4.055
 8509SOL    HW226427   6.303   1.914   4.071
 8510SOL     OW26428   5.781   5.857   2.572
 8510SOL    HW126429   5.690   5.898   2.577
 8510SOL    HW226430   5.773   5.758   2.568
 8511SOL     OW26431   6.952   4.716   1.842
 8511SOL    HW126432   7.007   4.646   1.887
 8511SOL    HW226433   6.881   4.747   1.904
 8512SOL     OW26434   5.118   2.285   0.124
 8512SOL    HW126435   5.109   2.215   0.195
 8512SOL    HW226436   5.203   2.270   0.074
 8513SOL     OW26437   6.284   4.342   1.149
 8513SOL    HW126438   6.195   4.327   1.104
 8513SOL    HW226439   6.272   4.338   1.248
 8514SOL     OW26440   2.774   1.294   4.722
 8514SOL    HW126441   2.683   1.253   4.731
 8514SOL    HW226442   2.768   1.393   4.734
 8515SOL     OW26443   0.960   1.028   0.366
 8515SOL    HW126444   0.878   0.997   0.414
 8515SOL    HW226445   0.936   1.060   0.275
 8516SOL     OW26446   5.881   3.024   2.335
 8516SOL    HW126447   5.966   3.002   2.288
 8516SOL    HW226448   5.899   3.093   2.405
 8517SOL     OW26449   1.586   2.922   5.303
 8517SOL    HW126450   1.669   2.948   5.254
 8517SOL    HW226451   1.514   2.900   5.238
 8518SOL     OW26452   5.327   4.802   6.780
 8518SOL    HW126453   5.299   4.853   6.699
 8518SOL    HW226454   5.395   4.855   6.831
 8519SOL     OW26455   1.506   4.128   0.857
 8519SOL    HW126456   1.529   4.070   0.779
 8519SOL    HW226457   1.579   4.195   0.872
 8520SOL     OW26458   3.895   3.891   4.807
 8520SOL    HW126459   3.934   3.799   4.794
 8520SOL    HW226460   3.849   3.920   4.723
 8521SOL     OW26461   1.232   6.170   5.401
 8521SOL    HW126462   1.167   6.208   5.466
 8521SOL    HW226463   1.322   6.211   5.416
 8522SOL     OW26464   1.433   0.061   0.491
 8522SOL    HW126465   1.352   0.093   0.540
 8522SOL    HW226466   1.418   6.986   0.462
 8523SOL     OW26467   2.649   0.057   6.367
 8523SOL    HW126468   2.572   0.003   6.331
 8523SOL    HW226469   2.664   0.137   6.310
 8524SOL     OW26470   1.348   5.172   4.486
 8524SOL    HW126471   1.333   5.252   4.545
 8524SOL    HW226472   1.431   5.186   4.432
 8525SOL     OW26473   6.885   4.844   1.447
 8525SOL    HW126474   6.911   4.912   1.378
 8525SOL    HW226475   6.923   4.870   1.535
 8526SOL     OW26476   2.402   7.009   0.863
 8526SOL    HW126477   2.473   6.968   0.805
 8526SOL    HW226478   2.442   0.017   0.950
 8527SOL     OW26479   3.547   0.183   6.575
 8527SOL    HW126480   3.527   0.122   6.498
 8527SOL    HW226481   3.479   0.255   6.578
 8528SOL     OW26482   4.768   2.468   0.783
 8528SOL    HW126483   4.778   2.502   0.876
 8528SOL    HW226484   4.671   2.465   0.759
 8529SOL     OW26485   1.041   6.077   0.180
 8529SOL    HW126486   1.137   6.050   0.169
 8529SOL    HW226487   1.021   6.089   0.277
 8530SOL     OW26488   2.984   3.357   4.083
 8530SOL    HW126489   2.929   3.421   4.137
 8530SOL    HW226490   2.967   3.372   3.986
 8531SOL     OW26491   6.888   5.796   3.828
 8531SOL    HW126492   6.839   5.743   3.898
 8531SOL    HW226493   6.968   5.744   3.798
 8532SOL     OW26494   3.565   6.171   4.081
 8532SOL    HW126495   3.520   6.183   4.169
 8532SOL    HW226496   3.502   6.196   4.007
 8533SOL     OW26497   0.980   6.177   6.882
 8533SOL    HW126498   0.924   6.213   6.957
 8533SOL    HW226499   0.931   6.185   6.796
 8534SOL     OW26500   4.290   2.156   3.898
 8534SOL    HW126501   4.319   2.093   3.969
 8534SOL    HW226502   4.198   2.131   3.866
 8535SOL     OW26503   5.546   0.886   3.694
 8535SOL    HW126504   5.634   0.840   3.706
 8535SOL    HW226505   5.497   0.886   3.781
 8536SOL     OW26506   0.091   0.755   4.642
 8536SOL    HW126507   0.064   0.676   4.696
 8536SOL    HW226508   0.148   0.725   4.565
 8537SOL     OW26509   6.772   1.205   3.269
 8537SOL    HW126510   6.860   1.249   3.250
 8537SOL    HW226511   6.782   1.106   3.257
 8538SOL     OW26512   1.502   1.816   0.414
 8538SOL    HW126513   1.471   1.843   0.505
 8538SOL    HW226514   1.601   1.827   0.407
 8539SOL     OW26515   6.405   3.075   2.834
 8539SOL    HW126516   6.349   2.997   2.807
 8539SOL    HW226517   6.345   3.150   2.863
 8540SOL     OW26518   4.108   7.006   6.777
 8540SOL    HW126519   4.076   6.913   6.761
 8540SOL    HW226520   4.198   7.019   6.733
 8541SOL     OW26521   2.216   2.284   3.705
 8541SOL    HW126522   2.158   2.276   3.624
 8541SOL    HW226523   2.165   2.254   3.786
 8542SOL     OW26524   4.333   4.046   6.215
 8542SOL    HW126525   4.339   4.141   6.185
 8542SOL    HW226526   4.269   3.996   6.156
 8543SOL     OW26527   2.014   2.779   0.179
 8543SOL    HW126528   2.082   2.812   0.245
 8543SOL    HW226529   2.016   2.838   0.098
 8544SOL     OW26530   5.370   2.637   3.805
 8544SOL    HW126531   5.451   2.693   3.822
 8544SOL    HW226532   5.322   2.621   3.892
 8545SOL     OW26533   4.996   6.197   5.450
 8545SOL    HW126534   5.049   6.213   5.367
 8545SOL    HW226535   4.898   6.199   5.429
 8546SOL     OW26536   4.912   1.621   4.000
 8546SOL    HW126537   4.965   1.694   3.955
 8546SOL    HW226538   4.916   1.632   4.099
 8547SOL     OW26539   1.054   4.293   3.610
 8547SOL    HW126540   1.015   4.368   3.557
 8547SOL    HW226541   0.983   4.253   3.668
 8548SOL     OW26542   5.355   0.918   4.847
 8548SOL    HW126543   5.341   0.912   4.748
 8548SOL    HW226544   5.273   0.885   4.894
 8549SOL     OW26545   6.513   3.120   3.994
 8549SOL    HW126546   6.461   3.055   4.048
 8549SOL    HW226547   6.459   3.150   3.915
 8550SOL     OW26548   1.525   5.081   6.633
 8550SOL    HW126549   1.588   5.155   6.611
 8550SOL    HW226550   1.564   4.994   6.601
 8551SOL     OW26551   3.416   3.912   6.700
 8551SOL    HW126552   3.487   3.968   6.657
 8551SOL    HW226553   3.449   3.877   6.788
 8552SOL     OW26554   2.777   5.979   3.427
 8552SOL    HW126555   2.678   5.989   3.438
 8552SOL    HW226556   2.797   5.925   3.346
 8553SOL     OW26557   4.910   6.709   0.645
 8553SOL    HW126558   4.836   6.728   0.711
 8553SOL    HW226559   4.941   6.615   0.657
 8554SOL     OW26560   6.934   4.408   0.054
 8554SOL    HW126561   6.881   4.342   0.108
 8554SOL    HW226562   0.005   4.372   0.036
 8555SOL     OW26563   1.104   0.665   4.301
 8555SOL    HW126564   1.096   0.643   4.398
 8555SOL    HW226565   1.107   0.580   4.248
 8556SOL     OW26566   6.662   0.479   3.792
 8556SOL    HW126567   6.698   0.423   3.718
 8556SOL    HW226568   6.608   0.422   3.855
 8557SOL     OW26569   0.073   6.831   1.284
 8557SOL    HW126570   0.119   6.872   1.362
 8557SOL    HW226571   0.139   6.778   1.231
 8558SOL     OW26572   1.489   5.265   2.234
 8558SOL    HW126573   1.532   5.179   2.207
 8558SOL    HW226574   1.454   5.312   2.153
 8559SOL     OW26575   1.252   0.218   1.887
 8559SOL    HW126576   1.266   0.145   1.821
 8559SOL    HW226577   1.160   0.256   1.876
 8560SOL     OW26578   6.251   1.621   0.372
 8560SOL    HW126579   6.263   1.705   0.426
 8560SOL    HW226580   6.170   1.631   0.314
 8561SOL     OW26581   4.999   6.263   3.436
 8561SOL    HW126582   5.088   6.259   3.391
 8561SOL    HW226583   4.939   6.193   3.398
 8562SOL     OW26584   3.677   0.025   4.507
 8562SOL    HW126585   3.753   0.009   4.570
 8562SOL    HW226586   3.711   0.072   4.425
 8563SOL     OW26587   2.646   2.680   0.021
 8563SOL    HW126588   2.635   2.644   6.948
 8563SOL    HW226589   2.706   2.619   0.073
 8564SOL     OW26590   1.141   6.741   3.688
 8564SOL    HW126591   1.082   6.667   3.718
 8564SOL    HW226592   1.226   6.704   3.652
 8565SOL     OW26593   3.795   6.807   0.772
 8565SOL    HW126594   3.779   6.837   0.865
 8565SOL    HW226595   3.889   6.830   0.745
 8566SOL     OW26596   1.037   2.068   3.079
 8566SOL    HW126597   1.002   2.143   3.022
 8566SOL    HW226598   1.051   2.101   3.173
 8567SOL     OW26599   5.475   1.397   0.808
 8567SOL    HW126600   5.395   1.382   0.866
 8567SOL    HW226601   5.445   1.423   0.716
 8568SOL     OW26602   5.401   1.845   0.324
 8568SOL    HW126603   5.484   1.806   0.365
 8568SOL    HW226604   5.353   1.774   0.273
 8569SOL     OW26605   4.780   1.204   4.329
 8569SOL    HW126606   4.752   1.275   4.394
 8569SOL    HW226607   4.844   1.242   4.262
 8570SOL     OW26608   0.313   3.976   6.641
 8570SOL    HW126609   0.371   3.899   6.615
 8570SOL    HW226610   0.332   4.001   6.736
 8571SOL     OW26611   6.677   4.099   4.537
 8571SOL    HW126612   6.594   4.154   4.527
 8571SOL    HW226613   6.716   4.114   4.629
 8572SOL     OW26614   2.023   4.949   5.263
 8572SOL    HW126615   1.944   4.897   5.231
 8572SOL    HW226616   1.993   5.040   5.293
 8573SOL     OW26617   4.235   5.662   5.712
 8573SOL    HW126618   4.203   5.574   5.677
 8573SOL    HW226619   4.183   5.686   5.794
 8574SOL     OW26620   0.335   3.681   5.482
 8574SOL    HW126621   0.340   3.646   5.575
 8574SOL    HW226622   0.393   3.626   5.422
 8575SOL     OW26623   3.213   2.818   0.877
 8575SOL    HW126624   3.251   2.822   0.969
 8575SOL    HW226625   3.146   2.744   0.872
 8576SOL     OW26626   1.075   0.301   1.534
 8576SOL    HW126627   1.033   0.211   1.545
 8576SOL    HW226628   1.163   0.291   1.487
 8577SOL     OW26629   6.208   6.063   3.352
 8577SOL    HW126630   6.152   6.032   3.275
 8577SOL    HW226631   6.291   6.007   3.358
 8578SOL     OW26632   4.662   0.121   3.655
 8578SOL    HW126633   4.643   0.031   3.693
 8578SOL    HW226634   4.595   0.143   3.584
 8579SOL     OW26635   1.238   4.846   3.394
 8579SOL    HW126636   1.165   4.880   3.454
 8579SOL    HW226637   1.327   4.868   3.434
 8580SOL     OW26638   1.624   6.290   1.669
 8580SOL    HW126639   1.663   6.198   1.666
 8580SOL    HW226640   1.532   6.288   1.629
 8581SOL     OW26641   3.315   1.741   0.714
 8581SOL    HW126642   3.323   1.652   0.760
 8581SOL    HW226643   3.354   1.735   0.622
 8582SOL     OW26644   4.428   4.548   1.875
 8582SOL    HW126645   4.444   4.466   1.930
 8582SOL    HW226646   4.337   4.585   1.896
 8583SOL     OW26647   6.263   6.924   5.895
 8583SOL    HW126648   6.305   7.014   5.900
 8583SOL    HW226649   6.286   6.871   5.977
 8584SOL     OW26650   6.756   5.157   0.570
 8584SOL    HW126651   6.834   5.169   0.508
 8584SOL    HW226652   6.690   5.230   0.555
 8585SOL     OW26653   0.202   1.041   0.293
 8585SOL    HW126654   0.170   0.996   0.209
 8585SOL    HW226655   0.258   0.977   0.345
 8586SOL     OW26656   3.877   5.547   2.781
 8586SOL    HW126657   3.958   5.600   2.760
 8586SOL    HW226658   3.812   5.553   2.705
 8587SOL     OW26659   0.326   1.986   2.472
 8587SOL    HW126660   0.352   2.082   2.468
 8587SOL    HW226661   0.229   1.977   2.451
 8588SOL     OW26662   4.021   2.379   0.124
 8588SOL    HW126663   4.082   2.334   0.190
 8588SOL    HW226664   3.984   2.310   0.061
 8589SOL     OW26665   3.654   1.323   4.015
 8589SOL    HW126666   3.623   1.232   4.045
 8589SOL    HW226667   3.592   1.393   4.052
 8590SOL     OW26668   6.029   5.210   5.386
 8590SOL    HW126669   5.973   5.291   5.370
 8590SOL    HW226670   6.018   5.179   5.480
 8591SOL     OW26671   0.870   3.699   6.402
 8591SOL    HW126672   0.886   3.660   6.312
 8591SOL    HW226673   0.836   3.793   6.393
 8592SOL     OW26674   6.546   4.386   0.840
 8592SOL    HW126675   6.513   4.450   0.910
 8592SOL    HW226676   6.480   4.381   0.765
 8593SOL     OW26677   1.797   0.312   2.127
 8593SOL    HW126678   1.760   0.329   2.036
 8593SOL    HW226679   1.737   0.352   2.196
 8594SOL     OW26680   3.042   3.509   4.380
 8594SOL    HW126681   2.964   3.498   4.442
 8594SOL    HW226682   3.105   3.577   4.418
 8595SOL     OW26683   1.845   2.183   2.396
 8595SOL    HW126684   1.760   2.201   2.446
 8595SOL    HW226685   1.879   2.092   2.420
 8596SOL     OW26686   6.227   5.270   1.687
 8596SOL    HW126687   6.145   5.326   1.677
 8596SOL    HW226688   6.256   5.236   1.597
 8597SOL     OW26689   2.839   1.577   0.525
 8597SOL    HW126690   2.762   1.562   0.463
 8597SOL    HW226691   2.823   1.528   0.610
 8598SOL     OW26692   6.027   4.152   1.241
 8598SOL    HW126693   6.081   4.069   1.226
 8598SOL    HW226694   6.020   4.204   1.156
 8599SOL     OW26695   1.860   2.891   3.346
 8599SOL    HW126696   1.785   2.946   3.383
 8599SOL    HW226697   1.947   2.923   3.383
 8600SOL     OW26698   6.518   5.148   6.806
 8600SOL    HW126699   6.593   5.210   6.783
 8600SOL    HW226700   6.470   5.183   6.886
 8601SOL     OW26701   0.602   6.943   3.814
 8601SOL    HW126702   0.660   6.908   3.741
 8601SOL    HW226703   0.595   6.875   3.887
 8602SOL     OW26704   2.540   5.842   2.139
 8602SOL    HW126705   2.506   5.759   2.184
 8602SOL    HW226706   2.635   5.829   2.111
 8603SOL     OW26707   4.020   3.292   0.133
 8603SOL    HW126708   3.981   3.341   0.210
 8603SOL    HW226709   4.090   3.348   0.089
 8604SOL     OW26710   5.304   3.026   3.866
 8604SOL    HW126711   5.217   3.070   3.888
 8604SOL    HW226712   5.354   3.007   3.950
 8605SOL     OW26713   2.500   6.014   3.464
 8605SOL    HW126714   2.451   5.983   3.382
 8605SOL    HW226715   2.519   6.112   3.456
 8606SOL     OW26716   3.966   4.685   5.719
 8606SOL    HW126717   4.041   4.732   5.672
 8606SOL    HW226718   3.934   4.609   5.662
 8607SOL     OW26719   4.349   5.324   2.184
 8607SOL    HW126720   4.376   5.372   2.268
 8607SOL    HW226721   4.298   5.386   2.124
 8608SOL     OW26722   4.485   5.460   2.567
 8608SOL    HW126723   4.499   5.374   2.517
 8608SOL    HW226724   4.427   5.443   2.647
 8609SOL     OW26725   3.515   0.651   5.109
 8609SOL    HW126726   3.575   0.685   5.182
 8609SOL    HW226727   3.570   0.628   5.029
 8610SOL     OW26728   1.224   6.383   3.740
 8610SOL    HW126729   1.225   6.453   3.669
 8610SOL    HW226730   1.296   6.403   3.807
 8611SOL     OW26731   1.803   1.854   4.820
 8611SOL    HW126732   1.758   1.787   4.761
 8611SOL    HW226733   1.896   1.869   4.787
 8612SOL     OW26734   3.991   2.809   6.115
 8612SOL    HW126735   4.022   2.759   6.034
 8612SOL    HW226736   4.069   2.825   6.176
 8613SOL     OW26737   1.934   1.970   1.034
 8613SOL    HW126738   2.017   1.969   1.090
 8613SOL    HW226739   1.854   1.977   1.093
 8614SOL     OW26740   0.803   2.650   2.986
 8614SOL    HW126741   0.821   2.593   3.067
 8614SOL    HW226742   0.750   2.730   3.014
 8615SOL     OW26743   4.460   2.006   5.226
 8615SOL    HW126744   4.469   1.956   5.139
 8615SOL    HW226745   4.405   2.088   5.211
 8616SOL     OW26746   0.635   4.516   0.505
 8616SOL    HW126747   0.712   4.575   0.530
 8616SOL    HW226748   0.550   4.555   0.539
 8617SOL     OW26749   6.036   2.882   1.092
 8617SOL    HW126750   5.976   2.851   1.019
 8617SOL    HW226751   6.068   2.803   1.145
 8618SOL     OW26752   4.611   0.068   3.191
 8618SOL    HW126753   4.577   0.117   3.111
 8618SOL    HW226754   4.686   0.008   3.164
 8619SOL     OW26755   4.530   5.338   6.988
 8619SOL    HW126756   4.596   5.264   6.973
 8619SOL    HW226757   4.497   5.372   6.900
 8620SOL     OW26758   6.265   6.445   2.258
 8620SOL    HW126759   6.284   6.368   2.196
 8620SOL    HW226760   6.338   6.451   2.326
 8621SOL     OW26761   5.816   1.234   3.825
 8621SOL    HW126762   5.718   1.220   3.811
 8621SOL    HW226763   5.831   1.316   3.879
 8622SOL     OW26764   4.585   4.850   0.465
 8622SOL    HW126765   4.650   4.839   0.540
 8622SOL    HW226766   4.518   4.776   0.467
 8623SOL     OW26767   0.610   3.851   2.969
 8623SOL    HW126768   0.617   3.876   2.873
 8623SOL    HW226769   0.579   3.755   2.976
 8624SOL     OW26770   0.645   4.183   2.925
 8624SOL    HW126771   0.658   4.108   2.990
 8624SOL    HW226772   0.733   4.227   2.907
 8625SOL     OW26773   3.975   0.949   4.911
 8625SOL    HW126774   4.032   0.882   4.863
 8625SOL    HW226775   4.030   1.031   4.930
 8626SOL     OW26776   3.295   3.359   4.300
 8626SOL    HW126777   3.278   3.403   4.211
 8626SOL    HW226778   3.209   3.346   4.348
 8627SOL     OW26779   1.068   1.090   0.820
 8627SOL    HW126780   1.004   1.111   0.894
 8627SOL    HW226781   1.030   1.016   0.763
 8628SOL     OW26782   5.265   0.845   6.703
 8628SOL    HW126783   5.342   0.801   6.750
 8628SOL    HW226784   5.189   0.781   6.697
 8629SOL     OW26785   1.233   4.459   3.984
 8629SOL    HW126786   1.248   4.390   3.914
 8629SOL    HW226787   1.278   4.544   3.957
 8630SOL     OW26788   5.825   4.106   3.968
 8630SOL    HW126789   5.879   4.029   3.933
 8630SOL    HW226790   5.887   4.174   4.008
 8631SOL     OW26791   3.781   6.079   5.001
 8631SOL    HW126792   3.769   5.990   4.956
 8631SOL    HW226793   3.691   6.114   5.030
 8632SOL     OW26794   4.142   0.174   3.151
 8632SOL    HW126795   4.207   0.250   3.160
 8632SOL    HW226796   4.059   0.194   3.203
 8633SOL     OW26797   5.427   1.305   4.258
 8633SOL    HW126798   5.438   1.333   4.354
 8633SOL    HW226799   5.345   1.249   4.248
 8634SOL     OW26800   6.978   4.896   2.198
 8634SOL    HW126801   6.882   4.887   2.169
 8634SOL    HW226802   6.981   4.916   2.296
 8635SOL     OW26803   5.935   3.250   5.900
 8635SOL    HW126804   5.950   3.349   5.889
 8635SOL    HW226805   5.870   3.219   5.831
 8636SOL     OW26806   6.621   5.951   0.403
 8636SOL    HW126807   6.618   5.885   0.478
 8636SOL    HW226808   6.564   6.030   0.427
 8637SOL     OW26809   1.770   0.810   0.748
 8637SOL    HW126810   1.837   0.845   0.683
 8637SOL    HW226811   1.689   0.869   0.747
 8638SOL     OW26812   3.050   5.035   0.498
 8638SOL    HW126813   3.113   5.107   0.468
 8638SOL    HW226814   2.972   5.077   0.546
 8639SOL     OW26815   6.247   3.559   2.034
 8639SOL    HW126816   6.156   3.599   2.038
 8639SOL    HW226817   6.291   3.584   1.948
 8640SOL     OW26818   5.119   5.088   0.795
 8640SOL    HW126819   5.076   5.084   0.705
 8640SOL    HW226820   5.134   5.183   0.821
 8641SOL     OW26821   6.723   4.088   3.028
 8641SOL    HW126822   6.670   4.124   2.951
 8641SOL    HW226823   6.723   4.154   3.103
 8642SOL     OW26824   4.516   0.831   1.682
 8642SOL    HW126825   4.525   0.929   1.663
 8642SOL    HW226826   4.435   0.815   1.739
 8643SOL     OW26827   4.242   0.458   6.365
 8643SOL    HW126828   4.166   0.399   6.392
 8643SOL    HW226829   4.223   0.551   6.395
 8644SOL     OW26830   5.854   2.343   4.486
 8644SOL    HW126831   5.811   2.419   4.437
 8644SOL    HW226832   5.783   2.288   4.531
 8645SOL     OW26833   6.347   3.916   1.264
 8645SOL    HW126834   6.356   3.999   1.319
 8645SOL    HW226835   6.270   3.925   1.200
 8646SOL     OW26836   5.288   0.801   0.041
 8646SOL    HW126837   5.308   0.726   6.998
 8646SOL    HW226838   5.253   0.879   7.009
 8647SOL     OW26839   3.996   4.735   6.964
 8647SOL    HW126840   3.942   4.732   0.029
 8647SOL    HW226841   3.936   4.718   6.886
 8648SOL     OW26842   5.737   1.151   4.375
 8648SOL    HW126843   5.698   1.170   4.285
 8648SOL    HW226844   5.669   1.106   4.433
 8649SOL     OW26845   6.185   3.861   5.507
 8649SOL    HW126846   6.167   3.880   5.604
 8649SOL    HW226847   6.177   3.946   5.454
 8650SOL     OW26848   2.258   5.180   3.707
 8650SOL    HW126849   2.163   5.178   3.675
 8650SOL    HW226850   2.316   5.131   3.642
 8651SOL     OW26851   3.534   1.777   6.985
 8651SOL    HW126852   3.457   1.767   0.029
 8651SOL    HW226853   3.545   1.873   6.961
 8652SOL     OW26854   1.933   3.560   3.479
 8652SOL    HW126855   2.001   3.539   3.409
 8652SOL    HW226856   1.864   3.488   3.481
 8653SOL     OW26857   0.251   2.952   6.975
 8653SOL    HW126858   0.189   2.962   0.032
 8653SOL    HW226859   0.311   3.032   6.970
 8654SOL     OW26860   0.192   6.941   2.853
 8654SOL    HW126861   0.099   6.977   2.842
 8654SOL    HW226862   0.187   6.843   2.872
 8655SOL     OW26863   6.297   6.112   4.811
 8655SOL    HW126864   6.357   6.144   4.738
 8655SOL    HW226865   6.305   6.173   4.890
 8656SOL     OW26866   6.959   1.017   1.190
 8656SOL    HW126867   7.009   1.102   1.209
 8656SOL    HW226868   6.977   0.988   1.096
 8657SOL     OW26869   4.404   4.726   6.650
 8657SOL    HW126870   4.402   4.626   6.651
 8657SOL    HW226871   4.329   4.760   6.593
 8658SOL     OW26872   6.068   5.224   6.948
 8658SOL    HW126873   5.969   5.208   6.943
 8658SOL    HW226874   6.089   5.315   6.911
 8659SOL     OW26875   5.193   0.468   3.201
 8659SOL    HW126876   5.188   0.469   3.301
 8659SOL    HW226877   5.141   0.545   3.165
 8660SOL     OW26878   5.580   3.554   0.666
 8660SOL    HW126879   5.632   3.492   0.608
 8660SOL    HW226880   5.519   3.501   0.725
 8661SOL     OW26881   6.790   4.046   1.917
 8661SOL    HW126882   6.740   4.071   2.000
 8661SOL    HW226883   6.810   3.949   1.917
 8662SOL     OW26884   6.294   6.233   1.150
 8662SOL    HW126885   6.286   6.140   1.114
 8662SOL    HW226886   6.334   6.292   1.080
 8663SOL     OW26887   2.495   5.718   1.085
 8663SOL    HW126888   2.412   5.680   1.125
 8663SOL    HW226889   2.471   5.783   1.013
 8664SOL     OW26890   3.917   5.902   6.919
 8664SOL    HW126891   3.995   5.926   6.862
 8664SOL    HW226892   3.882   5.812   6.892
 8665SOL     OW26893   4.449   5.423   5.242
 8665SOL    HW126894   4.385   5.495   5.214
 8665SOL    HW226895   4.511   5.402   5.167
 8666SOL     OW26896   5.044   2.757   5.544
 8666SOL    HW126897   5.103   2.677   5.556
 8666SOL    HW226898   5.021   2.768   5.447
 8667SOL     OW26899   5.067   1.309   3.677
 8667SOL    HW126900   4.983   1.329   3.728
 8667SOL    HW226901   5.137   1.376   3.700
 8668SOL     OW26902   4.900   1.928   4.324
 8668SOL    HW126903   4.814   1.975   4.345
 8668SOL    HW226904   4.969   1.995   4.298
 8669SOL     OW26905   4.205   0.414   6.081
 8669SOL    HW126906   4.177   0.319   6.087
 8669SOL    HW226907   4.250   0.441   6.166
 8670SOL     OW26908   3.519   5.548   4.282
 8670SOL    HW126909   3.454   5.552   4.358
 8670SOL    HW226910   3.481   5.596   4.203
 8671SOL     OW26911   6.105   6.967   4.020
 8671SOL    HW126912   6.194   7.011   4.008
 8671SOL    HW226913   6.113   6.870   4.000
 8672SOL     OW26914   3.453   5.029   4.398
 8672SOL    HW126915   3.551   5.010   4.403
 8672SOL    HW226916   3.439   5.120   4.358
 8673SOL     OW26917   6.634   1.943   0.576
 8673SOL    HW126918   6.658   2.040   0.583
 8673SOL    HW226919   6.616   1.920   0.480
 8674SOL     OW26920   6.798   0.487   2.667
 8674SOL    HW126921   6.853   0.569   2.650
 8674SOL    HW226922   6.743   0.466   2.586
 8675SOL     OW26923   2.384   1.046   3.388
 8675SOL    HW126924   2.311   0.978   3.384
 8675SOL    HW226925   2.473   1.000   3.393
 8676SOL     OW26926   4.188   0.201   2.466
 8676SOL    HW126927   4.171   0.291   2.508
 8676SOL    HW226928   4.195   0.132   2.538
 8677SOL     OW26929   2.948   4.327   6.141
 8677SOL    HW126930   3.037   4.358   6.175
 8677SOL    HW226931   2.961   4.248   6.080
 8678SOL     OW26932   1.035   0.340   6.756
 8678SOL    HW126933   1.053   0.345   6.658
 8678SOL    HW226934   1.069   0.253   6.793
 8679SOL     OW26935   6.303   2.002   5.416
 8679SOL    HW126936   6.250   2.006   5.331
 8679SOL    HW226937   6.374   1.932   5.407
 8680SOL     OW26938   1.225   3.951   0.173
 8680SOL    HW126939   1.179   3.901   0.100
 8680SOL    HW226940   1.321   3.922   0.178
 8681SOL     OW26941   4.246   4.320   0.303
 8681SOL    HW126942   4.326   4.364   0.261
 8681SOL    HW226943   4.264   4.306   0.401
 8682SOL     OW26944   2.623   6.471   2.550
 8682SOL    HW126945   2.670   6.492   2.635
 8682SOL    HW226946   2.527   6.451   2.569
 8683SOL     OW26947   0.733   2.771   1.292
 8683SOL    HW126948   0.725   2.737   1.386
 8683SOL    HW226949   0.816   2.733   1.251
 8684SOL     OW26950   6.063   2.874   5.184
 8684SOL    HW126951   6.092   2.801   5.123
 8684SOL    HW226952   6.003   2.937   5.135
 8685SOL     OW26953   0.904   1.624   6.592
 8685SOL    HW126954   0.815   1.668   6.604
 8685SOL    HW226955   0.927   1.572   6.674
 8686SOL     OW26956   6.976   2.080   2.595
 8686SOL    HW126957   6.879   2.075   2.619
 8686SOL    HW226958   0.012   2.038   2.667
 8687SOL     OW26959   3.854   6.926   2.001
 8687SOL    HW126960   3.932   6.987   1.989
 8687SOL    HW226961   3.851   6.861   1.925
 8688SOL     OW26962   2.865   0.226   1.442
 8688SOL    HW126963   2.825   0.313   1.414
 8688SOL    HW226964   2.932   0.195   1.374
 8689SOL     OW26965   4.342   6.032   0.138
 8689SOL    HW126966   4.318   6.120   0.095
 8689SOL    HW226967   4.267   5.968   0.126
 8690SOL     OW26968   0.604   1.826   3.840
 8690SOL    HW126969   0.604   1.907   3.782
 8690SOL    HW226970   0.639   1.748   3.788
 8691SOL     OW26971   4.513   2.612   6.324
 8691SOL    HW126972   4.494   2.666   6.406
 8691SOL    HW226973   4.508   2.515   6.347
 8692SOL     OW26974   2.744   2.185   3.551
 8692SOL    HW126975   2.685   2.115   3.592
 8692SOL    HW226976   2.687   2.257   3.510
 8693SOL     OW26977   5.744   2.251   1.035
 8693SOL    HW126978   5.774   2.262   0.940
 8693SOL    HW226979   5.816   2.203   1.087
 8694SOL     OW26980   4.451   0.265   6.763
 8694SOL    HW126981   4.417   0.196   6.699
 8694SOL    HW226982   4.518   0.323   6.716
 8695SOL     OW26983   5.004   3.256   5.144
 8695SOL    HW126984   5.000   3.289   5.050
 8695SOL    HW226985   4.939   3.308   5.201
 8696SOL     OW26986   2.985   5.766   1.141
 8696SOL    HW126987   2.932   5.802   1.064
 8696SOL    HW226988   3.049   5.697   1.107
 8697SOL     OW26989   6.842   3.404   1.079
 8697SOL    HW126990   6.924   3.433   1.031
 8697SOL    HW226991   6.773   3.477   1.073
 8698SOL     OW26992   5.201   6.110   4.569
 8698SOL    HW126993   5.241   6.200   4.556
 8698SOL    HW226994   5.253   6.059   4.638
 8699SOL     OW26995   0.915   1.572   5.760
 8699SOL    HW126996   0.836   1.609   5.711
 8699SOL    HW226997   0.990   1.638   5.756
 8700SOL     OW26998   2.262   0.866   5.135
 8700SOL    HW126999   2.169   0.903   5.137
 8700SOL    HW227000   2.308   0.889   5.221
 8701SOL     OW27001   1.024   0.681   5.242
 8701SOL    HW127002   0.952   0.703   5.176
 8701SOL    HW227003   1.078   0.604   5.208
 8702SOL     OW27004   5.586   5.172   0.146
 8702SOL    HW127005   5.544   5.257   0.115
 8702SOL    HW227006   5.683   5.171   0.118
 8703SOL     OW27007   3.188   5.599   1.088
 8703SOL    HW127008   3.247   5.623   1.165
 8703SOL    HW227009   3.232   5.526   1.035
 8704SOL     OW27010   6.691   4.881   2.319
 8704SOL    HW127011   6.612   4.896   2.260
 8704SOL    HW227012   6.705   4.962   2.377
 8705SOL     OW27013   5.077   0.163   6.074
 8705SOL    HW127014   5.024   0.231   6.124
 8705SOL    HW227015   5.098   0.197   5.983
 8706SOL     OW27016   5.047   2.174   6.856
 8706SOL    HW127017   4.986   2.105   6.895
 8706SOL    HW227018   5.130   2.129   6.823
 8707SOL     OW27019   4.467   2.809   6.923
 8707SOL    HW127020   4.532   2.858   6.864
 8707SOL    HW227021   4.412   2.876   6.973
 8708SOL     OW27022   3.543   1.280   1.465
 8708SOL    HW127023   3.572   1.265   1.559
 8708SOL    HW227024   3.533   1.192   1.418
 8709SOL     OW27025   6.944   4.527   0.277
 8709SOL    HW127026   0.021   4.506   0.296
 8709SOL    HW227027   6.923   4.505   0.182
 8710SOL     OW27028   1.762   3.499   2.920
 8710SOL    HW127029   1.762   3.596   2.943
 8710SOL    HW227030   1.788   3.487   2.824
 8711SOL     OW27031   6.125   0.820   2.629
 8711SOL    HW127032   6.073   0.845   2.547
 8711SOL    HW227033   6.186   0.896   2.654
 8712SOL     OW27034   3.129   1.612   4.727
 8712SOL    HW127035   3.099   1.549   4.655
 8712SOL    HW227036   3.219   1.649   4.703
 8713SOL     OW27037   6.445   4.396   3.566
 8713SOL    HW127038   6.442   4.356   3.474
 8713SOL    HW227039   6.410   4.329   3.632
 8714SOL     OW27040   1.458   1.016   5.948
 8714SOL    HW127041   1.395   1.068   5.890
 8714SOL    HW227042   1.406   0.967   6.018
 8715SOL     OW27043   6.258   1.098   1.867
 8715SOL    HW127044   6.356   1.094   1.886
 8715SOL    HW227045   6.211   1.029   1.922
 8716SOL     OW27046   0.649   1.344   1.276
 8716SOL    HW127047   0.609   1.258   1.307
 8716SOL    HW227048   0.707   1.382   1.349
 8717SOL     OW27049   4.139   3.721   1.935
 8717SOL    HW127050   4.231   3.760   1.940
 8717SOL    HW227051   4.102   3.711   2.027
 8718SOL     OW27052   6.960   2.438   4.624
 8718SOL    HW127053   0.002   2.368   4.588
 8718SOL    HW227054   6.919   2.488   4.548
 8719SOL     OW27055   1.259   0.561   5.928
 8719SOL    HW127056   1.350   0.570   5.968
 8719SOL    HW227057   1.190   0.557   6.001
 8720SOL     OW27058   5.337   4.888   5.093
 8720SOL    HW127059   5.427   4.847   5.074
 8720SOL    HW227060   5.313   4.870   5.189
 8721SOL     OW27061   6.636   1.967   4.414
 8721SOL    HW127062   6.700   1.977   4.338
 8721SOL    HW227063   6.654   2.038   4.482
 8722SOL     OW27064   3.833   2.545   0.942
 8722SOL    HW127065   3.886   2.485   0.882
 8722SOL    HW227066   3.793   2.490   1.016
 8723SOL     OW27067   6.671   5.768   0.619
 8723SOL    HW127068   6.746   5.828   0.645
 8723SOL    HW227069   6.645   5.710   0.697
 8724SOL     OW27070   5.449   0.507   6.020
 8724SOL    HW127071   5.530   0.558   5.989
 8724SOL    HW227072   5.474   0.451   6.099
 8725SOL     OW27073   2.120   0.214   0.434
 8725SOL    HW127074   2.199   0.213   0.374
 8725SOL    HW227075   2.093   0.120   0.457
 8726SOL     OW27076   6.241   0.325   1.398
 8726SOL    HW127077   6.320   0.376   1.433
 8726SOL    HW227078   6.251   0.313   1.299
 8727SOL     OW27079   6.381   6.209   1.722
 8727SOL    HW127080   6.329   6.164   1.649
 8727SOL    HW227081   6.416   6.297   1.689
 8728SOL     OW27082   3.184   6.614   5.059
 8728SOL    HW127083   3.160   6.529   5.012
 8728SOL    HW227084   3.137   6.618   5.147
 8729SOL     OW27085   3.730   5.448   3.553
 8729SOL    HW127086   3.725   5.544   3.526
 8729SOL    HW227087   3.775   5.395   3.480
 8730SOL     OW27088   0.479   6.179   2.333
 8730SOL    HW127089   0.565   6.133   2.308
 8730SOL    HW227090   0.452   6.149   2.425
 8731SOL     OW27091   1.006   1.753   3.391
 8731SOL    HW127092   1.039   1.815   3.461
 8731SOL    HW227093   0.989   1.663   3.431
 8732SOL     OW27094   5.694   3.583   1.760
 8732SOL    HW127095   5.774   3.546   1.713
 8732SOL    HW227096   5.665   3.667   1.714
 8733SOL     OW27097   0.931   6.440   1.775
 8733SOL    HW127098   0.933   6.510   1.846
 8733SOL    HW227099   1.025   6.414   1.751
 8734SOL     OW27100   0.287   5.815   1.340
 8734SOL    HW127101   0.334   5.735   1.377
 8734SOL    HW227102   0.254   5.872   1.416
 8735SOL     OW27103   0.278   1.766   0.005
 8735SOL    HW127104   0.342   1.743   0.079
 8735SOL    HW227105   0.231   1.851   0.027
 8736SOL     OW27106   0.588   4.992   6.681
 8736SOL    HW127107   0.671   5.004   6.736
 8736SOL    HW227108   0.562   5.080   6.640
 8737SOL     OW27109   3.342   6.200   6.023
 8737SOL    HW127110   3.436   6.189   5.990
 8737SOL    HW227111   3.342   6.252   6.108
 8738SOL     OW27112   1.357   3.881   4.024
 8738SOL    HW127113   1.309   3.835   3.949
 8738SOL    HW227114   1.451   3.847   4.028
 8739SOL     OW27115   6.689   3.573   5.560
 8739SOL    HW127116   6.645   3.484   5.570
 8739SOL    HW227117   6.618   3.642   5.543
 8740SOL     OW27118   2.780   0.346   6.766
 8740SOL    HW127119   2.680   0.336   6.768
 8740SOL    HW227120   2.813   0.365   6.859
 8741SOL     OW27121   1.122   2.574   2.371
 8741SOL    HW127122   1.187   2.586   2.296
 8741SOL    HW227123   1.167   2.523   2.445
 8742SOL     OW27124   4.630   0.075   1.483
 8742SOL    HW127125   4.708   0.125   1.521
 8742SOL    HW227126   4.565   0.054   1.556
 8743SOL     OW27127   2.038   5.733   2.046
 8743SOL    HW127128   2.081   5.655   2.093
 8743SOL    HW227129   2.103   5.808   2.041
 8744SOL     OW27130   4.174   2.765   6.324
 8744SOL    HW127131   4.228   2.729   6.248
 8744SOL    HW227132   4.234   2.815   6.387
 8745SOL     OW27133   6.165   2.236   5.475
 8745SOL    HW127134   6.212   2.318   5.507
 8745SOL    HW227135   6.231   2.162   5.460
 8746SOL     OW27136   5.054   4.834   5.471
 8746SOL    HW127137   5.088   4.792   5.388
 8746SOL    HW227138   5.012   4.765   5.530
 8747SOL     OW27139   1.261   2.669   4.163
 8747SOL    HW127140   1.227   2.762   4.177
 8747SOL    HW227141   1.232   2.612   4.240
 8748SOL     OW27142   1.352   0.399   6.723
 8748SOL    HW127143   1.389   0.389   6.816
 8748SOL    HW227144   1.253   0.390   6.726
 8749SOL     OW27145   3.922   0.464   3.342
 8749SOL    HW127146   3.995   0.528   3.319
 8749SOL    HW227147   3.938   0.426   3.433
 8750SOL     OW27148   2.094   2.336   5.019
 8750SOL    HW127149   2.031   2.260   5.031
 8750SOL    HW227150   2.084   2.374   4.928
 8751SOL     OW27151   0.935   0.255   2.186
 8751SOL    HW127152   0.993   0.319   2.135
 8751SOL    HW227153   0.841   0.290   2.189
 8752SOL     OW27154   2.138   3.633   6.552
 8752SOL    HW127155   2.127   3.725   6.515
 8752SOL    HW227156   2.186   3.576   6.484
 8753SOL     OW27157   5.507   1.339   4.727
 8753SOL    HW127158   5.444   1.394   4.672
 8753SOL    HW227159   5.598   1.379   4.724
 8754SOL     OW27160   0.827   1.326   6.055
 8754SOL    HW127161   0.870   1.266   6.122
 8754SOL    HW227162   0.892   1.347   5.982
 8755SOL     OW27163   2.634   0.941   0.700
 8755SOL    HW127164   2.564   0.944   0.771
 8755SOL    HW227165   2.656   0.846   0.678
 8756SOL     OW27166   2.064   3.145   4.065
 8756SOL    HW127167   2.101   3.148   3.972
 8756SOL    HW227168   2.062   3.051   4.098
 8757SOL     OW27169   4.021   6.430   4.735
 8757SOL    HW127170   3.994   6.382   4.818
 8757SOL    HW227171   4.070   6.514   4.759
 8758SOL     OW27172   6.006   6.379   2.321
 8758SOL    HW127173   6.089   6.421   2.285
 8758SOL    HW227174   5.997   6.286   2.285
 8759SOL     OW27175   4.829   0.640   6.213
 8759SOL    HW127176   4.907   0.627   6.274
 8759SOL    HW227177   4.831   0.570   6.141
 8760SOL     OW27178   1.814   1.886   3.990
 8760SOL    HW127179   1.722   1.845   3.995
 8760SOL    HW227180   1.846   1.907   4.082
 8761SOL     OW27181   5.173   0.305   6.989
 8761SOL    HW127182   5.109   0.363   6.938
 8761SOL    HW227183   5.254   0.287   6.934
 8762SOL     OW27184   1.086   3.676   1.371
 8762SOL    HW127185   1.170   3.726   1.354
 8762SOL    HW227186   1.098   3.580   1.343
 8763SOL     OW27187   0.430   6.185   5.910
 8763SOL    HW127188   0.365   6.138   5.970
 8763SOL    HW227189   0.522   6.150   5.928
 8764SOL     OW27190   4.783   1.439   4.488
 8764SOL    HW127191   4.761   1.430   4.585
 8764SOL    HW227192   4.773   1.535   4.461
 8765SOL     OW27193   5.812   6.868   4.552
 8765SOL    HW127194   5.715   6.860   4.530
 8765SOL    HW227195   5.865   6.809   4.490
 8766SOL     OW27196   2.324   4.991   2.872
 8766SOL    HW127197   2.335   4.893   2.851
 8766SOL    HW227198   2.287   5.000   2.965
 8767SOL     OW27199   4.767   1.113   3.251
 8767SOL    HW127200   4.677   1.127   3.210
 8767SOL    HW227201   4.826   1.066   3.185
 8768SOL     OW27202   2.115   3.514   0.250
 8768SOL    HW127203   2.060   3.575   0.307
 8768SOL    HW227204   2.195   3.563   0.216
 8769SOL     OW27205   1.247   6.873   5.741
 8769SOL    HW127206   1.255   6.871   5.841
 8769SOL    HW227207   1.294   6.954   5.706
 8770SOL     OW27208   5.539   3.503   1.508
 8770SOL    HW127209   5.446   3.526   1.480
 8770SOL    HW227210   5.558   3.544   1.597
 8771SOL     OW27211   1.844   1.600   6.750
 8771SOL    HW127212   1.914   1.577   6.682
 8771SOL    HW227213   1.888   1.639   6.831
 8772SOL     OW27214   5.596   1.341   6.425
 8772SOL    HW127215   5.675   1.381   6.379
 8772SOL    HW227216   5.576   1.393   6.508
 8773SOL     OW27217   2.822   2.004   3.164
 8773SOL    HW127218   2.874   1.973   3.084
 8773SOL    HW227219   2.725   1.987   3.150
 8774SOL     OW27220   0.925   1.714   0.658
 8774SOL    HW127221   0.923   1.618   0.686
 8774SOL    HW227222   0.850   1.732   0.595
 8775SOL     OW27223   6.198   6.884   3.486
 8775SOL    HW127224   6.201   6.784   3.492
 8775SOL    HW227225   6.227   6.924   3.572
 8776SOL     OW27226   3.233   3.214   5.054
 8776SOL    HW127227   3.190   3.218   5.144
 8776SOL    HW227228   3.332   3.226   5.063
 8777SOL     OW27229   6.054   6.102   2.213
 8777SOL    HW127230   6.139   6.107   2.266
 8777SOL    HW227231   5.978   6.079   2.274
 8778SOL     OW27232   0.131   2.026   3.498
 8778SOL    HW127233   0.065   2.080   3.445
 8778SOL    HW227234   0.081   1.970   3.565
 8779SOL     OW27235   1.419   4.934   1.035
 8779SOL    HW127236   1.391   5.024   1.069
 8779SOL    HW227237   1.433   4.872   1.113
 8780SOL     OW27238   0.571   5.295   4.519
 8780SOL    HW127239   0.570   5.296   4.419
 8780SOL    HW227240   0.602   5.205   4.550
 8781SOL     OW27241   0.685   1.895   3.096
 8781SOL    HW127242   0.718   1.955   3.169
 8781SOL    HW227243   0.585   1.894   3.096
 8782SOL     OW27244   4.198   1.288   2.699
 8782SOL    HW127245   4.252   1.371   2.715
 8782SOL    HW227246   4.102   1.313   2.687
 8783SOL     OW27247   5.616   3.823   4.326
 8783SOL    HW127248   5.651   3.880   4.401
 8783SOL    HW227249   5.602   3.880   4.245
 8784SOL     OW27250   5.432   5.081   5.697
 8784SOL    HW127251   5.431   5.068   5.598
 8784SOL    HW227252   5.402   4.996   5.741
 8785SOL     OW27253   5.565   4.523   0.045
 8785SOL    HW127254   5.585   4.429   0.018
 8785SOL    HW227255   5.555   4.527   0.145
 8786SOL     OW27256   1.682   6.765   0.069
 8786SOL    HW127257   1.760   6.825   0.079
 8786SOL    HW227258   1.619   6.778   0.146
 8787SOL     OW27259   1.870   3.551   1.459
 8787SOL    HW127260   1.891   3.607   1.380
 8787SOL    HW227261   1.890   3.602   1.543
 8788SOL     OW27262   0.199   2.099   5.474
 8788SOL    HW127263   0.109   2.105   5.431
 8788SOL    HW227264   0.251   2.024   5.432
 8789SOL     OW27265   6.507   0.562   6.524
 8789SOL    HW127266   6.441   0.579   6.597
 8789SOL    HW227267   6.483   0.619   6.445
 8790SOL     OW27268   6.325   1.520   6.939
 8790SOL    HW127269   6.369   1.563   7.018
 8790SOL    HW227270   6.269   1.443   6.969
 8791SOL     OW27271   4.800   6.520   6.038
 8791SOL    HW127272   4.882   6.523   6.095
 8791SOL    HW227273   4.819   6.558   5.948
 8792SOL     OW27274   4.603   6.662   2.907
 8792SOL    HW127275   4.632   6.754   2.880
 8792SOL    HW227276   4.542   6.668   2.986
 8793SOL     OW27277   1.882   6.094   3.513
 8793SOL    HW127278   1.869   6.100   3.612
 8793SOL    HW227279   1.808   6.040   3.473
 8794SOL     OW27280   2.234   0.182   2.710
 8794SOL    HW127281   2.260   0.225   2.624
 8794SOL    HW227282   2.246   0.083   2.704
 8795SOL     OW27283   1.652   6.627   5.784
 8795SOL    HW127284   1.574   6.604   5.842
 8795SOL    HW227285   1.696   6.710   5.819
 8796SOL     OW27286   4.846   2.289   5.532
 8796SOL    HW127287   4.753   2.254   5.547
 8796SOL    HW227288   4.857   2.315   5.436
 8797SOL     OW27289   0.458   7.018   6.149
 8797SOL    HW127290   0.474   0.040   6.060
 8797SOL    HW227291   0.456   0.070   6.219
 8798SOL     OW27292   5.413   3.379   5.023
 8798SOL    HW127293   5.370   3.391   5.112
 8798SOL    HW227294   5.469   3.297   5.023
 8799SOL     OW27295   3.057   5.043   3.094
 8799SOL    HW127296   3.082   4.972   3.028
 8799SOL    HW227297   3.078   5.010   3.187
 8800SOL     OW27298   4.634   5.007   6.382
 8800SOL    HW127299   4.676   5.077   6.440
 8800SOL    HW227300   4.689   4.993   6.300
 8801SOL     OW27301   2.557   1.346   4.218
 8801SOL    HW127302   2.568   1.313   4.312
 8801SOL    HW227303   2.647   1.373   4.182
 8802SOL     OW27304   2.022   6.182   2.267
 8802SOL    HW127305   2.011   6.276   2.234
 8802SOL    HW227306   2.037   6.183   2.366
 8803SOL     OW27307   2.912   5.610   6.845
 8803SOL    HW127308   2.911   5.568   6.936
 8803SOL    HW227309   2.879   5.545   6.777
 8804SOL     OW27310   4.287   0.384   1.033
 8804SOL    HW127311   4.235   0.467   1.011
 8804SOL    HW227312   4.380   0.410   1.059
 8805SOL     OW27313   0.543   0.123   3.258
 8805SOL    HW127314   0.608   0.187   3.299
 8805SOL    HW227315   0.455   0.130   3.304
 8806SOL     OW27316   1.476   5.181   0.402
 8806SOL    HW127317   1.554   5.118   0.405
 8806SOL    HW227318   1.492   5.257   0.465
 8807SOL     OW27319   0.701   6.044   5.896
 8807SOL    HW127320   0.798   6.055   5.871
 8807SOL    HW227321   0.661   5.970   5.843
 8808SOL     OW27322   5.336   1.131   0.134
 8808SOL    HW127323   5.361   1.164   0.225
 8808SOL    HW227324   5.398   1.058   0.106
 8809SOL     OW27325   5.723   3.802   1.464
 8809SOL    HW127326   5.709   3.811   1.366
 8809SOL    HW227327   5.822   3.798   1.483
 8810SOL     OW27328   4.327   1.393   3.563
 8810SOL    HW127329   4.231   1.378   3.584
 8810SOL    HW227330   4.364   1.312   3.518
 8811SOL     OW27331   1.925   1.789   3.467
 8811SOL    HW127332   1.915   1.775   3.566
 8811SOL    HW227333   1.919   1.701   3.421
 8812SOL     OW27334   1.396   1.177   0.519
 8812SOL    HW127335   1.318   1.188   0.458
 8812SOL    HW227336   1.408   1.260   0.574
 8813SOL     OW27337   1.689   0.026   2.192
 8813SOL    HW127338   1.754   0.100   2.177
 8813SOL    HW227339   1.606   0.061   2.234
 8814SOL     OW27340   5.758   0.808   6.618
 8814SOL    HW127341   5.826   0.880   6.603
 8814SOL    HW227342   5.767   0.739   6.547
 8815SOL     OW27343   0.128   5.951   2.528
 8815SOL    HW127344   0.141   5.899   2.444
 8815SOL    HW227345   0.059   6.022   2.513
 8816SOL     OW27346   1.191   6.000   1.656
 8816SOL    HW127347   1.228   5.943   1.730
 8816SOL    HW227348   1.097   6.025   1.677
 8817SOL     OW27349   1.589   5.710   5.202
 8817SOL    HW127350   1.536   5.771   5.142
 8817SOL    HW227351   1.532   5.680   5.278
 8818SOL     OW27352   0.527   4.781   3.879
 8818SOL    HW127353   0.486   4.788   3.970
 8818SOL    HW227354   0.559   4.687   3.863
 8819SOL     OW27355   5.235   6.401   4.179
 8819SOL    HW127356   5.316   6.456   4.158
 8819SOL    HW227357   5.220   6.334   4.106
 8820SOL     OW27358   1.562   2.438   4.458
 8820SOL    HW127359   1.611   2.381   4.524
 8820SOL    HW227360   1.554   2.531   4.494
 8821SOL     OW27361   2.704   0.270   6.201
 8821SOL    HW127362   2.647   0.255   6.121
 8821SOL    HW227363   2.748   0.360   6.195
 8822SOL     OW27364   0.823   1.598   3.789
 8822SOL    HW127365   0.820   1.583   3.690
 8822SOL    HW227366   0.837   1.511   3.836
 8823SOL     OW27367   1.662   6.695   0.815
 8823SOL    HW127368   1.695   6.748   0.737
 8823SOL    HW227369   1.642   6.602   0.786
 8824SOL     OW27370   3.553   3.829   0.549
 8824SOL    HW127371   3.591   3.760   0.610
 8824SOL    HW227372   3.455   3.811   0.534
 8825SOL     OW27373   0.938   1.440   2.109
 8825SOL    HW127374   1.035   1.451   2.088
 8825SOL    HW227375   0.892   1.394   2.033
 8826SOL     OW27376   5.339   1.235   6.308
 8826SOL    HW127377   5.426   1.279   6.330
 8826SOL    HW227378   5.308   1.181   6.386
 8827SOL     OW27379   1.894   1.467   3.459
 8827SOL    HW127380   1.968   1.407   3.429
 8827SOL    HW227381   1.806   1.422   3.442
 8828SOL     OW27382   3.034   6.486   2.531
 8828SOL    HW127383   2.982   6.557   2.579
 8828SOL    HW227384   3.102   6.447   2.593
 8829SOL     OW27385   0.043   2.066   6.859
 8829SOL    HW127386   0.090   2.039   6.944
 8829SOL    HW227387   0.107   2.062   6.783
 8830SOL     OW27388   0.879   1.599   0.099
 8830SOL    HW127389   0.851   1.635   0.011
 8830SOL    HW227390   0.968   1.637   0.124
 8831SOL     OW27391   6.572   0.998   3.125
 8831SOL    HW127392   6.659   0.949   3.135
 8831SOL    HW227393   6.584   1.073   3.059
 8832SOL     OW27394   6.441   0.472   2.681
 8832SOL    HW127395   6.494   0.466   2.596
 8832SOL    HW227396   6.351   0.511   2.662
 8833SOL     OW27397   2.337   5.231   4.462
 8833SOL    HW127398   2.399   5.155   4.448
 8833SOL    HW227399   2.383   5.303   4.514
 8834SOL     OW27400   6.093   3.071   4.764
 8834SOL    HW127401   6.165   3.140   4.760
 8834SOL    HW227402   6.067   3.055   4.859
 8835SOL     OW27403   6.950   6.398   5.730
 8835SOL    HW127404   6.995   6.309   5.723
 8835SOL    HW227405   6.927   6.431   5.639
 8836SOL     OW27406   4.351   1.248   6.695
 8836SOL    HW127407   4.383   1.159   6.730
 8836SOL    HW227408   4.386   1.321   6.754
 8837SOL     OW27409   0.253   0.856   1.632
 8837SOL    HW127410   0.202   0.925   1.683
 8837SOL    HW227411   0.351   0.873   1.643
 8838SOL     OW27412   2.809   5.165   3.074
 8838SOL    HW127413   2.902   5.129   3.077
 8838SOL    HW227414   2.777   5.166   2.979
 8839SOL     OW27415   6.330   6.216   3.766
 8839SOL    HW127416   6.335   6.118   3.748
 8839SOL    HW227417   6.399   6.263   3.710
 8840SOL     OW27418   5.710   2.295   2.115
 8840SOL    HW127419   5.772   2.228   2.074
 8840SOL    HW227420   5.750   2.332   2.199
 8841SOL     OW27421   0.779   1.749   5.586
 8841SOL    HW127422   0.762   1.833   5.535
 8841SOL    HW227423   0.756   1.670   5.529
 8842SOL     OW27424   2.301   2.697   2.073
 8842SOL    HW127425   2.323   2.770   2.138
 8842SOL    HW227426   2.364   2.699   1.996
 8843SOL     OW27427   1.206   2.667   4.964
 8843SOL    HW127428   1.181   2.666   4.867
 8843SOL    HW227429   1.123   2.670   5.019
 8844SOL     OW27430   6.433   0.592   6.057
 8844SOL    HW127431   6.362   0.523   6.067
 8844SOL    HW227432   6.399   0.681   6.088
 8845SOL     OW27433   4.915   4.339   0.179
 8845SOL    HW127434   4.973   4.399   0.125
 8845SOL    HW227435   4.931   4.355   0.277
 8846SOL     OW27436   2.163   4.547   3.963
 8846SOL    HW127437   2.161   4.569   3.865
 8846SOL    HW227438   2.186   4.450   3.974
 8847SOL     OW27439   3.400   0.155   2.094
 8847SOL    HW127440   3.370   0.125   2.003
 8847SOL    HW227441   3.412   0.255   2.093
 8848SOL     OW27442   1.763   0.672   2.255
 8848SOL    HW127443   1.683   0.705   2.206
 8848SOL    HW227444   1.734   0.618   2.334
 8849SOL     OW27445   2.542   6.645   1.337
 8849SOL    HW127446   2.577   6.630   1.245
 8849SOL    HW227447   2.493   6.563   1.367
 8850SOL     OW27448   3.552   2.326   6.634
 8850SOL    HW127449   3.577   2.310   6.729
 8850SOL    HW227450   3.568   2.243   6.581
 8851SOL     OW27451   1.510   4.655   2.641
 8851SOL    HW127452   1.599   4.699   2.654
 8851SOL    HW227453   1.489   4.650   2.544
 8852SOL     OW27454   1.217   1.493   6.135
 8852SOL    HW127455   1.154   1.453   6.202
 8852SOL    HW227456   1.177   1.578   6.099
 8853SOL     OW27457   3.958   1.074   0.201
 8853SOL    HW127458   3.888   1.124   0.150
 8853SOL    HW227459   3.949   1.093   0.298
 8854SOL     OW27460   1.367   3.130   5.142
 8854SOL    HW127461   1.313   3.211   5.166
 8854SOL    HW227462   1.429   3.152   5.067
 8855SOL     OW27463   5.687   5.041   0.764
 8855SOL    HW127464   5.686   5.016   0.667
 8855SOL    HW227465   5.622   5.115   0.780
 8856SOL     OW27466   0.700   5.651   6.433
 8856SOL    HW127467   0.636   5.609   6.370
 8856SOL    HW227468   0.713   5.747   6.409
 8857SOL     OW27469   6.501   1.278   5.622
 8857SOL    HW127470   6.506   1.333   5.539
 8857SOL    HW227471   6.545   1.327   5.697
 8858SOL     OW27472   6.188   4.902   4.474
 8858SOL    HW127473   6.103   4.949   4.448
 8858SOL    HW227474   6.181   4.805   4.450
 8859SOL     OW27475   0.594   0.477   3.640
 8859SOL    HW127476   0.613   0.560   3.691
 8859SOL    HW227477   0.521   0.493   3.574
 8860SOL     OW27478   6.985   2.384   1.949
 8860SOL    HW127479   6.915   2.312   1.947
 8860SOL    HW227480   0.044   2.356   1.895
 8861SOL     OW27481   4.662   2.499   1.613
 8861SOL    HW127482   4.705   2.468   1.529
 8861SOL    HW227483   4.732   2.514   1.683
 8862SOL     OW27484   4.816   5.067   5.118
 8862SOL    HW127485   4.719   5.045   5.104
 8862SOL    HW227486   4.872   5.013   5.055
 8863SOL     OW27487   2.266   4.001   3.789
 8863SOL    HW127488   2.231   3.915   3.827
 8863SOL    HW227489   2.230   4.013   3.697
 8864SOL     OW27490   5.762   1.462   5.502
 8864SOL    HW127491   5.806   1.495   5.586
 8864SOL    HW227492   5.802   1.374   5.477
 8865SOL     OW27493   2.053   1.629   6.565
 8865SOL    HW127494   2.014   1.714   6.530
 8865SOL    HW227495   2.079   1.570   6.488
 8866SOL     OW27496   6.055   5.833   2.340
 8866SOL    HW127497   5.964   5.832   2.297
 8866SOL    HW227498   6.064   5.916   2.395
 8867SOL     OW27499   6.365   3.937   2.367
 8867SOL    HW127500   6.436   3.940   2.296
 8867SOL    HW227501   6.314   4.023   2.365
 8868SOL     OW27502   0.307   3.687   3.587
 8868SOL    HW127503   0.256   3.666   3.504
 8868SOL    HW227504   0.364   3.768   3.572
 8869SOL     OW27505   3.269   6.411   3.587
 8869SOL    HW127506   3.324   6.358   3.522
 8869SOL    HW227507   3.243   6.353   3.664
 8870SOL     OW27508   1.606   0.426   2.418
 8870SOL    HW127509   1.580   0.497   2.484
 8870SOL    HW227510   1.547   0.347   2.429
 8871SOL     OW27511   0.538   0.830   2.812
 8871SOL    HW127512   0.595   0.912   2.817
 8871SOL    HW227513   0.531   0.799   2.717
 8872SOL     OW27514   0.500   4.830   4.547
 8872SOL    HW127515   0.409   4.812   4.585
 8872SOL    HW227516   0.506   4.790   4.456
 8873SOL     OW27517   1.481   0.668   2.557
 8873SOL    HW127518   1.442   0.651   2.647
 8873SOL    HW227519   1.412   0.650   2.487
 8874SOL     OW27520   3.226   5.803   0.504
 8874SOL    HW127521   3.293   5.849   0.563
 8874SOL    HW227522   3.242   5.828   0.409
 8875SOL     OW27523   0.254   3.246   3.706
 8875SOL    HW127524   0.198   3.316   3.749
 8875SOL    HW227525   0.202   3.200   3.633
 8876SOL     OW27526   3.580   0.616   6.217
 8876SOL    HW127527   3.633   0.595   6.135
 8876SOL    HW227528   3.501   0.554   6.222
 8877SOL     OW27529   1.804   4.491   1.245
 8877SOL    HW127530   1.861   4.486   1.163
 8877SOL    HW227531   1.755   4.404   1.256
 8878SOL     OW27532   4.394   3.822   0.897
 8878SOL    HW127533   4.461   3.891   0.870
 8878SOL    HW227534   4.360   3.842   0.988
 8879SOL     OW27535   5.781   4.821   2.819
 8879SOL    HW127536   5.821   4.889   2.757
 8879SOL    HW227537   5.766   4.736   2.769
 8880SOL     OW27538   4.413   6.837   4.110
 8880SOL    HW127539   4.480   6.893   4.062
 8880SOL    HW227540   4.421   6.852   4.209
 8881SOL     OW27541   4.185   5.114   4.564
 8881SOL    HW127542   4.249   5.188   4.583
 8881SOL    HW227543   4.199   5.082   4.470
 8882SOL     OW27544   4.317   0.643   0.805
 8882SOL    HW127545   4.236   0.613   0.856
 8882SOL    HW227546   4.399   0.615   0.854
 8883SOL     OW27547   6.966   6.382   4.793
 8883SOL    HW127548   6.903   6.433   4.852
 8883SOL    HW227549   0.030   6.362   4.843
 8884SOL     OW27550   5.305   3.550   4.854
 8884SOL    HW127551   5.208   3.547   4.876
 8884SOL    HW227552   5.355   3.488   4.914
 8885SOL     OW27553   6.083   5.516   0.542
 8885SOL    HW127554   6.032   5.464   0.611
 8885SOL    HW227555   6.172   5.544   0.580
 8886SOL     OW27556   3.417   5.674   6.497
 8886SOL    HW127557   3.401   5.642   6.404
 8886SOL    HW227558   3.337   5.724   6.530
 8887SOL     OW27559   5.233   1.373   1.656
 8887SOL    HW127560   5.222   1.472   1.656
 8887SOL    HW227561   5.242   1.340   1.750
 8888SOL     OW27562   2.376   1.522   3.644
 8888SOL    HW127563   2.425   1.442   3.608
 8888SOL    HW227564   2.386   1.598   3.580
 8889SOL     OW27565   0.410   6.483   6.161
 8889SOL    HW127566   0.429   6.415   6.232
 8889SOL    HW227567   0.464   6.461   6.080
 8890SOL     OW27568   0.363   6.921   0.347
 8890SOL    HW127569   0.425   6.845   0.326
 8890SOL    HW227570   0.273   6.885   0.370
 8891SOL     OW27571   6.027   4.255   0.252
 8891SOL    HW127572   6.004   4.352   0.248
 8891SOL    HW227573   6.051   4.230   0.346
 8892SOL     OW27574   2.968   5.555   3.534
 8892SOL    HW127575   2.880   5.595   3.509
 8892SOL    HW227576   3.028   5.556   3.454
 8893SOL     OW27577   1.389   4.870   4.903
 8893SOL    HW127578   1.411   4.967   4.894
 8893SOL    HW227579   1.415   4.822   4.820
 8894SOL     OW27580   4.362   1.779   7.002
 8894SOL    HW127581   4.301   1.719   6.951
 8894SOL    HW227582   4.432   1.725   0.028
 8895SOL     OW27583   0.537   3.664   1.398
 8895SOL    HW127584   0.537   3.727   1.476
 8895SOL    HW227585   0.621   3.676   1.346
 8896SOL     OW27586   0.393   2.252   4.806
 8896SOL    HW127587   0.324   2.314   4.844
 8896SOL    HW227588   0.443   2.299   4.733
 8897SOL     OW27589   1.765   3.809   4.208
 8897SOL    HW127590   1.753   3.710   4.214
 8897SOL    HW227591   1.863   3.830   4.200
 8898SOL     OW27592   5.141   4.322   3.003
 8898SOL    HW127593   5.103   4.356   3.089
 8898SOL    HW227594   5.239   4.340   3.000
 8899SOL     OW27595   6.733   3.600   6.117
 8899SOL    HW127596   6.677   3.535   6.167
 8899SOL    HW227597   6.748   3.567   6.024
 8900SOL     OW27598   5.054   2.757   4.204
 8900SOL    HW127599   5.082   2.821   4.276
 8900SOL    HW227600   4.963   2.780   4.173
 8901SOL     OW27601   1.169   2.931   4.178
 8901SOL    HW127602   1.074   2.899   4.171
 8901SOL    HW227603   1.198   2.968   4.090
 8902SOL     OW27604   0.601   4.280   0.280
 8902SOL    HW127605   0.517   4.327   0.310
 8902SOL    HW227606   0.584   4.234   0.193
 8903SOL     OW27607   1.465   0.051   5.336
 8903SOL    HW127608   1.531   0.110   5.382
 8903SOL    HW227609   1.397   0.107   5.289
 8904SOL     OW27610   0.629   0.838   3.349
 8904SOL    HW127611   0.639   0.871   3.443
 8904SOL    HW227612   0.675   0.750   3.339
 8905SOL     OW27613   1.513   3.783   1.966
 8905SOL    HW127614   1.441   3.848   1.990
 8905SOL    HW227615   1.576   3.772   2.043
 8906SOL     OW27616   6.903   6.801   0.266
 8906SOL    HW127617   6.876   6.897   0.263
 8906SOL    HW227618   6.957   6.779   0.185
 8907SOL     OW27619   3.267   3.001   4.856
 8907SOL    HW127620   3.187   3.015   4.798
 8907SOL    HW227621   3.268   3.071   4.929
 8908SOL     OW27622   1.240   5.893   0.977
 8908SOL    HW127623   1.166   5.841   0.935
 8908SOL    HW227624   1.290   5.835   1.042
 8909SOL     OW27625   2.913   0.618   0.199
 8909SOL    HW127626   2.848   0.597   0.126
 8909SOL    HW227627   2.880   0.697   0.251
 8910SOL     OW27628   2.055   1.788   3.867
 8910SOL    HW127629   1.978   1.843   3.900
 8910SOL    HW227630   2.121   1.848   3.821
 8911SOL     OW27631   4.767   1.399   3.852
 8911SOL    HW127632   4.761   1.490   3.893
 8911SOL    HW227633   4.845   1.350   3.893
 8912SOL     OW27634   3.317   3.585   5.134
 8912SOL    HW127635   3.376   3.512   5.166
 8912SOL    HW227636   3.346   3.672   5.174
 8913SOL     OW27637   5.244   5.912   6.869
 8913SOL    HW127638   5.320   5.848   6.861
 8913SOL    HW227639   5.271   5.989   6.927
 8914SOL     OW27640   4.875   6.350   6.316
 8914SOL    HW127641   4.919   6.402   6.243
 8914SOL    HW227642   4.878   6.403   6.401
 8915SOL     OW27643   0.961   0.909   3.758
 8915SOL    HW127644   1.038   0.879   3.702
 8915SOL    HW227645   0.924   0.830   3.809
 8916SOL     OW27646   5.244   1.108   6.529
 8916SOL    HW127647   5.150   1.121   6.563
 8916SOL    HW227648   5.298   1.058   6.597
 8917SOL     OW27649   5.578   1.620   0.435
 8917SOL    HW127650   5.662   1.659   0.473
 8917SOL    HW227651   5.598   1.576   0.347
 8918SOL     OW27652   0.936   4.200   2.261
 8918SOL    HW127653   0.986   4.114   2.273
 8918SOL    HW227654   0.849   4.195   2.310
 8919SOL     OW27655   5.931   3.729   0.472
 8919SOL    HW127656   5.861   3.794   0.442
 8919SOL    HW227657   5.984   3.768   0.546
 8920SOL     OW27658   6.514   1.509   0.509
 8920SOL    HW127659   6.539   1.420   0.471
 8920SOL    HW227660   6.428   1.540   0.469
 8921SOL     OW27661   1.386   3.321   1.463
 8921SOL    HW127662   1.441   3.404   1.467
 8921SOL    HW227663   1.408   3.269   1.380
 8922SOL     OW27664   3.903   0.205   3.236
 8922SOL    HW127665   3.805   0.186   3.245
 8922SOL    HW227666   3.926   0.290   3.284
 8923SOL     OW27667   1.679   2.303   5.094
 8923SOL    HW127668   1.678   2.381   5.031
 8923SOL    HW227669   1.688   2.335   5.188
 8924SOL     OW27670   5.032   5.626   4.911
 8924SOL    HW127671   5.047   5.715   4.868
 8924SOL    HW227672   5.096   5.613   4.986
 8925SOL     OW27673   1.275   0.730   3.506
 8925SOL    HW127674   1.239   0.821   3.486
 8925SOL    HW227675   1.209   0.661   3.477
 8926SOL     OW27676   6.526   2.964   5.299
 8926SOL    HW127677   6.435   2.992   5.330
 8926SOL    HW227678   6.592   3.038   5.316
 8927SOL     OW27679   6.878   1.197   6.273
 8927SOL    HW127680   6.957   1.223   6.217
 8927SOL    HW227681   6.891   1.230   6.367
 8928SOL     OW27682   1.784   6.558   5.172
 8928SOL    HW127683   1.769   6.542   5.270
 8928SOL    HW227684   1.861   6.621   5.160
 8929SOL     OW27685   6.964   2.224   4.432
 8929SOL    HW127686   6.929   2.289   4.365
 8929SOL    HW227687   0.013   2.166   4.389
 8930SOL     OW27688   1.436   4.683   3.916
 8930SOL    HW127689   1.486   4.663   4.000
 8930SOL    HW227690   1.498   4.725   3.850
 8931SOL     OW27691   3.620   2.695   1.027
 8931SOL    HW127692   3.542   2.711   0.966
 8931SOL    HW227693   3.677   2.622   0.988
 8932SOL     OW27694   0.568   3.085   2.872
 8932SOL    HW127695   0.478   3.085   2.917
 8932SOL    HW227696   0.558   3.059   2.776
 8933SOL     OW27697   3.874   1.585   5.603
 8933SOL    HW127698   3.775   1.593   5.598
 8933SOL    HW227699   3.908   1.643   5.678
 8934SOL     OW27700   2.506   5.977   3.953
 8934SOL    HW127701   2.576   5.921   3.997
 8934SOL    HW227702   2.487   5.942   3.861
 8935SOL     OW27703   6.906   5.222   1.456
 8935SOL    HW127704   6.910   5.309   1.506
 8935SOL    HW227705   6.818   5.178   1.473
 8936SOL     OW27706   1.981   3.267   0.982
 8936SOL    HW127707   1.941   3.287   1.071
 8936SOL    HW227708   2.049   3.194   0.991
 8937SOL     OW27709   0.809   6.279   5.743
 8937SOL    HW127710   0.741   6.289   5.671
 8937SOL    HW227711   0.824   6.368   5.787
 8938SOL     OW27712   6.286   5.086   0.879
 8938SOL    HW127713   6.238   5.128   0.956
 8938SOL    HW227714   6.280   4.987   0.886
 8939SOL     OW27715   5.412   2.267   4.358
 8939SOL    HW127716   5.369   2.337   4.301
 8939SOL    HW227717   5.340   2.209   4.398
 8940SOL     OW27718   6.575   0.898   3.603
 8940SOL    HW127719   6.639   0.975   3.606
 8940SOL    HW227720   6.481   0.932   3.615
 8941SOL     OW27721   5.340   2.613   6.440
 8941SOL    HW127722   5.317   2.616   6.537
 8941SOL    HW227723   5.348   2.517   6.411
 8942SOL     OW27724   0.375   2.205   5.179
 8942SOL    HW127725   0.315   2.284   5.169
 8942SOL    HW227726   0.322   2.121   5.163
 8943SOL     OW27727   4.889   3.291   1.122
 8943SOL    HW127728   4.844   3.205   1.097
 8943SOL    HW227729   4.849   3.327   1.206
 8944SOL     OW27730   4.276   5.580   0.842
 8944SOL    HW127731   4.251   5.505   0.782
 8944SOL    HW227732   4.354   5.552   0.899
 8945SOL     OW27733   2.342   0.699   4.396
 8945SOL    HW127734   2.345   0.608   4.437
 8945SOL    HW227735   2.272   0.701   4.325
 8946SOL     OW27736   3.604   1.942   4.870
 8946SOL    HW127737   3.513   1.976   4.848
 8946SOL    HW227738   3.673   2.004   4.832
 8947SOL     OW27739   4.148   3.435   5.425
 8947SOL    HW127740   4.063   3.421   5.374
 8947SOL    HW227741   4.177   3.530   5.413
 8948SOL     OW27742   5.559   4.810   3.285
 8948SOL    HW127743   5.506   4.799   3.369
 8948SOL    HW227744   5.644   4.758   3.291
 8949SOL     OW27745   1.264   6.773   0.104
 8949SOL    HW127746   1.268   6.870   0.079
 8949SOL    HW227747   1.170   6.748   0.127
 8950SOL     OW27748   4.664   2.851   4.930
 8950SOL    HW127749   4.586   2.913   4.920
 8950SOL    HW227750   4.748   2.899   4.905
 8951SOL     OW27751   1.609   2.687   5.466
 8951SOL    HW127752   1.568   2.613   5.412
 8951SOL    HW227753   1.597   2.774   5.419
 8952SOL     OW27754   0.997   1.300   2.996
 8952SOL    HW127755   1.003   1.364   3.072
 8952SOL    HW227756   0.922   1.236   3.011
 8953SOL     OW27757   1.904   3.398   0.115
 8953SOL    HW127758   1.934   3.383   0.020
 8953SOL    HW227759   1.957   3.472   0.155
 8954SOL     OW27760   1.801   6.143   6.487
 8954SOL    HW127761   1.754   6.200   6.554
 8954SOL    HW227762   1.887   6.109   6.526
 8955SOL     OW27763   6.799   4.295   3.488
 8955SOL    HW127764   6.897   4.292   3.472
 8955SOL    HW227765   6.751   4.310   3.401
 8956SOL     OW27766   0.223   0.606   6.178
 8956SOL    HW127767   0.269   0.565   6.099
 8956SOL    HW227768   0.229   0.705   6.173
 8957SOL     OW27769   2.605   4.687   2.456
 8957SOL    HW127770   2.658   4.767   2.485
 8957SOL    HW227771   2.625   4.668   2.360
 8958SOL     OW27772   1.836   6.566   4.497
 8958SOL    HW127773   1.902   6.640   4.513
 8958SOL    HW227774   1.812   6.523   4.584
 8959SOL     OW27775   0.877   4.721   0.574
 8959SOL    HW127776   0.952   4.757   0.630
 8959SOL    HW227777   0.907   4.713   0.479
 8960SOL     OW27778   3.661   5.637   1.871
 8960SOL    HW127779   3.564   5.658   1.886
 8960SOL    HW227780   3.706   5.714   1.826
 8961SOL     OW27781   1.805   2.416   3.800
 8961SOL    HW127782   1.709   2.441   3.786
 8961SOL    HW227783   1.830   2.343   3.736
 8962SOL     OW27784   5.974   0.677   3.475
 8962SOL    HW127785   5.907   0.603   3.477
 8962SOL    HW227786   6.063   0.643   3.506
 8963SOL     OW27787   5.856   0.714   4.413
 8963SOL    HW127788   5.818   0.645   4.475
 8963SOL    HW227789   5.794   0.724   4.335
 8964SOL     OW27790   5.189   4.571   1.957
 8964SOL    HW127791   5.250   4.633   2.008
 8964SOL    HW227792   5.110   4.622   1.924
 8965SOL     OW27793   1.650   5.300   1.638
 8965SOL    HW127794   1.670   5.236   1.563
 8965SOL    HW227795   1.561   5.342   1.623
 8966SOL     OW27796   1.959   2.571   6.221
 8966SOL    HW127797   1.875   2.625   6.224
 8966SOL    HW227798   2.034   2.624   6.262
 8967SOL     OW27799   4.122   0.648   0.393
 8967SOL    HW127800   4.042   0.649   0.453
 8967SOL    HW227801   4.156   0.554   0.385
 8968SOL     OW27802   5.322   6.183   1.433
 8968SOL    HW127803   5.276   6.271   1.433
 8968SOL    HW227804   5.258   6.112   1.404
 8969SOL     OW27805   5.993   0.996   3.801
 8969SOL    HW127806   5.935   1.077   3.800
 8969SOL    HW227807   6.040   0.989   3.889
 8970SOL     OW27808   3.413   2.553   1.498
 8970SOL    HW127809   3.316   2.574   1.512
 8970SOL    HW227810   3.467   2.598   1.569
 8971SOL     OW27811   3.800   5.457   2.039
 8971SOL    HW127812   3.754   5.522   1.979
 8971SOL    HW227813   3.777   5.364   2.011
 8972SOL     OW27814   5.391   6.148   5.471
 8972SOL    HW127815   5.344   6.067   5.435
 8972SOL    HW227816   5.417   6.132   5.567
 8973SOL     OW27817   1.339   4.683   0.511
 8973SOL    HW127818   1.336   4.695   0.412
 8973SOL    HW227819   1.263   4.734   0.552
 8974SOL     OW27820   0.830   3.994   6.108
 8974SOL    HW127821   0.779   3.961   6.187
 8974SOL    HW227822   0.909   4.047   6.138
 8975SOL     OW27823   2.974   0.247   0.803
 8975SOL    HW127824   3.053   0.233   0.743
 8975SOL    HW227825   2.890   0.221   0.755
 8976SOL     OW27826   1.800   5.402   4.669
 8976SOL    HW127827   1.777   5.499   4.666
 8976SOL    HW227828   1.804   5.366   4.576
 8977SOL     OW27829   6.317   1.673   5.646
 8977SOL    HW127830   6.350   1.610   5.576
 8977SOL    HW227831   6.256   1.624   5.709
 8978SOL     OW27832   5.768   6.475   0.247
 8978SOL    HW127833   5.708   6.404   0.210
 8978SOL    HW227834   5.854   6.434   0.278
 8979SOL     OW27835   1.838   3.871   4.614
 8979SOL    HW127836   1.828   3.772   4.624
 8979SOL    HW227837   1.930   3.898   4.642
 8980SOL     OW27838   3.549   3.429   4.731
 8980SOL    HW127839   3.490   3.350   4.747
 8980SOL    HW227840   3.500   3.496   4.675
 8981SOL     OW27841   3.409   1.548   4.848
 8981SOL    HW127842   3.411   1.592   4.938
 8981SOL    HW227843   3.384   1.615   4.778
 8982SOL     OW27844   3.019   4.317   0.574
 8982SOL    HW127845   3.048   4.229   0.537
 8982SOL    HW227846   3.063   4.391   0.524
 8983SOL     OW27847   4.021   5.382   0.219
 8983SOL    HW127848   4.120   5.378   0.209
 8983SOL    HW227849   3.995   5.463   0.271
 8984SOL     OW27850   2.346   5.964   3.227
 8984SOL    HW127851   2.294   5.879   3.239
 8984SOL    HW227852   2.372   5.973   3.131
 8985SOL     OW27853   3.776   3.246   0.025
 8985SOL    HW127854   3.730   3.166   0.063
 8985SOL    HW227855   3.871   3.248   0.056
 8986SOL     OW27856   3.707   4.901   3.017
 8986SOL    HW127857   3.738   4.968   3.085
 8986SOL    HW227858   3.626   4.855   3.052
 8987SOL     OW27859   5.221   5.743   2.626
 8987SOL    HW127860   5.235   5.708   2.718
 8987SOL    HW227861   5.270   5.685   2.561
 8988SOL     OW27862   0.583   5.302   4.240
 8988SOL    HW127863   0.598   5.245   4.160
 8988SOL    HW227864   0.662   5.361   4.256
 8989SOL     OW27865   4.338   2.935   6.466
 8989SOL    HW127866   4.365   2.857   6.523
 8989SOL    HW227867   4.296   3.005   6.524
 8990SOL     OW27868   0.329   5.091   4.036
 8990SOL    HW127869   0.287   5.077   3.946
 8990SOL    HW227870   0.422   5.126   4.024
 8991SOL     OW27871   1.606   2.361   4.743
 8991SOL    HW127872   1.670   2.421   4.791
 8991SOL    HW227873   1.513   2.379   4.774
 8992SOL     OW27874   6.241   2.171   6.987
 8992SOL    HW127875   6.201   2.082   6.964
 8992SOL    HW227876   6.319   2.189   6.927
 8993SOL     OW27877   3.857   3.346   6.156
 8993SOL    HW127878   3.789   3.307   6.094
 8993SOL    HW227879   3.920   3.274   6.186
 8994SOL     OW27880   2.081   4.661   4.736
 8994SOL    HW127881   1.996   4.627   4.777
 8994SOL    HW227882   2.065   4.752   4.698
 8995SOL     OW27883   0.028   1.609   1.503
 8995SOL    HW127884   0.121   1.572   1.511
 8995SOL    HW227885   0.020   1.662   1.419
 8996SOL     OW27886   5.026   3.971   6.781
 8996SOL    HW127887   4.967   3.921   6.718
 8996SOL    HW227888   5.115   3.927   6.785
 8997SOL     OW27889   5.533   1.164   5.264
 8997SOL    HW127890   5.583   1.138   5.182
 8997SOL    HW227891   5.568   1.251   5.298
 8998SOL     OW27892   6.111   4.031   3.868
 8998SOL    HW127893   6.104   4.027   3.968
 8998SOL    HW227894   6.170   4.107   3.842
 8999SOL     OW27895   4.582   0.089   5.893
 8999SOL    HW127896   4.674   0.121   5.869
 8999SOL    HW227897   4.516   0.162   5.876
 9000SOL     OW27898   1.581   4.484   1.561
 9000SOL    HW127899   1.670   4.451   1.594
 9000SOL    HW227900   1.517   4.407   1.556
 9001SOL     OW27901   7.005   5.021   2.442
 9001SOL    HW127902   0.015   4.941   2.496
 9001SOL    HW227903   6.913   5.047   2.471
 9002SOL     OW27904   1.238   4.118   5.608
 9002SOL    HW127905   1.292   4.100   5.525
 9002SOL    HW227906   1.144   4.138   5.582
 9003SOL     OW27907   5.147   2.223   1.149
 9003SOL    HW127908   5.206   2.169   1.088
 9003SOL    HW227909   5.181   2.317   1.153
 9004SOL     OW27910   4.499   5.094   0.621
 9004SOL    HW127911   4.544   5.173   0.580
 9004SOL    HW227912   4.480   5.026   0.550
 9005SOL     OW27913   5.423   1.372   5.768
 9005SOL    HW127914   5.498   1.399   5.828
 9005SOL    HW227915   5.428   1.274   5.750
 9006SOL     OW27916   3.265   0.340   0.747
 9006SOL    HW127917   3.303   0.328   0.838
 9006SOL    HW227918   3.252   0.250   0.704
 9007SOL     OW27919   2.594   1.307   2.461
 9007SOL    HW127920   2.576   1.286   2.557
 9007SOL    HW227921   2.558   1.398   2.440
 9008SOL     OW27922   0.054   5.525   2.841
 9008SOL    HW127923   0.151   5.528   2.862
 9008SOL    HW227924   0.029   5.607   2.788
 9009SOL     OW27925   3.890   5.313   0.783
 9009SOL    HW127926   3.900   5.397   0.836
 9009SOL    HW227927   3.947   5.318   0.702
 9010SOL     OW27928   2.267   6.433   4.002
 9010SOL    HW127929   2.285   6.334   4.000
 9010SOL    HW227930   2.291   6.473   3.913
 9011SOL     OW27931   4.665   0.850   2.583
 9011SOL    HW127932   4.763   0.873   2.582
 9011SOL    HW227933   4.649   0.779   2.652
 9012SOL     OW27934   2.615   5.623   0.636
 9012SOL    HW127935   2.583   5.660   0.549
 9012SOL    HW227936   2.544   5.634   0.705
 9013SOL     OW27937   1.496   6.855   4.592
 9013SOL    HW127938   1.577   6.822   4.640
 9013SOL    HW227939   1.424   6.786   4.597
 9014SOL     OW27940   6.378   2.574   1.822
 9014SOL    HW127941   6.461   2.525   1.796
 9014SOL    HW227942   6.298   2.522   1.794
 9015SOL     OW27943   4.927   2.800   0.785
 9015SOL    HW127944   4.927   2.886   0.836
 9015SOL    HW227945   4.847   2.798   0.724
 9016SOL     OW27946   5.722   5.218   6.631
 9016SOL    HW127947   5.673   5.244   6.548
 9016SOL    HW227948   5.661   5.229   6.710
 9017SOL     OW27949   3.385   1.270   4.835
 9017SOL    HW127950   3.371   1.367   4.853
 9017SOL    HW227951   3.391   1.220   4.921
 9018SOL     OW27952   3.635   3.239   6.790
 9018SOL    HW127953   3.691   3.276   6.864
 9018SOL    HW227954   3.539   3.242   6.816
 9019SOL     OW27955   1.207   3.497   3.042
 9019SOL    HW127956   1.303   3.473   3.032
 9019SOL    HW227957   1.152   3.437   2.983
 9020SOL     OW27958   6.608   5.638   1.755
 9020SOL    HW127959   6.708   5.627   1.752
 9020SOL    HW227960   6.565   5.548   1.757
 9021SOL     OW27961   7.000   0.203   3.754
 9021SOL    HW127962   0.025   0.178   3.840
 9021SOL    HW227963   6.902   0.186   3.762
 9022SOL     OW27964   3.563   2.703   6.548
 9022SOL    HW127965   3.542   2.694   6.645
 9022SOL    HW227966   3.570   2.800   6.524
 9023SOL     OW27967   3.927   3.178   1.073
 9023SOL    HW127968   4.000   3.223   1.021
 9023SOL    HW227969   3.968   3.111   1.136
 9024SOL     OW27970   0.954   5.026   5.795
 9024SOL    HW127971   0.966   5.119   5.762
 9024SOL    HW227972   0.944   4.964   5.717
 9025SOL     OW27973   0.543   5.821   0.804
 9025SOL    HW127974   0.452   5.862   0.816
 9025SOL    HW227975   0.542   5.762   0.724
 9026SOL     OW27976   3.746   1.519   0.087
 9026SOL    HW127977   3.812   1.571   0.142
 9026SOL    HW227978   3.795   1.467   0.017
 9027SOL     OW27979   0.993   3.897   3.527
 9027SOL    HW127980   0.966   3.809   3.565
 9027SOL    HW227981   0.936   3.918   3.447
 9028SOL     OW27982   3.631   3.578   5.241
 9028SOL    HW127983   3.637   3.677   5.232
 9028SOL    HW227984   3.643   3.536   5.151
 9029SOL     OW27985   4.294   0.491   4.633
 9029SOL    HW127986   4.250   0.573   4.595
 9029SOL    HW227987   4.252   0.410   4.593
 9030SOL     OW27988   2.301   2.688   4.156
 9030SOL    HW127989   2.373   2.657   4.218
 9030SOL    HW227990   2.234   2.614   4.143
 9031SOL     OW27991   4.641   0.147   4.705
 9031SOL    HW127992   4.685   0.154   4.794
 9031SOL    HW227993   4.711   0.150   4.633
 9032SOL     OW27994   5.088   3.521   1.160
 9032SOL    HW127995   5.008   3.463   1.144
 9032SOL    HW227996   5.058   3.616   1.169
 9033SOL     OW27997   0.672   4.990   2.346
 9033SOL    HW127998   0.758   5.035   2.321
 9033SOL    HW227999   0.597   5.054   2.335
 9034SOL     OW28000   3.415   6.376   4.787
 9034SOL    HW128001   3.480   6.316   4.740
 9034SOL    HW228002   3.447   6.470   4.782
 9035SOL     OW28003   2.417   5.898   0.195
 9035SOL    HW128004   2.412   5.904   0.095
 9035SOL    HW228005   2.512   5.909   0.224
 9036SOL     OW28006   1.134   3.651   4.714
 9036SOL    HW128007   1.091   3.594   4.643
 9036SOL    HW228008   1.133   3.602   4.801
 9037SOL     OW28009   0.883   2.430   3.805
 9037SOL    HW128010   0.944   2.508   3.791
 9037SOL    HW228011   0.935   2.345   3.797
 9038SOL     OW28012   4.457   3.085   6.294
 9038SOL    HW128013   4.406   3.029   6.360
 9038SOL    HW228014   4.451   3.042   6.203
 9039SOL     OW28015   3.432   4.908   6.943
 9039SOL    HW128016   3.480   4.889   6.857
 9039SOL    HW228017   3.493   4.959   7.004
 9040SOL     OW28018   2.038   2.366   1.986
 9040SOL    HW128019   1.975   2.301   2.028
 9040SOL    HW228020   2.083   2.420   2.057
 9041SOL     OW28021   0.372   2.397   0.891
 9041SOL    HW128022   0.448   2.393   0.826
 9041SOL    HW228023   0.331   2.306   0.901
 9042SOL     OW28024   3.303   5.746   5.364
 9042SOL    HW128025   3.220   5.700   5.396
 9042SOL    HW228026   3.287   5.845   5.361
 9043SOL     OW28027   2.574   1.217   6.683
 9043SOL    HW128028   2.585   1.271   6.600
 9043SOL    HW228029   2.581   1.276   6.763
 9044SOL     OW28030   0.493   0.257   7.014
 9044SOL    HW128031   0.526   0.219   0.080
 9044SOL    HW228032   0.553   0.227   6.940
 9045SOL     OW28033   4.285   0.404   3.238
 9045SOL    HW128034   4.232   0.489   3.229
 9045SOL    HW228035   4.271   0.366   3.330
 9046SOL     OW28036   3.603   3.148   2.689
 9046SOL    HW128037   3.557   3.144   2.777
 9046SOL    HW228038   3.555   3.212   2.629
 9047SOL     OW28039   1.710   4.278   5.641
 9047SOL    HW128040   1.640   4.325   5.694
 9047SOL    HW228041   1.737   4.194   5.687
 9048SOL     OW28042   5.870   2.487   6.424
 9048SOL    HW128043   5.826   2.553   6.484
 9048SOL    HW228044   5.885   2.529   6.334
 9049SOL     OW28045   3.223   6.775   6.327
 9049SOL    HW128046   3.215   6.857   6.385
 9049SOL    HW228047   3.308   6.727   6.348
 9050SOL     OW28048   0.651   4.502   1.546
 9050SOL    HW128049   0.554   4.521   1.531
 9050SOL    HW228050   0.679   4.425   1.489
 9051SOL     OW28051   2.913   1.516   1.348
 9051SOL    HW128052   3.001   1.563   1.360
 9051SOL    HW228053   2.857   1.528   1.430
 9052SOL     OW28054   1.811   2.992   4.468
 9052SOL    HW128055   1.852   3.072   4.425
 9052SOL    HW228056   1.876   2.916   4.467
 9053SOL     OW28057   2.111   1.827   1.327
 9053SOL    HW128058   2.160   1.787   1.404
 9053SOL    HW228059   2.165   1.901   1.287
 9054SOL     OW28060   2.821   5.581   3.879
 9054SOL    HW128061   2.876   5.641   3.820
 9054SOL    HW228062   2.879   5.508   3.915
 9055SOL     OW28063   0.149   4.210   4.852
 9055SOL    HW128064   0.111   4.295   4.814
 9055SOL    HW228065   0.249   4.216   4.853
 9056SOL     OW28066   6.006   2.154   2.467
 9056SOL    HW128067   5.936   2.149   2.396
 9056SOL    HW228068   5.974   2.108   2.550
 9057SOL     OW28069   4.466   1.276   4.485
 9057SOL    HW128070   4.527   1.222   4.542
 9057SOL    HW228071   4.487   1.373   4.496
 9058SOL     OW28072   1.466   0.473   6.281
 9058SOL    HW128073   1.420   0.412   6.345
 9058SOL    HW228074   1.517   0.543   6.332
 9059SOL     OW28075   1.378   2.397   2.456
 9059SOL    HW128076   1.338   2.376   2.367
 9059SOL    HW228077   1.463   2.448   2.443
 9060SOL     OW28078   4.948   2.868   4.646
 9060SOL    HW128079   5.021   2.897   4.707
 9060SOL    HW228080   4.925   2.772   4.666
 9061SOL     OW28081   4.839   5.188   2.453
 9061SOL    HW128082   4.817   5.282   2.428
 9061SOL    HW228083   4.824   5.176   2.551
 9062SOL     OW28084   1.431   5.423   1.592
 9062SOL    HW128085   1.371   5.446   1.668
 9062SOL    HW228086   1.473   5.506   1.555
 9063SOL     OW28087   2.741   1.745   3.578
 9063SOL    HW128088   2.818   1.747   3.513
 9063SOL    HW228089   2.761   1.681   3.651
 9064SOL     OW28090   6.391   3.426   6.833
 9064SOL    HW128091   6.342   3.367   6.898
 9064SOL    HW228092   6.488   3.401   6.832
 9065SOL     OW28093   3.021   0.975   0.483
 9065SOL    HW128094   2.993   1.053   0.426
 9065SOL    HW228095   2.956   0.900   0.470
 9066SOL     OW28096   5.189   6.551   0.050
 9066SOL    HW128097   5.117   6.549   0.119
 9066SOL    HW228098   5.192   6.640   0.006
 9067SOL     OW28099   1.543   6.780   3.500
 9067SOL    HW128100   1.481   6.795   3.424
 9067SOL    HW228101   1.635   6.760   3.466
 9068SOL     OW28102   1.673   6.007   6.075
 9068SOL    HW128103   1.741   6.042   6.139
 9068SOL    HW228104   1.583   6.004   6.120
 9069SOL     OW28105   1.949   2.375   6.011
 9069SOL    HW128106   1.944   2.435   6.091
 9069SOL    HW228107   2.044   2.348   5.996
 9070SOL     OW28108   1.434   4.397   4.698
 9070SOL    HW128109   1.339   4.369   4.687
 9070SOL    HW228110   1.484   4.383   4.613
 9071SOL     OW28111   6.234   6.563   0.041
 9071SOL    HW128112   6.249   6.630   0.114
 9071SOL    HW228113   6.314   6.559   7.002
 9072SOL     OW28114   6.541   4.149   0.002
 9072SOL    HW128115   6.542   4.116   6.928
 9072SOL    HW228116   6.629   4.129   0.045
 9073SOL     OW28117   1.666   1.090   2.297
 9073SOL    HW128118   1.638   1.078   2.202
 9073SOL    HW228119   1.594   1.137   2.348
 9074SOL     OW28120   1.301   0.061   3.534
 9074SOL    HW128121   1.380   0.122   3.530
 9074SOL    HW228122   1.271   0.040   3.442
 9075SOL     OW28123   6.605   0.557   2.454
 9075SOL    HW128124   6.591   0.563   2.355
 9075SOL    HW228125   6.577   0.643   2.496
 9076SOL     OW28126   6.726   0.775   5.673
 9076SOL    HW128127   6.653   0.828   5.629
 9076SOL    HW228128   6.686   0.696   5.719
 9077SOL     OW28129   5.626   6.024   2.166
 9077SOL    HW128130   5.540   6.061   2.130
 9077SOL    HW228131   5.684   5.994   2.089
 9078SOL     OW28132   4.003   3.201   4.642
 9078SOL    HW128133   3.953   3.132   4.590
 9078SOL    HW228134   4.024   3.279   4.583
 9079SOL     OW28135   3.125   6.758   5.585
 9079SOL    HW128136   3.099   6.664   5.605
 9079SOL    HW228137   3.158   6.802   5.669
 9080SOL     OW28138   5.736   2.325   0.535
 9080SOL    HW128139   5.665   2.392   0.555
 9080SOL    HW228140   5.794   2.359   0.461
 9081SOL     OW28141   5.700   6.370   2.124
 9081SOL    HW128142   5.701   6.397   2.220
 9081SOL    HW228143   5.785   6.323   2.101
 9082SOL     OW28144   3.091   1.182   3.976
 9082SOL    HW128145   3.074   1.204   3.880
 9082SOL    HW228146   3.182   1.142   3.986
 9083SOL     OW28147   5.003   4.726   4.722
 9083SOL    HW128148   5.056   4.724   4.807
 9083SOL    HW228149   4.910   4.695   4.740
 9084SOL     OW28150   3.181   4.057   3.199
 9084SOL    HW128151   3.225   4.115   3.130
 9084SOL    HW228152   3.086   4.040   3.172
 9085SOL     OW28153   1.885   2.321   1.271
 9085SOL    HW128154   1.850   2.266   1.348
 9085SOL    HW228155   1.981   2.299   1.256
 9086SOL     OW28156   0.724   4.016   1.398
 9086SOL    HW128157   0.654   3.987   1.333
 9086SOL    HW228158   0.812   4.026   1.350
 9087SOL     OW28159   4.906   3.615   2.235
 9087SOL    HW128160   4.844   3.679   2.188
 9087SOL    HW228161   4.947   3.553   2.168
 9088SOL     OW28162   5.503   0.957   6.604
 9088SOL    HW128163   5.421   0.914   6.641
 9088SOL    HW228164   5.583   0.899   6.622
 9089SOL     OW28165   4.393   0.191   5.512
 9089SOL    HW128166   4.307   0.142   5.520
 9089SOL    HW228167   4.405   0.250   5.591
 9090SOL     OW28168   5.464   1.108   4.535
 9090SOL    HW128169   5.489   1.198   4.571
 9090SOL    HW228170   5.379   1.115   4.484
 9091SOL     OW28171   3.226   3.739   6.617
 9091SOL    HW128172   3.309   3.789   6.643
 9091SOL    HW228173   3.146   3.784   6.657
 9092SOL     OW28174   6.651   2.786   0.072
 9092SOL    HW128175   6.710   2.842   0.130
 9092SOL    HW228176   6.687   2.787   6.998
 9093SOL     OW28177   1.669   6.768   5.545
 9093SOL    HW128178   1.613   6.846   5.572
 9093SOL    HW228179   1.657   6.693   5.611
 9094SOL     OW28180   0.425   3.305   1.817
 9094SOL    HW128181   0.454   3.363   1.893
 9094SOL    HW228182   0.399   3.215   1.852
 9095SOL     OW28183   5.392   5.994   5.213
 9095SOL    HW128184   5.460   5.945   5.159
 9095SOL    HW228185   5.432   6.080   5.246
 9096SOL     OW28186   6.389   5.425   2.425
 9096SOL    HW128187   6.337   5.439   2.509
 9096SOL    HW228188   6.484   5.454   2.439
 9097SOL     OW28189   1.113   2.987   6.057
 9097SOL    HW128190   1.021   2.957   6.029
 9097SOL    HW228191   1.180   2.918   6.028
 9098SOL     OW28192   1.580   3.560   4.417
 9098SOL    HW128193   1.489   3.586   4.449
 9098SOL    HW228194   1.582   3.565   4.317
 9099SOL     OW28195   2.142   3.740   6.996
 9099SOL    HW128196   2.184   3.650   6.979
 9099SOL    HW228197   2.140   3.792   6.911
 9100SOL     OW28198   1.147   4.587   2.896
 9100SOL    HW128199   1.118   4.504   2.848
 9100SOL    HW228200   1.087   4.662   2.871
 9101SOL     OW28201   1.598   2.168   1.937
 9101SOL    HW128202   1.636   2.228   2.006
 9101SOL    HW228203   1.508   2.136   1.966
 9102SOL     OW28204   4.517   6.209   2.901
 9102SOL    HW128205   4.586   6.151   2.945
 9102SOL    HW228206   4.559   6.297   2.877
 9103SOL     OW28207   5.826   1.755   0.500
 9103SOL    HW128208   5.828   1.855   0.503
 9103SOL    HW228209   5.828   1.720   0.593
 9104SOL     OW28210   5.965   1.046   6.879
 9104SOL    HW128211   6.048   0.995   6.900
 9104SOL    HW228212   5.885   0.987   6.891
 9105SOL     OW28213   2.234   0.372   6.306
 9105SOL    HW128214   2.166   0.321   6.359
 9105SOL    HW228215   2.191   0.454   6.268
 9106SOL     OW28216   1.589   4.956   0.132
 9106SOL    HW128217   1.584   5.041   0.080
 9106SOL    HW228218   1.655   4.966   0.206
 9107SOL     OW28219   2.337   1.181   6.960
 9107SOL    HW128220   2.433   1.187   6.934
 9107SOL    HW228221   2.281   1.228   6.893
 9108SOL     OW28222   5.735   4.861   5.910
 9108SOL    HW128223   5.763   4.914   5.990
 9108SOL    HW228224   5.775   4.770   5.915
 9109SOL     OW28225   5.302   2.650   2.973
 9109SOL    HW128226   5.240   2.577   2.943
 9109SOL    HW228227   5.335   2.700   2.893
 9110SOL     OW28228   1.470   6.014   4.450
 9110SOL    HW128229   1.467   5.922   4.490
 9110SOL    HW228230   1.378   6.052   4.449
 9111SOL     OW28231   4.337   2.892   5.331
 9111SOL    HW128232   4.247   2.848   5.333
 9111SOL    HW228233   4.326   2.991   5.342
 9112SOL     OW28234   1.182   5.331   2.343
 9112SOL    HW128235   1.207   5.323   2.439
 9112SOL    HW228236   1.150   5.242   2.309
 9113SOL     OW28237   5.256   1.796   3.598
 9113SOL    HW128238   5.169   1.749   3.614
 9113SOL    HW228239   5.308   1.747   3.528
 9114SOL     OW28240   1.258   5.835   5.093
 9114SOL    HW128241   1.311   5.879   5.165
 9114SOL    HW228242   1.187   5.897   5.061
 9115SOL     OW28243   5.720   4.402   4.233
 9115SOL    HW128244   5.665   4.321   4.254
 9115SOL    HW228245   5.714   4.422   4.136
 9116SOL     OW28246   1.113   6.764   3.242
 9116SOL    HW128247   1.077   6.843   3.290
 9116SOL    HW228248   1.048   6.735   3.172
 9117SOL     OW28249   4.030   0.760   6.684
 9117SOL    HW128250   4.000   0.840   6.632
 9117SOL    HW228251   3.967   0.684   6.668
 9118SOL     OW28252   6.353   4.168   1.363
 9118SOL    HW128253   6.315   4.166   1.455
 9118SOL    HW228254   6.426   4.236   1.358
 9119SOL     OW28255   3.601   0.325   0.816
 9119SOL    HW128256   3.525   0.286   0.867
 9119SOL    HW228257   3.566   0.371   0.734
 9120SOL     OW28258   6.019   3.138   5.423
 9120SOL    HW128259   6.030   3.232   5.455
 9120SOL    HW228260   6.047   3.074   5.495
 9121SOL     OW28261   3.214   0.844   4.778
 9121SOL    HW128262   3.167   0.774   4.832
 9121SOL    HW228263   3.181   0.842   4.684
 9122SOL     OW28264   2.363   4.407   2.437
 9122SOL    HW128265   2.430   4.368   2.374
 9122SOL    HW228266   2.409   4.442   2.518
 9123SOL     OW28267   0.953   0.090   3.900
 9123SOL    HW128268   1.004   0.047   3.826
 9123SOL    HW228269   1.017   0.122   3.970
 9124SOL     OW28270   2.875   5.552   1.630
 9124SOL    HW128271   2.896   5.456   1.649
 9124SOL    HW228272   2.792   5.558   1.574
 9125SOL     OW28273   4.787   6.084   1.226
 9125SOL    HW128274   4.887   6.087   1.219
 9125SOL    HW228275   4.749   6.174   1.204
 9126SOL     OW28276   3.822   4.725   0.169
 9126SOL    HW128277   3.837   4.632   0.203
 9126SOL    HW228278   3.728   4.753   0.189
 9127SOL     OW28279   0.116   4.183   5.290
 9127SOL    HW128280   0.182   4.232   5.232
 9127SOL    HW228281   0.036   4.160   5.236
 9128SOL     OW28282   5.924   3.460   5.337
 9128SOL    HW128283   5.979   3.451   5.421
 9128SOL    HW228284   5.830   3.433   5.356
 9129SOL     OW28285   1.485   2.670   0.662
 9129SOL    HW128286   1.522   2.674   0.755
 9129SOL    HW228287   1.439   2.756   0.640
 9130SOL     OW28288   2.727   4.015   5.289
 9130SOL    HW128289   2.636   4.016   5.247
 9130SOL    HW228290   2.763   4.108   5.292
 9131SOL     OW28291   5.198   2.481   1.186
 9131SOL    HW128292   5.195   2.540   1.266
 9131SOL    HW228293   5.175   2.534   1.104
 9132SOL     OW28294   6.943   4.570   3.612
 9132SOL    HW128295   6.924   4.537   3.705
 9132SOL    HW228296   0.010   4.532   3.581
 9133SOL     OW28297   4.664   1.358   0.563
 9133SOL    HW128298   4.756   1.340   0.597
 9133SOL    HW228299   4.660   1.339   0.465
 9134SOL     OW28300   3.998   5.241   0.505
 9134SOL    HW128301   4.040   5.316   0.556
 9134SOL    HW228302   3.910   5.270   0.467
 9135SOL     OW28303   0.097   6.403   2.692
 9135SOL    HW128304   0.154   6.358   2.624
 9135SOL    HW228305   0.001   6.383   2.673
 9136SOL     OW28306   6.074   4.245   6.717
 9136SOL    HW128307   5.994   4.200   6.678
 9136SOL    HW228308   6.057   4.344   6.722
 9137SOL     OW28309   5.395   6.230   6.291
 9137SOL    HW128310   5.461   6.248   6.364
 9137SOL    HW228311   5.380   6.314   6.238
 9138SOL     OW28312   3.274   3.185   0.854
 9138SOL    HW128313   3.253   3.194   0.757
 9138SOL    HW228314   3.200   3.226   0.908
 9139SOL     OW28315   0.041   0.039   0.958
 9139SOL    HW128316   0.099   6.977   0.959
 9139SOL    HW228317   0.098   0.120   0.964
 9140SOL     OW28318   0.931   3.843   2.837
 9140SOL    HW128319   0.899   3.894   2.916
 9140SOL    HW228320   1.019   3.800   2.857
 9141SOL     OW28321   6.601   5.604   5.681
 9141SOL    HW128322   6.589   5.671   5.608
 9141SOL    HW228323   6.694   5.609   5.717
 9142SOL     OW28324   1.433   4.357   4.221
 9142SOL    HW128325   1.408   4.314   4.135
 9142SOL    HW228326   1.525   4.397   4.213
 9143SOL     OW28327   0.202   4.105   2.821
 9143SOL    HW128328   0.216   4.006   2.822
 9143SOL    HW228329   0.109   4.124   2.790
 9144SOL     OW28330   2.504   4.764   5.425
 9144SOL    HW128331   2.408   4.782   5.442
 9144SOL    HW228332   2.529   4.801   5.335
 9145SOL     OW28333   1.299   6.219   5.737
 9145SOL    HW128334   1.360   6.234   5.659
 9145SOL    HW228335   1.315   6.127   5.775
 9146SOL     OW28336   6.375   2.909   3.098
 9146SOL    HW128337   6.416   2.975   3.036
 9146SOL    HW228338   6.398   2.817   3.069
 9147SOL     OW28339   4.142   6.979   4.352
 9147SOL    HW128340   4.085   6.899   4.331
 9147SOL    HW228341   4.237   6.958   4.331
 9148SOL     OW28342   6.186   6.107   1.530
 9148SOL    HW128343   6.183   6.007   1.523
 9148SOL    HW228344   6.096   6.141   1.559
 9149SOL     OW28345   0.557   3.476   2.007
 9149SOL    HW128346   0.594   3.496   2.098
 9149SOL    HW228347   0.630   3.444   1.947
 9150SOL     OW28348   2.563   2.617   0.919
 9150SOL    HW128349   2.623   2.668   0.980
 9150SOL    HW228350   2.614   2.540   0.879
 9151SOL     OW28351   1.622   3.155   3.792
 9151SOL    HW128352   1.706   3.165   3.738
 9151SOL    HW228353   1.543   3.173   3.734
 9152SOL     OW28354   1.705   4.362   2.753
 9152SOL    HW128355   1.663   4.389   2.840
 9152SOL    HW228356   1.763   4.437   2.720
 9153SOL     OW28357   0.142   3.883   6.348
 9153SOL    HW128358   0.106   3.876   6.255
 9153SOL    HW228359   0.184   3.973   6.360
 9154SOL     OW28360   5.473   4.732   2.485
 9154SOL    HW128361   5.489   4.820   2.439
 9154SOL    HW228362   5.446   4.749   2.580
 9155SOL     OW28363   1.458   6.584   2.676
 9155SOL    HW128364   1.526   6.564   2.606
 9155SOL    HW228365   1.421   6.676   2.661
 9156SOL     OW28366   6.771   3.898   6.473
 9156SOL    HW128367   6.851   3.906   6.533
 9156SOL    HW228368   6.694   3.945   6.515
 9157SOL     OW28369   1.916   4.761   6.197
 9157SOL    HW128370   1.825   4.718   6.205
 9157SOL    HW228371   1.939   4.772   6.100
 9158SOL     OW28372   6.592   3.769   4.541
 9158SOL    HW128373   6.656   3.846   4.541
 9158SOL    HW228374   6.606   3.714   4.623
 9159SOL     OW28375   3.173   1.445   4.033
 9159SOL    HW128376   3.121   1.528   4.014
 9159SOL    HW228377   3.116   1.364   4.018
 9160SOL     OW28378   0.191   4.374   1.266
 9160SOL    HW128379   0.155   4.396   1.356
 9160SOL    HW228380   0.132   4.306   1.222
 9161SOL     OW28381   6.792   4.563   2.029
 9161SOL    HW128382   6.840   4.525   1.950
 9161SOL    HW228383   6.699   4.527   2.032
 9162SOL     OW28384   3.929   1.884   1.914
 9162SOL    HW128385   3.937   1.980   1.886
 9162SOL    HW228386   3.866   1.878   1.991
 9163SOL     OW28387   1.541   2.417   3.784
 9163SOL    HW128388   1.564   2.380   3.694
 9163SOL    HW228389   1.462   2.478   3.776
 9164SOL     OW28390   2.807   6.973   0.321
 9164SOL    HW128391   2.844   6.909   0.253
 9164SOL    HW228392   2.709   6.959   0.331
 9165SOL     OW28393   5.443   1.841   6.211
 9165SOL    HW128394   5.385   1.915   6.243
 9165SOL    HW228395   5.500   1.808   6.286
 9166SOL     OW28396   5.392   5.804   1.441
 9166SOL    HW128397   5.428   5.735   1.378
 9166SOL    HW228398   5.467   5.860   1.474
 9167SOL     OW28399   1.736   1.343   4.553
 9167SOL    HW128400   1.806   1.376   4.490
 9167SOL    HW228401   1.671   1.416   4.571
 9168SOL     OW28402   6.906   5.998   4.346
 9168SOL    HW128403   6.913   5.930   4.419
 9168SOL    HW228404   6.991   5.999   4.293
 9169SOL     OW28405   6.844   5.969   0.741
 9169SOL    HW128406   6.861   6.062   0.710
 9169SOL    HW228407   6.924   5.934   0.790
 9170SOL     OW28408   1.209   1.151   6.064
 9170SOL    HW128409   1.187   1.074   6.003
 9170SOL    HW228410   1.205   1.236   6.012
 9171SOL     OW28411   3.156   4.709   6.911
 9171SOL    HW128412   3.253   4.726   6.928
 9171SOL    HW228413   3.103   4.788   6.944
 9172SOL     OW28414   4.557   1.246   3.735
 9172SOL    HW128415   4.619   1.309   3.781
 9172SOL    HW228416   4.468   1.246   3.781
 9173SOL     OW28417   5.709   2.944   4.847
 9173SOL    HW128418   5.719   2.864   4.788
 9173SOL    HW228419   5.649   2.922   4.924
 9174SOL     OW28420   0.343   4.354   0.539
 9174SOL    HW128421   0.357   4.449   0.565
 9174SOL    HW228422   0.263   4.347   0.479
 9175SOL     OW28423   2.025   0.345   0.051
 9175SOL    HW128424   1.969   0.350   0.134
 9175SOL    HW228425   1.966   0.335   6.991
 9176SOL     OW28426   1.502   1.627   2.353
 9176SOL    HW128427   1.522   1.530   2.339
 9176SOL    HW228428   1.525   1.653   2.446
 9177SOL     OW28429   0.516   4.467   3.770
 9177SOL    HW128430   0.453   4.409   3.718
 9177SOL    HW228431   0.500   4.454   3.867
 9178SOL     OW28432   2.073   5.613   0.500
 9178SOL    HW128433   1.993   5.666   0.529
 9178SOL    HW228434   2.138   5.606   0.575
 9179SOL     OW28435   3.445   5.288   4.334
 9179SOL    HW128436   3.470   5.375   4.292
 9179SOL    HW228437   3.353   5.295   4.372
 9180SOL     OW28438   6.620   1.197   5.131
 9180SOL    HW128439   6.662   1.218   5.219
 9180SOL    HW228440   6.557   1.270   5.105
 9181SOL     OW28441   2.422   1.764   3.483
 9181SOL    HW128442   2.415   1.839   3.417
 9181SOL    HW228443   2.515   1.729   3.483
 9182SOL     OW28444   1.100   1.570   3.136
 9182SOL    HW128445   1.049   1.574   3.050
 9182SOL    HW228446   1.111   1.662   3.172
 9183SOL     OW28447   1.162   1.928   6.381
 9183SOL    HW128448   1.246   1.873   6.379
 9183SOL    HW228449   1.119   1.921   6.471
 9184SOL     OW28450   3.951   3.287   0.646
 9184SOL    HW128451   4.033   3.290   0.703
 9184SOL    HW228452   3.919   3.192   0.641
 9185SOL     OW28453   0.891   1.156   6.909
 9185SOL    HW128454   0.919   1.217   6.983
 9185SOL    HW228455   0.815   1.198   6.858
 9186SOL     OW28456   5.165   1.201   6.113
 9186SOL    HW128457   5.190   1.251   6.031
 9186SOL    HW228458   5.224   1.228   6.189
 9187SOL     OW28459   5.838   2.294   0.791
 9187SOL    HW128460   5.796   2.282   0.701
 9187SOL    HW228461   5.938   2.287   0.783
 9188SOL     OW28462   1.464   0.843   1.844
 9188SOL    HW128463   1.489   0.762   1.898
 9188SOL    HW228464   1.465   0.819   1.747
 9189SOL     OW28465   4.093   1.500   4.992
 9189SOL    HW128466   4.042   1.546   5.065
 9189SOL    HW228467   4.072   1.543   4.904
 9190SOL     OW28468   6.746   2.037   5.239
 9190SOL    HW128469   6.737   2.134   5.218
 9190SOL    HW228470   6.842   2.011   5.236
 9191SOL     OW28471   5.787   6.863   0.485
 9191SOL    HW128472   5.773   6.919   0.403
 9191SOL    HW228473   5.712   6.798   0.494
 9192SOL     OW28474   5.344   4.452   4.284
 9192SOL    HW128475   5.371   4.548   4.290
 9192SOL    HW228476   5.360   4.407   4.372
 9193SOL     OW28477   3.351   2.903   3.330
 9193SOL    HW128478   3.431   2.867   3.378
 9193SOL    HW228479   3.341   2.857   3.242
 9194SOL     OW28480   3.631   5.853   2.721
 9194SOL    HW128481   3.567   5.928   2.705
 9194SOL    HW228482   3.715   5.868   2.670
 9195SOL     OW28483   0.380   2.779   2.211
 9195SOL    HW128484   0.348   2.873   2.209
 9195SOL    HW228485   0.455   2.770   2.277
 9196SOL     OW28486   4.478   0.156   3.451
 9196SOL    HW128487   4.492   0.171   3.354
 9196SOL    HW228488   4.387   0.117   3.466
 9197SOL     OW28489   3.358   2.782   5.240
 9197SOL    HW128490   3.309   2.697   5.224
 9197SOL    HW228491   3.400   2.780   5.331
 9198SOL     OW28492   5.120   2.367   5.369
 9198SOL    HW128493   5.193   2.396   5.308
 9198SOL    HW228494   5.131   2.270   5.391
 9199SOL     OW28495   1.562   3.862   6.397
 9199SOL    HW128496   1.613   3.947   6.409
 9199SOL    HW228497   1.626   3.786   6.389
 9200SOL     OW28498   6.272   5.978   0.760
 9200SOL    HW128499   6.350   5.980   0.823
 9200SOL    HW228500   6.270   6.064   0.708
 9201SOL     OW28501   1.874   4.281   3.241
 9201SOL    HW128502   1.803   4.266   3.172
 9201SOL    HW228503   1.881   4.200   3.300
 9202SOL     OW28504   3.298   5.491   3.843
 9202SOL    HW128505   3.254   5.402   3.834
 9202SOL    HW228506   3.314   5.530   3.752
 9203SOL     OW28507   5.184   0.884   6.079
 9203SOL    HW128508   5.138   0.941   6.010
 9203SOL    HW228509   5.264   0.932   6.114
 9204SOL     OW28510   4.629   4.107   1.696
 9204SOL    HW128511   4.678   4.173   1.639
 9204SOL    HW228512   4.548   4.150   1.735
 9205SOL     OW28513   4.856   3.010   2.275
 9205SOL    HW128514   4.839   2.911   2.271
 9205SOL    HW228515   4.816   3.053   2.195
 9206SOL     OW28516   0.437   6.852   2.928
 9206SOL    HW128517   0.375   6.882   2.857
 9206SOL    HW228518   0.404   6.883   3.017
 9207SOL     OW28519   3.641   6.524   6.970
 9207SOL    HW128520   3.614   6.433   6.937
 9207SOL    HW228521   3.710   6.562   6.908
 9208SOL     OW28522   4.763   4.503   2.322
 9208SOL    HW128523   4.734   4.598   2.331
 9208SOL    HW228524   4.863   4.497   2.330
 9209SOL     OW28525   3.916   0.754   3.003
 9209SOL    HW128526   3.893   0.668   3.048
 9209SOL    HW228527   3.993   0.797   3.050
 9210SOL     OW28528   1.349   6.822   0.433
 9210SOL    HW128529   1.354   6.742   0.493
 9210SOL    HW228530   1.255   6.858   0.434
 9211SOL     OW28531   5.051   1.835   6.232
 9211SOL    HW128532   5.011   1.765   6.291
 9211SOL    HW228533   5.098   1.791   6.155
 9212SOL     OW28534   5.969   3.378   4.719
 9212SOL    HW128535   6.056   3.349   4.678
 9212SOL    HW228536   5.913   3.422   4.649
 9213SOL     OW28537   6.760   0.040   2.439
 9213SOL    HW128538   6.728   6.974   2.478
 9213SOL    HW228539   6.752   0.113   2.506
 9214SOL     OW28540   1.984   2.406   5.275
 9214SOL    HW128541   2.033   2.367   5.196
 9214SOL    HW228542   1.938   2.332   5.325
 9215SOL     OW28543   0.551   3.212   2.391
 9215SOL    HW128544   0.543   3.165   2.479
 9215SOL    HW228545   0.648   3.222   2.367
 9216SOL     OW28546   2.596   5.574   4.074
 9216SOL    HW128547   2.603   5.475   4.080
 9216SOL    HW228548   2.666   5.609   4.012
 9217SOL     OW28549   4.694   0.870   6.252
 9217SOL    HW128550   4.744   0.783   6.251
 9217SOL    HW228551   4.725   0.927   6.176
 9218SOL     OW28552   6.278   5.419   6.450
 9218SOL    HW128553   6.240   5.328   6.437
 9218SOL    HW228554   6.316   5.427   6.543
 9219SOL     OW28555   3.421   2.732   5.493
 9219SOL    HW128556   3.399   2.644   5.450
 9219SOL    HW228557   3.482   2.716   5.571
 9220SOL     OW28558   0.929   6.557   3.600
 9220SOL    HW128559   0.892   6.576   3.690
 9220SOL    HW228560   0.854   6.548   3.534
 9221SOL     OW28561   2.310   1.508   0.457
 9221SOL    HW128562   2.212   1.490   0.447
 9221SOL    HW228563   2.359   1.469   0.379
 9222SOL     OW28564   1.800   3.169   4.158
 9222SOL    HW128565   1.899   3.156   4.164
 9222SOL    HW228566   1.767   3.206   4.245
 9223SOL     OW28567   0.367   3.007   5.027
 9223SOL    HW128568   0.440   2.965   4.973
 9223SOL    HW228569   0.282   3.003   4.976
 9224SOL     OW28570   2.332   4.190   3.457
 9224SOL    HW128571   2.286   4.235   3.533
 9224SOL    HW228572   2.428   4.219   3.454
 9225SOL     OW28573   5.193   5.681   6.560
 9225SOL    HW128574   5.101   5.717   6.546
 9225SOL    HW228575   5.252   5.710   6.485
 9226SOL     OW28576   0.857   0.892   0.999
 9226SOL    HW128577   0.849   0.990   1.015
 9226SOL    HW228578   0.795   0.843   1.060
 9227SOL     OW28579   2.359   4.471   0.901
 9227SOL    HW128580   2.427   4.510   0.963
 9227SOL    HW228581   2.277   4.529   0.901
 9228SOL     OW28582   3.307   3.372   5.362
 9228SOL    HW128583   3.225   3.343   5.313
 9228SOL    HW228584   3.301   3.469   5.383
 9229SOL     OW28585   0.092   4.917   0.427
 9229SOL    HW128586   0.067   4.822   0.408
 9229SOL    HW228587   0.188   4.922   0.455
 9230SOL     OW28588   4.611   1.497   5.020
 9230SOL    HW128589   4.578   1.428   5.085
 9230SOL    HW228590   4.666   1.565   5.069
 9231SOL     OW28591   6.678   5.815   3.482
 9231SOL    HW128592   6.683   5.735   3.422
 9231SOL    HW228593   6.760   5.871   3.470
 9232SOL     OW28594   1.291   4.952   2.467
 9232SOL    HW128595   1.248   4.999   2.389
 9232SOL    HW228596   1.309   5.017   2.540
 9233SOL     OW28597   0.565   6.642   6.912
 9233SOL    HW128598   0.496   6.713   6.918
 9233SOL    HW228599   0.626   6.661   6.835
 9234SOL     OW28600   1.909   3.968   0.503
 9234SOL    HW128601   1.980   4.000   0.565
 9234SOL    HW228602   1.873   4.045   0.451
 9235SOL     OW28603   2.005   2.230   3.188
 9235SOL    HW128604   1.959   2.144   3.213
 9235SOL    HW228605   1.958   2.270   3.110
 9236SOL     OW28606   2.328   3.300   6.676
 9236SOL    HW128607   2.371   3.366   6.738
 9236SOL    HW228608   2.263   3.244   6.727
 9237SOL     OW28609   5.172   5.317   3.511
 9237SOL    HW128610   5.257   5.329   3.562
 9237SOL    HW228611   5.192   5.301   3.415
 9238SOL     OW28612   1.202   2.680   4.686
 9238SOL    HW128613   1.296   2.649   4.677
 9238SOL    HW228614   1.191   2.769   4.640
 9239SOL     OW28615   1.264   4.925   6.971
 9239SOL    HW128616   1.166   4.943   6.971
 9239SOL    HW228617   1.282   4.839   6.924
 9240SOL     OW28618   4.280   2.152   3.011
 9240SOL    HW128619   4.267   2.233   3.069
 9240SOL    HW228620   4.196   2.135   2.959
 9241SOL     OW28621   5.732   6.752   1.223
 9241SOL    HW128622   5.714   6.669   1.170
 9241SOL    HW228623   5.828   6.777   1.212
 9242SOL     OW28624   1.486   2.424   0.537
 9242SOL    HW128625   1.424   2.426   0.459
 9242SOL    HW228626   1.484   2.512   0.583
 9243SOL     OW28627   1.175   1.065   0.051
 9243SOL    HW128628   1.181   0.967   0.066
 9243SOL    HW228629   1.158   1.083   6.974
 9244SOL     OW28630   3.557   6.555   5.641
 9244SOL    HW128631   3.475   6.565   5.698
 9244SOL    HW228632   3.555   6.624   5.568
 9245SOL     OW28633   1.245   5.001   3.738
 9245SOL    HW128634   1.158   5.050   3.747
 9245SOL    HW228635   1.227   4.907   3.708
 9246SOL     OW28636   5.865   0.304   6.670
 9246SOL    HW128637   5.812   0.300   6.755
 9246SOL    HW228638   5.835   0.231   6.609
 9247SOL     OW28639   3.888   6.323   3.130
 9247SOL    HW128640   3.841   6.251   3.180
 9247SOL    HW228641   3.945   6.282   3.058
 9248SOL     OW28642   2.412   0.667   6.877
 9248SOL    HW128643   2.475   0.650   6.801
 9248SOL    HW228644   2.318   0.652   6.846
 9249SOL     OW28645   3.582   6.111   0.792
 9249SOL    HW128646   3.561   6.119   0.890
 9249SOL    HW228647   3.499   6.081   0.744
 9250SOL     OW28648   0.526   3.139   3.547
 9250SOL    HW128649   0.530   3.048   3.588
 9250SOL    HW228650   0.461   3.195   3.598
 9251SOL     OW28651   2.988   2.961   0.936
 9251SOL    HW128652   2.979   2.862   0.951
 9251SOL    HW228653   3.079   2.981   0.901
 9252SOL     OW28654   5.465   1.928   5.121
 9252SOL    HW128655   5.480   1.915   5.023
 9252SOL    HW228656   5.498   2.018   5.149
 9253SOL     OW28657   0.893   5.378   5.490
 9253SOL    HW128658   0.807   5.331   5.469
 9253SOL    HW228659   0.916   5.441   5.416
 9254SOL     OW28660   0.010   4.302   2.603
 9254SOL    HW128661   6.964   4.301   2.678
 9254SOL    HW228662   0.013   4.212   2.560
 9255SOL     OW28663   6.887   4.039   0.394
 9255SOL    HW128664   6.941   4.123   0.393
 9255SOL    HW228665   6.912   3.984   0.474
 9256SOL     OW28666   2.834   6.249   1.548
 9256SOL    HW128667   2.810   6.226   1.454
 9256SOL    HW228668   2.812   6.345   1.566
 9257SOL     OW28669   6.760   5.669   4.031
 9257SOL    HW128670   6.842   5.641   4.081
 9257SOL    HW228671   6.679   5.654   4.089
 9258SOL     OW28672   3.184   5.025   1.201
 9258SOL    HW128673   3.174   5.107   1.258
 9258SOL    HW228674   3.203   4.946   1.259
 9259SOL     OW28675   2.032   2.101   0.181
 9259SOL    HW128676   2.013   2.090   0.084
 9259SOL    HW228677   1.998   2.022   0.232
 9260SOL     OW28678   5.807   3.930   4.764
 9260SOL    HW128679   5.720   3.968   4.733
 9260SOL    HW228680   5.790   3.843   4.811
 9261SOL     OW28681   3.581   2.573   1.709
 9261SOL    HW128682   3.644   2.649   1.728
 9261SOL    HW228683   3.613   2.491   1.757
 9262SOL     OW28684   6.469   6.068   5.050
 9262SOL    HW128685   6.426   6.158   5.038
 9262SOL    HW228686   6.398   5.997   5.049
 9263SOL     OW28687   2.176   4.281   3.667
 9263SOL    HW128688   2.196   4.237   3.754
 9263SOL    HW228689   2.078   4.272   3.648
 9264SOL     OW28690   4.688   4.375   0.052
 9264SOL    HW128691   4.769   4.378   0.111
 9264SOL    HW228692   4.702   4.308   6.999
 9265SOL     OW28693   5.848   1.916   0.802
 9265SOL    HW128694   5.922   1.946   0.863
 9265SOL    HW228695   5.862   1.819   0.779
 9266SOL     OW28696   1.168   4.773   1.251
 9266SOL    HW128697   1.171   4.711   1.172
 9266SOL    HW228698   1.095   4.840   1.237
 9267SOL     OW28699   6.733   1.041   4.363
 9267SOL    HW128700   6.794   1.103   4.412
 9267SOL    HW228701   6.763   1.033   4.268
 9268SOL     OW28702   0.410   0.048   1.565
 9268SOL    HW128703   0.459   0.000   1.638
 9268SOL    HW228704   0.448   0.141   1.555
 9269SOL     OW28705   3.741   1.190   0.086
 9269SOL    HW128706   3.749   1.274   0.032
 9269SOL    HW228707   3.645   1.164   0.094
 9270SOL     OW28708   1.974   0.320   6.371
 9270SOL    HW128709   1.928   0.264   6.440
 9270SOL    HW228710   1.954   0.284   6.280
 9271SOL     OW28711   1.207   6.020   4.827
 9271SOL    HW128712   1.116   5.985   4.849
 9271SOL    HW228713   1.218   6.024   4.728
 9272SOL     OW28714   6.696   5.996   6.201
 9272SOL    HW128715   6.698   6.087   6.243
 9272SOL    HW228716   6.722   5.927   6.268
 9273SOL     OW28717   4.680   4.665   3.713
 9273SOL    HW128718   4.634   4.753   3.722
 9273SOL    HW228719   4.779   4.677   3.717
 9274SOL     OW28720   0.254   3.089   0.739
 9274SOL    HW128721   0.274   3.178   0.698
 9274SOL    HW228722   0.334   3.058   0.790
 9275SOL     OW28723   6.849   0.856   0.093
 9275SOL    HW128724   6.794   0.879   0.013
 9275SOL    HW228725   6.941   0.831   0.063
 9276SOL     OW28726   2.895   5.615   0.116
 9276SOL    HW128727   2.882   5.579   0.208
 9276SOL    HW228728   2.933   5.708   0.121
 9277SOL     OW28729   5.187   5.644   1.495
 9277SOL    HW128730   5.283   5.665   1.509
 9277SOL    HW228731   5.177   5.550   1.462
 9278SOL     OW28732   1.049   0.408   5.772
 9278SOL    HW128733   1.066   0.429   5.676
 9278SOL    HW228734   1.081   0.484   5.829
 9279SOL     OW28735   4.249   5.668   1.510
 9279SOL    HW128736   4.339   5.696   1.476
 9279SOL    HW228737   4.193   5.635   1.434
 9280SOL     OW28738   1.348   6.962   2.589
 9280SOL    HW128739   1.447   6.953   2.592
 9280SOL    HW228740   1.315   6.937   2.498
 9281SOL     OW28741   2.346   5.423   0.002
 9281SOL    HW128742   2.276   5.492   0.016
 9281SOL    HW228743   2.431   5.451   0.048
 9282SOL     OW28744   3.208   0.296   5.030
 9282SOL    HW128745   3.216   0.383   5.079
 9282SOL    HW228746   3.209   0.313   4.932
 9283SOL     OW28747   4.454   6.262   1.218
 9283SOL    HW128748   4.536   6.318   1.233
 9283SOL    HW228749   4.385   6.317   1.171
 9284SOL     OW28750   3.653   3.846   5.174
 9284SOL    HW128751   3.687   3.930   5.132
 9284SOL    HW228752   3.567   3.864   5.222
 9285SOL     OW28753   0.659   5.358   2.672
 9285SOL    HW128754   0.749   5.316   2.675
 9285SOL    HW228755   0.596   5.299   2.622
 9286SOL     OW28756   4.761   6.353   1.777
 9286SOL    HW128757   4.802   6.432   1.731
 9286SOL    HW228758   4.681   6.323   1.725
 9287SOL     OW28759   3.834   3.954   5.630
 9287SOL    HW128760   3.815   3.883   5.562
 9287SOL    HW228761   3.764   3.952   5.702
 9288SOL     OW28762   3.380   2.116   2.446
 9288SOL    HW128763   3.384   2.031   2.498
 9288SOL    HW228764   3.296   2.119   2.393
 9289SOL     OW28765   5.021   6.465   0.741
 9289SOL    HW128766   5.083   6.413   0.682
 9289SOL    HW228767   4.985   6.405   0.812
 9290SOL     OW28768   4.801   0.791   3.726
 9290SOL    HW128769   4.796   0.891   3.729
 9290SOL    HW228770   4.712   0.753   3.750
 9291SOL     OW28771   0.883   4.498   6.002
 9291SOL    HW128772   0.888   4.402   5.973
 9291SOL    HW228773   0.848   4.554   5.926
 9292SOL     OW28774   1.028   1.330   6.616
 9292SOL    HW128775   0.992   1.366   6.702
 9292SOL    HW228776   1.110   1.276   6.634
 9293SOL     OW28777   4.744   2.540   4.240
 9293SOL    HW128778   4.818   2.606   4.251
 9293SOL    HW228779   4.675   2.555   4.310
 9294SOL     OW28780   4.874   0.697   6.495
 9294SOL    HW128781   4.800   0.742   6.544
 9294SOL    HW228782   4.929   0.765   6.447
 9295SOL     OW28783   0.488   0.945   5.495
 9295SOL    HW128784   0.424   0.987   5.431
 9295SOL    HW228785   0.515   0.855   5.461
 9296SOL     OW28786   1.731   4.669   6.733
 9296SOL    HW128787   1.665   4.714   6.674
 9296SOL    HW228788   1.801   4.624   6.678
 9297SOL     OW28789   6.273   5.742   2.476
 9297SOL    HW128790   6.350   5.727   2.413
 9297SOL    HW228791   6.190   5.761   2.423
 9298SOL     OW28792   1.481   5.075   6.914
 9298SOL    HW128793   1.401   5.016   6.929
 9298SOL    HW228794   1.510   5.068   6.819
 9299SOL     OW28795   2.269   2.890   4.677
 9299SOL    HW128796   2.277   2.868   4.580
 9299SOL    HW228797   2.318   2.976   4.696
 9300SOL     OW28798   1.647   5.415   4.919
 9300SOL    HW128799   1.697   5.370   4.845
 9300SOL    HW228800   1.698   5.495   4.949
 9301SOL     OW28801   0.139   4.684   4.768
 9301SOL    HW128802   0.122   4.646   4.677
 9301SOL    HW228803   0.204   4.760   4.760
 9302SOL     OW28804   1.999   3.281   5.396
 9302SOL    HW128805   2.087   3.305   5.436
 9302SOL    HW228806   1.939   3.361   5.396
 9303SOL     OW28807   2.482   4.497   0.597
 9303SOL    HW128808   2.459   4.448   0.680
 9303SOL    HW228809   2.536   4.438   0.537
 9304SOL     OW28810   4.480   5.091   0.253
 9304SOL    HW128811   4.521   5.147   0.181
 9304SOL    HW228812   4.443   5.007   0.214
 9305SOL     OW28813   2.183   2.058   1.550
 9305SOL    HW128814   2.214   2.048   1.644
 9305SOL    HW228815   2.084   2.068   1.548
 9306SOL     OW28816   6.425   5.788   4.847
 9306SOL    HW128817   6.378   5.837   4.921
 9306SOL    HW228818   6.476   5.711   4.886
 9307SOL     OW28819   2.262   3.547   1.507
 9307SOL    HW128820   2.296   3.584   1.421
 9307SOL    HW228821   2.327   3.568   1.581
 9308SOL     OW28822   2.155   3.678   2.224
 9308SOL    HW128823   2.059   3.698   2.205
 9308SOL    HW228824   2.197   3.637   2.142
 9309SOL     OW28825   4.892   5.301   6.329
 9309SOL    HW128826   4.872   5.286   6.232
 9309SOL    HW228827   4.923   5.394   6.343
 9310SOL     OW28828   5.990   6.457   6.995
 9310SOL    HW128829   6.076   6.503   7.017
 9310SOL    HW228830   5.971   6.386   0.044
 9311SOL     OW28831   4.767   3.552   1.363
 9311SOL    HW128832   4.812   3.640   1.380
 9311SOL    HW228833   4.726   3.551   1.272
 9312SOL     OW28834   0.679   2.857   3.350
 9312SOL    HW128835   0.669   2.858   3.251
 9312SOL    HW228836   0.670   2.950   3.386
 9313SOL     OW28837   0.657   0.738   2.007
 9313SOL    HW128838   0.707   0.806   2.061
 9313SOL    HW228839   0.597   0.685   2.068
 9314SOL     OW28840   5.231   3.755   0.458
 9314SOL    HW128841   5.208   3.658   0.463
 9314SOL    HW228842   5.327   3.767   0.485
 9315SOL     OW28843   5.135   7.014   6.364
 9315SOL    HW128844   5.169   0.014   6.456
 9315SOL    HW228845   5.153   0.072   6.304
 9316SOL     OW28846   4.895   0.821   5.645
 9316SOL    HW128847   4.825   0.871   5.695
 9316SOL    HW228848   4.983   0.831   5.691
 9317SOL     OW28849   3.885   6.068   3.286
 9317SOL    HW128850   3.906   6.111   3.374
 9317SOL    HW228851   3.938   5.984   3.277
 9318SOL     OW28852   4.034   6.403   1.792
 9318SOL    HW128853   4.012   6.450   1.877
 9318SOL    HW228854   4.132   6.411   1.773
 9319SOL     OW28855   2.708   3.035   6.951
 9319SOL    HW128856   2.640   3.020   0.002
 9319SOL    HW228857   2.772   2.959   6.949
 9320SOL     OW28858   6.482   6.461   6.939
 9320SOL    HW128859   6.577   6.490   6.954
 9320SOL    HW228860   6.480   6.362   6.924
 9321SOL     OW28861   0.388   3.542   4.849
 9321SOL    HW128862   0.349   3.630   4.874
 9321SOL    HW228863   0.409   3.490   4.932
 9322SOL     OW28864   5.903   3.338   6.810
 9322SOL    HW128865   5.849   3.419   6.786
 9322SOL    HW228866   5.954   3.356   6.895
 9323SOL     OW28867   0.601   2.087   5.768
 9323SOL    HW128868   0.564   2.056   5.856
 9323SOL    HW228869   0.656   2.169   5.783
 9324SOL     OW28870   1.184   4.761   1.949
 9324SOL    HW128871   1.130   4.796   2.026
 9324SOL    HW228872   1.206   4.665   1.966
 9325SOL     OW28873   0.970   4.431   3.357
 9325SOL    HW128874   1.018   4.500   3.304
 9325SOL    HW228875   1.015   4.343   3.346
 9326SOL     OW28876   4.684   4.381   1.775
 9326SOL    HW128877   4.742   4.390   1.856
 9326SOL    HW228878   4.599   4.334   1.799
 9327SOL     OW28879   3.958   0.803   3.531
 9327SOL    HW128880   3.891   0.817   3.458
 9327SOL    HW228881   4.033   0.868   3.520
 9328SOL     OW28882   2.389   0.079   4.295
 9328SOL    HW128883   2.359   7.004   4.304
 9328SOL    HW228884   2.484   0.087   4.325
 9329SOL     OW28885   0.328   5.223   6.902
 9329SOL    HW128886   0.384   5.195   6.980
 9329SOL    HW228887   0.383   5.281   6.842
 9330SOL     OW28888   6.528   6.086   6.611
 9330SOL    HW128889   6.626   6.098   6.628
 9330SOL    HW228890   6.509   6.097   6.513
 9331SOL     OW28891   1.537   3.453   3.907
 9331SOL    HW128892   1.478   3.431   3.985
 9331SOL    HW228893   1.566   3.549   3.913
 9332SOL     OW28894   4.786   5.655   0.873
 9332SOL    HW128895   4.797   5.695   0.782
 9332SOL    HW228896   4.766   5.557   0.865
 9333SOL     OW28897   4.475   4.069   0.558
 9333SOL    HW128898   4.536   4.099   0.632
 9333SOL    HW228899   4.515   4.093   0.470
 9334SOL     OW28900   5.932   5.928   5.934
 9334SOL    HW128901   5.890   5.895   6.018
 9334SOL    HW228902   5.877   6.001   5.895
 9335SOL     OW28903   0.789   3.751   1.548
 9335SOL    HW128904   0.714   3.816   1.557
 9335SOL    HW228905   0.794   3.718   1.454
 9336SOL     OW28906   5.851   6.786   5.705
 9336SOL    HW128907   5.903   6.705   5.732
 9336SOL    HW228908   5.847   6.792   5.606
 9337SOL     OW28909   2.357   0.158   6.193
 9337SOL    HW128910   2.311   0.234   6.240
 9337SOL    HW228911   2.432   0.194   6.138
 9338SOL     OW28912   5.733   6.748   0.179
 9338SOL    HW128913   5.749   6.652   0.203
 9338SOL    HW228914   5.638   6.760   0.150
 9339SOL     OW28915   5.967   3.688   5.616
 9339SOL    HW128916   5.894   3.753   5.593
 9339SOL    HW228917   6.052   3.717   5.572
 9340SOL     OW28918   3.901   5.386   1.424
 9340SOL    HW128919   3.848   5.376   1.340
 9340SOL    HW228920   3.845   5.431   1.494
 9341SOL     OW28921   5.094   4.259   6.689
 9341SOL    HW128922   5.074   4.246   6.592
 9341SOL    HW228923   5.084   4.172   6.737
 9342SOL     OW28924   3.611   0.455   4.108
 9342SOL    HW128925   3.691   0.481   4.163
 9342SOL    HW228926   3.532   0.444   4.167
 9343SOL     OW28927   4.556   3.894   1.379
 9343SOL    HW128928   4.489   3.954   1.336
 9343SOL    HW228929   4.533   3.881   1.475
 9344SOL     OW28930   6.113   6.442   5.190
 9344SOL    HW128931   6.075   6.351   5.176
 9344SOL    HW228932   6.130   6.457   5.287
 9345SOL     OW28933   1.058   5.797   0.572
 9345SOL    HW128934   1.115   5.716   0.585
 9345SOL    HW228935   1.116   5.879   0.575
 9346SOL     OW28936   5.635   5.885   0.604
 9346SOL    HW128937   5.641   5.933   0.691
 9346SOL    HW228938   5.541   5.857   0.587
 9347SOL     OW28939   3.250   5.388   0.930
 9347SOL    HW128940   3.199   5.332   0.864
 9347SOL    HW228941   3.308   5.329   0.986
 9348SOL     OW28942   2.816   5.763   2.085
 9348SOL    HW128943   2.807   5.863   2.084
 9348SOL    HW228944   2.912   5.738   2.073
 9349SOL     OW28945   6.868   5.652   1.863
 9349SOL    HW128946   6.836   5.609   1.947
 9349SOL    HW228947   6.872   5.752   1.876
 9350SOL     OW28948   6.625   0.580   5.836
 9350SOL    HW128949   6.677   0.498   5.859
 9350SOL    HW228950   6.551   0.592   5.902
 9351SOL     OW28951   3.448   2.298   5.951
 9351SOL    HW128952   3.407   2.327   6.037
 9351SOL    HW228953   3.445   2.374   5.885
 9352SOL     OW28954   3.394   2.475   5.758
 9352SOL    HW128955   3.434   2.566   5.772
 9352SOL    HW228956   3.296   2.483   5.743
 9353SOL     OW28957   0.852   3.283   1.321
 9353SOL    HW128958   0.843   3.185   1.341
 9353SOL    HW228959   0.776   3.333   1.364
 9354SOL     OW28960   4.931   2.080   1.563
 9354SOL    HW128961   4.840   2.076   1.523
 9354SOL    HW228962   4.975   2.167   1.538
 9355SOL     OW28963   6.659   0.203   3.323
 9355SOL    HW128964   6.576   0.157   3.292
 9355SOL    HW228965   6.731   0.194   3.254
 9356SOL     OW28966   4.381   4.601   2.506
 9356SOL    HW128967   4.297   4.655   2.509
 9356SOL    HW228968   4.363   4.516   2.457
 9357SOL     OW28969   3.879   3.020   0.652
 9357SOL    HW128970   3.828   2.934   0.647
 9357SOL    HW228971   3.977   3.000   0.656
 9358SOL     OW28972   5.766   4.638   2.009
 9358SOL    HW128973   5.671   4.629   1.979
 9358SOL    HW228974   5.788   4.565   2.073
 9359SOL     OW28975   6.413   3.703   5.602
 9359SOL    HW128976   6.495   3.752   5.632
 9359SOL    HW228977   6.361   3.759   5.538
 9360SOL     OW28978   1.910   0.783   6.915
 9360SOL    HW128979   1.958   0.774   7.002
 9360SOL    HW228980   1.845   0.859   6.920
 9361SOL     OW28981   2.978   6.978   2.281
 9361SOL    HW128982   3.066   6.981   2.329
 9361SOL    HW228983   2.992   6.950   2.186
 9362SOL     OW28984   2.260   1.192   2.702
 9362SOL    HW128985   2.359   1.179   2.690
 9362SOL    HW228986   2.214   1.104   2.692
 9363SOL     OW28987   3.242   5.814   2.348
 9363SOL    HW128988   3.321   5.840   2.293
 9363SOL    HW228989   3.206   5.727   2.316
 9364SOL     OW28990   4.333   4.848   0.235
 9364SOL    HW128991   4.280   4.869   0.317
 9364SOL    HW228992   4.281   4.876   0.154
 9365SOL     OW28993   2.822   1.591   4.818
 9365SOL    HW128994   2.793   1.642   4.899
 9365SOL    HW228995   2.908   1.544   4.836
 9366SOL     OW28996   2.928   1.827   0.611
 9366SOL    HW128997   3.013   1.873   0.588
 9366SOL    HW228998   2.922   1.740   0.562
 9367SOL     OW28999   6.766   5.597   3.318
 9367SOL    HW129000   6.732   5.588   3.224
 9367SOL    HW229001   6.735   5.518   3.372
 9368SOL     OW29002   2.962   2.137   1.443
 9368SOL    HW129003   2.952   2.155   1.541
 9368SOL    HW229004   3.042   2.185   1.408
 9369SOL     OW29005   0.163   2.054   4.385
 9369SOL    HW129006   0.205   2.129   4.334
 9369SOL    HW229007   0.201   2.050   4.477
 9370SOL     OW29008   6.204   1.266   3.003
 9370SOL    HW129009   6.191   1.281   3.101
 9370SOL    HW229010   6.207   1.167   2.985
 9371SOL     OW29011   0.708   6.282   0.578
 9371SOL    HW129012   0.744   6.322   0.663
 9371SOL    HW229013   0.623   6.234   0.597
 9372SOL     OW29014   5.871   6.587   4.733
 9372SOL    HW129015   5.961   6.615   4.698
 9372SOL    HW229016   5.845   6.648   4.808
 9373SOL     OW29017   3.703   1.953   3.443
 9373SOL    HW129018   3.765   1.944   3.521
 9373SOL    HW229019   3.621   2.004   3.472
 9374SOL     OW29020   5.364   3.607   0.190
 9374SOL    HW129021   5.447   3.551   0.192
 9374SOL    HW229022   5.285   3.549   0.208
 9375SOL     OW29023   0.567   1.372   3.735
 9375SOL    HW129024   0.617   1.378   3.648
 9375SOL    HW229025   0.523   1.460   3.754
 9376SOL     OW29026   2.147   4.034   1.550
 9376SOL    HW129027   2.111   4.035   1.643
 9376SOL    HW229028   2.245   4.052   1.551
 9377SOL     OW29029   5.871   5.213   4.222
 9377SOL    HW129030   5.863   5.216   4.122
 9377SOL    HW229031   5.810   5.281   4.263
 9378SOL     OW29032   2.482   0.245   0.495
 9378SOL    HW129033   2.539   0.319   0.458
 9378SOL    HW229034   2.408   0.284   0.550
 9379SOL     OW29035   5.336   4.721   4.299
 9379SOL    HW129036   5.346   4.728   4.398
 9379SOL    HW229037   5.246   4.755   4.272
 9380SOL     OW29038   5.924   6.936   5.915
 9380SOL    HW129039   5.889   6.909   5.825
 9380SOL    HW229040   6.016   6.899   5.926
 9381SOL     OW29041   2.461   1.681   5.818
 9381SOL    HW129042   2.553   1.718   5.822
 9381SOL    HW229043   2.398   1.751   5.783
 9382SOL     OW29044   4.900   2.300   2.759
 9382SOL    HW129045   4.875   2.395   2.744
 9382SOL    HW229046   4.920   2.257   2.671
 9383SOL     OW29047   3.909   6.126   4.701
 9383SOL    HW129048   3.833   6.060   4.709
 9383SOL    HW229049   3.906   6.189   4.778
 9384SOL     OW29050   4.840   5.719   1.718
 9384SOL    HW129051   4.829   5.759   1.810
 9384SOL    HW229052   4.912   5.767   1.669
 9385SOL     OW29053   3.676   1.081   3.113
 9385SOL    HW129054   3.636   1.084   3.022
 9385SOL    HW229055   3.723   1.167   3.132
 9386SOL     OW29056   2.810   0.021   5.730
 9386SOL    HW129057   2.801   0.120   5.719
 9386SOL    HW229058   2.763   7.013   5.813
 9387SOL     OW29059   3.479   6.916   0.058
 9387SOL    HW129060   3.403   6.892   7.017
 9387SOL    HW229061   3.517   6.833   0.098
 9388SOL     OW29062   6.988   0.625   3.196
 9388SOL    HW129063   0.033   0.701   3.205
 9388SOL    HW229064   0.003   0.545   3.246
 9389SOL     OW29065   2.506   0.825   5.625
 9389SOL    HW129066   2.444   0.897   5.655
 9389SOL    HW229067   2.466   0.736   5.645
 9390SOL     OW29068   2.834   5.516   2.416
 9390SOL    HW129069   2.827   5.616   2.417
 9390SOL    HW229070   2.742   5.477   2.410
 9391SOL     OW29071   0.444   1.158   5.852
 9391SOL    HW129072   0.497   1.187   5.931
 9391SOL    HW229073   0.506   1.137   5.776
 9392SOL     OW29074   1.628   5.982   4.231
 9392SOL    HW129075   1.643   5.883   4.240
 9392SOL    HW229076   1.591   6.018   4.316
 9393SOL     OW29077   3.579   2.149   5.242
 9393SOL    HW129078   3.504   2.128   5.179
 9393SOL    HW229079   3.648   2.077   5.237
 9394SOL     OW29080   6.207   3.004   2.534
 9394SOL    HW129081   6.162   2.950   2.463
 9394SOL    HW229082   6.224   2.946   2.614
 9395SOL     OW29083   2.194   3.304   0.536
 9395SOL    HW129084   2.165   3.283   0.629
 9395SOL    HW229085   2.133   3.258   0.471
 9396SOL     OW29086   6.329   0.261   6.160
 9396SOL    HW129087   6.237   0.222   6.161
 9396SOL    HW229088   6.390   0.202   6.106
 9397SOL     OW29089   2.592   6.964   1.193
 9397SOL    HW129090   2.558   0.028   1.150
 9397SOL    HW229091   2.621   6.984   1.286
 9398SOL     OW29092   2.825   1.657   6.409
 9398SOL    HW129093   2.895   1.713   6.456
 9398SOL    HW229094   2.736   1.672   6.452
 9399SOL     OW29095   7.000   0.727   5.494
 9399SOL    HW129096   6.918   0.741   5.548
 9399SOL    HW229097   0.059   0.716   5.554
 9400SOL     OW29098   5.934   3.258   2.467
 9400SOL    HW129099   5.930   3.322   2.390
 9400SOL    HW229100   6.011   3.283   2.527
 9401SOL     OW29101   3.096   6.949   2.993
 9401SOL    HW129102   3.151   6.896   2.928
 9401SOL    HW229103   3.022   6.891   3.028
 9402SOL     OW29104   1.965   5.373   6.424
 9402SOL    HW129105   1.941   5.325   6.509
 9402SOL    HW229106   1.937   5.317   6.346
 9403SOL     OW29107   5.038   1.835   3.870
 9403SOL    HW129108   4.987   1.921   3.868
 9403SOL    HW229109   5.135   1.853   3.855
 9404SOL     OW29110   0.998   4.959   6.555
 9404SOL    HW129111   1.077   5.020   6.563
 9404SOL    HW229112   0.966   4.957   6.461
 9405SOL     OW29113   6.396   6.675   0.828
 9405SOL    HW129114   6.419   6.771   0.815
 9405SOL    HW229115   6.296   6.665   0.834
 9406SOL     OW29116   0.418   1.459   4.926
 9406SOL    HW129117   0.388   1.377   4.878
 9406SOL    HW229118   0.338   1.507   4.963
 9407SOL     OW29119   3.271   6.064   2.944
 9407SOL    HW129120   3.314   6.155   2.951
 9407SOL    HW229121   3.309   6.015   2.866
 9408SOL     OW29122   4.028   1.762   6.206
 9408SOL    HW129123   4.043   1.671   6.169
 9408SOL    HW229124   3.929   1.781   6.209
 9409SOL     OW29125   5.743   3.652   3.890
 9409SOL    HW129126   5.816   3.720   3.881
 9409SOL    HW229127   5.734   3.602   3.804
 9410SOL     OW29128   4.363   6.251   2.685
 9410SOL    HW129129   4.368   6.350   2.676
 9410SOL    HW229130   4.424   6.221   2.758
 9411SOL     OW29131   4.120   5.452   0.639
 9411SOL    HW129132   4.210   5.440   0.598
 9411SOL    HW229133   4.085   5.544   0.619
 9412SOL     OW29134   0.030   2.153   1.189
 9412SOL    HW129135   0.080   2.067   1.189
 9412SOL    HW229136   6.960   2.139   1.148
 9413SOL     OW29137   3.830   6.124   5.555
 9413SOL    HW129138   3.827   6.151   5.651
 9413SOL    HW229139   3.792   6.198   5.498
 9414SOL     OW29140   2.977   1.594   2.624
 9414SOL    HW129141   3.030   1.559   2.702
 9414SOL    HW229142   2.971   1.524   2.554
 9415SOL     OW29143   2.225   6.474   2.273
 9415SOL    HW129144   2.129   6.495   2.255
 9415SOL    HW229145   2.283   6.543   2.230
 9416SOL     OW29146   1.141   2.059   1.775
 9416SOL    HW129147   1.176   1.981   1.826
 9416SOL    HW229148   1.182   2.060   1.684
 9417SOL     OW29149   2.520   5.589   5.683
 9417SOL    HW129150   2.448   5.529   5.647
 9417SOL    HW229151   2.498   5.684   5.659
 9418SOL     OW29152   2.455   4.991   1.313
 9418SOL    HW129153   2.538   5.035   1.347
 9418SOL    HW229154   2.460   4.893   1.330
 9419SOL     OW29155   3.184   6.742   4.827
 9419SOL    HW129156   3.188   6.713   4.923
 9419SOL    HW229157   3.203   6.664   4.767
 9420SOL     OW29158   0.308   1.572   4.543
 9420SOL    HW129159   0.275   1.662   4.514
 9420SOL    HW229160   0.230   1.511   4.559
 9421SOL     OW29161   0.598   4.256   5.403
 9421SOL    HW129162   0.591   4.204   5.317
 9421SOL    HW229163   0.694   4.273   5.423
 9422SOL     OW29164   5.048   0.639   2.075
 9422SOL    HW129165   4.987   0.681   2.008
 9422SOL    HW229166   5.001   0.631   2.163
 9423SOL     OW29167   3.964   0.707   3.792
 9423SOL    HW129168   3.990   0.611   3.798
 9423SOL    HW229169   3.969   0.737   3.697
 9424SOL     OW29170   3.644   6.367   4.504
 9424SOL    HW129171   3.556   6.398   4.470
 9424SOL    HW229172   3.630   6.301   4.578
 9425SOL     OW29173   0.723   3.214   4.947
 9425SOL    HW129174   0.662   3.211   4.868
 9425SOL    HW229175   0.803   3.157   4.930
 9426SOL     OW29176   3.137   0.422   6.868
 9426SOL    HW129177   3.094   0.445   6.781
 9426SOL    HW229178   3.199   0.345   6.856
 9427SOL     OW29179   2.719   5.434   4.825
 9427SOL    HW129180   2.701   5.406   4.919
 9427SOL    HW229181   2.710   5.534   4.817
 9428SOL     OW29182   5.919   0.263   3.069
 9428SOL    HW129183   5.997   0.208   3.098
 9428SOL    HW229184   5.950   0.351   3.034
 9429SOL     OW29185   0.561   4.224   2.156
 9429SOL    HW129186   0.531   4.220   2.251
 9429SOL    HW229187   0.578   4.132   2.123
 9430SOL     OW29188   6.533   6.871   1.598
 9430SOL    HW129189   6.438   6.890   1.621
 9430SOL    HW229190   6.565   6.793   1.652
 9431SOL     OW29191   6.765   4.200   0.855
 9431SOL    HW129192   6.698   4.271   0.875
 9431SOL    HW229193   6.809   4.170   0.940
 9432SOL     OW29194   6.289   0.147   2.950
 9432SOL    HW129195   6.227   0.170   2.875
 9432SOL    HW229196   6.240   0.153   3.036
 9433SOL     OW29197   3.356   4.708   5.264
 9433SOL    HW129198   3.258   4.708   5.244
 9433SOL    HW229199   3.404   4.767   5.199
 9434SOL     OW29200   5.396   4.907   2.717
 9434SOL    HW129201   5.304   4.914   2.755
 9434SOL    HW229202   5.462   4.891   2.791
 9435SOL     OW29203   1.610   0.722   4.337
 9435SOL    HW129204   1.703   0.701   4.304
 9435SOL    HW229205   1.546   0.655   4.299
 9436SOL     OW29206   2.543   3.325   0.290
 9436SOL    HW129207   2.643   3.329   0.287
 9436SOL    HW229208   2.515   3.249   0.349
 9437SOL     OW29209   1.591   5.176   3.417
 9437SOL    HW129210   1.538   5.261   3.420
 9437SOL    HW229211   1.637   5.170   3.328
 9438SOL     OW29212   0.909   6.634   1.983
 9438SOL    HW129213   0.920   6.733   1.979
 9438SOL    HW229214   0.816   6.612   2.012
 9439SOL     OW29215   0.157   2.630   2.137
 9439SOL    HW129216   0.234   2.692   2.149
 9439SOL    HW229217   0.076   2.668   2.182
 9440SOL     OW29218   5.067   6.480   6.162
 9440SOL    HW129219   5.110   6.515   6.246
 9440SOL    HW229220   5.100   6.533   6.084
 9441SOL     OW29221   1.744   5.130   5.049
 9441SOL    HW129222   1.785   5.206   5.100
 9441SOL    HW229223   1.718   5.161   4.958
 9442SOL     OW29224   0.044   2.896   0.578
 9442SOL    HW129225   0.131   2.945   0.568
 9442SOL    HW229226   0.061   2.798   0.586
 9443SOL     OW29227   2.065   4.039   1.016
 9443SOL    HW129228   2.149   4.076   0.975
 9443SOL    HW229229   2.084   3.948   1.053
 9444SOL     OW29230   0.418   3.160   7.013
 9444SOL    HW129231   0.411   3.257   6.992
 9444SOL    HW229232   0.461   3.148   0.083
 9445SOL     OW29233   5.573   3.821   1.688
 9445SOL    HW129234   5.592   3.901   1.745
 9445SOL    HW229235   5.615   3.834   1.598
 9446SOL     OW29236   6.675   6.060   2.091
 9446SOL    HW129237   6.584   6.078   2.053
 9446SOL    HW229238   6.723   5.995   2.032
 9447SOL     OW29239   5.841   4.167   2.314
 9447SOL    HW129240   5.831   4.153   2.413
 9447SOL    HW229241   5.885   4.087   2.273
 9448SOL     OW29242   5.497   6.224   0.420
 9448SOL    HW129243   5.426   6.160   0.391
 9448SOL    HW229244   5.519   6.207   0.516
 9449SOL     OW29245   5.743   5.154   5.856
 9449SOL    HW129246   5.732   5.055   5.849
 9449SOL    HW229247   5.674   5.192   5.918
 9450SOL     OW29248   3.178   4.866   4.904
 9450SOL    HW129249   3.169   4.769   4.927
 9450SOL    HW229250   3.166   4.921   4.987
 9451SOL     OW29251   4.402   5.419   6.266
 9451SOL    HW129252   4.487   5.408   6.214
 9451SOL    HW229253   4.379   5.516   6.274
 9452SOL     OW29254   2.451   4.730   1.665
 9452SOL    HW129255   2.528   4.683   1.709
 9452SOL    HW229256   2.365   4.692   1.698
 9453SOL     OW29257   2.724   5.082   2.822
 9453SOL    HW129258   2.745   5.131   2.737
 9453SOL    HW229259   2.724   4.984   2.805
 9454SOL     OW29260   1.655   3.384   6.009
 9454SOL    HW129261   1.599   3.303   5.995
 9454SOL    HW229262   1.673   3.428   5.921
 9455SOL     OW29263   3.432   1.343   2.258
 9455SOL    HW129264   3.386   1.427   2.285
 9455SOL    HW229265   3.446   1.344   2.159
 9456SOL     OW29266   1.068   3.514   1.046
 9456SOL    HW129267   1.065   3.449   1.121
 9456SOL    HW229268   1.109   3.470   0.965
 9457SOL     OW29269   1.413   3.074   0.027
 9457SOL    HW129270   1.350   3.001   7.019
 9457SOL    HW229271   1.494   3.072   6.988
 9458SOL     OW29272   6.931   5.347   5.227
 9458SOL    HW129273   6.908   5.255   5.195
 9458SOL    HW229274   0.010   5.352   5.243
 9459SOL     OW29275   6.458   5.823   1.859
 9459SOL    HW129276   6.366   5.785   1.852
 9459SOL    HW229277   6.523   5.758   1.819
 9460SOL     OW29278   1.178   1.892   5.488
 9460SOL    HW129279   1.125   1.813   5.457
 9460SOL    HW229280   1.249   1.913   5.422
 9461SOL     OW29281   0.934   0.680   3.892
 9461SOL    HW129282   0.996   0.608   3.859
 9461SOL    HW229283   0.896   0.653   3.980
 9462SOL     OW29284   0.895   2.790   2.087
 9462SOL    HW129285   0.873   2.838   2.001
 9462SOL    HW229286   0.934   2.855   2.152
 9463SOL     OW29287   5.810   1.470   0.293
 9463SOL    HW129288   5.857   1.451   0.380
 9463SOL    HW229289   5.720   1.427   0.294
 9464SOL     OW29290   6.138   6.846   6.226
 9464SOL    HW129291   6.221   6.794   6.207
 9464SOL    HW229292   6.058   6.791   6.201
 9465SOL     OW29293   6.217   0.339   4.191
 9465SOL    HW129294   6.163   0.337   4.276
 9465SOL    HW229295   6.310   0.306   4.210
 9466SOL     OW29296   2.363   2.884   6.255
 9466SOL    HW129297   2.451   2.837   6.248
 9466SOL    HW229298   2.357   2.954   6.183
 9467SOL     OW29299   1.725   2.932   2.320
 9467SOL    HW129300   1.660   2.865   2.358
 9467SOL    HW229301   1.782   2.887   2.250
 9468SOL     OW29302   6.970   3.623   5.522
 9468SOL    HW129303   6.871   3.612   5.531
 9468SOL    HW229304   7.012   3.535   5.501
 9469SOL     OW29305   5.995   5.310   2.579
 9469SOL    HW129306   6.051   5.228   2.587
 9469SOL    HW229307   6.022   5.375   2.650
 9470SOL     OW29308   4.375   3.800   0.337
 9470SOL    HW129309   4.473   3.798   0.318
 9470SOL    HW229310   4.360   3.800   0.436
 9471SOL     OW29311   0.002   2.143   5.957
 9471SOL    HW129312   0.092   2.116   5.923
 9471SOL    HW229313   7.012   2.242   5.951
 9472SOL     OW29314   5.666   4.534   4.460
 9472SOL    HW129315   5.568   4.524   4.476
 9472SOL    HW229316   5.690   4.497   4.371
 9473SOL     OW29317   2.569   5.642   6.184
 9473SOL    HW129318   2.548   5.574   6.114
 9473SOL    HW229319   2.665   5.670   6.176
 9474SOL     OW29320   4.532   5.180   2.439
 9474SOL    HW129321   4.446   5.130   2.430
 9474SOL    HW229322   4.595   5.151   2.367
 9475SOL     OW29323   2.838   3.916   1.175
 9475SOL    HW129324   2.921   3.962   1.144
 9475SOL    HW229325   2.859   3.862   1.256
 9476SOL     OW29326   4.283   3.173   5.407
 9476SOL    HW129327   4.245   3.197   5.496
 9476SOL    HW229328   4.309   3.257   5.359
 9477SOL     OW29329   0.971   2.370   1.374
 9477SOL    HW129330   1.045   2.317   1.334
 9477SOL    HW229331   1.002   2.413   1.459
 9478SOL     OW29332   5.803   4.735   5.369
 9478SOL    HW129333   5.752   4.783   5.441
 9478SOL    HW229334   5.744   4.667   5.326
 9479SOL     OW29335   5.960   5.909   6.393
 9479SOL    HW129336   6.052   5.871   6.393
 9479SOL    HW229337   5.917   5.893   6.304
 9480SOL     OW29338   5.700   4.836   0.185
 9480SOL    HW129339   5.603   4.812   0.178
 9480SOL    HW229340   5.710   4.935   0.188
 9481SOL     OW29341   6.870   3.766   1.903
 9481SOL    HW129342   6.957   3.784   1.949
 9481SOL    HW229343   6.888   3.719   1.817
 9482SOL     OW29344   4.743   1.075   1.909
 9482SOL    HW129345   4.768   1.088   1.813
 9482SOL    HW229346   4.813   1.117   1.967
 9483SOL     OW29347   2.065   1.861   0.395
 9483SOL    HW129348   2.117   1.856   0.481
 9483SOL    HW229349   2.126   1.845   0.318
 9484SOL     OW29350   6.410   1.477   3.834
 9484SOL    HW129351   6.480   1.497   3.903
 9484SOL    HW229352   6.385   1.562   3.787
 9485SOL     OW29353   0.794   0.582   2.687
 9485SOL    HW129354   0.775   0.490   2.721
 9485SOL    HW229355   0.708   0.632   2.675
 9486SOL     OW29356   2.805   5.769   1.388
 9486SOL    HW129357   2.863   5.747   1.310
 9486SOL    HW229358   2.862   5.801   1.464
 9487SOL     OW29359   3.372   3.605   3.839
 9487SOL    HW129360   3.449   3.543   3.826
 9487SOL    HW229361   3.324   3.617   3.753
 9488SOL     OW29362   1.423   6.515   1.426
 9488SOL    HW129363   1.355   6.442   1.419
 9488SOL    HW229364   1.513   6.477   1.406
 9489SOL     OW29365   4.093   4.883   1.397
 9489SOL    HW129366   4.101   4.828   1.480
 9489SOL    HW229367   4.001   4.922   1.392
 9490SOL     OW29368   5.342   1.141   1.211
 9490SOL    HW129369   5.381   1.180   1.127
 9490SOL    HW229370   5.349   1.208   1.285
 9491SOL     OW29371   6.233   5.075   5.019
 9491SOL    HW129372   6.211   5.061   4.922
 9491SOL    HW229373   6.201   5.165   5.048
 9492SOL     OW29374   3.362   4.023   1.804
 9492SOL    HW129375   3.342   3.984   1.714
 9492SOL    HW229376   3.456   4.057   1.806
 9493SOL     OW29377   4.611   5.842   2.962
 9493SOL    HW129378   4.552   5.865   3.039
 9493SOL    HW229379   4.701   5.883   2.976
 9494SOL     OW29380   5.147   3.383   6.388
 9494SOL    HW129381   5.197   3.380   6.302
 9494SOL    HW229382   5.064   3.328   6.381
 9495SOL     OW29383   6.263   2.005   4.999
 9495SOL    HW129384   6.205   2.011   4.917
 9495SOL    HW229385   6.206   1.978   5.077
 9496SOL     OW29386   5.705   3.771   0.099
 9496SOL    HW129387   5.758   3.839   0.150
 9496SOL    HW229388   5.609   3.799   0.098
 9497SOL     OW29389   5.369   5.579   6.923
 9497SOL    HW129390   5.420   5.593   6.838
 9497SOL    HW229391   5.407   5.638   6.995
 9498SOL     OW29392   3.730   0.117   5.488
 9498SOL    HW129393   3.648   0.143   5.539
 9498SOL    HW229394   3.771   0.036   5.530
 9499SOL     OW29395   2.686   3.902   5.521
 9499SOL    HW129396   2.693   3.942   5.430
 9499SOL    HW229397   2.727   3.810   5.521
 9500SOL     OW29398   4.262   5.764   1.787
 9500SOL    HW129399   4.230   5.686   1.733
 9500SOL    HW229400   4.340   5.806   1.741
 9501SOL     OW29401   3.543   1.299   4.426
 9501SOL    HW129402   3.446   1.286   4.409
 9501SOL    HW229403   3.587   1.210   4.437
 9502SOL     OW29404   6.491   2.425   4.928
 9502SOL    HW129405   6.494   2.337   4.976
 9502SOL    HW229406   6.442   2.415   4.842
 9503SOL     OW29407   0.625   0.103   2.004
 9503SOL    HW129408   0.528   0.109   2.026
 9503SOL    HW229409   0.668   0.033   2.061
 9504SOL     OW29410   0.577   2.871   0.338
 9504SOL    HW129411   0.657   2.812   0.327
 9504SOL    HW229412   0.494   2.818   0.322
 9505SOL     OW29413   6.501   3.225   3.173
 9505SOL    HW129414   6.493   3.322   3.196
 9505SOL    HW229415   6.536   3.216   3.080
 9506SOL     OW29416   7.009   3.501   0.201
 9506SOL    HW129417   6.912   3.487   0.186
 9506SOL    HW229418   0.021   3.442   0.276
 9507SOL     OW29419   1.154   1.448   3.746
 9507SOL    HW129420   1.252   1.434   3.757
 9507SOL    HW229421   1.106   1.408   3.825
 9508SOL     OW29422   5.393   1.894   0.917
 9508SOL    HW129423   5.372   1.906   1.014
 9508SOL    HW229424   5.479   1.940   0.896
 9509SOL     OW29425   2.139   6.650   5.491
 9509SOL    HW129426   2.176   6.737   5.524
 9509SOL    HW229427   2.106   6.596   5.568
 9510SOL     OW29428   6.528   4.682   2.560
 9510SOL    HW129429   6.595   4.609   2.566
 9510SOL    HW229430   6.441   4.652   2.599
 9511SOL     OW29431   0.496   2.116   0.031
 9511SOL    HW129432   0.452   2.026   0.040
 9511SOL    HW229433   0.481   2.169   0.114
 9512SOL     OW29434   1.249   2.281   4.196
 9512SOL    HW129435   1.317   2.210   4.180
 9512SOL    HW229436   1.284   2.345   4.264
 9513SOL     OW29437   2.072   3.816   4.172
 9513SOL    HW129438   2.088   3.739   4.110
 9513SOL    HW229439   2.095   3.788   4.266
 9514SOL     OW29440   1.615   3.452   0.261
 9514SOL    HW129441   1.620   3.368   0.208
 9514SOL    HW229442   1.666   3.441   0.346
 9515SOL     OW29443   1.607   6.364   6.418
 9515SOL    HW129444   1.597   6.432   6.490
 9515SOL    HW229445   1.536   6.294   6.429
 9516SOL     OW29446   5.546   4.176   3.770
 9516SOL    HW129447   5.479   4.113   3.731
 9516SOL    HW229448   5.508   4.219   3.852
 9517SOL     OW29449   0.619   5.570   1.527
 9517SOL    HW129450   0.667   5.588   1.613
 9517SOL    HW229451   0.677   5.599   1.450
 9518SOL     OW29452   0.659   2.431   6.294
 9518SOL    HW129453   0.690   2.473   6.208
 9518SOL    HW229454   0.602   2.497   6.344
 9519SOL     OW29455   3.280   3.711   2.989
 9519SOL    HW129456   3.226   3.771   2.930
 9519SOL    HW229457   3.260   3.616   2.967
 9520SOL     OW29458   0.109   0.648   5.272
 9520SOL    HW129459   0.069   0.669   5.361
 9520SOL    HW229460   0.182   0.713   5.252
 9521SOL     OW29461   3.169   6.996   0.989
 9521SOL    HW129462   3.128   6.907   1.006
 9521SOL    HW229463   3.121   0.021   0.913
 9522SOL     OW29464   3.977   5.889   1.216
 9522SOL    HW129465   3.932   5.866   1.129
 9522SOL    HW229466   3.989   5.805   1.270
 9523SOL     OW29467   2.410   5.472   4.576
 9523SOL    HW129468   2.395   5.543   4.645
 9523SOL    HW229469   2.508   5.455   4.565
 9524SOL     OW29470   1.657   4.262   1.274
 9524SOL    HW129471   1.636   4.262   1.372
 9524SOL    HW229472   1.592   4.204   1.226
 9525SOL     OW29473   2.101   2.187   5.642
 9525SOL    HW129474   2.148   2.272   5.666
 9525SOL    HW229475   2.167   2.121   5.607
 9526SOL     OW29476   5.312   5.174   6.882
 9526SOL    HW129477   5.262   5.256   6.909
 9526SOL    HW229478   5.263   5.127   6.808
 9527SOL     OW29479   3.790   6.814   3.403
 9527SOL    HW129480   3.731   6.738   3.428
 9527SOL    HW229481   3.880   6.779   3.378
 9528SOL     OW29482   6.026   1.501   1.117
 9528SOL    HW129483   5.982   1.427   1.067
 9528SOL    HW229484   6.072   1.562   1.052
 9529SOL     OW29485   6.311   2.118   1.807
 9529SOL    HW129486   6.397   2.069   1.792
 9529SOL    HW229487   6.323   2.185   1.881
 9530SOL     OW29488   0.670   5.464   3.582
 9530SOL    HW129489   0.747   5.400   3.590
 9530SOL    HW229490   0.694   5.536   3.516
 9531SOL     OW29491   4.074   4.817   3.549
 9531SOL    HW129492   4.152   4.766   3.585
 9531SOL    HW229493   4.029   4.866   3.623
 9532SOL     OW29494   6.013   5.416   2.319
 9532SOL    HW129495   6.104   5.420   2.277
 9532SOL    HW229496   6.021   5.382   2.413
 9533SOL     OW29497   1.758   5.406   3.750
 9533SOL    HW129498   1.688   5.450   3.805
 9533SOL    HW229499   1.847   5.413   3.797
 9534SOL     OW29500   5.928   4.883   4.648
 9534SOL    HW129501   5.933   4.960   4.584
 9534SOL    HW229502   5.842   4.834   4.636
 9535SOL     OW29503   1.387   1.605   5.638
 9535SOL    HW129504   1.391   1.705   5.644
 9535SOL    HW229505   1.368   1.567   5.729
 9536SOL     OW29506   3.631   3.771   4.878
 9536SOL    HW129507   3.628   3.768   4.978
 9536SOL    HW229508   3.606   3.863   4.847
 9537SOL     OW29509   1.396   0.712   3.758
 9537SOL    HW129510   1.366   0.790   3.812
 9537SOL    HW229511   1.341   0.707   3.674
 9538SOL     OW29512   3.930   0.572   4.554
 9538SOL    HW129513   3.981   0.543   4.472
 9538SOL    HW229514   3.883   0.657   4.535
 9539SOL     OW29515   3.916   3.030   3.127
 9539SOL    HW129516   3.962   2.993   3.046
 9539SOL    HW229517   3.818   3.034   3.111
 9540SOL     OW29518   4.795   5.225   4.055
 9540SOL    HW129519   4.778   5.132   4.088
 9540SOL    HW229520   4.839   5.278   4.127
 9541SOL     OW29521   1.500   6.227   5.232
 9541SOL    HW129522   1.480   6.281   5.314
 9541SOL    HW229523   1.419   6.224   5.173
 9542SOL     OW29524   5.654   4.883   4.187
 9542SOL    HW129525   5.626   4.846   4.098
 9542SOL    HW229526   5.754   4.875   4.196
 9543SOL     OW29527   2.703   0.901   6.209
 9543SOL    HW129528   2.685   0.837   6.284
 9543SOL    HW229529   2.764   0.974   6.241
 9544SOL     OW29530   5.324   4.047   3.667
 9544SOL    HW129531   5.243   3.989   3.658
 9544SOL    HW229532   5.296   4.141   3.684
 9545SOL     OW29533   1.458   4.854   1.866
 9545SOL    HW129534   1.456   4.954   1.863
 9545SOL    HW229535   1.371   4.821   1.902
 9546SOL     OW29536   2.983   1.322   5.705
 9546SOL    HW129537   2.955   1.378   5.783
 9546SOL    HW229538   2.935   1.353   5.623
 9547SOL     OW29539   3.390   6.270   3.884
 9547SOL    HW129540   3.345   6.355   3.911
 9547SOL    HW229541   3.326   6.194   3.894
 9548SOL     OW29542   1.270   5.095   6.333
 9548SOL    HW129543   1.233   5.104   6.426
 9548SOL    HW229544   1.369   5.109   6.335
 9549SOL     OW29545   3.895   1.914   2.586
 9549SOL    HW129546   3.964   1.960   2.529
 9549SOL    HW229547   3.819   1.977   2.602
 9550SOL     OW29548   5.459   2.658   1.629
 9550SOL    HW129549   5.504   2.670   1.718
 9550SOL    HW229550   5.517   2.698   1.557
 9551SOL     OW29551   6.256   1.976   6.439
 9551SOL    HW129552   6.196   2.029   6.379
 9551SOL    HW229553   6.212   1.963   6.528
 9552SOL     OW29554   2.432   0.747   6.434
 9552SOL    HW129555   2.476   0.819   6.488
 9552SOL    HW229556   2.334   0.748   6.451
 9553SOL     OW29557   5.392   2.563   0.329
 9553SOL    HW129558   5.447   2.485   0.300
 9553SOL    HW229559   5.305   2.564   0.279
 9554SOL     OW29560   2.475   6.537   4.211
 9554SOL    HW129561   2.492   6.621   4.263
 9554SOL    HW229562   2.396   6.551   4.151
 9555SOL     OW29563   6.472   1.243   3.272
 9555SOL    HW129564   6.400   1.186   3.311
 9555SOL    HW229565   6.553   1.187   3.254
 9556SOL     OW29566   2.111   4.476   1.086
 9556SOL    HW129567   2.096   4.575   1.088
 9556SOL    HW229568   2.084   4.439   0.998
 9557SOL     OW29569   5.246   0.153   1.870
 9557SOL    HW129570   5.185   0.119   1.798
 9557SOL    HW229571   5.218   0.246   1.895
 9558SOL     OW29572   5.738   6.390   5.662
 9558SOL    HW129573   5.711   6.322   5.730
 9558SOL    HW229574   5.726   6.353   5.570
 9559SOL     OW29575   1.492   4.103   6.971
 9559SOL    HW129576   1.410   4.047   6.985
 9559SOL    HW229577   1.474   4.196   7.003
 9560SOL     OW29578   3.524   0.538   1.923
 9560SOL    HW129579   3.454   0.565   1.857
 9560SOL    HW229580   3.605   0.597   1.912
 9561SOL     OW29581   0.638   0.714   1.078
 9561SOL    HW129582   0.540   0.728   1.063
 9561SOL    HW229583   0.672   0.646   1.014
 9562SOL     OW29584   2.456   5.538   3.796
 9562SOL    HW129585   2.421   5.475   3.865
 9562SOL    HW229586   2.463   5.630   3.836
 9563SOL     OW29587   0.590   6.732   0.295
 9563SOL    HW129588   0.634   6.648   0.325
 9563SOL    HW229589   0.640   6.811   0.332
 9564SOL     OW29590   1.564   0.569   0.987
 9564SOL    HW129591   1.476   0.526   1.005
 9564SOL    HW229592   1.638   0.513   1.025
 9565SOL     OW29593   3.371   1.155   3.932
 9565SOL    HW129594   3.361   1.254   3.944
 9565SOL    HW229595   3.445   1.121   3.990
 9566SOL     OW29596   2.544   6.880   0.673
 9566SOL    HW129597   2.568   6.913   0.581
 9566SOL    HW229598   2.469   6.815   0.666
 9567SOL     OW29599   7.008   4.986   0.670
 9567SOL    HW129600   6.914   4.969   0.701
 9567SOL    HW229601   0.000   4.948   0.578
 9568SOL     OW29602   3.834   2.038   6.779
 9568SOL    HW129603   3.867   1.947   6.751
 9568SOL    HW229604   3.754   2.027   6.839
 9569SOL     OW29605   5.887   0.396   1.666
 9569SOL    HW129606   5.872   0.489   1.701
 9569SOL    HW229607   5.928   0.402   1.575
 9570SOL     OW29608   0.500   3.195   1.120
 9570SOL    HW129609   0.520   3.115   1.177
 9570SOL    HW229610   0.540   3.277   1.161
 9571SOL     OW29611   2.687   2.821   6.568
 9571SOL    HW129612   2.702   2.873   6.652
 9571SOL    HW229613   2.624   2.871   6.508
 9572SOL     OW29614   2.182   3.952   3.522
 9572SOL    HW129615   2.236   4.034   3.501
 9572SOL    HW229616   2.160   3.903   3.438
 9573SOL     OW29617   6.749   0.920   5.335
 9573SOL    HW129618   6.652   0.897   5.339
 9573SOL    HW229619   6.795   0.859   5.269
 9574SOL     OW29620   3.859   3.031   1.421
 9574SOL    HW129621   3.851   2.997   1.514
 9574SOL    HW229622   3.898   2.960   1.362
 9575SOL     OW29623   5.805   6.802   2.124
 9575SOL    HW129624   5.872   6.729   2.114
 9575SOL    HW229625   5.714   6.763   2.132
 9576SOL     OW29626   1.378   1.585   0.262
 9576SOL    HW129627   1.359   1.594   0.164
 9576SOL    HW229628   1.402   1.675   0.299
 9577SOL     OW29629   0.070   6.074   0.729
 9577SOL    HW129630   0.064   6.076   0.629
 9577SOL    HW229631   0.049   6.164   0.766
 9578SOL     OW29632   1.389   2.914   2.780
 9578SOL    HW129633   1.436   2.874   2.858
 9578SOL    HW229634   1.316   2.853   2.750
 9579SOL     OW29635   6.046   0.102   2.312
 9579SOL    HW129636   6.082   0.011   2.288
 9579SOL    HW229637   6.091   0.134   2.396
 9580SOL     OW29638   5.048   4.295   0.950
 9580SOL    HW129639   5.100   4.364   1.001
 9580SOL    HW229640   5.025   4.330   0.860
 9581SOL     OW29641   6.732   0.690   6.843
 9581SOL    HW129642   6.661   0.729   6.902
 9581SOL    HW229643   6.747   0.751   6.765
 9582SOL     OW29644   3.821   5.636   4.514
 9582SOL    HW129645   3.789   5.553   4.469
 9582SOL    HW229646   3.875   5.690   4.449
 9583SOL     OW29647   3.306   4.603   1.663
 9583SOL    HW129648   3.373   4.658   1.713
 9583SOL    HW229649   3.214   4.625   1.696
 9584SOL     OW29650   1.554   4.504   4.913
 9584SOL    HW129651   1.507   4.587   4.942
 9584SOL    HW229652   1.525   4.479   4.821
 9585SOL     OW29653   5.159   5.965   1.407
 9585SOL    HW129654   5.213   5.887   1.438
 9585SOL    HW229655   5.072   5.967   1.457
 9586SOL     OW29656   4.510   4.991   1.600
 9586SOL    HW129657   4.518   5.086   1.630
 9586SOL    HW229658   4.432   4.982   1.538
 9587SOL     OW29659   2.302   6.317   2.032
 9587SOL    HW129660   2.256   6.327   2.120
 9587SOL    HW229661   2.276   6.230   1.990
 9588SOL     OW29662   6.081   6.285   0.912
 9588SOL    HW129663   6.135   6.283   0.996
 9588SOL    HW229664   5.996   6.336   0.928
 9589SOL     OW29665   1.669   3.421   6.546
 9589SOL    HW129666   1.615   3.432   6.629
 9589SOL    HW229667   1.762   3.391   6.571
 9590SOL     OW29668   5.524   1.770   1.786
 9590SOL    HW129669   5.515   1.789   1.689
 9590SOL    HW229670   5.621   1.762   1.809
 9591SOL     OW29671   3.483   6.563   6.071
 9591SOL    HW129672   3.556   6.496   6.063
 9591SOL    HW229673   3.416   6.549   5.998
 9592SOL     OW29674   2.606   4.303   6.576
 9592SOL    HW129675   2.557   4.224   6.613
 9592SOL    HW229676   2.637   4.284   6.483
 9593SOL     OW29677   2.076   1.250   5.822
 9593SOL    HW129678   2.045   1.208   5.907
 9593SOL    HW229679   2.175   1.261   5.824
 9594SOL     OW29680   2.302   6.165   4.015
 9594SOL    HW129681   2.214   6.128   4.045
 9594SOL    HW229682   2.375   6.100   4.035
 9595SOL     OW29683   0.497   3.479   3.594
 9595SOL    HW129684   0.414   3.533   3.610
 9595SOL    HW229685   0.497   3.447   3.499
 9596SOL     OW29686   0.866   5.195   1.073
 9596SOL    HW129687   0.879   5.223   1.168
 9596SOL    HW229688   0.770   5.209   1.046
 9597SOL     OW29689   1.037   4.445   1.679
 9597SOL    HW129690   0.942   4.470   1.662
 9597SOL    HW229691   1.066   4.482   1.767
 9598SOL     OW29692   1.732   3.741   2.448
 9598SOL    HW129693   1.799   3.798   2.494
 9598SOL    HW229694   1.669   3.702   2.516
 9599SOL     OW29695   3.441   6.922   4.044
 9599SOL    HW129696   3.417   6.941   4.139
 9599SOL    HW229697   3.533   6.883   4.040
 9600SOL     OW29698   2.985   0.358   1.035
 9600SOL    HW129699   3.021   0.292   1.101
 9600SOL    HW229700   2.973   0.313   0.946
 9601SOL     OW29701   6.521   4.735   1.202
 9601SOL    HW129702   6.555   4.647   1.234
 9601SOL    HW229703   6.532   4.804   1.274
 9602SOL     OW29704   4.503   4.769   5.614
 9602SOL    HW129705   4.440   4.717   5.556
 9602SOL    HW229706   4.472   4.864   5.620
 9603SOL     OW29707   5.740   6.270   6.150
 9603SOL    HW129708   5.671   6.199   6.168
 9603SOL    HW229709   5.760   6.318   6.236
 9604SOL     OW29710   4.973   0.529   1.414
 9604SOL    HW129711   4.965   0.560   1.509
 9604SOL    HW229712   5.011   0.603   1.358
 9605SOL     OW29713   0.234   4.991   3.145
 9605SOL    HW129714   0.172   5.027   3.075
 9605SOL    HW229715   0.329   5.008   3.118
 9606SOL     OW29716   1.499   1.413   6.970
 9606SOL    HW129717   1.448   1.342   0.001
 9606SOL    HW229718   1.484   1.400   6.872
 9607SOL     OW29719   3.141   1.837   6.945
 9607SOL    HW129720   3.160   1.774   7.020
 9607SOL    HW229721   3.131   1.786   6.859
 9608SOL     OW29722   6.758   4.496   2.583
 9608SOL    HW129723   6.822   4.514   2.509
 9608SOL    HW229724   6.776   4.559   2.659
 9609SOL     OW29725   3.719   2.553   6.343
 9609SOL    HW129726   3.807   2.547   6.391
 9609SOL    HW229727   3.650   2.591   6.404
 9610SOL     OW29728   1.772   4.731   2.642
 9610SOL    HW129729   1.864   4.706   2.670
 9610SOL    HW229730   1.775   4.787   2.560
 9611SOL     OW29731   1.951   6.636   0.923
 9611SOL    HW129732   2.011   6.715   0.928
 9611SOL    HW229733   1.870   6.659   0.869
 9612SOL     OW29734   0.696   3.186   1.867
 9612SOL    HW129735   0.747   3.266   1.899
 9612SOL    HW229736   0.643   3.148   1.944
 9613SOL     OW29737   5.917   6.480   3.467
 9613SOL    HW129738   5.932   6.383   3.451
 9613SOL    HW229739   6.001   6.522   3.502
 9614SOL     OW29740   3.667   2.099   2.646
 9614SOL    HW129741   3.626   2.186   2.619
 9614SOL    HW229742   3.594   2.034   2.668
 9615SOL     OW29743   2.751   2.431   1.102
 9615SOL    HW129744   2.851   2.442   1.110
 9615SOL    HW229745   2.708   2.521   1.105
 9616SOL     OW29746   3.387   3.164   1.114
 9616SOL    HW129747   3.421   3.081   1.158
 9616SOL    HW229748   3.364   3.143   1.018
 9617SOL     OW29749   2.220   3.019   3.864
 9617SOL    HW129750   2.178   2.956   3.929
 9617SOL    HW229751   2.302   2.976   3.825
 9618SOL     OW29752   2.991   0.740   1.327
 9618SOL    HW129753   2.942   0.675   1.269
 9618SOL    HW229754   2.938   0.756   1.410
 9619SOL     OW29755   1.893   0.385   5.604
 9619SOL    HW129756   1.906   0.484   5.613
 9619SOL    HW229757   1.886   0.344   5.695
 9620SOL     OW29758   4.781   0.544   4.567
 9620SOL    HW129759   4.699   0.546   4.624
 9620SOL    HW229760   4.844   0.474   4.602
 9621SOL     OW29761   1.593   2.854   1.885
 9621SOL    HW129762   1.591   2.832   1.787
 9621SOL    HW229763   1.601   2.953   1.896
 9622SOL     OW29764   5.952   1.414   0.550
 9622SOL    HW129765   5.865   1.369   0.572
 9622SOL    HW229766   5.964   1.493   0.610
 9623SOL     OW29767   2.149   2.796   6.794
 9623SOL    HW129768   2.109   2.749   6.716
 9623SOL    HW229769   2.239   2.834   6.768
 9624SOL     OW29770   6.068   3.578   2.959
 9624SOL    HW129771   6.027   3.589   2.869
 9624SOL    HW229772   6.167   3.569   2.950
 9625SOL     OW29773   5.471   5.748   0.096
 9625SOL    HW129774   5.397   5.793   0.146
 9625SOL    HW229775   5.543   5.814   0.077
 9626SOL     OW29776   3.818   4.913   0.567
 9626SOL    HW129777   3.784   4.830   0.611
 9626SOL    HW229778   3.741   4.970   0.539
 9627SOL     OW29779   0.755   6.088   6.602
 9627SOL    HW129780   0.849   6.064   6.626
 9627SOL    HW229781   0.693   6.054   6.673
 9628SOL     OW29782   5.185   5.337   0.902
 9628SOL    HW129783   5.285   5.341   0.901
 9628SOL    HW229784   5.148   5.425   0.873
 9629SOL     OW29785   1.742   0.740   1.435
 9629SOL    HW129786   1.690   0.775   1.357
 9629SOL    HW229787   1.836   0.777   1.431
 9630SOL     OW29788   6.431   0.099   5.157
 9630SOL    HW129789   6.406   0.172   5.221
 9630SOL    HW229790   6.364   0.096   5.083
 9631SOL     OW29791   6.463   0.208   6.562
 9631SOL    HW129792   6.379   0.225   6.510
 9631SOL    HW229793   6.471   0.277   6.635
 9632SOL     OW29794   1.722   6.633   2.815
 9632SOL    HW129795   1.639   6.596   2.772
 9632SOL    HW229796   1.710   6.636   2.914
 9633SOL     OW29797   5.844   5.486   6.868
 9633SOL    HW129798   5.822   5.579   6.840
 9633SOL    HW229799   5.795   5.465   6.953
 9634SOL     OW29800   1.695   6.467   4.751
 9634SOL    HW129801   1.699   6.431   4.844
 9634SOL    HW229802   1.646   6.403   4.692
 9635SOL     OW29803   2.162   5.142   5.020
 9635SOL    HW129804   2.143   5.167   5.115
 9635SOL    HW229805   2.226   5.208   4.980
 9636SOL     OW29806   4.094   1.797   5.417
 9636SOL    HW129807   4.082   1.878   5.474
 9636SOL    HW229808   4.086   1.715   5.473
 9637SOL     OW29809   2.218   2.142   6.260
 9637SOL    HW129810   2.280   2.114   6.334
 9637SOL    HW229811   2.137   2.184   6.300
 9638SOL     OW29812   6.794   3.414   5.202
 9638SOL    HW129813   6.696   3.405   5.220
 9638SOL    HW229814   6.821   3.510   5.212
 9639SOL     OW29815   4.203   1.710   2.343
 9639SOL    HW129816   4.191   1.611   2.334
 9639SOL    HW229817   4.125   1.757   2.301
 9640SOL     OW29818   2.514   2.569   3.260
 9640SOL    HW129819   2.420   2.561   3.228
 9640SOL    HW229820   2.575   2.530   3.191
 9641SOL     OW29821   4.802   6.899   0.321
 9641SOL    HW129822   4.793   6.996   0.302
 9641SOL    HW229823   4.815   6.849   0.235
 9642SOL     OW29824   3.382   0.559   4.676
 9642SOL    HW129825   3.429   0.490   4.730
 9642SOL    HW229826   3.441   0.639   4.665
 9643SOL     OW29827   5.030   4.041   3.051
 9643SOL    HW129828   5.070   3.969   2.994
 9643SOL    HW229829   5.084   4.124   3.043
 9644SOL     OW29830   1.268   3.043   6.568
 9644SOL    HW129831   1.340   3.038   6.637
 9644SOL    HW229832   1.212   3.124   6.584
 9645SOL     OW29833   2.987   5.209   5.367
 9645SOL    HW129834   3.026   5.171   5.283
 9645SOL    HW229835   2.970   5.307   5.354
 9646SOL     OW29836   4.351   4.986   2.351
 9646SOL    HW129837   4.264   4.997   2.399
 9646SOL    HW229838   4.335   4.937   2.265
 9647SOL     OW29839   6.305   3.197   1.270
 9647SOL    HW129840   6.346   3.136   1.203
 9647SOL    HW229841   6.273   3.144   1.349
 9648SOL     OW29842   4.338   2.297   1.080
 9648SOL    HW129843   4.241   2.300   1.104
 9648SOL    HW229844   4.383   2.225   1.134
 9649SOL     OW29845   2.299   6.518   0.379
 9649SOL    HW129846   2.340   6.547   0.293
 9649SOL    HW229847   2.349   6.439   0.414
 9650SOL     OW29848   6.881   5.618   2.397
 9650SOL    HW129849   6.847   5.524   2.401
 9650SOL    HW229850   6.803   5.681   2.403
 9651SOL     OW29851   0.816   1.585   6.136
 9651SOL    HW129852   0.904   1.629   6.155
 9651SOL    HW229853   0.832   1.493   6.100
 9652SOL     OW29854   0.934   4.612   2.432
 9652SOL    HW129855   0.877   4.664   2.368
 9652SOL    HW229856   0.886   4.603   2.519
 9653SOL     OW29857   4.710   4.846   4.416
 9653SOL    HW129858   4.704   4.926   4.356
 9653SOL    HW229859   4.803   4.836   4.449
 9654SOL     OW29860   2.153   2.499   2.170
 9654SOL    HW129861   2.202   2.576   2.129
 9654SOL    HW229862   2.087   2.533   2.237
 9655SOL     OW29863   6.792   1.917   6.297
 9655SOL    HW129864   6.695   1.894   6.293
 9655SOL    HW229865   6.817   1.939   6.392
 9656SOL     OW29866   3.271   6.870   2.302
 9656SOL    HW129867   3.257   6.832   2.211
 9656SOL    HW229868   3.362   6.912   2.307
 9657SOL     OW29869   6.142   1.278   5.113
 9657SOL    HW129870   6.184   1.361   5.077
 9657SOL    HW229871   6.154   1.203   5.048
 9658SOL     OW29872   6.387   3.077   2.117
 9658SOL    HW129873   6.365   3.101   2.211
 9658SOL    HW229874   6.346   3.144   2.055
 9659SOL     OW29875   0.595   5.013   0.334
 9659SOL    HW129876   0.615   5.107   0.361
 9659SOL    HW229877   0.607   4.952   0.412
 9660SOL     OW29878   1.020   5.330   0.671
 9660SOL    HW129879   0.923   5.349   0.656
 9660SOL    HW229880   1.047   5.365   0.760
 9661SOL     OW29881   4.477   6.931   0.435
 9661SOL    HW129882   4.515   6.951   0.344
 9661SOL    HW229883   4.552   6.925   0.501
 9662SOL     OW29884   6.069   1.749   4.169
 9662SOL    HW129885   6.168   1.761   4.178
 9662SOL    HW229886   6.041   1.775   4.077
 9663SOL     OW29887   1.729   5.245   2.867
 9663SOL    HW129888   1.739   5.302   2.949
 9663SOL    HW229889   1.814   5.248   2.815
 9664SOL     OW29890   4.446   6.494   2.133
 9664SOL    HW129891   4.354   6.532   2.123
 9664SOL    HW229892   4.462   6.470   2.229
 9665SOL     OW29893   5.548   4.169   4.941
 9665SOL    HW129894   5.617   4.183   4.870
 9665SOL    HW229895   5.521   4.072   4.943
 9666SOL     OW29896   5.309   4.308   2.541
 9666SOL    HW129897   5.243   4.233   2.532
 9666SOL    HW229898   5.261   4.395   2.547
 9667SOL     OW29899   3.949   3.879   4.265
 9667SOL    HW129900   3.856   3.844   4.254
 9667SOL    HW229901   3.989   3.840   4.348
 9668SOL     OW29902   0.182   1.191   5.759
 9668SOL    HW129903   0.161   1.098   5.729
 9668SOL    HW229904   0.275   1.194   5.796
 9669SOL     OW29905   0.505   0.105   0.221
 9669SOL    HW129906   0.556   0.148   0.295
 9669SOL    HW229907   0.455   0.026   0.256
 9670SOL     OW29908   4.737   4.577   6.411
 9670SOL    HW129909   4.767   4.608   6.501
 9670SOL    HW229910   4.657   4.630   6.383
 9671SOL     OW29911   7.015   5.172   5.861
 9671SOL    HW129912   6.952   5.248   5.843
 9671SOL    HW229913   0.023   5.131   5.773
 9672SOL     OW29914   0.467   6.017   4.789
 9672SOL    HW129915   0.474   6.116   4.778
 9672SOL    HW229916   0.378   5.986   4.754
 9673SOL     OW29917   3.662   3.979   6.602
 9673SOL    HW129918   3.732   3.951   6.667
 9673SOL    HW229919   3.684   4.069   6.566
 9674SOL     OW29920   3.078   6.494   1.754
 9674SOL    HW129921   3.076   6.405   1.708
 9674SOL    HW229922   3.052   6.482   1.849
 9675SOL     OW29923   6.752   1.702   2.380
 9675SOL    HW129924   6.819   1.635   2.347
 9675SOL    HW229925   6.681   1.715   2.310
 9676SOL     OW29926   1.040   3.662   5.498
 9676SOL    HW129927   0.962   3.599   5.496
 9676SOL    HW229928   1.067   3.678   5.593
 9677SOL     OW29929   2.177   4.249   6.162
 9677SOL    HW129930   2.263   4.278   6.121
 9677SOL    HW229931   2.154   4.158   6.128
 9678SOL     OW29932   3.987   3.790   3.519
 9678SOL    HW129933   4.030   3.701   3.534
 9678SOL    HW229934   3.925   3.811   3.594
 9679SOL     OW29935   1.579   2.666   2.142
 9679SOL    HW129936   1.481   2.678   2.157
 9679SOL    HW229937   1.611   2.731   2.073
 9680SOL     OW29938   5.938   6.228   3.377
 9680SOL    HW129939   5.971   6.191   3.290
 9680SOL    HW229940   5.972   6.172   3.452
 9681SOL     OW29941   1.999   0.795   2.292
 9681SOL    HW129942   1.926   0.732   2.267
 9681SOL    HW229943   2.088   0.750   2.280
 9682SOL     OW29944   5.662   4.313   3.544
 9682SOL    HW129945   5.635   4.409   3.530
 9682SOL    HW229946   5.620   4.278   3.627
 9683SOL     OW29947   3.993   5.758   0.172
 9683SOL    HW129948   3.996   5.857   0.184
 9683SOL    HW229949   4.086   5.721   0.173
 9684SOL     OW29950   0.245   4.028   5.493
 9684SOL    HW129951   0.212   4.103   5.436
 9684SOL    HW229952   0.332   3.995   5.458
 9685SOL     OW29953   1.655   3.210   1.230
 9685SOL    HW129954   1.617   3.281   1.170
 9685SOL    HW229955   1.751   3.231   1.250
 9686SOL     OW29956   6.508   0.570   1.816
 9686SOL    HW129957   6.453   0.520   1.750
 9686SOL    HW229958   6.558   0.643   1.770
 9687SOL     OW29959   2.468   0.436   3.361
 9687SOL    HW129960   2.566   0.453   3.374
 9687SOL    HW229961   2.419   0.465   3.443
 9688SOL     OW29962   0.003   1.478   3.121
 9688SOL    HW129963   6.991   1.414   3.051
 9688SOL    HW229964   0.009   1.431   3.209
 9689SOL     OW29965   2.805   6.438   6.468
 9689SOL    HW129966   2.840   6.350   6.435
 9689SOL    HW229967   2.881   6.502   6.477
 9690SOL     OW29968   6.199   4.959   0.581
 9690SOL    HW129969   6.224   5.041   0.632
 9690SOL    HW229970   6.281   4.924   0.535
 9691SOL     OW29971   2.064   5.420   2.028
 9691SOL    HW129972   1.968   5.393   2.024
 9691SOL    HW229973   2.122   5.342   2.001
 9692SOL     OW29974   2.849   5.478   2.052
 9692SOL    HW129975   2.909   5.523   1.986
 9692SOL    HW229976   2.813   5.547   2.116
 9693SOL     OW29977   0.029   6.263   1.930
 9693SOL    HW129978   0.037   6.169   1.898
 9693SOL    HW229979   7.009   6.320   1.858
 9694SOL     OW29980   1.642   2.365   0.322
 9694SOL    HW129981   1.655   2.415   0.236
 9694SOL    HW229982   1.611   2.428   0.393
 9695SOL     OW29983   6.635   3.877   1.255
 9695SOL    HW129984   6.536   3.891   1.248
 9695SOL    HW229985   6.681   3.929   1.183
 9696SOL     OW29986   3.746   2.894   1.983
 9696SOL    HW129987   3.647   2.898   1.987
 9696SOL    HW229988   3.784   2.937   2.066
 9697SOL     OW29989   0.444   5.117   0.114
 9697SOL    HW129990   0.356   5.127   0.160
 9697SOL    HW229991   0.509   5.071   0.175
 9698SOL     OW29992   5.771   1.452   5.220
 9698SOL    HW129993   5.686   1.496   5.191
 9698SOL    HW229994   5.782   1.463   5.319
 9699SOL     OW29995   1.292   3.811   6.529
 9699SOL    HW129996   1.240   3.893   6.552
 9699SOL    HW229997   1.373   3.836   6.476
 9700SOL     OW29998   3.411   4.749   5.538
 9700SOL    HW129999   3.312   4.736   5.549
 9700SOL    HW230000   3.432   4.771   5.443
 9701SOL     OW30001   4.394   4.954   4.742
 9701SOL    HW130002   4.471   5.010   4.712
 9701SOL    HW230003   4.330   4.942   4.666
 9702SOL     OW30004   5.071   1.096   0.866
 9702SOL    HW130005   4.994   1.077   0.806
 9702SOL    HW230006   5.042   1.090   0.961
 9703SOL     OW30007   3.398   6.205   4.543
 9703SOL    HW130008   3.341   6.285   4.522
 9703SOL    HW230009   3.405   6.147   4.462
 9704SOL     OW30010   3.803   6.937   2.978
 9704SOL    HW130011   3.753   6.864   3.024
 9704SOL    HW230012   3.793   0.002   3.031
 9705SOL     OW30013   3.304   4.439   0.845
 9705SOL    HW130014   3.220   4.484   0.875
 9705SOL    HW230015   3.331   4.475   0.756
 9706SOL     OW30016   6.362   3.193   2.395
 9706SOL    HW130017   6.309   3.269   2.358
 9706SOL    HW230018   6.300   3.128   2.440
 9707SOL     OW30019   1.427   4.239   2.174
 9707SOL    HW130020   1.342   4.188   2.156
 9707SOL    HW230021   1.450   4.295   2.095
 9708SOL     OW30022   2.257   1.885   3.686
 9708SOL    HW130023   2.203   1.913   3.607
 9708SOL    HW230024   2.342   1.843   3.655
 9709SOL     OW30025   1.480   6.272   3.415
 9709SOL    HW130026   1.405   6.317   3.367
 9709SOL    HW230027   1.526   6.208   3.354
 9710SOL     OW30028   0.274   1.198   3.207
 9710SOL    HW130029   0.325   1.118   3.238
 9710SOL    HW230030   0.337   1.275   3.197
 9711SOL     OW30031   1.490   3.509   6.218
 9711SOL    HW130032   1.431   3.428   6.214
 9711SOL    HW230033   1.543   3.515   6.134
 9712SOL     OW30034   5.476   1.942   4.495
 9712SOL    HW130035   5.413   1.944   4.418
 9712SOL    HW230036   5.452   2.015   4.559
 9713SOL     OW30037   0.286   4.656   3.143
 9713SOL    HW130038   0.189   4.630   3.146
 9713SOL    HW230039   0.306   4.701   3.056
 9714SOL     OW30040   1.977   2.638   1.947
 9714SOL    HW130041   1.993   2.541   1.967
 9714SOL    HW230042   2.038   2.667   1.873
 9715SOL     OW30043   5.204   5.244   4.894
 9715SOL    HW130044   5.184   5.302   4.973
 9715SOL    HW230045   5.149   5.161   4.899
 9716SOL     OW30046   4.059   1.726   6.480
 9716SOL    HW130047   4.060   1.741   6.381
 9716SOL    HW230048   4.105   1.802   6.526
 9717SOL     OW30049   5.989   5.652   3.718
 9717SOL    HW130050   5.972   5.694   3.807
 9717SOL    HW230051   6.088   5.639   3.705
 9718SOL     OW30052   3.594   3.606   1.171
 9718SOL    HW130053   3.693   3.608   1.160
 9718SOL    HW230054   3.553   3.547   1.101
 9719SOL     OW30055   0.478   2.571   6.950
 9719SOL    HW130056   0.434   2.611   6.870
 9719SOL    HW230057   0.536   2.640   6.994
 9720SOL     OW30058   0.444   6.598   2.315
 9720SOL    HW130059   0.458   6.687   2.272
 9720SOL    HW230060   0.451   6.527   2.245
 9721SOL     OW30061   0.003   4.009   2.536
 9721SOL    HW130062   0.012   3.911   2.522
 9721SOL    HW230063   6.973   4.026   2.621
 9722SOL     OW30064   0.379   0.421   3.915
 9722SOL    HW130065   0.302   0.438   3.976
 9722SOL    HW230066   0.350   0.430   3.820
 9723SOL     OW30067   0.261   0.375   3.583
 9723SOL    HW130068   0.293   0.414   3.497
 9723SOL    HW230069   0.172   0.414   3.606
 9724SOL     OW30070   2.995   2.436   1.239
 9724SOL    HW130071   2.945   2.465   1.321
 9724SOL    HW230072   3.085   2.478   1.237
 9725SOL     OW30073   5.191   3.314   6.120
 9725SOL    HW130074   5.158   3.336   6.028
 9725SOL    HW230075   5.223   3.219   6.122
 9726SOL     OW30076   4.825   6.709   4.795
 9726SOL    HW130077   4.868   6.625   4.828
 9726SOL    HW230078   4.894   6.768   4.754
 9727SOL     OW30079   0.647   3.112   6.121
 9727SOL    HW130080   0.743   3.087   6.128
 9727SOL    HW230081   0.603   3.102   6.210
 9728SOL     OW30082   2.272   5.961   6.482
 9728SOL    HW130083   2.322   6.023   6.542
 9728SOL    HW230084   2.329   5.881   6.461
 9729SOL     OW30085   1.308   4.329   3.265
 9729SOL    HW130086   1.316   4.350   3.167
 9729SOL    HW230087   1.228   4.270   3.279
 9730SOL     OW30088   6.736   3.445   2.511
 9730SOL    HW130089   6.714   3.372   2.446
 9730SOL    HW230090   6.714   3.414   2.604
 9731SOL     OW30091   3.530   4.988   0.781
 9731SOL    HW130092   3.565   5.079   0.805
 9731SOL    HW230093   3.431   4.993   0.767
 9732SOL     OW30094   6.945   6.128   2.443
 9732SOL    HW130095   6.959   6.175   2.356
 9732SOL    HW230096   6.855   6.152   2.480
 9733SOL     OW30097   5.101   4.952   4.306
 9733SOL    HW130098   5.045   4.893   4.364
 9733SOL    HW230099   5.050   4.977   4.224
 9734SOL     OW30100   5.528   2.281   3.986
 9734SOL    HW130101   5.553   2.371   3.951
 9734SOL    HW230102   5.531   2.214   3.912
 9735SOL     OW30103   2.199   5.692   1.809
 9735SOL    HW130104   2.110   5.737   1.817
 9735SOL    HW230105   2.186   5.593   1.803
 9736SOL     OW30106   4.631   1.551   6.799
 9736SOL    HW130107   4.727   1.553   6.827
 9736SOL    HW230108   4.623   1.501   6.713
 9737SOL     OW30109   3.982   2.191   5.035
 9737SOL    HW130110   4.079   2.206   5.021
 9737SOL    HW230111   3.945   2.134   4.961
 9738SOL     OW30112   1.886   1.298   3.141
 9738SOL    HW130113   1.884   1.211   3.191
 9738SOL    HW230114   1.794   1.337   3.138
 9739SOL     OW30115   6.396   4.907   1.816
 9739SOL    HW130116   6.312   4.861   1.785
 9739SOL    HW230117   6.473   4.844   1.809
 9740SOL     OW30118   5.859   4.292   2.633
 9740SOL    HW130119   5.771   4.340   2.636
 9740SOL    HW230120   5.843   4.193   2.634
 9741SOL     OW30121   4.631   1.710   1.718
 9741SOL    HW130122   4.657   1.757   1.801
 9741SOL    HW230123   4.599   1.776   1.650
 9742SOL     OW30124   5.598   0.888   3.429
 9742SOL    HW130125   5.570   0.875   3.525
 9742SOL    HW230126   5.603   0.799   3.384
 9743SOL     OW30127   1.830   2.792   5.852
 9743SOL    HW130128   1.817   2.806   5.753
 9743SOL    HW230129   1.741   2.787   5.896
 9744SOL     OW30130   1.866   1.308   2.085
 9744SOL    HW130131   1.770   1.311   2.113
 9744SOL    HW230132   1.918   1.252   2.149
 9745SOL     OW30133   0.645   2.208   5.301
 9745SOL    HW130134   0.572   2.251   5.249
 9745SOL    HW230135   0.609   2.173   5.388
 9746SOL     OW30136   5.778   0.808   4.984
 9746SOL    HW130137   5.829   0.807   4.897
 9746SOL    HW230138   5.773   0.716   5.021
 9747SOL     OW30139   0.876   7.019   6.775
 9747SOL    HW130140   0.961   0.051   6.778
 9747SOL    HW230141   0.892   6.926   6.810
 9748SOL     OW30142   1.124   6.131   4.178
 9748SOL    HW130143   1.210   6.176   4.203
 9748SOL    HW230144   1.101   6.153   4.083
 9749SOL     OW30145   0.594   3.141   4.716
 9749SOL    HW130146   0.609   3.101   4.625
 9749SOL    HW230147   0.508   3.191   4.716
 9750SOL     OW30148   4.800   5.198   3.526
 9750SOL    HW130149   4.706   5.223   3.549
 9750SOL    HW230150   4.808   5.187   3.427
 9751SOL     OW30151   1.814   2.261   0.759
 9751SOL    HW130152   1.802   2.223   0.667
 9751SOL    HW230153   1.762   2.346   0.768
 9752SOL     OW30154   4.239   0.818   5.441
 9752SOL    HW130155   4.172   0.751   5.410
 9752SOL    HW230156   4.285   0.858   5.362
 9753SOL     OW30157   6.598   5.799   5.489
 9753SOL    HW130158   6.624   5.803   5.393
 9753SOL    HW230159   6.633   5.880   5.536
 9754SOL     OW30160   1.614   1.846   0.126
 9754SOL    HW130161   1.666   1.761   0.140
 9754SOL    HW230162   1.662   1.922   0.170
 9755SOL     OW30163   4.087   3.771   5.020
 9755SOL    HW130164   4.087   3.812   5.111
 9755SOL    HW230165   4.043   3.833   4.956
 9756SOL     OW30166   5.821   2.918   6.554
 9756SOL    HW130167   5.750   2.930   6.484
 9756SOL    HW230168   5.799   2.975   6.633
 9757SOL     OW30169   5.600   2.593   4.047
 9757SOL    HW130170   5.688   2.550   4.066
 9757SOL    HW230171   5.612   2.663   3.976
 9758SOL     OW30172   3.038   0.789   6.923
 9758SOL    HW130173   2.988   0.873   6.900
 9758SOL    HW230174   2.976   0.725   6.968
 9759SOL     OW30175   3.127   6.724   1.043
 9759SOL    HW130176   3.223   6.696   1.048
 9759SOL    HW230177   3.080   6.668   0.975
 9760SOL     OW30178   5.823   4.288   6.050
 9760SOL    HW130179   5.895   4.332   6.103
 9760SOL    HW230180   5.744   4.270   6.109
 9761SOL     OW30181   5.103   5.289   1.701
 9761SOL    HW130182   5.080   5.314   1.795
 9761SOL    HW230183   5.042   5.216   1.670
 9762SOL     OW30184   2.712   2.441   5.094
 9762SOL    HW130185   2.686   2.510   5.162
 9762SOL    HW230186   2.650   2.446   5.016
 9763SOL     OW30187   3.234   1.922   1.837
 9763SOL    HW130188   3.275   1.989   1.899
 9763SOL    HW230189   3.155   1.879   1.881
 9764SOL     OW30190   1.192   1.869   3.214
 9764SOL    HW130191   1.149   1.936   3.153
 9764SOL    HW230192   1.127   1.842   3.285
 9765SOL     OW30193   0.321   2.234   5.802
 9765SOL    HW130194   0.352   2.139   5.797
 9765SOL    HW230195   0.343   2.281   5.717
 9766SOL     OW30196   2.638   0.137   3.473
 9766SOL    HW130197   2.638   0.226   3.427
 9766SOL    HW230198   2.674   0.068   3.411
 9767SOL     OW30199   5.216   0.631   5.348
 9767SOL    HW130200   5.128   0.662   5.313
 9767SOL    HW230201   5.268   0.589   5.274
 9768SOL     OW30202   4.591   2.134   2.493
 9768SOL    HW130203   4.607   2.156   2.589
 9768SOL    HW230204   4.648   2.193   2.436
 9769SOL     OW30205   1.365   2.012   0.863
 9769SOL    HW130206   1.459   1.992   0.892
 9769SOL    HW230207   1.349   1.971   0.773
 9770SOL     OW30208   5.658   4.698   5.655
 9770SOL    HW130209   5.710   4.755   5.717
 9770SOL    HW230210   5.662   4.603   5.686
 9771SOL     OW30211   3.793   5.608   5.750
 9771SOL    HW130212   3.739   5.654   5.820
 9771SOL    HW230213   3.803   5.669   5.671
 9772SOL     OW30214   6.965   0.372   2.077
 9772SOL    HW130215   6.933   0.344   2.168
 9772SOL    HW230216   6.889   0.407   2.024
 9773SOL     OW30217   6.276   5.649   3.676
 9773SOL    HW130218   6.368   5.667   3.709
 9773SOL    HW230219   6.281   5.606   3.586
 9774SOL     OW30220   6.313   4.765   3.820
 9774SOL    HW130221   6.260   4.820   3.755
 9774SOL    HW230222   6.360   4.826   3.884
 9775SOL     OW30223   1.864   2.510   4.664
 9775SOL    HW130224   1.812   2.596   4.665
 9775SOL    HW230225   1.808   2.438   4.623
 9776SOL     OW30226   0.053   5.722   4.309
 9776SOL    HW130227   0.080   5.809   4.266
 9776SOL    HW230228   0.005   5.665   4.243
 9777SOL     OW30229   5.432   4.288   6.145
 9777SOL    HW130230   5.345   4.259   6.186
 9777SOL    HW230231   5.499   4.215   6.156
 9778SOL     OW30232   5.411   6.499   2.782
 9778SOL    HW130233   5.487   6.515   2.718
 9778SOL    HW230234   5.326   6.492   2.731
 9779SOL     OW30235   3.055   1.827   5.547
 9779SOL    HW130236   3.045   1.764   5.623
 9779SOL    HW230237   2.968   1.837   5.500
 9780SOL     OW30238   2.662   4.342   0.472
 9780SOL    HW130239   2.607   4.303   0.398
 9780SOL    HW230240   2.724   4.272   0.508
 9781SOL     OW30241   2.491   5.100   5.026
 9781SOL    HW130242   2.439   5.175   4.986
 9781SOL    HW230243   2.570   5.079   4.969
 9782SOL     OW30244   6.457   0.585   1.375
 9782SOL    HW130245   6.360   0.606   1.365
 9782SOL    HW230246   6.507   0.666   1.407
 9783SOL     OW30247   5.670   1.236   1.793
 9783SOL    HW130248   5.652   1.321   1.744
 9783SOL    HW230249   5.699   1.256   1.886
 9784SOL     OW30250   4.547   1.052   3.102
 9784SOL    HW130251   4.562   0.953   3.098
 9784SOL    HW230252   4.451   1.072   3.086
 9785SOL     OW30253   0.416   2.500   2.100
 9785SOL    HW130254   0.342   2.519   2.165
 9785SOL    HW230255   0.441   2.583   2.052
 9786SOL     OW30256   2.791   5.846   5.304
 9786SOL    HW130257   2.849   5.928   5.309
 9786SOL    HW230258   2.781   5.819   5.208
 9787SOL     OW30259   4.817   4.036   1.922
 9787SOL    HW130260   4.888   4.106   1.920
 9787SOL    HW230261   4.757   4.047   1.843
 9788SOL     OW30262   6.443   0.846   5.241
 9788SOL    HW130263   6.494   0.902   5.176
 9788SOL    HW230264   6.352   0.886   5.254
 9789SOL     OW30265   2.455   5.491   5.183
 9789SOL    HW130266   2.488   5.550   5.258
 9789SOL    HW230267   2.356   5.501   5.174
 9790SOL     OW30268   5.687   2.063   4.344
 9790SOL    HW130269   5.595   2.052   4.381
 9790SOL    HW230270   5.691   2.146   4.288
 9791SOL     OW30271   0.693   1.792   2.068
 9791SOL    HW130272   0.676   1.890   2.082
 9791SOL    HW230273   0.664   1.767   1.975
 9792SOL     OW30274   4.415   4.610   1.133
 9792SOL    HW130275   4.333   4.587   1.185
 9792SOL    HW230276   4.451   4.698   1.165
 9793SOL     OW30277   5.600   5.712   2.168
 9793SOL    HW130278   5.662   5.652   2.219
 9793SOL    HW230279   5.653   5.766   2.103
 9794SOL     OW30280   4.798   2.729   6.648
 9794SOL    HW130281   4.738   2.806   6.672
 9794SOL    HW230282   4.866   2.760   6.582
 9795SOL     OW30283   1.862   3.411   3.958
 9795SOL    HW130284   1.768   3.409   3.925
 9795SOL    HW230285   1.890   3.319   3.985
 9796SOL     OW30286   2.851   5.085   0.221
 9796SOL    HW130287   2.803   5.066   0.136
 9796SOL    HW230288   2.854   5.002   0.277
 9797SOL     OW30289   4.630   3.435   5.939
 9797SOL    HW130290   4.569   3.499   5.892
 9797SOL    HW230291   4.624   3.345   5.895
 9798SOL     OW30292   2.545   1.473   0.963
 9798SOL    HW130293   2.584   1.486   1.054
 9798SOL    HW230294   2.498   1.556   0.934
 9799SOL     OW30295   2.949   3.199   2.574
 9799SOL    HW130296   2.919   3.192   2.479
 9799SOL    HW230297   3.022   3.133   2.590
 9800SOL     OW30298   4.423   5.153   6.287
 9800SOL    HW130299   4.502   5.121   6.339
 9800SOL    HW230300   4.412   5.251   6.300
 9801SOL     OW30301   3.844   5.815   6.491
 9801SOL    HW130302   3.869   5.730   6.538
 9801SOL    HW230303   3.927   5.867   6.471
 9802SOL     OW30304   6.783   3.485   0.758
 9802SOL    HW130305   6.696   3.525   0.787
 9802SOL    HW230306   6.857   3.526   0.811
 9803SOL     OW30307   6.023   0.578   6.847
 9803SOL    HW130308   6.036   0.677   6.839
 9803SOL    HW230309   6.049   0.533   6.761
 9804SOL     OW30310   6.249   5.886   4.409
 9804SOL    HW130311   6.272   5.880   4.312
 9804SOL    HW230312   6.167   5.831   4.427
 9805SOL     OW30313   1.883   5.429   0.211
 9805SOL    HW130314   1.858   5.466   0.121
 9805SOL    HW230315   1.982   5.428   0.220
 9806SOL     OW30316   0.202   2.213   2.720
 9806SOL    HW130317   0.183   2.232   2.624
 9806SOL    HW230318   0.292   2.251   2.744
 9807SOL     OW30319   3.941   2.365   0.726
 9807SOL    HW130320   3.904   2.301   0.794
 9807SOL    HW230321   3.877   2.375   0.651
 9808SOL     OW30322   0.591   1.594   4.764
 9808SOL    HW130323   0.523   1.538   4.810
 9808SOL    HW230324   0.624   1.546   4.682
 9809SOL     OW30325   0.664   0.771   4.690
 9809SOL    HW130326   0.577   0.820   4.697
 9809SOL    HW230327   0.730   0.828   4.641
 9810SOL     OW30328   3.592   0.740   3.125
 9810SOL    HW130329   3.658   0.667   3.137
 9810SOL    HW230330   3.627   0.806   3.058
 9811SOL     OW30331   0.190   6.934   2.555
 9811SOL    HW130332   0.209   6.840   2.526
 9811SOL    HW230333   0.272   6.972   2.598
 9812SOL     OW30334   4.975   2.566   6.368
 9812SOL    HW130335   4.902   2.519   6.318
 9812SOL    HW230336   5.022   2.502   6.428
 9813SOL     OW30337   6.577   4.398   0.465
 9813SOL    HW130338   6.639   4.415   0.541
 9813SOL    HW230339   6.630   4.373   0.384
 9814SOL     OW30340   6.904   7.011   5.651
 9814SOL    HW130341   6.922   6.996   5.749
 9814SOL    HW230342   6.902   6.923   5.604
 9815SOL     OW30343   5.642   3.249   2.229
 9815SOL    HW130344   5.697   3.209   2.156
 9815SOL    HW230345   5.557   3.286   2.190
 9816SOL     OW30346   6.958   6.769   7.015
 9816SOL    HW130347   0.032   6.802   7.019
 9816SOL    HW230348   6.958   6.669   7.014
 9817SOL     OW30349   2.725   6.385   0.072
 9817SOL    HW130350   2.674   6.332   0.140
 9817SOL    HW230351   2.688   6.368   7.001
 9818SOL     OW30352   0.919   6.641   3.876
 9818SOL    HW130353   0.922   6.732   3.918
 9818SOL    HW230354   0.904   6.573   3.948
 9819SOL     OW30355   6.988   3.481   4.962
 9819SOL    HW130356   6.921   3.429   5.015
 9819SOL    HW230357   0.013   3.421   4.895
 9820SOL     OW30358   3.815   1.911   5.916
 9820SOL    HW130359   3.736   1.967   5.892
 9820SOL    HW230360   3.893   1.969   5.937
 9821SOL     OW30361   4.621   2.564   1.951
 9821SOL    HW130362   4.607   2.634   1.881
 9821SOL    HW230363   4.706   2.515   1.933
 9822SOL     OW30364   3.252   6.350   5.237
 9822SOL    HW130365   3.180   6.316   5.176
 9822SOL    HW230366   3.339   6.351   5.189
 9823SOL     OW30367   1.946   0.471   3.249
 9823SOL    HW130368   1.948   0.382   3.295
 9823SOL    HW230369   1.938   0.457   3.151
 9824SOL     OW30370   0.739   5.788   5.222
 9824SOL    HW130371   0.790   5.852   5.279
 9824SOL    HW230372   0.734   5.822   5.128
 9825SOL     OW30373   5.273   6.186   5.989
 9825SOL    HW130374   5.178   6.199   6.019
 9825SOL    HW230375   5.320   6.125   6.054
 9826SOL     OW30376   2.009   6.516   5.699
 9826SOL    HW130377   2.082   6.447   5.696
 9826SOL    HW230378   1.979   6.528   5.793
 9827SOL     OW30379   1.356   5.817   1.865
 9827SOL    HW130380   1.442   5.790   1.822
 9827SOL    HW230381   1.372   5.893   1.928
 9828SOL     OW30382   4.057   2.124   4.741
 9828SOL    HW130383   4.118   2.199   4.769
 9828SOL    HW230384   4.111   2.051   4.700
 9829SOL     OW30385   4.646   5.342   5.061
 9829SOL    HW130386   4.701   5.397   4.997
 9829SOL    HW230387   4.701   5.266   5.095
 9830SOL     OW30388   5.966   2.420   2.554
 9830SOL    HW130389   5.896   2.408   2.625
 9830SOL    HW230390   5.996   2.331   2.521
 9831SOL     OW30391   0.540   3.900   2.710
 9831SOL    HW130392   0.612   3.950   2.663
 9831SOL    HW230393   0.452   3.946   2.698
 9832SOL     OW30394   4.443   4.678   4.683
 9832SOL    HW130395   4.422   4.636   4.771
 9832SOL    HW230396   4.467   4.774   4.696
 9833SOL     OW30397   3.055   3.959   3.915
 9833SOL    HW130398   2.982   3.905   3.874
 9833SOL    HW230399   3.077   3.922   4.006
 9834SOL     OW30400   2.094   5.851   5.649
 9834SOL    HW130401   2.077   5.796   5.731
 9834SOL    HW230402   2.072   5.947   5.667
 9835SOL     OW30403   3.353   4.103   3.951
 9835SOL    HW130404   3.398   4.125   3.864
 9835SOL    HW230405   3.336   4.005   3.956
 9836SOL     OW30406   0.123   3.425   5.487
 9836SOL    HW130407   0.095   3.447   5.394
 9836SOL    HW230408   0.210   3.377   5.486
 9837SOL     OW30409   5.313   2.121   3.293
 9837SOL    HW130410   5.317   2.025   3.265
 9837SOL    HW230411   5.236   2.166   3.247
 9838SOL     OW30412   1.318   0.259   1.434
 9838SOL    HW130413   1.330   0.164   1.460
 9838SOL    HW230414   1.350   0.271   1.339
 9839SOL     OW30415   4.498   0.485   3.071
 9839SOL    HW130416   4.479   0.462   2.975
 9839SOL    HW230417   4.433   0.437   3.129
 9840SOL     OW30418   6.184   0.900   6.939
 9840SOL    HW130419   6.242   0.823   6.963
 9840SOL    HW230420   6.241   0.977   6.910
 9841SOL     OW30421   0.418   6.251   3.464
 9841SOL    HW130422   0.454   6.270   3.555
 9841SOL    HW230423   0.475   6.182   3.419
 9842SOL     OW30424   2.652   1.902   6.667
 9842SOL    HW130425   2.655   1.948   6.578
 9842SOL    HW230426   2.734   1.925   6.720
 9843SOL     OW30427   1.035   0.593   1.238
 9843SOL    HW130428   0.941   0.579   1.269
 9843SOL    HW230429   1.099   0.573   1.312
 9844SOL     OW30430   5.080   6.562   4.325
 9844SOL    HW130431   5.036   6.616   4.253
 9844SOL    HW230432   5.130   6.486   4.284
 9845SOL     OW30433   1.831   3.848   1.773
 9845SOL    HW130434   1.811   3.887   1.683
 9845SOL    HW230435   1.816   3.918   1.843
 9846SOL     OW30436   5.546   2.418   0.894
 9846SOL    HW130437   5.590   2.357   0.959
 9846SOL    HW230438   5.474   2.368   0.846
 9847SOL     OW30439   3.793   3.917   6.847
 9847SOL    HW130440   3.845   3.849   6.794
 9847SOL    HW230441   3.753   3.872   6.927
 9848SOL     OW30442   3.206   3.863   5.589
 9848SOL    HW130443   3.234   3.779   5.543
 9848SOL    HW230444   3.150   3.918   5.526
 9849SOL     OW30445   0.878   1.811   4.776
 9849SOL    HW130446   0.891   1.718   4.740
 9849SOL    HW230447   0.902   1.877   4.705
 9850SOL     OW30448   0.976   0.268   4.576
 9850SOL    HW130449   1.041   0.224   4.638
 9850SOL    HW230450   0.962   0.210   4.496
 9851SOL     OW30451   3.725   4.975   4.409
 9851SOL    HW130452   3.803   4.992   4.469
 9851SOL    HW230453   3.757   4.930   4.325
 9852SOL     OW30454   2.260   0.975   0.277
 9852SOL    HW130455   2.269   1.002   0.373
 9852SOL    HW230456   2.340   0.922   0.250
 9853SOL     OW30457   6.496   4.675   3.600
 9853SOL    HW130458   6.435   4.715   3.669
 9853SOL    HW230459   6.471   4.579   3.585
 9854SOL     OW30460   0.801   4.678   5.831
 9854SOL    HW130461   0.758   4.758   5.873
 9854SOL    HW230462   0.788   4.682   5.732
 9855SOL     OW30463   1.189   4.811   1.517
 9855SOL    HW130464   1.274   4.765   1.545
 9855SOL    HW230465   1.176   4.799   1.419
 9856SOL     OW30466   5.650   4.183   3.314
 9856SOL    HW130467   5.695   4.094   3.322
 9856SOL    HW230468   5.643   4.225   3.405
 9857SOL     OW30469   3.572   0.820   4.720
 9857SOL    HW130470   3.642   0.877   4.677
 9857SOL    HW230471   3.482   0.849   4.689
 9858SOL     OW30472   6.147   6.650   2.621
 9858SOL    HW130473   6.194   6.697   2.696
 9858SOL    HW230474   6.090   6.577   2.659
 9859SOL     OW30475   0.090   5.966   3.372
 9859SOL    HW130476   0.089   5.941   3.276
 9859SOL    HW230477   0.138   6.053   3.384
 9860SOL     OW30478   1.266   3.043   3.944
 9860SOL    HW130479   1.362   3.037   3.969
 9860SOL    HW230480   1.253   3.009   3.851
 9861SOL     OW30481   3.572   1.720   3.618
 9861SOL    HW130482   3.478   1.747   3.640
 9861SOL    HW230483   3.581   1.709   3.519
 9862SOL     OW30484   1.131   4.835   0.616
 9862SOL    HW130485   1.179   4.846   0.703
 9862SOL    HW230486   1.112   4.924   0.577
 9863SOL     OW30487   3.494   5.788   0.835
 9863SOL    HW130488   3.458   5.696   0.821
 9863SOL    HW230489   3.459   5.824   0.921
 9864SOL     OW30490   2.986   5.531   5.645
 9864SOL    HW130491   3.034   5.472   5.581
 9864SOL    HW230492   2.891   5.503   5.652
 9865SOL     OW30493   0.224   6.020   5.578
 9865SOL    HW130494   0.188   5.929   5.558
 9865SOL    HW230495   0.199   6.083   5.505
 9866SOL     OW30496   6.155   4.452   5.202
 9866SOL    HW130497   6.075   4.409   5.160
 9866SOL    HW230498   6.161   4.547   5.172
 9867SOL     OW30499   4.376   2.142   1.399
 9867SOL    HW130500   4.391   2.235   1.432
 9867SOL    HW230501   4.345   2.084   1.474
 9868SOL     OW30502   1.996   3.749   3.702
 9868SOL    HW130503   2.046   3.829   3.668
 9868SOL    HW230504   1.995   3.678   3.632
 9869SOL     OW30505   6.221   3.048   0.903
 9869SOL    HW130506   6.166   2.965   0.904
 9869SOL    HW230507   6.311   3.029   0.943
 9870SOL     OW30508   2.786   1.093   2.837
 9870SOL    HW130509   2.877   1.062   2.809
 9870SOL    HW230510   2.735   1.015   2.873
 9871SOL     OW30511   6.747   4.613   4.591
 9871SOL    HW130512   6.664   4.621   4.536
 9871SOL    HW230513   6.728   4.560   4.674
 9872SOL     OW30514   1.154   4.894   5.937
 9872SOL    HW130515   1.223   4.917   5.868
 9872SOL    HW230516   1.063   4.900   5.896
 9873SOL     OW30517   1.062   1.752   6.112
 9873SOL    HW130518   1.064   1.839   6.162
 9873SOL    HW230519   1.086   1.768   6.017
 9874SOL     OW30520   0.556   2.450   4.667
 9874SOL    HW130521   0.616   2.437   4.745
 9874SOL    HW230522   0.537   2.547   4.654
 9875SOL     OW30523   6.386   5.324   0.816
 9875SOL    HW130524   6.371   5.382   0.896
 9875SOL    HW230525   6.348   5.233   0.832
 9876SOL     OW30526   1.797   6.433   4.074
 9876SOL    HW130527   1.785   6.526   4.106
 9876SOL    HW230528   1.805   6.433   3.974
 9877SOL     OW30529   0.648   4.924   4.934
 9877SOL    HW130530   0.735   4.882   4.962
 9877SOL    HW230531   0.660   5.022   4.923
 9878SOL     OW30532   2.050   2.599   6.963
 9878SOL    HW130533   2.087   2.685   6.926
 9878SOL    HW230534   2.030   2.610   0.040
 9879SOL     OW30535   6.967   5.207   6.404
 9879SOL    HW130536   6.884   5.159   6.375
 9879SOL    HW230537   7.001   5.264   6.329
 9880SOL     OW30538   3.124   1.366   6.835
 9880SOL    HW130539   3.105   1.317   6.920
 9880SOL    HW230540   3.093   1.311   6.758
 9881SOL     OW30541   5.871   0.546   4.131
 9881SOL    HW130542   5.896   0.525   4.225
 9881SOL    HW230543   5.941   0.603   4.089
 9882SOL     OW30544   3.447   2.833   4.935
 9882SOL    HW130545   3.399   2.787   5.009
 9882SOL    HW230546   3.379   2.878   4.875
 9883SOL     OW30547   2.205   0.015   1.521
 9883SOL    HW130548   2.148   0.014   1.603
 9883SOL    HW230549   2.265   6.955   1.521
 9884SOL     OW30550   2.559   3.715   5.681
 9884SOL    HW130551   2.493   3.649   5.645
 9884SOL    HW230552   2.575   3.787   5.613
 9885SOL     OW30553   5.629   2.906   5.103
 9885SOL    HW130554   5.696   2.854   5.155
 9885SOL    HW230555   5.550   2.927   5.161
 9886SOL     OW30556   4.451   5.552   1.231
 9886SOL    HW130557   4.483   5.557   1.325
 9886SOL    HW230558   4.501   5.619   1.175
 9887SOL     OW30559   3.181   0.167   6.637
 9887SOL    HW130560   3.104   0.106   6.659
 9887SOL    HW230561   3.239   0.177   6.717
 9888SOL     OW30562   6.462   6.565   3.334
 9888SOL    HW130563   6.532   6.582   3.404
 9888SOL    HW230564   6.423   6.474   3.348
 9889SOL     OW30565   6.903   5.473   3.581
 9889SOL    HW130566   6.955   5.489   3.497
 9889SOL    HW230567   6.908   5.554   3.639
 9890SOL     OW30568   0.550   3.928   1.966
 9890SOL    HW130569   0.551   3.880   1.878
 9890SOL    HW230570   0.456   3.952   1.989
 9891SOL     OW30571   5.508   5.363   0.474
 9891SOL    HW130572   5.474   5.430   0.540
 9891SOL    HW230573   5.563   5.409   0.405
 9892SOL     OW30574   1.920   4.631   4.132
 9892SOL    HW130575   1.950   4.690   4.206
 9892SOL    HW230576   1.993   4.567   4.108
 9893SOL     OW30577   5.381   5.347   3.704
 9893SOL    HW130578   5.346   5.271   3.759
 9893SOL    HW230579   5.477   5.364   3.728
 9894SOL     OW30580   3.980   3.097   6.133
 9894SOL    HW130581   3.942   3.029   6.070
 9894SOL    HW230582   4.039   3.160   6.083
 9895SOL     OW30583   5.315   2.080   6.838
 9895SOL    HW130584   5.348   2.169   6.870
 9895SOL    HW230585   5.366   2.053   6.757
 9896SOL     OW30586   3.890   4.215   0.726
 9896SOL    HW130587   3.952   4.138   0.729
 9896SOL    HW230588   3.795   4.183   0.732
 9897SOL     OW30589   6.792   1.884   3.609
 9897SOL    HW130590   6.702   1.852   3.578
 9897SOL    HW230591   6.781   1.966   3.665
 9898SOL     OW30592   1.232   5.104   5.221
 9898SOL    HW130593   1.300   5.156   5.170
 9898SOL    HW230594   1.185   5.165   5.286
 9899SOL     OW30595   5.775   5.114   1.640
 9899SOL    HW130596   5.820   5.067   1.564
 9899SOL    HW230597   5.677   5.098   1.635
 9900SOL     OW30598   1.061   3.579   3.460
 9900SOL    HW130599   1.143   3.629   3.435
 9900SOL    HW230600   1.073   3.537   3.550
 9901SOL     OW30601   3.040   2.012   5.049
 9901SOL    HW130602   3.071   2.107   5.046
 9901SOL    HW230603   3.061   1.973   5.139
 9902SOL     OW30604   4.278   4.026   7.007
 9902SOL    HW130605   4.307   3.932   6.990
 9902SOL    HW230606   4.327   4.062   0.067
 9903SOL     OW30607   4.027   1.477   1.446
 9903SOL    HW130608   4.034   1.538   1.525
 9903SOL    HW230609   4.112   1.425   1.436
 9904SOL     OW30610   6.426   0.583   2.085
 9904SOL    HW130611   6.441   0.555   1.991
 9904SOL    HW230612   6.327   0.587   2.103
 9905SOL     OW30613   1.350   6.632   5.330
 9905SOL    HW130614   1.302   6.639   5.417
 9905SOL    HW230615   1.320   6.706   5.270
 9906SOL     OW30616   2.943   2.982   6.096
 9906SOL    HW130617   3.029   3.032   6.090
 9906SOL    HW230618   2.921   2.966   6.192
 9907SOL     OW30619   2.310   6.595   2.906
 9907SOL    HW130620   2.239   6.544   2.955
 9907SOL    HW230621   2.400   6.558   2.930
 9908SOL     OW30622   1.118   3.518   5.713
 9908SOL    HW130623   1.039   3.457   5.701
 9908SOL    HW230624   1.201   3.471   5.685
 9909SOL     OW30625   4.246   6.786   2.665
 9909SOL    HW130626   4.153   6.783   2.631
 9909SOL    HW230627   4.251   6.742   2.754
 9910SOL     OW30628   0.077   4.088   1.473
 9910SOL    HW130629   0.104   4.054   1.563
 9910SOL    HW230630   0.006   4.028   1.434
 9911SOL     OW30631   2.898   4.753   3.340
 9911SOL    HW130632   2.981   4.708   3.306
 9911SOL    HW230633   2.906   4.768   3.439
 9912SOL     OW30634   4.909   0.091   1.302
 9912SOL    HW130635   4.851   0.172   1.291
 9912SOL    HW230636   4.888   0.025   1.230
 9913SOL     OW30637   4.632   1.820   2.356
 9913SOL    HW130638   4.559   1.888   2.355
 9913SOL    HW230639   4.694   1.840   2.432
 9914SOL     OW30640   1.573   6.826   5.267
 9914SOL    HW130641   1.533   6.913   5.296
 9914SOL    HW230642   1.543   6.754   5.330
 9915SOL     OW30643   5.304   3.778   4.724
 9915SOL    HW130644   5.308   3.692   4.775
 9915SOL    HW230645   5.249   3.766   4.642
 9916SOL     OW30646   2.263   2.981   1.604
 9916SOL    HW130647   2.165   2.965   1.616
 9916SOL    HW230648   2.287   3.071   1.641
 9917SOL     OW30649   2.154   3.436   5.952
 9917SOL    HW130650   2.152   3.358   5.889
 9917SOL    HW230651   2.094   3.508   5.917
 9918SOL     OW30652   1.445   1.353   5.031
 9918SOL    HW130653   1.513   1.296   5.079
 9918SOL    HW230654   1.408   1.421   5.095
 9919SOL     OW30655   0.433   5.117   2.986
 9919SOL    HW130656   0.353   5.105   2.928
 9919SOL    HW230657   0.513   5.138   2.930
 9920SOL     OW30658   4.572   6.816   1.302
 9920SOL    HW130659   4.641   6.755   1.340
 9920SOL    HW230660   4.568   6.901   1.355
 9921SOL     OW30661   5.406   0.120   2.663
 9921SOL    HW130662   5.473   0.061   2.618
 9921SOL    HW230663   5.341   0.154   2.595
 9922SOL     OW30664   4.304   2.959   1.238
 9922SOL    HW130665   4.294   3.012   1.323
 9922SOL    HW230666   4.386   2.902   1.243
 9923SOL     OW30667   6.619   2.007   6.591
 9923SOL    HW130668   6.634   2.088   6.534
 9923SOL    HW230669   6.707   1.964   6.611
 9924SOL     OW30670   6.096   0.710   3.214
 9924SOL    HW130671   6.051   0.723   3.303
 9924SOL    HW230672   6.182   0.761   3.213
 9925SOL     OW30673   2.291   2.672   4.820
 9925SOL    HW130674   2.339   2.684   4.907
 9925SOL    HW230675   2.278   2.761   4.776
 9926SOL     OW30676   1.615   1.465   0.287
 9926SOL    HW130677   1.531   1.519   0.291
 9926SOL    HW230678   1.649   1.449   0.379
 9927SOL     OW30679   0.933   2.576   2.604
 9927SOL    HW130680   0.901   2.484   2.580
 9927SOL    HW230681   1.031   2.573   2.623
 9928SOL     OW30682   0.220   3.305   2.649
 9928SOL    HW130683   0.241   3.220   2.602
 9928SOL    HW230684   0.256   3.302   2.742
 9929SOL     OW30685   1.945   4.293   6.669
 9929SOL    HW130686   1.921   4.380   6.626
 9929SOL    HW230687   1.908   4.290   6.762
 9930SOL     OW30688   0.189   6.133   6.988
 9930SOL    HW130689   0.095   6.159   7.011
 9930SOL    HW230690   0.230   6.202   6.929
 9931SOL     OW30691   2.422   5.881   6.153
 9931SOL    HW130692   2.322   5.872   6.154
 9931SOL    HW230693   2.464   5.795   6.178
 9932SOL     OW30694   1.814   2.248   0.469
 9932SOL    HW130695   1.896   2.293   0.434
 9932SOL    HW230696   1.735   2.278   0.416
 9933SOL     OW30697   1.082   1.951   3.598
 9933SOL    HW130698   1.029   1.891   3.657
 9933SOL    HW230699   1.092   2.040   3.641
 9934SOL     OW30700   3.542   1.010   5.838
 9934SOL    HW130701   3.486   1.083   5.799
 9934SOL    HW230702   3.487   0.956   5.902
 9935SOL     OW30703   2.535   2.156   0.849
 9935SOL    HW130704   2.455   2.216   0.861
 9935SOL    HW230705   2.520   2.071   0.900
 9936SOL     OW30706   5.967   6.526   5.721
 9936SOL    HW130707   5.997   6.490   5.809
 9936SOL    HW230708   5.872   6.499   5.705
 9937SOL     OW30709   0.350   0.135   3.687
 9937SOL    HW130710   0.344   0.223   3.639
 9937SOL    HW230711   0.328   0.061   3.624
 9938SOL     OW30712   6.931   1.734   3.826
 9938SOL    HW130713   6.858   1.730   3.895
 9938SOL    HW230714   6.934   1.826   3.787
 9939SOL     OW30715   3.164   4.586   1.416
 9939SOL    HW130716   3.226   4.558   1.489
 9939SOL    HW230717   3.096   4.515   1.400
 9940SOL     OW30718   0.324   0.713   3.491
 9940SOL    HW130719   0.380   0.770   3.431
 9940SOL    HW230720   0.302   0.627   3.445
 9941SOL     OW30721   4.872   4.724   6.845
 9941SOL    HW130722   4.894   4.627   6.852
 9941SOL    HW230723   4.947   4.778   6.881
 9942SOL     OW30724   4.901   4.984   2.884
 9942SOL    HW130725   4.938   4.976   2.977
 9942SOL    HW230726   4.828   4.917   2.872
 9943SOL     OW30727   2.260   4.299   6.451
 9943SOL    HW130728   2.234   4.242   6.529
 9943SOL    HW230729   2.240   4.250   6.366
 9944SOL     OW30730   0.407   4.929   6.259
 9944SOL    HW130731   0.327   4.942   6.316
 9944SOL    HW230732   0.476   4.878   6.309
 9945SOL     OW30733   6.314   3.192   6.338
 9945SOL    HW130734   6.295   3.218   6.433
 9945SOL    HW230735   6.344   3.097   6.335
 9946SOL     OW30736   5.512   1.724   1.502
 9946SOL    HW130737   5.561   1.791   1.446
 9946SOL    HW230738   5.420   1.712   1.465
 9947SOL     OW30739   1.256   1.854   3.881
 9947SOL    HW130740   1.156   1.849   3.887
 9947SOL    HW230741   1.288   1.793   3.808
 9948SOL     OW30742   6.261   0.252   4.561
 9948SOL    HW130743   6.185   0.254   4.625
 9948SOL    HW230744   6.232   0.287   4.472
 9949SOL     OW30745   6.147   4.916   4.077
 9949SOL    HW130746   6.109   5.000   4.037
 9949SOL    HW230747   6.074   4.849   4.087
 9950SOL     OW30748   5.709   3.837   5.456
 9950SOL    HW130749   5.734   3.774   5.382
 9950SOL    HW230750   5.772   3.914   5.457
 9951SOL     OW30751   0.360   2.111   3.361
 9951SOL    HW130752   0.270   2.140   3.393
 9951SOL    HW230753   0.372   2.014   3.381
 9952SOL     OW30754   0.473   4.963   2.058
 9952SOL    HW130755   0.454   4.953   2.155
 9952SOL    HW230756   0.560   4.917   2.036
 9953SOL     OW30757   6.150   2.415   3.718
 9953SOL    HW130758   6.181   2.323   3.692
 9953SOL    HW230759   6.158   2.476   3.639
 9954SOL     OW30760   3.601   1.438   5.922
 9954SOL    HW130761   3.590   1.534   5.947
 9954SOL    HW230762   3.586   1.380   6.001
 9955SOL     OW30763   5.743   4.273   1.105
 9955SOL    HW130764   5.723   4.315   1.193
 9955SOL    HW230765   5.828   4.221   1.111
 9956SOL     OW30766   2.173   2.916   3.134
 9956SOL    HW130767   2.129   2.827   3.123
 9956SOL    HW230768   2.162   2.948   3.228
 9957SOL     OW30769   5.188   7.008   0.908
 9957SOL    HW130770   5.113   0.046   0.876
 9957SOL    HW230771   5.189   6.923   0.856
 9958SOL     OW30772   5.244   5.840   0.244
 9958SOL    HW130773   5.219   5.762   0.301
 9958SOL    HW230774   5.164   5.869   0.191
 9959SOL     OW30775   4.945   4.445   0.722
 9959SOL    HW130776   4.951   4.540   0.750
 9959SOL    HW230777   4.912   4.440   0.628
 9960SOL     OW30778   0.293   0.442   6.962
 9960SOL    HW130779   0.356   0.375   7.003
 9960SOL    HW230780   0.244   0.399   6.886
 9961SOL     OW30781   2.870   5.103   1.362
 9961SOL    HW130782   2.848   5.143   1.273
 9961SOL    HW230783   2.858   5.004   1.358
 9962SOL     OW30784   3.312   0.158   1.561
 9962SOL    HW130785   3.283   0.068   1.530
 9962SOL    HW230786   3.411   0.166   1.552
 9963SOL     OW30787   0.819   1.063   6.479
 9963SOL    HW130788   0.786   0.973   6.449
 9963SOL    HW230789   0.893   1.093   6.420
 9964SOL     OW30790   4.485   4.208   5.813
 9964SOL    HW130791   4.513   4.242   5.723
 9964SOL    HW230792   4.387   4.190   5.814
 9965SOL     OW30793   2.629   5.715   4.310
 9965SOL    HW130794   2.619   5.674   4.220
 9965SOL    HW230795   2.716   5.689   4.350
 9966SOL     OW30796   3.839   4.845   2.504
 9966SOL    HW130797   3.785   4.884   2.579
 9966SOL    HW230798   3.793   4.863   2.417
 9967SOL     OW30799   0.129   0.455   2.677
 9967SOL    HW130800   0.083   0.536   2.713
 9967SOL    HW230801   0.122   0.380   2.744
 9968SOL     OW30802   3.327   6.622   0.093
 9968SOL    HW130803   3.426   6.632   0.096
 9968SOL    HW230804   3.301   6.535   0.136
 9969SOL     OW30805   1.933   5.567   3.463
 9969SOL    HW130806   1.991   5.571   3.545
 9969SOL    HW230807   1.841   5.535   3.488
 9970SOL     OW30808   6.467   3.436   1.309
 9970SOL    HW130809   6.410   3.355   1.321
 9970SOL    HW230810   6.446   3.480   1.222
 9971SOL     OW30811   0.701   4.900   3.130
 9971SOL    HW130812   0.649   4.917   3.213
 9971SOL    HW230813   0.776   4.836   3.150
 9972SOL     OW30814   3.003   3.437   6.771
 9972SOL    HW130815   3.080   3.412   6.712
 9972SOL    HW230816   2.944   3.502   6.722
 9973SOL     OW30817   2.920   2.000   3.440
 9973SOL    HW130818   2.863   2.068   3.485
 9973SOL    HW230819   2.890   1.987   3.345
 9974SOL     OW30820   1.378   3.153   2.641
 9974SOL    HW130821   1.392   3.133   2.544
 9974SOL    HW230822   1.408   3.075   2.696
 9975SOL     OW30823   1.870   5.248   6.903
 9975SOL    HW130824   1.906   5.341   6.913
 9975SOL    HW230825   1.929   5.184   6.952
 9976SOL     OW30826   3.001   4.191   6.616
 9976SOL    HW130827   3.089   4.191   6.666
 9976SOL    HW230828   2.926   4.196   6.682
 9977SOL     OW30829   5.101   6.534   5.602
 9977SOL    HW130830   5.158   6.475   5.545
 9977SOL    HW230831   5.114   6.630   5.576
 9978SOL     OW30832   0.840   3.468   6.562
 9978SOL    HW130833   0.838   3.427   6.471
 9978SOL    HW230834   0.868   3.564   6.555
 9979SOL     OW30835   4.034   3.125   5.242
 9979SOL    HW130836   4.116   3.122   5.300
 9979SOL    HW230837   4.058   3.162   5.153
 9980SOL     OW30838   2.098   1.712   0.946
 9980SOL    HW130839   2.037   1.777   0.901
 9980SOL    HW230840   2.058   1.684   1.033
 9981SOL     OW30841   6.911   2.795   1.463
 9981SOL    HW130842   6.824   2.802   1.513
 9981SOL    HW230843   6.907   2.716   1.402
 9982SOL     OW30844   2.100   1.910   4.734
 9982SOL    HW130845   2.108   2.008   4.716
 9982SOL    HW230846   2.171   1.881   4.798
 9983SOL     OW30847   0.850   2.535   2.318
 9983SOL    HW130848   0.942   2.559   2.347
 9983SOL    HW230849   0.802   2.617   2.285
 9984SOL     OW30850   6.928   6.108   1.179
 9984SOL    HW130851   6.993   6.149   1.243
 9984SOL    HW230852   6.886   6.179   1.123
 9985SOL     OW30853   3.930   4.974   0.291
 9985SOL    HW130854   3.915   4.883   0.253
 9985SOL    HW230855   3.844   5.025   0.290
 9986SOL     OW30856   5.439   4.975   0.005
 9986SOL    HW130857   5.534   4.993   0.030
 9986SOL    HW230858   5.393   5.062   7.004
 9987SOL     OW30859   5.051   2.898   1.172
 9987SOL    HW130860   5.147   2.884   1.147
 9987SOL    HW230861   5.005   2.809   1.177
 9988SOL     OW30862   5.350   6.365   4.564
 9988SOL    HW130863   5.414   6.394   4.492
 9988SOL    HW230864   5.261   6.408   4.549
 9989SOL     OW30865   6.468   5.167   2.566
 9989SOL    HW130866   6.439   5.150   2.472
 9989SOL    HW230867   6.425   5.250   2.600
 9990SOL     OW30868   0.598   6.750   3.996
 9990SOL    HW130869   0.681   6.777   4.045
 9990SOL    HW230870   0.622   6.695   3.916
 9991SOL     OW30871   1.624   4.681   3.344
 9991SOL    HW130872   1.593   4.586   3.346
 9991SOL    HW230873   1.710   4.687   3.293
 9992SOL     OW30874   3.599   4.786   0.972
 9992SOL    HW130875   3.591   4.877   0.933
 9992SOL    HW230876   3.695   4.766   0.992
 9993SOL     OW30877   3.706   6.580   4.288
 9993SOL    HW130878   3.699   6.679   4.273
 9993SOL    HW230879   3.737   6.563   4.382
 9994SOL     OW30880   6.461   4.672   4.450
 9994SOL    HW130881   6.414   4.728   4.381
 9994SOL    HW230882   6.428   4.578   4.445
 9995SOL     OW30883   3.002   0.561   4.862
 9995SOL    HW130884   2.975   0.541   4.956
 9995SOL    HW230885   3.059   0.487   4.827
 9996SOL     OW30886   2.562   3.427   1.249
 9996SOL    HW130887   2.602   3.434   1.158
 9996SOL    HW230888   2.489   3.358   1.249
 9997SOL     OW30889   6.131   2.993   3.703
 9997SOL    HW130890   6.228   3.002   3.680
 9997SOL    HW230891   6.122   2.972   3.801
 9998SOL     OW30892   5.192   4.696   2.832
 9998SOL    HW130893   5.097   4.668   2.846
 9998SOL    HW230894   5.232   4.722   2.919
 9999SOL     OW30895   1.100   6.215   3.904
 9999SOL    HW130896   1.139   6.294   3.856
 9999SOL    HW230897   1.012   6.191   3.863
10000SOL     OW30898   5.730   2.185   1.575
10000SOL    HW130899   5.649   2.200   1.518
10000SOL    HW230900   5.728   2.248   1.652
10001SOL     OW30901   4.222   6.144   1.952
10001SOL    HW130902   4.243   6.232   1.909
10001SOL    HW230903   4.174   6.159   2.038
10002SOL     OW30904   2.872   0.797   1.957
10002SOL    HW130905   2.915   0.879   1.921
10002SOL    HW230906   2.933   0.718   1.944
10003SOL     OW30907   1.580   0.634   3.931
10003SOL    HW130908   1.636   0.710   3.963
10003SOL    HW230909   1.512   0.668   3.866
10004SOL     OW30910   6.177   4.133   4.930
10004SOL    HW130911   6.080   4.115   4.947
10004SOL    HW230912   6.229   4.123   5.015
10005SOL     OW30913   2.076   5.443   3.176
10005SOL    HW130914   2.126   5.475   3.096
10005SOL    HW230915   2.086   5.509   3.250
10006SOL     OW30916   5.591   0.523   5.362
10006SOL    HW130917   5.497   0.502   5.333
10006SOL    HW230918   5.602   0.499   5.458
10007SOL     OW30919   1.715   5.001   4.335
10007SOL    HW130920   1.699   4.960   4.246
10007SOL    HW230921   1.769   4.938   4.392
10008SOL     OW30922   4.305   1.537   6.267
10008SOL    HW130923   4.336   1.571   6.178
10008SOL    HW230924   4.338   1.598   6.339
10009SOL     OW30925   1.139   3.207   1.940
10009SOL    HW130926   1.234   3.222   1.965
10009SOL    HW230927   1.094   3.154   2.011
10010SOL     OW30928   2.096   4.297   0.356
10010SOL    HW130929   2.060   4.319   0.446
10010SOL    HW230930   2.151   4.373   0.322
10011SOL     OW30931   1.143   3.449   0.338
10011SOL    HW130932   1.116   3.493   0.253
10011SOL    HW230933   1.235   3.479   0.364
10012SOL     OW30934   4.823   1.514   2.667
10012SOL    HW130935   4.875   1.571   2.604
10012SOL    HW230936   4.879   1.494   2.748
10013SOL     OW30937   0.570   6.144   4.489
10013SOL    HW130938   0.587   6.050   4.519
10013SOL    HW230939   0.583   6.206   4.566
10014SOL     OW30940   0.651   7.004   3.029
10014SOL    HW130941   0.596   6.932   2.987
10014SOL    HW230942   0.596   0.035   3.094
10015SOL     OW30943   4.310   4.533   5.926
10015SOL    HW130944   4.403   4.499   5.944
10015SOL    HW230945   4.246   4.456   5.931
10016SOL     OW30946   2.653   0.119   2.887
10016SOL    HW130947   2.569   0.099   2.938
10016SOL    HW230948   2.678   0.215   2.899
10017SOL     OW30949   2.794   1.615   3.089
10017SOL    HW130950   2.711   1.643   3.136
10017SOL    HW230951   2.784   1.522   3.054
10018SOL     OW30952   6.335   2.623   6.458
10018SOL    HW130953   6.406   2.553   6.457
10018SOL    HW230954   6.284   2.618   6.545
10019SOL     OW30955   0.619   1.671   2.480
10019SOL    HW130956   0.693   1.728   2.516
10019SOL    HW230957   0.649   1.628   2.394
10020SOL     OW30958   6.675   0.518   2.177
10020SOL    HW130959   6.583   0.542   2.145
10020SOL    HW230960   6.736   0.595   2.163
10021SOL     OW30961   1.206   4.057   2.032
10021SOL    HW130962   1.301   4.055   2.000
10021SOL    HW230963   1.156   4.130   1.986
10022SOL     OW30964   2.610   6.048   0.481
10022SOL    HW130965   2.643   6.059   0.387
10022SOL    HW230966   2.683   6.072   0.545
10023SOL     OW30967   1.828   6.847   5.841
10023SOL    HW130968   1.888   6.874   5.765
10023SOL    HW230969   1.815   6.925   5.902
10024SOL     OW30970   1.604   4.493   3.015
10024SOL    HW130971   1.530   4.554   2.987
10024SOL    HW230972   1.601   4.481   3.115
10025SOL     OW30973   1.143   4.452   1.403
10025SOL    HW130974   1.128   4.441   1.501
10025SOL    HW230975   1.057   4.476   1.359
10026SOL     OW30976   5.181   1.556   3.975
10026SOL    HW130977   5.227   1.641   4.003
10026SOL    HW230978   5.086   1.559   4.004
10027SOL     OW30979   2.002   1.860   5.834
10027SOL    HW130980   1.930   1.815   5.781
10027SOL    HW230981   1.962   1.930   5.892
10028SOL     OW30982   4.544   0.489   1.377
10028SOL    HW130983   4.518   0.489   1.474
10028SOL    HW230984   4.462   0.494   1.320
10029SOL     OW30985   0.092   3.305   4.791
10029SOL    HW130986   0.091   3.230   4.857
10029SOL    HW230987   0.181   3.307   4.745
10030SOL     OW30988   3.024   0.149   4.576
10030SOL    HW130989   2.929   0.121   4.590
10030SOL    HW230990   3.084   0.089   4.629
10031SOL     OW30991   3.025   5.099   4.291
10031SOL    HW130992   3.084   5.112   4.211
10031SOL    HW230993   3.076   5.053   4.363
10032SOL     OW30994   2.958   6.196   4.585
10032SOL    HW130995   2.979   6.190   4.487
10032SOL    HW230996   3.027   6.147   4.637
10033SOL     OW30997   4.068   1.840   2.781
10033SOL    HW130998   4.030   1.835   2.874
10033SOL    HW230999   3.998   1.871   2.717
10034SOL     OW31000   2.718   0.453   3.506
10034SOL    HW131001   2.724   0.551   3.523
10034SOL    HW231002   2.799   0.408   3.544
10035SOL     OW31003   6.062   2.986   1.790
10035SOL    HW131004   6.161   2.992   1.787
10035SOL    HW231005   6.022   3.058   1.733
10036SOL     OW31006   6.341   0.636   6.730
10036SOL    HW131007   6.255   0.600   6.693
10036SOL    HW231008   6.343   0.623   6.829
10037SOL     OW31009   6.261   6.799   6.894
10037SOL    HW131010   6.268   6.894   6.861
10037SOL    HW231011   6.236   6.800   6.991
10038SOL     OW31012   4.263   0.249   7.002
10038SOL    HW131013   4.237   0.164   0.028
10038SOL    HW231014   4.309   0.227   6.916
10039SOL     OW31015   5.927   5.312   3.631
10039SOL    HW131016   5.895   5.399   3.593
10039SOL    HW231017   5.859   5.241   3.615
10040SOL     OW31018   3.602   0.574   0.343
10040SOL    HW131019   3.512   0.567   0.301
10040SOL    HW231020   3.665   0.620   0.280
10041SOL     OW31021   6.699   4.581   5.179
10041SOL    HW131022   6.679   4.633   5.096
10041SOL    HW231023   6.735   4.643   5.249
10042SOL     OW31024   0.478   0.567   4.912
10042SOL    HW131025   0.466   0.664   4.937
10042SOL    HW231026   0.574   0.542   4.921
10043SOL     OW31027   1.546   1.238   2.953
10043SOL    HW131028   1.569   1.189   3.037
10043SOL    HW231029   1.448   1.228   2.934
10044SOL     OW31030   2.311   1.418   5.797
10044SOL    HW131031   2.367   1.500   5.787
10044SOL    HW231032   2.239   1.435   5.864
10045SOL     OW31033   4.503   6.443   4.804
10045SOL    HW131034   4.416   6.394   4.794
10045SOL    HW231035   4.536   6.471   4.714
10046SOL     OW31036   0.301   2.266   2.000
10046SOL    HW131037   0.349   2.341   2.046
10046SOL    HW231038   0.322   2.180   2.045
10047SOL     OW31039   6.501   1.871   5.006
10047SOL    HW131040   6.575   1.913   4.953
10047SOL    HW231041   6.416   1.922   4.991
10048SOL     OW31042   3.432   1.474   1.732
10048SOL    HW131043   3.397   1.458   1.640
10048SOL    HW231044   3.521   1.519   1.727
10049SOL     OW31045   2.159   0.720   6.461
10049SOL    HW131046   2.113   0.677   6.383
10049SOL    HW231047   2.136   0.671   6.545
10050SOL     OW31048   4.906   2.601   4.698
10050SOL    HW131049   5.006   2.596   4.692
10050SOL    HW231050   4.869   2.510   4.712
10051SOL     OW31051   6.021   2.777   4.685
10051SOL    HW131052   5.950   2.748   4.620
10051SOL    HW231053   6.042   2.874   4.669
10052SOL     OW31054   1.327   3.501   1.705
10052SOL    HW131055   1.422   3.509   1.735
10052SOL    HW231056   1.321   3.433   1.631
10053SOL     OW31057   3.218   4.860   3.719
10053SOL    HW131058   3.295   4.923   3.717
10053SOL    HW231059   3.244   4.776   3.767
10054SOL     OW31060   3.790   5.787   5.543
10054SOL    HW131061   3.708   5.832   5.508
10054SOL    HW231062   3.857   5.779   5.469
10055SOL     OW31063   6.511   2.431   5.228
10055SOL    HW131064   6.481   2.339   5.204
10055SOL    HW231065   6.564   2.470   5.152
10056SOL     OW31066   6.739   4.704   1.657
10056SOL    HW131067   6.764   4.732   1.564
10056SOL    HW231068   6.822   4.698   1.712
10057SOL     OW31069   4.051   1.695   4.415
10057SOL    HW131070   4.088   1.653   4.498
10057SOL    HW231071   4.116   1.683   4.340
10058SOL     OW31072   0.145   5.157   4.225
10058SOL    HW131073   0.086   5.221   4.176
10058SOL    HW231074   0.229   5.141   4.172
10059SOL     OW31075   5.260   0.747   1.059
10059SOL    HW131076   5.353   0.783   1.054
10059SOL    HW231077   5.226   0.728   0.967
10060SOL     OW31078   2.910   2.196   1.737
10060SOL    HW131079   2.950   2.281   1.771
10060SOL    HW231080   2.903   2.130   1.813
10061SOL     OW31081   6.116   1.425   4.180
10061SOL    HW131082   6.080   1.356   4.244
10061SOL    HW231083   6.148   1.504   4.232
10062SOL     OW31084   5.984   5.876   3.553
10062SOL    HW131085   6.024   5.810   3.617
10062SOL    HW231086   6.019   5.967   3.573
10063SOL     OW31087   1.351   3.792   3.770
10063SOL    HW131088   1.299   3.717   3.729
10063SOL    HW231089   1.351   3.870   3.708
10064SOL     OW31090   4.944   5.784   4.362
10064SOL    HW131091   5.019   5.780   4.295
10064SOL    HW231092   4.872   5.843   4.327
10065SOL     OW31093   1.044   6.639   2.700
10065SOL    HW131094   1.102   6.665   2.778
10065SOL    HW231095   1.017   6.543   2.710
10066SOL     OW31096   0.535   0.048   4.435
10066SOL    HW131097   0.619   0.101   4.428
10066SOL    HW231098   0.473   0.074   4.361
10067SOL     OW31099   4.846   4.504   4.151
10067SOL    HW131100   4.942   4.478   4.160
10067SOL    HW231101   4.838   4.589   4.100
10068SOL     OW31102   5.382   2.828   4.532
10068SOL    HW131103   5.397   2.755   4.465
10068SOL    HW231104   5.370   2.787   4.623
10069SOL     OW31105   3.123   0.851   3.671
10069SOL    HW131106   3.173   0.869   3.586
10069SOL    HW231107   3.078   0.934   3.702
10070SOL     OW31108   0.723   5.997   5.057
10070SOL    HW131109   0.639   6.036   5.096
10070SOL    HW231110   0.763   6.063   4.993
10071SOL     OW31111   5.135   5.638   4.188
10071SOL    HW131112   5.053   5.586   4.168
10071SOL    HW231113   5.216   5.583   4.166
10072SOL     OW31114   0.473   6.482   3.341
10072SOL    HW131115   0.458   6.487   3.243
10072SOL    HW231116   0.442   6.394   3.376
10073SOL     OW31117   6.503   4.878   5.297
10073SOL    HW131118   6.439   4.837   5.231
10073SOL    HW231119   6.498   4.828   5.383
10074SOL     OW31120   1.340   0.292   6.079
10074SOL    HW131121   1.377   0.349   6.152
10074SOL    HW231122   1.398   0.211   6.068
10075SOL     OW31123   1.249   2.331   3.544
10075SOL    HW131124   1.233   2.280   3.459
10075SOL    HW231125   1.345   2.356   3.550
10076SOL     OW31126   4.806   0.013   4.375
10076SOL    HW131127   4.793   0.024   4.277
10076SOL    HW231128   4.831   6.939   4.395
10077SOL     OW31129   3.970   2.568   6.453
10077SOL    HW131130   4.026   2.491   6.423
10077SOL    HW231131   4.018   2.654   6.437
10078SOL     OW31132   5.936   6.741   5.251
10078SOL    HW131133   6.029   6.748   5.216
10078SOL    HW231134   5.885   6.673   5.198
10079SOL     OW31135   1.112   2.934   1.335
10079SOL    HW131136   1.020   2.965   1.310
10079SOL    HW231137   1.134   2.963   1.428
10080SOL     OW31138   2.138   2.553   0.794
10080SOL    HW131139   2.215   2.609   0.823
10080SOL    HW231140   2.171   2.477   0.738
10081SOL     OW31141   0.431   0.395   6.553
10081SOL    HW131142   0.438   0.318   6.616
10081SOL    HW231143   0.335   0.411   6.530
10082SOL     OW31144   6.063   2.034   1.823
10082SOL    HW131145   6.048   1.963   1.892
10082SOL    HW231146   6.161   2.052   1.816
10083SOL     OW31147   4.248   0.146   3.657
10083SOL    HW131148   4.298   0.204   3.721
10083SOL    HW231149   4.159   0.123   3.694
10084SOL     OW31150   2.502   1.168   5.834
10084SOL    HW131151   2.431   1.105   5.803
10084SOL    HW231152   2.461   1.242   5.887
10085SOL     OW31153   0.757   5.059   2.902
10085SOL    HW131154   0.790   5.098   2.988
10085SOL    HW231155   0.699   4.979   2.923
10086SOL     OW31156   6.564   4.691   1.862
10086SOL    HW131157   6.503   4.612   1.852
10086SOL    HW231158   6.633   4.689   1.790
10087SOL     OW31159   1.292   0.882   4.418
10087SOL    HW131160   1.314   0.838   4.504
10087SOL    HW231161   1.237   0.820   4.361
10088SOL     OW31162   0.727   6.511   4.688
10088SOL    HW131163   0.799   6.535   4.753
10088SOL    HW231164   0.663   6.588   4.681
10089SOL     OW31165   2.630   1.392   2.744
10089SOL    HW131166   2.637   1.341   2.830
10089SOL    HW231167   2.534   1.406   2.721
10090SOL     OW31168   0.659   4.289   0.651
10090SOL    HW131169   0.663   4.365   0.585
10090SOL    HW231170   0.597   4.219   0.616
10091SOL     OW31171   0.703   3.503   4.430
10091SOL    HW131172   0.775   3.462   4.485
10091SOL    HW231173   0.641   3.430   4.398
10092SOL     OW31174   1.673   3.370   5.205
10092SOL    HW131175   1.660   3.425   5.123
10092SOL    HW231176   1.768   3.376   5.235
10093SOL     OW31177   0.204   5.367   5.257
10093SOL    HW131178   0.226   5.453   5.302
10093SOL    HW231179   0.271   5.297   5.283
10094SOL     OW31180   2.662   0.832   2.436
10094SOL    HW131181   2.672   0.907   2.371
10094SOL    HW231182   2.731   0.841   2.508
10095SOL     OW31183   6.840   1.578   6.127
10095SOL    HW131184   6.868   1.533   6.212
10095SOL    HW231185   6.749   1.618   6.140
10096SOL     OW31186   0.530   5.120   2.683
10096SOL    HW131187   0.537   5.026   2.716
10096SOL    HW231188   0.507   5.119   2.585
10097SOL     OW31189   0.933   1.469   0.741
10097SOL    HW131190   0.900   1.469   0.836
10097SOL    HW231191   1.022   1.423   0.737
10098SOL     OW31192   2.051   6.079   5.865
10098SOL    HW131193   2.149   6.085   5.881
10098SOL    HW231194   2.016   5.993   5.902
10099SOL     OW31195   0.121   3.521   5.198
10099SOL    HW131196   0.066   3.514   5.115
10099SOL    HW231197   0.145   3.617   5.213
10100SOL     OW31198   4.767   0.866   4.973
10100SOL    HW131199   4.700   0.897   4.905
10100SOL    HW231200   4.838   0.935   4.984
10101SOL     OW31201   6.853   4.630   2.283
10101SOL    HW131202   6.784   4.699   2.306
10101SOL    HW231203   6.847   4.607   2.186
10102SOL     OW31204   3.309   1.085   2.298
10102SOL    HW131205   3.377   1.042   2.358
10102SOL    HW231206   3.341   1.176   2.272
10103SOL     OW31207   2.848   1.143   5.111
10103SOL    HW131208   2.924   1.189   5.065
10103SOL    HW231209   2.813   1.070   5.052
10104SOL     OW31210   0.829   4.381   5.505
10104SOL    HW131211   0.795   4.475   5.517
10104SOL    HW231212   0.910   4.383   5.446
10105SOL     OW31213   1.749   1.117   6.711
10105SOL    HW131214   1.838   1.159   6.694
10105SOL    HW231215   1.677   1.184   6.691
10106SOL     OW31216   5.325   5.309   0.270
10106SOL    HW131217   5.390   5.335   0.341
10106SOL    HW231218   5.260   5.243   0.308
10107SOL     OW31219   5.964   1.304   6.164
10107SOL    HW131220   5.908   1.224   6.147
10107SOL    HW231221   5.915   1.367   6.225
10108SOL     OW31222   6.239   6.350   0.236
10108SOL    HW131223   6.219   6.400   0.152
10108SOL    HW231224   6.335   6.325   0.238
10109SOL     OW31225   4.862   5.867   3.411
10109SOL    HW131226   4.816   5.794   3.361
10109SOL    HW231227   4.832   5.956   3.374
10110SOL     OW31228   3.748   6.679   5.826
10110SOL    HW131229   3.839   6.639   5.816
10110SOL    HW231230   3.684   6.629   5.768
10111SOL     OW31231   6.719   3.384   3.444
10111SOL    HW131232   6.702   3.382   3.542
10111SOL    HW231233   6.787   3.315   3.420
10112SOL     OW31234   5.347   4.117   5.226
10112SOL    HW131235   5.380   4.079   5.139
10112SOL    HW231236   5.308   4.043   5.281
10113SOL     OW31237   4.130   1.033   6.824
10113SOL    HW131238   4.227   1.016   6.809
10113SOL    HW231239   4.092   1.080   6.744
10114SOL     OW31240   5.096   1.626   6.985
10114SOL    HW131241   5.167   1.570   0.010
10114SOL    HW231242   5.079   1.708   0.019
10115SOL     OW31243   1.988   2.568   3.902
10115SOL    HW131244   1.927   2.489   3.895
10115SOL    HW231245   1.993   2.614   3.814
10116SOL     OW31246   0.731   6.948   0.880
10116SOL    HW131247   0.709   6.998   0.964
10116SOL    HW231248   0.756   6.854   0.903
10117SOL     OW31249   6.362   0.299   5.315
10117SOL    HW131250   6.425   0.326   5.387
10117SOL    HW231251   6.270   0.334   5.335
10118SOL     OW31252   0.089   5.084   2.902
10118SOL    HW131253   0.056   5.163   2.850
10118SOL    HW231254   0.016   5.052   2.962
10119SOL     OW31255   2.268   0.636   4.997
10119SOL    HW131256   2.367   0.621   4.996
10119SOL    HW231257   2.247   0.716   5.052
10120SOL     OW31258   0.846   3.356   3.739
10120SOL    HW131259   0.759   3.319   3.706
10120SOL    HW231260   0.921   3.308   3.693
10121SOL     OW31261   6.655   4.783   5.009
10121SOL    HW131262   6.579   4.844   5.032
10121SOL    HW231263   6.734   4.838   4.981
10122SOL     OW31264   5.105   2.819   6.969
10122SOL    HW131265   5.052   2.892   7.014
10122SOL    HW231266   5.044   2.744   6.946
10123SOL     OW31267   0.786   5.937   0.810
10123SOL    HW131268   0.839   5.914   0.728
10123SOL    HW231269   0.696   5.895   0.804
10124SOL     OW31270   2.912   4.459   0.153
10124SOL    HW131271   2.845   4.395   0.191
10124SOL    HW231272   2.888   4.481   0.059
10125SOL     OW31273   1.983   0.887   3.109
10125SOL    HW131274   1.962   0.963   3.049
10125SOL    HW231275   1.899   0.838   3.132
10126SOL     OW31276   6.293   5.699   6.962
10126SOL    HW131277   6.386   5.664   6.970
10126SOL    HW231278   6.295   5.799   6.961
10127SOL     OW31279   3.226   5.414   5.459
10127SOL    HW131280   3.181   5.445   5.375
10127SOL    HW231281   3.238   5.315   5.456
10128SOL     OW31282   0.265   1.445   1.012
10128SOL    HW131283   0.295   1.518   0.950
10128SOL    HW231284   0.307   1.459   1.102
10129SOL     OW31285   5.175   2.573   4.000
10129SOL    HW131286   5.128   2.544   3.916
10129SOL    HW231287   5.116   2.636   4.051
10130SOL     OW31288   1.019   5.277   3.039
10130SOL    HW131289   1.058   5.212   2.974
10130SOL    HW231290   1.092   5.334   3.077
10131SOL     OW31291   0.853   1.843   2.440
10131SOL    HW131292   0.825   1.773   2.374
10131SOL    HW231293   0.798   1.926   2.427
10132SOL     OW31294   3.683   6.746   3.137
10132SOL    HW131295   3.584   6.747   3.121
10132SOL    HW231296   3.703   6.780   3.228
10133SOL     OW31297   4.244   6.214   3.426
10133SOL    HW131298   4.174   6.262   3.374
10133SOL    HW231299   4.266   6.265   3.509
10134SOL     OW31300   6.220   1.054   3.373
10134SOL    HW131301   6.140   1.113   3.361
10134SOL    HW231302   6.233   1.034   3.471
10135SOL     OW31303   4.799   3.984   2.832
10135SOL    HW131304   4.896   3.962   2.838
10135SOL    HW231305   4.750   3.910   2.786
10136SOL     OW31306   6.012   0.068   3.401
10136SOL    HW131307   5.946   0.110   3.463
10136SOL    HW231308   6.068   0.003   3.452
10137SOL     OW31309   6.721   5.431   4.442
10137SOL    HW131310   6.637   5.377   4.457
10137SOL    HW231311   6.696   5.522   4.408
10138SOL     OW31312   5.662   2.564   0.635
10138SOL    HW131313   5.633   2.659   0.633
10138SOL    HW231314   5.627   2.519   0.717
10139SOL     OW31315   3.943   3.084   2.856
10139SOL    HW131316   3.952   3.082   2.757
10139SOL    HW231317   3.855   3.043   2.883
10140SOL     OW31318   6.098   5.776   6.759
10140SOL    HW131319   6.180   5.812   6.714
10140SOL    HW231320   6.068   5.693   6.712
10141SOL     OW31321   2.671   2.002   4.538
10141SOL    HW131322   2.660   1.968   4.631
10141SOL    HW231323   2.759   2.050   4.530
10142SOL     OW31324   4.589   6.573   5.273
10142SOL    HW131325   4.539   6.583   5.186
10142SOL    HW231326   4.676   6.621   5.266
10143SOL     OW31327   4.594   0.121   1.197
10143SOL    HW131328   4.506   0.072   1.198
10143SOL    HW231329   4.623   0.138   1.291
10144SOL     OW31330   3.468   5.683   5.575
10144SOL    HW131331   3.431   5.614   5.637
10144SOL    HW231332   3.399   5.709   5.508
10145SOL     OW31333   2.847   6.264   6.039
10145SOL    HW131334   2.822   6.295   5.947
10145SOL    HW231335   2.820   6.169   6.051
10146SOL     OW31336   3.371   5.241   4.698
10146SOL    HW131337   3.326   5.264   4.784
10146SOL    HW231338   3.465   5.276   4.698
10147SOL     OW31339   4.865   4.540   4.504
10147SOL    HW131340   4.811   4.471   4.456
10147SOL    HW231341   4.813   4.573   4.583
10148SOL     OW31342   6.003   6.025   0.477
10148SOL    HW131343   6.091   5.978   0.483
10148SOL    HW231344   5.941   5.972   0.419
10149SOL     OW31345   4.740   1.612   0.671
10149SOL    HW131346   4.742   1.518   0.638
10149SOL    HW231347   4.741   1.674   0.592
10150SOL     OW31348   4.584   4.013   0.863
10150SOL    HW131349   4.597   4.111   0.847
10150SOL    HW231350   4.671   3.966   0.852
10151SOL     OW31351   1.345   0.080   6.767
10151SOL    HW131352   1.323   0.039   6.679
10151SOL    HW231353   1.416   0.026   6.813
10152SOL     OW31354   1.569   5.217   4.323
10152SOL    HW131355   1.592   5.122   4.345
10152SOL    HW231356   1.581   5.233   4.225
10153SOL     OW31357   4.368   5.931   3.600
10153SOL    HW131358   4.332   5.960   3.689
10153SOL    HW231359   4.380   6.011   3.541
10154SOL     OW31360   6.553   6.315   6.031
10154SOL    HW131361   6.592   6.285   6.119
10154SOL    HW231362   6.609   6.388   5.993
10155SOL     OW31363   4.026   0.960   6.070
10155SOL    HW131364   4.028   0.865   6.038
10155SOL    HW231365   4.094   1.014   6.019
10156SOL     OW31366   5.821   6.984   2.403
10156SOL    HW131367   5.849   6.889   2.392
10156SOL    HW231368   5.887   0.025   2.357
10157SOL     OW31369   5.772   2.126   5.791
10157SOL    HW131370   5.820   2.040   5.811
10157SOL    HW231371   5.674   2.109   5.788
10158SOL     OW31372   4.920   3.973   0.013
10158SOL    HW131373   4.986   3.927   0.072
10158SOL    HW231374   4.959   3.983   6.941
10159SOL     OW31375   2.702   3.074   6.006
10159SOL    HW131376   2.791   3.042   6.038
10159SOL    HW231377   2.695   3.056   5.907
10160SOL     OW31378   1.041   4.380   2.713
10160SOL    HW131379   1.106   4.359   2.641
10160SOL    HW231380   0.955   4.411   2.672
10161SOL     OW31381   3.508   4.706   0.638
10161SOL    HW131382   3.503   4.785   0.700
10161SOL    HW231383   3.602   4.693   0.608
10162SOL     OW31384   2.610   3.605   0.279
10162SOL    HW131385   2.539   3.559   0.333
10162SOL    HW231386   2.598   3.582   0.183
10163SOL     OW31387   5.973   4.414   6.242
10163SOL    HW131388   6.072   4.424   6.251
10163SOL    HW231389   5.928   4.481   6.301
10164SOL     OW31390   6.478   2.967   5.026
10164SOL    HW131391   6.481   2.943   5.123
10164SOL    HW231392   6.462   3.066   5.016
10165SOL     OW31393   1.430   2.129   4.597
10165SOL    HW131394   1.336   2.155   4.623
10165SOL    HW231395   1.485   2.211   4.586
10166SOL     OW31396   3.647   0.973   2.058
10166SOL    HW131397   3.713   1.009   1.991
10166SOL    HW231398   3.654   0.874   2.061
10167SOL     OW31399   5.420   0.877   6.334
10167SOL    HW131400   5.428   0.955   6.395
10167SOL    HW231401   5.324   0.859   6.314
10168SOL     OW31402   6.423   3.770   5.253
10168SOL    HW131403   6.516   3.787   5.284
10168SOL    HW231404   6.385   3.692   5.302
10169SOL     OW31405   6.760   4.260   3.211
10169SOL    HW131406   6.856   4.272   3.235
10169SOL    HW231407   6.733   4.329   3.144
10170SOL     OW31408   0.686   4.329   5.802
10170SOL    HW131409   0.764   4.313   5.740
10170SOL    HW231410   0.629   4.403   5.765
10171SOL     OW31411   6.447   3.743   6.385
10171SOL    HW131412   6.503   3.746   6.468
10171SOL    HW231413   6.430   3.647   6.360
10172SOL     OW31414   6.048   0.435   2.904
10172SOL    HW131415   6.121   0.500   2.924
10172SOL    HW231416   6.072   0.383   2.821
10173SOL     OW31417   1.772   2.571   1.131
10173SOL    HW131418   1.864   2.531   1.127
10173SOL    HW231419   1.777   2.661   1.175
10174SOL     OW31420   5.730   4.611   2.659
10174SOL    HW131421   5.636   4.586   2.679
10174SOL    HW231422   5.744   4.611   2.560
10175SOL     OW31423   6.363   2.716   4.304
10175SOL    HW131424   6.350   2.760   4.393
10175SOL    HW231425   6.302   2.637   4.297
10176SOL     OW31426   1.197   3.197   5.901
10176SOL    HW131427   1.160   3.126   5.960
10176SOL    HW231428   1.261   3.156   5.836
10177SOL     OW31429   2.794   0.267   0.267
10177SOL    HW131430   2.882   0.313   0.269
10177SOL    HW231431   2.805   0.171   0.294
10178SOL     OW31432   6.320   3.086   4.530
10178SOL    HW131433   6.296   3.114   4.436
10178SOL    HW231434   6.294   2.991   4.544
10179SOL     OW31435   0.776   1.998   6.103
10179SOL    HW131436   0.733   2.088   6.111
10179SOL    HW231437   0.862   1.999   6.155
10180SOL     OW31438   3.118   5.255   5.977
10180SOL    HW131439   3.201   5.201   5.993
10180SOL    HW231440   3.067   5.217   5.901
10181SOL     OW31441   5.147   3.463   2.138
10181SOL    HW131442   5.233   3.438   2.092
10181SOL    HW231443   5.071   3.450   2.075
10182SOL     OW31444   5.618   1.518   1.631
10182SOL    HW131445   5.652   1.538   1.723
10182SOL    HW231446   5.589   1.602   1.587
10183SOL     OW31447   1.305   2.099   6.563
10183SOL    HW131448   1.338   2.188   6.531
10183SOL    HW231449   1.252   2.055   6.490
10184SOL     OW31450   4.804   1.690   6.071
10184SOL    HW131451   4.722   1.715   6.122
10184SOL    HW231452   4.885   1.724   6.120
10185SOL     OW31453   4.704   6.446   0.975
10185SOL    HW131454   4.660   6.377   0.917
10185SOL    HW231455   4.692   6.536   0.935
10186SOL     OW31456   5.873   3.292   3.597
10186SOL    HW131457   5.969   3.265   3.588
10186SOL    HW231458   5.816   3.210   3.597
10187SOL     OW31459   0.764   1.595   2.261
10187SOL    HW131460   0.845   1.545   2.233
10187SOL    HW231461   0.738   1.659   2.188
10188SOL     OW31462   3.864   6.351   0.117
10188SOL    HW131463   3.770   6.332   0.145
10188SOL    HW231464   3.867   6.362   0.017
10189SOL     OW31465   2.424   0.139   5.576
10189SOL    HW131466   2.423   0.058   5.635
10189SOL    HW231467   2.513   0.146   5.530
10190SOL     OW31468   5.028   2.299   1.390
10190SOL    HW131469   5.049   2.395   1.374
10190SOL    HW231470   5.052   2.246   1.309
10191SOL     OW31471   4.946   4.445   6.830
10191SOL    HW131472   4.865   4.389   6.848
10191SOL    HW231473   5.011   4.394   6.773
10192SOL     OW31474   4.132   0.747   4.808
10192SOL    HW131475   4.086   0.667   4.846
10192SOL    HW231476   4.156   0.730   4.712
10193SOL     OW31477   4.212   3.916   1.543
10193SOL    HW131478   4.174   3.825   1.556
10193SOL    HW231479   4.198   3.945   1.448
10194SOL     OW31480   6.079   4.687   4.758
10194SOL    HW131481   6.035   4.653   4.841
10194SOL    HW231482   6.030   4.768   4.724
10195SOL     OW31483   5.876   4.412   1.368
10195SOL    HW131484   5.928   4.334   1.334
10195SOL    HW231485   5.832   4.388   1.454
10196SOL     OW31486   5.998   1.697   4.565
10196SOL    HW131487   5.946   1.669   4.484
10196SOL    HW231488   6.045   1.783   4.547
10197SOL     OW31489   0.063   1.709   4.853
10197SOL    HW131490   0.040   1.662   4.768
10197SOL    HW231491   7.010   1.774   4.875
10198SOL     OW31492   4.133   0.578   2.493
10198SOL    HW131493   4.133   0.654   2.428
10198SOL    HW231494   4.075   0.504   2.457
10199SOL     OW31495   1.437   2.446   6.134
10199SOL    HW131496   1.387   2.398   6.062
10199SOL    HW231497   1.378   2.517   6.174
10200SOL     OW31498   4.852   2.565   1.042
10200SOL    HW131499   4.935   2.615   1.018
10200SOL    HW231500   4.776   2.630   1.050
10201SOL     OW31501   0.956   4.459   0.535
10201SOL    HW131502   1.025   4.430   0.602
10201SOL    HW231503   0.929   4.553   0.554
10202SOL     OW31504   4.285   1.960   5.741
10202SOL    HW131505   4.338   2.013   5.675
10202SOL    HW231506   4.339   1.883   5.774
10203SOL     OW31507   5.163   2.539   4.652
10203SOL    HW131508   5.244   2.560   4.707
10203SOL    HW231509   5.187   2.546   4.555
10204SOL     OW31510   5.056   6.420   6.895
10204SOL    HW131511   4.966   6.429   6.938
10204SOL    HW231512   5.127   6.453   6.958
10205SOL     OW31513   0.407   1.646   0.217
10205SOL    HW131514   0.505   1.652   0.233
10205SOL    HW231515   0.364   1.594   0.291
10206SOL     OW31516   1.025   1.315   5.857
10206SOL    HW131517   0.988   1.222   5.856
10206SOL    HW231518   0.976   1.370   5.789
10207SOL     OW31519   1.483   1.505   6.225
10207SOL    HW131520   1.540   1.449   6.165
10207SOL    HW231521   1.387   1.496   6.197
10208SOL     OW31522   5.283   5.495   4.556
10208SOL    HW131523   5.241   5.422   4.501
10208SOL    HW231524   5.331   5.454   4.634
10209SOL     OW31525   6.816   0.373   5.909
10209SOL    HW131526   6.883   0.433   5.865
10209SOL    HW231527   6.842   0.359   6.005
10210SOL     OW31528   4.562   6.314   1.586
10210SOL    HW131529   4.522   6.384   1.528
10210SOL    HW231530   4.495   6.241   1.601
10211SOL     OW31531   3.827   6.551   4.990
10211SOL    HW131532   3.919   6.582   5.015
10211SOL    HW231533   3.782   6.622   4.936
10212SOL     OW31534   0.735   0.096   5.378
10212SOL    HW131535   0.696   0.021   5.433
10212SOL    HW231536   0.732   0.071   5.281
10213SOL     OW31537   5.321   2.711   0.591
10213SOL    HW131538   5.364   2.702   0.501
10213SOL    HW231539   5.291   2.621   0.623
10214SOL     OW31540   1.229   2.222   1.312
10214SOL    HW131541   1.233   2.159   1.235
10214SOL    HW231542   1.231   2.316   1.277
10215SOL     OW31543   3.977   3.807   2.423
10215SOL    HW131544   3.980   3.881   2.490
10215SOL    HW231545   3.938   3.726   2.465
10216SOL     OW31546   6.185   0.353   1.857
10216SOL    HW131547   6.164   0.342   1.954
10216SOL    HW231548   6.153   0.273   1.806
10217SOL     OW31549   3.107   0.667   3.898
10217SOL    HW131550   3.018   0.695   3.932
10217SOL    HW231551   3.129   0.719   3.815
10218SOL     OW31552   1.300   2.622   2.178
10218SOL    HW131553   1.271   2.649   2.086
10218SOL    HW231554   1.317   2.524   2.181
10219SOL     OW31555   0.402   1.192   1.964
10219SOL    HW131556   0.445   1.138   1.891
10219SOL    HW231557   0.444   1.282   1.968
10220SOL     OW31558   3.523   2.918   1.178
10220SOL    HW131559   3.578   2.854   1.125
10220SOL    HW231560   3.572   2.943   1.261
10221SOL     OW31561   0.495   6.040   3.020
10221SOL    HW131562   0.591   6.046   3.046
10221SOL    HW231563   0.441   6.103   3.076
10222SOL     OW31564   2.883   3.632   4.581
10222SOL    HW131565   2.873   3.541   4.622
10222SOL    HW231566   2.903   3.698   4.653
10223SOL     OW31567   0.835   5.728   1.041
10223SOL    HW131568   0.772   5.659   1.078
10223SOL    HW231569   0.799   5.762   0.954
10224SOL     OW31570   6.262   3.845   3.378
10224SOL    HW131571   6.305   3.933   3.358
10224SOL    HW231572   6.332   3.780   3.409
10225SOL     OW31573   1.477   3.652   5.650
10225SOL    HW131574   1.438   3.565   5.620
10225SOL    HW231575   1.495   3.709   5.570
10226SOL     OW31576   3.607   2.288   6.892
10226SOL    HW131577   3.515   2.311   6.925
10226SOL    HW231578   3.668   2.367   6.905
10227SOL     OW31579   5.513   3.901   0.971
10227SOL    HW131580   5.506   4.000   0.985
10227SOL    HW231581   5.435   3.869   0.917
10228SOL     OW31582   5.540   1.065   0.747
10228SOL    HW131583   5.499   1.043   0.658
10228SOL    HW231584   5.469   1.064   0.817
10229SOL     OW31585   0.423   3.376   5.093
10229SOL    HW131586   0.328   3.344   5.093
10229SOL    HW231587   0.485   3.298   5.097
10230SOL     OW31588   6.465   5.684   2.301
10230SOL    HW131589   6.550   5.736   2.307
10230SOL    HW231590   6.466   5.628   2.218
10231SOL     OW31591   1.748   6.626   3.352
10231SOL    HW131592   1.839   6.653   3.384
10231SOL    HW231593   1.706   6.564   3.418
10232SOL     OW31594   4.254   0.038   2.687
10232SOL    HW131595   4.201   0.063   2.768
10232SOL    HW231596   4.252   6.959   2.675
10233SOL     OW31597   3.824   4.266   6.150
10233SOL    HW131598   3.845   4.185   6.094
10233SOL    HW231599   3.808   4.344   6.089
10234SOL     OW31600   6.879   0.641   1.442
10234SOL    HW131601   6.796   0.695   1.434
10234SOL    HW231602   6.872   0.579   1.520
10235SOL     OW31603   0.786   1.132   3.062
10235SOL    HW131604   0.778   1.070   3.140
10235SOL    HW231605   0.743   1.091   2.982
10236SOL     OW31606   2.249   6.930   0.450
10236SOL    HW131607   2.306   6.968   0.523
10236SOL    HW231608   2.181   6.868   0.489
10237SOL     OW31609   0.410   3.427   6.925
10237SOL    HW131610   0.385   3.496   6.856
10237SOL    HW231611   0.489   3.460   6.977
10238SOL     OW31612   3.649   5.211   0.874
10238SOL    HW131613   3.746   5.224   0.851
10238SOL    HW231614   3.599   5.294   0.851
10239SOL     OW31615   1.462   2.872   4.741
10239SOL    HW131616   1.538   2.937   4.731
10239SOL    HW231617   1.376   2.922   4.749
10240SOL     OW31618   2.260   0.354   1.255
10240SOL    HW131619   2.239   0.451   1.261
10240SOL    HW231620   2.200   0.311   1.188
10241SOL     OW31621   4.441   2.394   1.499
10241SOL    HW131622   4.392   2.471   1.458
10241SOL    HW231623   4.530   2.426   1.534
10242SOL     OW31624   0.168   2.151   0.638
10242SOL    HW131625   0.203   2.173   0.547
10242SOL    HW231626   0.104   2.075   0.631
10243SOL     OW31627   2.598   4.728   0.549
10243SOL    HW131628   2.537   4.654   0.576
10243SOL    HW231629   2.691   4.693   0.539
10244SOL     OW31630   1.997   4.374   1.599
10244SOL    HW131631   2.066   4.435   1.637
10244SOL    HW231632   2.039   4.312   1.533
10245SOL     OW31633   3.597   4.078   0.636
10245SOL    HW131634   3.518   4.116   0.685
10245SOL    HW231635   3.573   3.989   0.597
10246SOL     OW31636   3.421   2.926   4.293
10246SOL    HW131637   3.440   2.963   4.384
10246SOL    HW231638   3.507   2.909   4.245
10247SOL     OW31639   0.869   3.950   4.463
10247SOL    HW131640   0.957   3.954   4.510
10247SOL    HW231641   0.877   3.992   4.373
10248SOL     OW31642   1.497   0.239   3.575
10248SOL    HW131643   1.550   0.207   3.497
10248SOL    HW231644   1.551   0.305   3.628
10249SOL     OW31645   1.967   4.640   6.893
10249SOL    HW131646   1.877   4.661   6.855
10249SOL    HW231647   2.034   4.703   6.857
10250SOL     OW31648   5.436   3.060   6.974
10250SOL    HW131649   5.429   3.078   6.876
10250SOL    HW231650   5.429   2.961   6.990
10251SOL     OW31651   1.679   0.241   4.226
10251SOL    HW131652   1.706   0.208   4.136
10251SOL    HW231653   1.630   0.328   4.216
10252SOL     OW31654   4.875   4.115   5.706
10252SOL    HW131655   4.882   4.210   5.737
10252SOL    HW231656   4.798   4.071   5.751
10253SOL     OW31657   4.201   6.626   6.919
10253SOL    HW131658   4.149   6.621   7.004
10253SOL    HW231659   4.294   6.593   6.935
10254SOL     OW31660   5.728   1.761   4.828
10254SOL    HW131661   5.783   1.684   4.859
10254SOL    HW231662   5.781   1.817   4.765
10255SOL     OW31663   3.261   5.430   1.537
10255SOL    HW131664   3.336   5.368   1.513
10255SOL    HW231665   3.174   5.383   1.524
10256SOL     OW31666   4.829   0.814   2.048
10256SOL    HW131667   4.764   0.881   2.013
10256SOL    HW231668   4.862   0.844   2.138
10257SOL     OW31669   2.819   4.985   2.467
10257SOL    HW131670   2.839   4.919   2.395
10257SOL    HW231671   2.844   4.946   2.556
10258SOL     OW31672   2.548   2.085   2.707
10258SOL    HW131673   2.516   2.099   2.613
10258SOL    HW231674   2.605   2.162   2.735
10259SOL     OW31675   0.568   4.275   3.974
10259SOL    HW131676   0.634   4.207   4.007
10259SOL    HW231677   0.549   4.258   3.877
10260SOL     OW31678   1.305   1.251   3.462
10260SOL    HW131679   1.269   1.276   3.552
10260SOL    HW231680   1.288   1.325   3.397
10261SOL     OW31681   0.103   3.800   0.797
10261SOL    HW131682   0.039   3.812   0.721
10261SOL    HW231683   0.182   3.748   0.766
10262SOL     OW31684   3.785   1.380   6.875
10262SOL    HW131685   3.884   1.379   6.864
10262SOL    HW231686   3.742   1.406   6.789
10263SOL     OW31687   5.987   1.061   1.460
10263SOL    HW131688   6.001   1.133   1.392
10263SOL    HW231689   5.981   0.972   1.415
10264SOL     OW31690   6.221   5.151   6.646
10264SOL    HW131691   6.278   5.173   6.725
10264SOL    HW231692   6.136   5.203   6.651
10265SOL     OW31693   2.000   2.361   6.822
10265SOL    HW131694   2.027   2.449   6.862
10265SOL    HW231695   2.064   2.291   6.852
10266SOL     OW31696   3.231   2.900   2.856
10266SOL    HW131697   3.181   2.958   2.921
10266SOL    HW231698   3.306   2.854   2.904
10267SOL     OW31699   5.769   0.881   0.525
10267SOL    HW131700   5.841   0.945   0.553
10267SOL    HW231701   5.750   0.817   0.600
10268SOL     OW31702   5.029   6.674   0.991
10268SOL    HW131703   5.048   6.727   1.073
10268SOL    HW231704   5.091   6.703   0.918
10269SOL     OW31705   1.954   2.289   6.321
10269SOL    HW131706   1.965   2.362   6.253
10269SOL    HW231707   1.903   2.325   6.400
10270SOL     OW31708   3.364   6.121   2.301
10270SOL    HW131709   3.347   6.166   2.213
10270SOL    HW231710   3.357   6.188   2.374
10271SOL     OW31711   2.600   2.197   0.582
10271SOL    HW131712   2.613   2.116   0.525
10271SOL    HW231713   2.569   2.170   0.673
10272SOL     OW31714   6.468   0.861   4.397
10272SOL    HW131715   6.374   0.896   4.409
10272SOL    HW231716   6.532   0.938   4.399
10273SOL     OW31717   2.560   4.960   3.876
10273SOL    HW131718   2.623   4.891   3.911
10273SOL    HW231719   2.487   4.916   3.823
10274SOL     OW31720   0.172   4.938   5.429
10274SOL    HW131721   0.257   4.941   5.376
10274SOL    HW231722   0.099   4.904   5.370
10275SOL     OW31723   0.476   0.574   2.992
10275SOL    HW131724   0.487   0.491   2.938
10275SOL    HW231725   0.511   0.652   2.941
10276SOL     OW31726   4.936   5.725   5.667
10276SOL    HW131727   4.947   5.712   5.568
10276SOL    HW231728   4.942   5.822   5.689
10277SOL     OW31729   1.171   6.698   4.301
10277SOL    HW131730   1.203   6.618   4.353
10277SOL    HW231731   1.180   6.679   4.203
10278SOL     OW31732   0.525   0.697   5.388
10278SOL    HW131733   0.461   0.646   5.445
10278SOL    HW231734   0.594   0.634   5.352
10279SOL     OW31735   2.380   5.427   4.253
10279SOL    HW131736   2.429   5.512   4.270
10279SOL    HW231737   2.330   5.400   4.335
10280SOL     OW31738   5.333   3.765   0.800
10280SOL    HW131739   5.367   3.758   0.707
10280SOL    HW231740   5.280   3.683   0.823
10281SOL     OW31741   6.301   2.063   3.086
10281SOL    HW131742   6.287   1.972   3.124
10281SOL    HW231743   6.217   2.094   3.041
10282SOL     OW31744   4.964   3.218   2.734
10282SOL    HW131745   5.052   3.259   2.714
10282SOL    HW231746   4.907   3.218   2.652
10283SOL     OW31747   0.588   3.919   1.184
10283SOL    HW131748   0.559   4.014   1.170
10283SOL    HW231749   0.521   3.857   1.143
10284SOL     OW31750   0.135   2.354   3.989
10284SOL    HW131751   0.071   2.426   3.962
10284SOL    HW231752   0.226   2.375   3.954
10285SOL     OW31753   4.351   6.320   3.631
10285SOL    HW131754   4.438   6.271   3.622
10285SOL    HW231755   4.364   6.416   3.606
10286SOL     OW31756   3.442   1.462   4.086
10286SOL    HW131757   3.437   1.541   4.147
10286SOL    HW231758   3.352   1.449   4.043
10287SOL     OW31759   1.862   5.935   1.981
10287SOL    HW131760   1.838   5.994   2.058
10287SOL    HW231761   1.890   5.845   2.014
10288SOL     OW31762   3.524   0.173   5.105
10288SOL    HW131763   3.436   0.183   5.151
10288SOL    HW231764   3.586   0.118   5.161
10289SOL     OW31765   3.245   6.426   0.689
10289SOL    HW131766   3.210   6.519   0.694
10289SOL    HW231767   3.315   6.419   0.618
10290SOL     OW31768   3.146   3.011   2.612
10290SOL    HW131769   3.152   2.962   2.699
10290SOL    HW231770   3.209   2.970   2.546
10291SOL     OW31771   3.186   0.699   2.529
10291SOL    HW131772   3.125   0.774   2.556
10291SOL    HW231773   3.150   0.613   2.567
10292SOL     OW31774   6.679   0.788   6.357
10292SOL    HW131775   6.586   0.802   6.325
10292SOL    HW231776   6.720   0.710   6.309
10293SOL     OW31777   0.593   3.748   3.854
10293SOL    HW131778   0.675   3.761   3.909
10293SOL    HW231779   0.514   3.731   3.914
10294SOL     OW31780   3.206   1.794   2.641
10294SOL    HW131781   3.135   1.823   2.576
10294SOL    HW231782   3.187   1.701   2.672
10295SOL     OW31783   0.992   2.597   6.630
10295SOL    HW131784   0.986   2.611   6.729
10295SOL    HW231785   0.991   2.498   6.610
10296SOL     OW31786   5.810   0.585   5.752
10296SOL    HW131787   5.813   0.676   5.708
10296SOL    HW231788   5.794   0.596   5.850
10297SOL     OW31789   2.958   1.965   6.361
10297SOL    HW131790   2.996   1.926   6.278
10297SOL    HW231791   2.954   1.895   6.432
10298SOL     OW31792   1.116   3.455   2.437
10298SOL    HW131793   1.070   3.536   2.473
10298SOL    HW231794   1.093   3.444   2.340
10299SOL     OW31795   4.854   6.434   2.484
10299SOL    HW131796   4.794   6.514   2.484
10299SOL    HW231797   4.924   6.445   2.413
10300SOL     OW31798   0.959   3.896   1.994
10300SOL    HW131799   1.041   3.926   2.042
10300SOL    HW231800   0.975   3.896   1.895
10301SOL     OW31801   4.209   1.114   5.943
10301SOL    HW131802   4.244   1.177   6.012
10301SOL    HW231803   4.193   1.163   5.857
10302SOL     OW31804   2.740   6.113   4.187
10302SOL    HW131805   2.733   6.210   4.163
10302SOL    HW231806   2.824   6.098   4.239
10303SOL     OW31807   0.885   6.122   3.793
10303SOL    HW131808   0.882   6.096   3.697
10303SOL    HW231809   0.836   6.055   3.848
10304SOL     OW31810   6.582   6.891   6.975
10304SOL    HW131811   6.674   6.914   6.944
10304SOL    HW231812   6.560   6.946   0.036
10305SOL     OW31813   2.615   3.797   6.119
10305SOL    HW131814   2.577   3.884   6.151
10305SOL    HW231815   2.552   3.755   6.054
10306SOL     OW31816   5.824   0.200   1.005
10306SOL    HW131817   5.762   0.275   0.984
10306SOL    HW231818   5.782   0.139   1.072
10307SOL     OW31819   2.685   1.004   4.581
10307SOL    HW131820   2.603   1.032   4.632
10307SOL    HW231821   2.667   0.918   4.534
10308SOL     OW31822   2.398   4.270   2.810
10308SOL    HW131823   2.431   4.259   2.717
10308SOL    HW231824   2.346   4.189   2.838
10309SOL     OW31825   6.112   0.365   5.432
10309SOL    HW131826   6.089   0.268   5.436
10309SOL    HW231827   6.033   0.420   5.458
10310SOL     OW31828   2.368   3.312   0.059
10310SOL    HW131829   2.392   3.308   0.155
10310SOL    HW231830   2.445   3.281   0.003
10311SOL     OW31831   5.647   5.884   6.695
10311SOL    HW131832   5.645   5.918   6.789
10311SOL    HW231833   5.583   5.807   6.686
10312SOL     OW31834   4.385   0.251   1.951
10312SOL    HW131835   4.431   0.234   2.038
10312SOL    HW231836   4.313   0.319   1.963
10313SOL     OW31837   4.364   5.760   2.849
10313SOL    HW131838   4.304   5.793   2.922
10313SOL    HW231839   4.459   5.784   2.871
10314SOL     OW31840   0.640   0.187   6.807
10314SOL    HW131841   0.655   0.280   6.773
10314SOL    HW231842   0.725   0.135   6.802
10315SOL     OW31843   5.202   6.529   3.741
10315SOL    HW131844   5.240   6.437   3.748
10315SOL    HW231845   5.147   6.537   3.658
10316SOL     OW31846   6.196   1.740   6.196
10316SOL    HW131847   6.126   1.804   6.165
10316SOL    HW231848   6.276   1.747   6.136
10317SOL     OW31849   3.483   5.917   6.139
10317SOL    HW131850   3.524   5.885   6.224
10317SOL    HW231851   3.386   5.934   6.152
10318SOL     OW31852   5.352   0.009   6.984
10318SOL    HW131853   5.372   0.043   0.056
10318SOL    HW231854   5.398   0.066   6.916
10319SOL     OW31855   0.282   4.936   4.733
10319SOL    HW131856   0.202   4.988   4.703
10319SOL    HW231857   0.308   4.965   4.825
10320SOL     OW31858   0.024   0.469   3.657
10320SOL    HW131859   0.054   0.541   3.720
10320SOL    HW231860   7.015   0.389   3.708
10321SOL     OW31861   5.764   2.032   1.978
10321SOL    HW131862   5.847   1.992   1.939
10321SOL    HW231863   5.687   1.970   1.963
10322SOL     OW31864   4.557   4.560   4.472
10322SOL    HW131865   4.501   4.602   4.544
10322SOL    HW231866   4.600   4.632   4.418
10323SOL     OW31867   5.878   4.332   5.367
10323SOL    HW131868   5.810   4.370   5.430
10323SOL    HW231869   5.970   4.352   5.401
10324SOL     OW31870   2.934   3.570   2.312
10324SOL    HW131871   3.006   3.502   2.301
10324SOL    HW231872   2.933   3.632   2.234
10325SOL     OW31873   0.408   5.819   2.277
10325SOL    HW131874   0.314   5.794   2.298
10325SOL    HW231875   0.466   5.800   2.356
10326SOL     OW31876   5.280   3.768   6.640
10326SOL    HW131877   5.252   3.830   6.567
10326SOL    HW231878   5.223   3.686   6.639
10327SOL     OW31879   2.629   3.781   1.069
10327SOL    HW131880   2.635   3.682   1.070
10327SOL    HW231881   2.718   3.820   1.095
10328SOL     OW31882   6.636   3.226   2.342
10328SOL    HW131883   6.631   3.271   2.253
10328SOL    HW231884   6.545   3.222   2.383
10329SOL     OW31885   3.064   0.874   3.098
10329SOL    HW131886   3.060   0.798   3.033
10329SOL    HW231887   3.097   0.841   3.186
10330SOL     OW31888   4.740   0.482   0.651
10330SOL    HW131889   4.830   0.475   0.694
10330SOL    HW231890   4.711   0.391   0.621
10331SOL     OW31891   6.147   6.608   6.730
10331SOL    HW131892   6.194   6.666   6.796
10331SOL    HW231893   6.065   6.569   6.773
10332SOL     OW31894   0.734   0.711   0.004
10332SOL    HW131895   0.759   0.701   6.927
10332SOL    HW231896   0.751   0.625   0.052
10333SOL     OW31897   0.584   5.692   4.407
10333SOL    HW131898   0.514   5.628   4.437
10333SOL    HW231899   0.566   5.718   4.312
10334SOL     OW31900   3.413   6.967   4.353
10334SOL    HW131901   3.349   6.906   4.401
10334SOL    HW231902   3.499   6.971   4.404
10335SOL     OW31903   0.270   4.635   6.479
10335SOL    HW131904   0.269   4.639   6.579
10335SOL    HW231905   0.334   4.564   6.449
10336SOL     OW31906   6.103   6.862   2.256
10336SOL    HW131907   6.194   6.864   2.298
10336SOL    HW231908   6.055   6.779   2.286
10337SOL     OW31909   6.109   5.499   6.867
10337SOL    HW131910   6.009   5.506   6.865
10337SOL    HW231911   6.147   5.573   6.923
10338SOL     OW31912   1.894   6.460   1.936
10338SOL    HW131913   1.897   6.560   1.929
10338SOL    HW231914   1.911   6.420   1.846
10339SOL     OW31915   6.312   3.466   6.226
10339SOL    HW131916   6.241   3.401   6.251
10339SOL    HW231917   6.276   3.532   6.160
10340SOL     OW31918   1.911   3.177   6.393
10340SOL    HW131919   1.858   3.097   6.368
10340SOL    HW231920   1.883   3.255   6.337
10341SOL     OW31921   2.149   3.188   2.397
10341SOL    HW131922   2.068   3.224   2.443
10341SOL    HW231923   2.207   3.264   2.368
10342SOL     OW31924   1.637   0.866   3.544
10342SOL    HW131925   1.608   0.775   3.514
10342SOL    HW231926   1.556   0.921   3.566
10343SOL     OW31927   2.247   5.381   0.848
10343SOL    HW131928   2.272   5.289   0.817
10343SOL    HW231929   2.252   5.384   0.948
10344SOL     OW31930   3.486   3.830   6.423
10344SOL    HW131931   3.557   3.890   6.461
10344SOL    HW231932   3.404   3.884   6.406
10345SOL     OW31933   1.162   2.730   5.366
10345SOL    HW131934   1.250   2.684   5.380
10345SOL    HW231935   1.148   2.745   5.268
10346SOL     OW31936   0.066   5.641   1.487
10346SOL    HW131937   0.146   5.589   1.457
10346SOL    HW231938   0.039   5.704   1.415
10347SOL     OW31939   4.476   1.180   3.457
10347SOL    HW131940   4.528   1.175   3.543
10347SOL    HW231941   4.523   1.239   3.393
10348SOL     OW31942   6.159   3.022   0.502
10348SOL    HW131943   6.083   2.958   0.510
10348SOL    HW231944   6.234   2.991   0.561
10349SOL     OW31945   0.774   0.037   6.527
10349SOL    HW131946   0.811   0.009   6.616
10349SOL    HW231947   0.682   7.018   6.516
10350SOL     OW31948   2.805   6.200   4.825
10350SOL    HW131949   2.762   6.284   4.860
10350SOL    HW231950   2.859   6.221   4.744
10351SOL     OW31951   4.670   5.640   5.699
10351SOL    HW131952   4.658   5.596   5.609
10351SOL    HW231953   4.767   5.664   5.711
10352SOL     OW31954   3.510   1.050   6.169
10352SOL    HW131955   3.453   0.993   6.111
10352SOL    HW231956   3.599   1.007   6.182
10353SOL     OW31957   6.811   3.025   4.739
10353SOL    HW131958   6.787   3.025   4.836
10353SOL    HW231959   6.814   3.118   4.705
10354SOL     OW31960   5.381   0.908   1.337
10354SOL    HW131961   5.404   0.926   1.433
10354SOL    HW231962   5.381   0.994   1.286
10355SOL     OW31963   2.730   6.220   2.533
10355SOL    HW131964   2.799   6.208   2.604
10355SOL    HW231965   2.699   6.316   2.533
10356SOL     OW31966   6.636   3.859   5.398
10356SOL    HW131967   6.644   3.933   5.465
10356SOL    HW231968   6.704   3.788   5.418
10357SOL     OW31969   2.048   2.616   6.563
10357SOL    HW131970   2.095   2.633   6.476
10357SOL    HW231971   1.968   2.559   6.546
10358SOL     OW31972   0.508   2.642   2.605
10358SOL    HW131973   0.568   2.604   2.675
10358SOL    HW231974   0.506   2.582   2.526
10359SOL     OW31975   0.273   1.531   1.539
10359SOL    HW131976   0.304   1.445   1.499
10359SOL    HW231977   0.341   1.602   1.523
10360SOL     OW31978   5.102   6.092   3.037
10360SOL    HW131979   5.139   6.089   2.944
10360SOL    HW231980   5.037   6.017   3.050
10361SOL     OW31981   3.145   5.960   2.578
10361SOL    HW131982   3.055   6.001   2.567
10361SOL    HW231983   3.163   5.898   2.502
10362SOL     OW31984   2.414   4.794   4.895
10362SOL    HW131985   2.432   4.822   4.989
10362SOL    HW231986   2.398   4.695   4.892
10363SOL     OW31987   5.262   0.422   2.595
10363SOL    HW131988   5.165   0.413   2.570
10363SOL    HW231989   5.268   0.454   2.689
10364SOL     OW31990   2.257   4.101   1.229
10364SOL    HW131991   2.319   4.039   1.276
10364SOL    HW231992   2.287   4.114   1.135
10365SOL     OW31993   4.720   5.366   0.269
10365SOL    HW131994   4.725   5.302   0.193
10365SOL    HW231995   4.700   5.458   0.235
10366SOL     OW31996   2.559   6.859   3.873
10366SOL    HW131997   2.549   6.895   3.966
10366SOL    HW231998   2.605   6.927   3.816
10367SOL     OW31999   6.239   2.396   3.190
10367SOL    HW132000   6.164   2.441   3.238
10367SOL    HW232001   6.292   2.464   3.140
10368SOL     OW32002   2.039   1.168   2.251
10368SOL    HW132003   2.126   1.166   2.201
10368SOL    HW232004   2.043   1.238   2.322
10369SOL     OW32005   3.900   2.130   0.893
10369SOL    HW132006   3.850   2.103   0.975
10369SOL    HW232007   3.956   2.054   0.861
10370SOL     OW32008   4.336   1.061   5.195
10370SOL    HW132009   4.429   1.030   5.217
10370SOL    HW232010   4.328   1.074   5.096
10371SOL     OW32011   4.231   5.652   5.181
10371SOL    HW132012   4.306   5.708   5.216
10371SOL    HW232013   4.183   5.703   5.110
10372SOL     OW32014   2.496   1.046   4.237
10372SOL    HW132015   2.537   1.090   4.157
10372SOL    HW232016   2.461   1.117   4.299
10373SOL     OW32017   0.910   6.296   4.527
10373SOL    HW132018   0.881   6.211   4.484
10373SOL    HW232019   0.829   6.350   4.552
10374SOL     OW32020   3.237   1.685   3.324
10374SOL    HW132021   3.171   1.727   3.387
10374SOL    HW232022   3.241   1.587   3.341
10375SOL     OW32023   5.510   2.194   1.183
10375SOL    HW132024   5.580   2.212   1.115
10375SOL    HW232025   5.531   2.244   1.267
10376SOL     OW32026   0.014   1.136   3.520
10376SOL    HW132027   0.026   1.041   3.493
10376SOL    HW232028   0.063   1.152   3.607
10377SOL     OW32029   0.144   0.712   4.039
10377SOL    HW132030   0.172   0.619   4.062
10377SOL    HW232031   0.213   0.777   4.071
10378SOL     OW32032   6.715   0.482   6.202
10378SOL    HW132033   6.692   0.401   6.255
10378SOL    HW232034   6.642   0.502   6.137
10379SOL     OW32035   5.308   0.437   4.794
10379SOL    HW132036   5.236   0.494   4.756
10379SOL    HW232037   5.312   0.351   4.744
10380SOL     OW32038   5.306   0.220   2.382
10380SOL    HW132039   5.359   0.204   2.299
10380SOL    HW232040   5.325   0.312   2.417
10381SOL     OW32041   4.418   5.007   5.606
10381SOL    HW132042   4.468   5.073   5.661
10381SOL    HW232043   4.325   5.040   5.590
10382SOL     OW32044   2.383   5.241   6.664
10382SOL    HW132045   2.306   5.230   6.602
10382SOL    HW232046   2.466   5.208   6.621
10383SOL     OW32047   0.764   2.289   1.518
10383SOL    HW132048   0.706   2.364   1.484
10383SOL    HW232049   0.858   2.304   1.488
10384SOL     OW32050   6.561   6.576   0.487
10384SOL    HW132051   6.463   6.558   0.501
10384SOL    HW232052   6.600   6.613   0.572
10385SOL     OW32053   6.234   1.146   6.351
10385SOL    HW132054   6.296   1.224   6.340
10385SOL    HW232055   6.283   1.062   6.327
10386SOL     OW32056   6.246   2.851   5.394
10386SOL    HW132057   6.168   2.862   5.333
10386SOL    HW232058   6.312   2.788   5.352
10387SOL     OW32059   2.022   2.640   3.090
10387SOL    HW132060   1.925   2.658   3.111
10387SOL    HW232061   2.029   2.604   2.998
10388SOL     OW32062   1.504   5.109   3.036
10388SOL    HW132063   1.563   5.167   2.980
10388SOL    HW232064   1.437   5.165   3.085
10389SOL     OW32065   0.962   4.795   3.690
10389SOL    HW132066   0.977   4.743   3.774
10389SOL    HW232067   0.922   4.735   3.620
10390SOL     OW32068   1.021   2.994   3.317
10390SOL    HW132069   0.946   3.033   3.265
10390SOL    HW232070   1.056   2.913   3.270
10391SOL     OW32071   2.350   6.330   6.392
10391SOL    HW132072   2.350   6.406   6.328
10391SOL    HW232073   2.294   6.255   6.356
10392SOL     OW32074   6.521   5.001   0.718
10392SOL    HW132075   6.448   5.038   0.776
10392SOL    HW232076   6.536   5.062   0.640
10393SOL     OW32077   1.055   1.203   4.270
10393SOL    HW132078   1.111   1.231   4.349
10393SOL    HW232079   1.032   1.106   4.278
10394SOL     OW32080   2.279   6.272   0.016
10394SOL    HW132081   2.195   6.243   0.061
10394SOL    HW232082   2.261   6.355   6.983
10395SOL     OW32083   0.342   0.830   4.933
10395SOL    HW132084   0.281   0.784   4.997
10395SOL    HW232085   0.295   0.841   4.845
10396SOL     OW32086   1.176   6.968   4.990
10396SOL    HW132087   1.164   6.881   4.943
10396SOL    HW232088   1.237   6.956   5.068
10397SOL     OW32089   3.511   1.442   3.300
10397SOL    HW132090   3.546   1.536   3.305
10397SOL    HW232091   3.422   1.438   3.345
10398SOL     OW32092   6.137   2.948   2.270
10398SOL    HW132093   6.158   2.994   2.184
10398SOL    HW232094   6.122   2.851   2.254
10399SOL     OW32095   5.305   2.478   5.177
10399SOL    HW132096   5.320   2.576   5.168
10399SOL    HW232097   5.269   2.442   5.091
10400SOL     OW32098   2.774   5.764   2.469
10400SOL    HW132099   2.791   5.728   2.560
10400SOL    HW232100   2.805   5.859   2.464
10401SOL     OW32101   0.967   5.786   1.883
10401SOL    HW132102   0.968   5.886   1.878
10401SOL    HW232103   1.062   5.753   1.885
10402SOL     OW32104   0.349   3.399   4.401
10402SOL    HW132105   0.436   3.362   4.369
10402SOL    HW232106   0.366   3.478   4.459
10403SOL     OW32107   5.475   0.880   1.969
10403SOL    HW132108   5.463   0.976   1.942
10403SOL    HW232109   5.565   0.848   1.938
10404SOL     OW32110   0.687   6.347   3.798
10404SOL    HW132111   0.775   6.308   3.825
10404SOL    HW232112   0.696   6.446   3.787
10405SOL     OW32113   1.825   6.269   5.950
10405SOL    HW132114   1.768   6.255   5.869
10405SOL    HW232115   1.905   6.209   5.945
10406SOL     OW32116   2.191   4.572   5.899
10406SOL    HW132117   2.258   4.513   5.945
10406SOL    HW232118   2.230   4.603   5.812
10407SOL     OW32119   0.704   2.164   6.871
10407SOL    HW132120   0.653   2.161   6.957
10407SOL    HW232121   0.709   2.072   6.832
10408SOL     OW32122   4.742   5.560   3.002
10408SOL    HW132123   4.793   5.523   2.924
10408SOL    HW232124   4.668   5.618   2.968
10409SOL     OW32125   6.780   4.795   2.723
10409SOL    HW132126   6.859   4.837   2.679
10409SOL    HW232127   6.698   4.848   2.701
10410SOL     OW32128   4.566   0.587   0.880
10410SOL    HW132129   4.606   0.559   0.968
10410SOL    HW232130   4.635   0.583   0.809
10411SOL     OW32131   1.990   4.662   2.757
10411SOL    HW132132   2.041   4.579   2.779
10411SOL    HW232133   2.032   4.706   2.678
10412SOL     OW32134   0.658   2.143   0.556
10412SOL    HW132135   0.676   2.109   0.464
10412SOL    HW232136   0.743   2.177   0.597
10413SOL     OW32137   6.633   2.291   6.876
10413SOL    HW132138   6.587   2.350   6.809
10413SOL    HW232139   6.703   2.344   6.923
10414SOL     OW32140   5.655   6.259   5.902
10414SOL    HW132141   5.678   6.168   5.868
10414SOL    HW232142   5.705   6.277   5.987
10415SOL     OW32143   0.550   6.030   3.349
10415SOL    HW132144   0.487   5.964   3.308
10415SOL    HW232145   0.530   6.038   3.447
10416SOL     OW32146   5.883   1.213   5.473
10416SOL    HW132147   5.975   1.228   5.509
10416SOL    HW232148   5.887   1.147   5.398
10417SOL     OW32149   3.858   4.893   4.157
10417SOL    HW132150   3.919   4.826   4.200
10417SOL    HW232151   3.811   4.851   4.080
10418SOL     OW32152   6.314   3.665   6.704
10418SOL    HW132153   6.339   3.589   6.764
10418SOL    HW232154   6.393   3.690   6.647
10419SOL     OW32155   2.804   1.155   4.395
10419SOL    HW132156   2.769   1.117   4.481
10419SOL    HW232157   2.840   1.246   4.411
10420SOL     OW32158   6.613   3.513   3.049
10420SOL    HW132159   6.616   3.613   3.045
10420SOL    HW232160   6.706   3.477   3.044
10421SOL     OW32161   1.149   4.327   4.647
10421SOL    HW132162   1.092   4.284   4.718
10421SOL    HW232163   1.128   4.425   4.643
10422SOL     OW32164   6.561   3.637   4.783
10422SOL    HW132165   6.531   3.569   4.850
10422SOL    HW232166   6.658   3.656   4.795
10423SOL     OW32167   2.939   4.935   3.882
10423SOL    HW132168   3.015   4.881   3.846
10423SOL    HW232169   2.909   4.896   3.969
10424SOL     OW32170   3.736   1.019   0.584
10424SOL    HW132171   3.720   1.051   0.677
10424SOL    HW232172   3.833   1.022   0.563
10425SOL     OW32173   1.789   1.614   0.865
10425SOL    HW132174   1.825   1.548   0.931
10425SOL    HW232175   1.689   1.604   0.859
10426SOL     OW32176   6.242   2.475   6.216
10426SOL    HW132177   6.280   2.384   6.195
10426SOL    HW232178   6.249   2.492   6.314
10427SOL     OW32179   5.690   6.726   4.248
10427SOL    HW132180   5.762   6.679   4.299
10427SOL    HW232181   5.732   6.791   4.184
10428SOL     OW32182   2.321   0.433   4.356
10428SOL    HW132183   2.374   0.440   4.272
10428SOL    HW232184   2.269   0.347   4.356
10429SOL     OW32185   1.228   2.945   2.076
10429SOL    HW132186   1.221   2.854   2.034
10429SOL    HW232187   1.287   3.003   2.020
10430SOL     OW32188   3.202   0.253   3.708
10430SOL    HW132189   3.275   0.206   3.658
10430SOL    HW232190   3.223   0.351   3.713
10431SOL     OW32191   3.626   0.292   2.956
10431SOL    HW132192   3.682   0.231   2.900
10431SOL    HW232193   3.601   0.247   3.041
10432SOL     OW32194   1.260   5.442   5.793
10432SOL    HW132195   1.276   5.471   5.887
10432SOL    HW232196   1.340   5.391   5.760
10433SOL     OW32197   2.802   0.135   2.629
10433SOL    HW132198   2.784   0.057   2.569
10433SOL    HW232199   2.769   0.115   2.721
10434SOL     OW32200   4.780   6.892   5.601
10434SOL    HW132201   4.743   6.974   5.557
10434SOL    HW232202   4.708   6.824   5.609
10435SOL     OW32203   2.269   1.952   6.672
10435SOL    HW132204   2.306   1.981   6.584
10435SOL    HW232205   2.301   1.859   6.692
10436SOL     OW32206   6.541   3.457   5.288
10436SOL    HW132207   6.571   3.413   5.373
10436SOL    HW232208   6.447   3.488   5.298
10437SOL     OW32209   5.177   6.368   4.836
10437SOL    HW132210   5.179   6.270   4.854
10437SOL    HW232211   5.164   6.383   4.738
10438SOL     OW32212   6.805   6.117   6.691
10438SOL    HW132213   6.896   6.084   6.665
10438SOL    HW232214   6.811   6.214   6.717
10439SOL     OW32215   6.871   6.452   5.475
10439SOL    HW132216   6.792   6.499   5.435
10439SOL    HW232217   6.928   6.415   5.401
10440SOL     OW32218   0.116   2.640   0.507
10440SOL    HW132219   0.169   2.631   0.422
10440SOL    HW232220   0.130   2.559   0.564
10441SOL     OW32221   4.121   1.903   0.459
10441SOL    HW132222   4.174   1.861   0.385
10441SOL    HW232223   4.043   1.951   0.421
10442SOL     OW32224   2.253   1.514   6.131
10442SOL    HW132225   2.203   1.599   6.116
10442SOL    HW232226   2.351   1.532   6.123
10443SOL     OW32227   0.439   1.421   3.223
10443SOL    HW132228   0.525   1.374   3.201
10443SOL    HW232229   0.457   1.496   3.287
10444SOL     OW32230   3.967   5.779   4.334
10444SOL    HW132231   4.001   5.867   4.303
10444SOL    HW232232   3.983   5.710   4.263
10445SOL     OW32233   1.111   3.616   2.734
10445SOL    HW132234   1.090   3.532   2.783
10445SOL    HW232235   1.051   3.624   2.655
10446SOL     OW32236   1.649   4.105   5.398
10446SOL    HW132237   1.664   4.162   5.479
10446SOL    HW232238   1.706   4.136   5.323
10447SOL     OW32239   0.410   1.979   3.086
10447SOL    HW132240   0.389   1.933   3.000
10447SOL    HW232241   0.326   1.995   3.137
10448SOL     OW32242   2.702   6.530   2.788
10448SOL    HW132243   2.660   6.616   2.815
10448SOL    HW232244   2.661   6.455   2.839
10449SOL     OW32245   3.972   5.131   4.907
10449SOL    HW132246   3.900   5.062   4.900
10449SOL    HW232247   3.965   5.194   4.830
10450SOL     OW32248   6.879   0.928   6.210
10450SOL    HW132249   6.891   1.024   6.234
10450SOL    HW232250   6.824   0.883   6.281
10451SOL     OW32251   3.139   0.714   3.292
10451SOL    HW132252   3.082   0.641   3.329
10451SOL    HW232253   3.235   0.688   3.299
10452SOL     OW32254   6.952   3.545   4.227
10452SOL    HW132255   0.031   3.541   4.212
10452SOL    HW232256   6.919   3.638   4.209
10453SOL     OW32257   3.716   5.787   3.607
10453SOL    HW132258   3.750   5.879   3.588
10453SOL    HW232259   3.788   5.734   3.653
10454SOL     OW32260   6.446   0.944   6.308
10454SOL    HW132261   6.495   1.026   6.280
10454SOL    HW232262   6.382   0.917   6.236
10455SOL     OW32263   6.399   5.997   3.647
10455SOL    HW132264   6.347   6.027   3.567
10455SOL    HW232265   6.477   5.942   3.617
10456SOL     OW32266   1.081   5.255   6.825
10456SOL    HW132267   1.003   5.292   6.774
10456SOL    HW232268   1.059   5.164   6.859
10457SOL     OW32269   3.293   2.396   6.657
10457SOL    HW132270   3.392   2.393   6.669
10457SOL    HW232271   3.266   2.328   6.589
10458SOL     OW32272   0.338   5.700   6.529
10458SOL    HW132273   0.275   5.622   6.532
10458SOL    HW232274   0.401   5.694   6.606
10459SOL     OW32275   6.964   5.174   0.382
10459SOL    HW132276   7.009   5.085   0.373
10459SOL    HW232277   0.001   5.235   0.439
10460SOL     OW32278   0.419   2.044   0.651
10460SOL    HW132279   0.366   2.128   0.645
10460SOL    HW232280   0.512   2.060   0.617
10461SOL     OW32281   6.556   5.136   5.893
10461SOL    HW132282   6.588   5.056   5.843
10461SOL    HW232283   6.549   5.214   5.831
10462SOL     OW32284   4.495   2.321   0.802
10462SOL    HW132285   4.395   2.327   0.807
10462SOL    HW232286   4.533   2.330   0.894
10463SOL     OW32287   4.654   2.829   6.180
10463SOL    HW132288   4.555   2.843   6.171
10463SOL    HW232289   4.679   2.744   6.134
10464SOL     OW32290   6.443   4.894   2.098
10464SOL    HW132291   6.418   4.802   2.125
10464SOL    HW232292   6.406   4.914   2.007
10465SOL     OW32293   5.189   4.509   1.338
10465SOL    HW132294   5.144   4.447   1.401
10465SOL    HW232295   5.201   4.464   1.249
10466SOL     OW32296   6.038   4.938   6.924
10466SOL    HW132297   6.057   5.036   6.913
10466SOL    HW232298   6.090   4.887   6.856
10467SOL     OW32299   1.002   2.803   0.034
10467SOL    HW132300   1.014   2.811   0.133
10467SOL    HW232301   0.967   2.889   7.017
10468SOL     OW32302   2.680   4.819   3.638
10468SOL    HW132303   2.590   4.824   3.680
10468SOL    HW232304   2.688   4.889   3.567
10469SOL     OW32305   6.810   1.344   4.508
10469SOL    HW132306   6.735   1.352   4.443
10469SOL    HW232307   6.885   1.403   4.481
10470SOL     OW32308   2.320   2.516   3.482
10470SOL    HW132309   2.367   2.432   3.455
10470SOL    HW232310   2.344   2.539   3.576
10471SOL     OW32311   3.215   6.623   6.835
10471SOL    HW132312   3.119   6.601   6.851
10471SOL    HW232313   3.268   6.605   6.918
10472SOL     OW32314   3.467   4.913   6.344
10472SOL    HW132315   3.522   4.991   6.372
10472SOL    HW232316   3.444   4.857   6.424
10473SOL     OW32317   4.963   5.325   0.364
10473SOL    HW132318   5.020   5.392   0.316
10473SOL    HW232319   4.868   5.337   0.335
10474SOL     OW32320   5.078   0.929   4.310
10474SOL    HW132321   5.149   0.860   4.296
10474SOL    HW232322   5.018   0.899   4.384
10475SOL     OW32323   1.433   6.555   1.124
10475SOL    HW132324   1.377   6.572   1.205
10475SOL    HW232325   1.529   6.550   1.150
10476SOL     OW32326   3.735   5.367   6.710
10476SOL    HW132327   3.728   5.368   6.810
10476SOL    HW232328   3.805   5.432   6.681
10477SOL     OW32329   6.841   5.172   3.943
10477SOL    HW132330   6.760   5.227   3.958
10477SOL    HW232331   6.879   5.191   3.852
10478SOL     OW32332   5.679   0.738   0.127
10478SOL    HW132333   5.690   0.654   0.074
10478SOL    HW232334   5.766   0.760   0.172
10479SOL     OW32335   1.027   2.320   1.875
10479SOL    HW132336   1.065   2.231   1.850
10479SOL    HW232337   1.030   2.331   1.974
10480SOL     OW32338   2.295   0.290   2.481
10480SOL    HW132339   2.234   0.334   2.415
10480SOL    HW232340   2.367   0.354   2.509
10481SOL     OW32341   6.937   1.487   2.232
10481SOL    HW132342   7.006   1.550   2.270
10481SOL    HW232343   6.950   1.397   2.273
10482SOL     OW32344   5.198   3.849   4.412
10482SOL    HW132345   5.100   3.832   4.403
10482SOL    HW232346   5.213   3.936   4.459
10483SOL     OW32347   6.194   6.072   0.226
10483SOL    HW132348   6.185   6.019   0.311
10483SOL    HW232349   6.198   6.169   0.248
10484SOL     OW32350   6.117   0.915   2.020
10484SOL    HW132351   6.028   0.956   2.035
10484SOL    HW232352   6.116   0.820   2.054
10485SOL     OW32353   5.823   3.695   5.245
10485SOL    HW132354   5.876   3.614   5.268
10485SOL    HW232355   5.782   3.684   5.154
10486SOL     OW32356   5.421   3.014   1.681
10486SOL    HW132357   5.360   3.009   1.761
10486SOL    HW232358   5.412   3.104   1.639
10487SOL     OW32359   5.722   6.570   1.892
10487SOL    HW132360   5.664   6.508   1.945
10487SOL    HW232361   5.802   6.596   1.947
10488SOL     OW32362   2.455   2.571   6.375
10488SOL    HW132363   2.449   2.494   6.439
10488SOL    HW232364   2.539   2.622   6.392
10489SOL     OW32365   1.027   6.010   6.263
10489SOL    HW132366   1.044   5.920   6.302
10489SOL    HW232367   1.049   6.080   6.331
10490SOL     OW32368   6.730   1.129   3.569
10490SOL    HW132369   6.764   1.144   3.476
10490SOL    HW232370   6.673   1.206   3.597
10491SOL     OW32371   1.467   4.372   6.038
10491SOL    HW132372   1.429   4.280   6.050
10491SOL    HW232373   1.394   4.440   6.046
10492SOL     OW32374   5.230   3.459   5.220
10492SOL    HW132375   5.165   3.383   5.231
10492SOL    HW232376   5.180   3.544   5.208
10493SOL     OW32377   2.968   1.360   1.684
10493SOL    HW132378   3.015   1.301   1.618
10493SOL    HW232379   3.002   1.339   1.776
10494SOL     OW32380   6.141   2.081   4.337
10494SOL    HW132381   6.223   2.027   4.359
10494SOL    HW232382   6.059   2.025   4.351
10495SOL     OW32383   1.443   6.326   0.520
10495SOL    HW132384   1.540   6.318   0.543
10495SOL    HW232385   1.433   6.328   0.420
10496SOL     OW32386   0.173   7.009   5.693
10496SOL    HW132387   0.197   6.947   5.768
10496SOL    HW232388   0.079   6.990   5.664
10497SOL     OW32389   1.144   1.336   0.700
10497SOL    HW132390   1.235   1.333   0.660
10497SOL    HW232391   1.117   1.244   0.728
10498SOL     OW32392   2.335   6.171   5.930
10498SOL    HW132393   2.387   6.250   5.962
10498SOL    HW232394   2.399   6.098   5.903
10499SOL     OW32395   3.312   5.814   3.087
10499SOL    HW132396   3.284   5.902   3.049
10499SOL    HW232397   3.239   5.748   3.074
10500SOL     OW32398   1.436   1.775   5.955
10500SOL    HW132399   1.388   1.747   5.872
10500SOL    HW232400   1.375   1.828   6.013
10501SOL     OW32401   1.510   3.547   2.776
10501SOL    HW132402   1.460   3.632   2.761
10501SOL    HW232403   1.593   3.566   2.828
10502SOL     OW32404   3.179   6.213   6.401
10502SOL    HW132405   3.242   6.266   6.343
10502SOL    HW232406   3.220   6.123   6.421
10503SOL     OW32407   3.086   2.618   7.008
10503SOL    HW132408   3.111   2.552   0.058
10503SOL    HW232409   3.076   2.572   6.920
10504SOL     OW32410   2.927   3.635   1.102
10504SOL    HW132411   2.911   3.679   1.190
10504SOL    HW232412   2.999   3.567   1.112
10505SOL     OW32413   6.792   5.990   1.567
10505SOL    HW132414   6.720   5.957   1.506
10505SOL    HW232415   6.785   6.089   1.577
10506SOL     OW32416   0.430   4.030   5.825
10506SOL    HW132417   0.490   4.058   5.750
10506SOL    HW232418   0.469   4.062   5.912
10507SOL     OW32419   0.944   0.277   6.153
10507SOL    HW132420   0.972   0.237   6.240
10507SOL    HW232421   1.002   0.241   6.079
10508SOL     OW32422   5.618   4.269   3.055
10508SOL    HW132423   5.619   4.249   3.153
10508SOL    HW232424   5.656   4.360   3.040
10509SOL     OW32425   1.571   6.937   6.863
10509SOL    HW132426   1.568   6.870   6.937
10509SOL    HW232427   1.617   6.897   6.784
10510SOL     OW32428   6.183   5.677   0.206
10510SOL    HW132429   6.158   5.584   0.231
10510SOL    HW232430   6.226   5.678   0.116
10511SOL     OW32431   4.471   3.068   0.401
10511SOL    HW132432   4.380   3.097   0.375
10511SOL    HW232433   4.485   2.973   0.373
10512SOL     OW32434   4.253   6.952   5.548
10512SOL    HW132435   4.342   6.923   5.510
10512SOL    HW232436   4.225   6.886   5.618
10513SOL     OW32437   0.526   2.587   6.647
10513SOL    HW132438   0.584   2.666   6.666
10513SOL    HW232439   0.434   2.604   6.683
10514SOL     OW32440   0.369   4.627   0.614
10514SOL    HW132441   0.329   4.670   0.533
10514SOL    HW232442   0.299   4.617   0.685
10515SOL     OW32443   6.749   2.156   3.141
10515SOL    HW132444   6.816   2.229   3.157
10515SOL    HW232445   6.688   2.182   3.067
10516SOL     OW32446   4.090   0.718   5.942
10516SOL    HW132447   4.129   0.749   5.855
10516SOL    HW232448   4.162   0.677   5.998
10517SOL     OW32449   6.752   1.872   2.593
10517SOL    HW132450   6.780   1.820   2.673
10517SOL    HW232451   6.755   1.813   2.512
10518SOL     OW32452   1.008   6.453   1.208
10518SOL    HW132453   1.067   6.522   1.166
10518SOL    HW232454   0.914   6.465   1.177
10519SOL     OW32455   3.295   3.619   5.515
10519SOL    HW132456   3.212   3.604   5.462
10519SOL    HW232457   3.281   3.587   5.609
10520SOL     OW32458   3.662   2.553   0.268
10520SOL    HW132459   3.753   2.523   0.295
10520SOL    HW232460   3.659   2.565   0.169
10521SOL     OW32461   6.340   5.498   1.075
10521SOL    HW132462   6.266   5.470   1.137
10521SOL    HW232463   6.427   5.492   1.124
10522SOL     OW32464   6.809   0.420   1.027
10522SOL    HW132465   6.740   0.425   1.099
10522SOL    HW232466   6.768   0.442   0.939
10523SOL     OW32467   0.274   5.626   6.246
10523SOL    HW132468   0.253   5.583   6.334
10523SOL    HW232469   0.349   5.577   6.201
10524SOL     OW32470   2.855   0.360   4.036
10524SOL    HW132471   2.893   0.291   3.974
10524SOL    HW232472   2.897   0.351   4.126
10525SOL     OW32473   2.092   5.969   5.106
10525SOL    HW132474   2.011   5.962   5.165
10525SOL    HW232475   2.108   6.065   5.084
10526SOL     OW32476   0.048   0.742   2.327
10526SOL    HW132477   0.024   0.654   2.367
10526SOL    HW232478   6.992   0.806   2.337
10527SOL     OW32479   0.822   2.786   4.414
10527SOL    HW132480   0.752   2.721   4.445
10527SOL    HW232481   0.873   2.820   4.492
10528SOL     OW32482   7.011   4.843   5.218
10528SOL    HW132483   6.933   4.795   5.260
10528SOL    HW232484   0.035   4.783   5.151
10529SOL     OW32485   6.731   0.207   3.729
10529SOL    HW132486   6.681   0.216   3.642
10529SOL    HW232487   6.667   0.222   3.805
10530SOL     OW32488   2.620   1.957   6.054
10530SOL    HW132489   2.694   1.929   5.993
10530SOL    HW232490   2.538   1.973   6.001
10531SOL     OW32491   1.714   3.038   4.711
10531SOL    HW132492   1.761   3.050   4.623
10531SOL    HW232493   1.750   2.958   4.758
10532SOL     OW32494   4.065   2.460   5.644
10532SOL    HW132495   4.118   2.539   5.673
10532SOL    HW232496   4.124   2.396   5.594
10533SOL     OW32497   2.673   1.370   5.699
10533SOL    HW132498   2.608   1.398   5.628
10533SOL    HW232499   2.626   1.314   5.767
10534SOL     OW32500   0.108   5.335   0.546
10534SOL    HW132501   0.184   5.400   0.541
10534SOL    HW232502   0.029   5.379   0.587
10535SOL     OW32503   0.520   1.204   2.374
10535SOL    HW132504   0.455   1.127   2.373
10535SOL    HW232505   0.524   1.246   2.284
10536SOL     OW32506   4.513   0.448   2.470
10536SOL    HW132507   4.503   0.364   2.522
10536SOL    HW232508   4.481   0.525   2.525
10537SOL     OW32509   1.886   5.116   1.997
10537SOL    HW132510   1.795   5.125   1.955
10537SOL    HW232511   1.927   5.030   1.969
10538SOL     OW32512   4.366   4.271   6.856
10538SOL    HW132513   4.350   4.172   6.860
10538SOL    HW232514   4.391   4.305   6.947
10539SOL     OW32515   0.642   3.593   6.712
10539SOL    HW132516   0.572   3.533   6.673
10539SOL    HW232517   0.733   3.555   6.694
10540SOL     OW32518   1.797   0.214   6.569
10540SOL    HW132519   1.799   0.259   6.658
10540SOL    HW232520   1.704   0.183   6.549
10541SOL     OW32521   3.664   3.491   6.970
10541SOL    HW132522   3.697   3.575   7.014
10541SOL    HW232523   3.717   3.413   7.003
10542SOL     OW32524   0.041   2.269   0.225
10542SOL    HW132525   0.073   2.360   0.199
10542SOL    HW232526   6.979   2.246   0.174
10543SOL     OW32527   0.874   1.091   5.739
10543SOL    HW132528   0.775   1.100   5.737
10543SOL    HW232529   0.913   1.137   5.659
10544SOL     OW32530   2.058   1.966   2.048
10544SOL    HW132531   2.087   1.952   1.953
10544SOL    HW232532   1.991   1.895   2.073
10545SOL     OW32533   6.539   0.809   2.531
10545SOL    HW132534   6.472   0.845   2.466
10545SOL    HW232535   6.524   0.851   2.620
10546SOL     OW32536   2.458   0.384   4.601
10546SOL    HW132537   2.432   0.385   4.504
10546SOL    HW232538   2.386   0.428   4.655
10547SOL     OW32539   4.422   1.700   1.243
10547SOL    HW132540   4.461   1.731   1.156
10547SOL    HW232541   4.322   1.703   1.238
10548SOL     OW32542   5.155   4.104   4.813
10548SOL    HW132543   5.091   4.077   4.741
10548SOL    HW232544   5.248   4.100   4.777
10549SOL     OW32545   0.758   1.089   1.879
10549SOL    HW132546   0.839   1.061   1.931
10549SOL    HW232547   0.754   1.188   1.874
10550SOL     OW32548   5.492   0.037   4.373
10550SOL    HW132549   5.417   0.085   4.328
10550SOL    HW232550   5.571   0.032   4.312
10551SOL     OW32551   0.989   2.081   6.220
10551SOL    HW132552   1.067   2.047   6.273
10551SOL    HW232553   0.979   2.179   6.234
10552SOL     OW32554   3.274   2.221   5.379
10552SOL    HW132555   3.361   2.193   5.338
10552SOL    HW232556   3.215   2.260   5.308
10553SOL     OW32557   1.436   5.667   0.148
10553SOL    HW132558   1.504   5.593   0.154
10553SOL    HW232559   1.393   5.680   0.237
10554SOL     OW32560   6.501   4.869   6.822
10554SOL    HW132561   6.414   4.822   6.806
10554SOL    HW232562   6.493   4.964   6.793
10555SOL     OW32563   3.873   1.311   1.604
10555SOL    HW132564   3.846   1.347   1.693
10555SOL    HW232565   3.953   1.360   1.571
10556SOL     OW32566   1.771   3.507   4.978
10556SOL    HW132567   1.748   3.581   4.914
10556SOL    HW232568   1.870   3.494   4.979
10557SOL     OW32569   6.949   2.787   3.147
10557SOL    HW132570   6.982   2.696   3.173
10557SOL    HW232571   6.868   2.778   3.090
10558SOL     OW32572   4.739   6.073   5.407
10558SOL    HW132573   4.704   6.164   5.382
10558SOL    HW232574   4.666   6.020   5.450
10559SOL     OW32575   4.566   2.021   0.670
10559SOL    HW132576   4.477   2.046   0.630
10559SOL    HW232577   4.623   2.102   0.678
10560SOL     OW32578   1.019   3.491   4.512
10560SOL    HW132579   0.974   3.401   4.509
10560SOL    HW232580   1.023   3.528   4.419
10561SOL     OW32581   2.041   4.479   0.077
10561SOL    HW132582   2.007   4.394   0.038
10561SOL    HW232583   2.027   4.554   0.013
10562SOL     OW32584   4.172   1.298   0.590
10562SOL    HW132585   4.246   1.362   0.571
10562SOL    HW232586   4.104   1.342   0.649
10563SOL     OW32587   1.640   2.205   5.733
10563SOL    HW132588   1.738   2.204   5.753
10563SOL    HW232589   1.616   2.294   5.692
10564SOL     OW32590   5.836   1.641   2.079
10564SOL    HW132591   5.812   1.625   1.984
10564SOL    HW232592   5.780   1.582   2.138
10565SOL     OW32593   6.218   1.542   5.052
10565SOL    HW132594   6.185   1.597   4.975
10565SOL    HW232595   6.158   1.555   5.131
10566SOL     OW32596   3.668   3.892   5.860
10566SOL    HW132597   3.705   3.803   5.832
10566SOL    HW232598   3.577   3.878   5.900
10567SOL     OW32599   1.676   3.535   4.156
10567SOL    HW132600   1.765   3.493   4.141
10567SOL    HW232601   1.603   3.470   4.136
10568SOL     OW32602   5.075   1.190   2.829
10568SOL    HW132603   5.088   1.096   2.860
10568SOL    HW232604   5.162   1.238   2.828
10569SOL     OW32605   5.796   2.659   4.464
10569SOL    HW132606   5.720   2.594   4.464
10569SOL    HW232607   5.761   2.752   4.473
10570SOL     OW32608   2.118   4.770   2.555
10570SOL    HW132609   2.110   4.771   2.455
10570SOL    HW232610   2.139   4.862   2.588
10571SOL     OW32611   6.321   6.145   2.970
10571SOL    HW132612   6.419   6.129   2.985
10571SOL    HW232613   6.295   6.235   3.005
10572SOL     OW32614   5.426   3.329   2.103
10572SOL    HW132615   5.402   3.315   2.007
10572SOL    HW232616   5.453   3.425   2.117
10573SOL     OW32617   5.984   5.348   4.904
10573SOL    HW132618   6.010   5.404   4.826
10573SOL    HW232619   6.058   5.348   4.972
10574SOL     OW32620   0.249   1.469   3.574
10574SOL    HW132621   0.182   1.506   3.509
10574SOL    HW232622   0.281   1.543   3.634
10575SOL     OW32623   0.937   0.321   5.236
10575SOL    HW132624   0.956   0.225   5.213
10575SOL    HW232625   1.004   0.380   5.192
10576SOL     OW32626   1.833   5.822   4.428
10576SOL    HW132627   1.926   5.816   4.393
10576SOL    HW232628   1.771   5.774   4.367
10577SOL     OW32629   1.848   3.014   6.129
10577SOL    HW132630   1.855   2.920   6.097
10577SOL    HW232631   1.919   3.070   6.086
10578SOL     OW32632   6.014   0.118   5.387
10578SOL    HW132633   5.916   0.097   5.388
10578SOL    HW232634   6.055   0.091   5.474
10579SOL     OW32635   4.514   1.940   0.350
10579SOL    HW132636   4.584   1.927   0.420
10579SOL    HW232637   4.476   2.032   0.357
10580SOL     OW32638   6.783   6.123   0.002
10580SOL    HW132639   6.761   6.124   6.925
10580SOL    HW232640   6.720   6.062   0.050
10581SOL     OW32641   5.791   0.469   3.438
10581SOL    HW132642   5.759   0.395   3.378
10581SOL    HW232643   5.797   0.435   3.532
10582SOL     OW32644   3.847   5.103   6.611
10582SOL    HW132645   3.871   5.063   6.699
10582SOL    HW232646   3.792   5.185   6.625
10583SOL     OW32647   4.055   1.297   6.910
10583SOL    HW132648   4.098   1.337   6.991
10583SOL    HW232649   4.061   1.197   6.915
10584SOL     OW32650   5.709   0.051   1.205
10584SOL    HW132651   5.688   6.989   1.259
10584SOL    HW232652   5.701   0.132   1.263
10585SOL     OW32653   0.560   3.039   6.380
10585SOL    HW132654   0.587   3.083   6.465
10585SOL    HW232655   0.480   2.981   6.397
10586SOL     OW32656   2.741   5.954   5.567
10586SOL    HW132657   2.771   5.913   5.481
10586SOL    HW232658   2.759   5.891   5.642
10587SOL     OW32659   5.892   3.385   0.890
10587SOL    HW132660   5.888   3.303   0.947
10587SOL    HW232661   5.975   3.383   0.834
10588SOL     OW32662   0.953   4.767   3.211
10588SOL    HW132663   1.034   4.714   3.185
10588SOL    HW232664   0.963   4.797   3.306
10589SOL     OW32665   5.589   2.057   3.819
10589SOL    HW132666   5.648   2.131   3.784
10589SOL    HW232667   5.617   1.970   3.778
10590SOL     OW32668   1.267   0.377   3.470
10590SOL    HW132669   1.313   0.365   3.381
10590SOL    HW232670   1.316   0.324   3.539
10591SOL     OW32671   1.042   1.866   6.608
10591SOL    HW132672   1.007   1.773   6.597
10591SOL    HW232673   1.050   1.888   6.705
10592SOL     OW32674   6.213   1.335   0.434
10592SOL    HW132675   6.274   1.352   0.357
10592SOL    HW232676   6.171   1.421   0.463
10593SOL     OW32677   1.615   5.760   1.799
10593SOL    HW132678   1.689   5.721   1.854
10593SOL    HW232679   1.653   5.817   1.727
10594SOL     OW32680   6.489   1.803   3.884
10594SOL    HW132681   6.425   1.785   3.810
10594SOL    HW232682   6.522   1.897   3.878
10595SOL     OW32683   3.900   6.696   6.378
10595SOL    HW132684   3.810   6.733   6.356
10595SOL    HW232685   3.964   6.772   6.395
10596SOL     OW32686   3.977   6.832   2.266
10596SOL    HW132687   4.047   6.903   2.261
10596SOL    HW232688   3.916   6.840   2.187
10597SOL     OW32689   1.766   0.938   4.848
10597SOL    HW132690   1.698   0.996   4.894
10597SOL    HW232691   1.791   0.979   4.761
10598SOL     OW32692   1.681   2.624   6.642
10598SOL    HW132693   1.706   2.528   6.628
10598SOL    HW232694   1.621   2.654   6.567
10599SOL     OW32695   5.768   1.385   6.860
10599SOL    HW132696   5.686   1.328   6.868
10599SOL    HW232697   5.844   1.329   6.827
10600SOL     OW32698   2.301   2.969   5.764
10600SOL    HW132699   2.288   2.967   5.665
10600SOL    HW232700   2.298   2.876   5.800
10601SOL     OW32701   3.071   6.553   6.365
10601SOL    HW132702   3.119   6.640   6.347
10601SOL    HW232703   3.016   6.529   6.285
10602SOL     OW32704   4.505   1.861   1.496
10602SOL    HW132705   4.491   1.788   1.429
10602SOL    HW232706   4.417   1.889   1.534
10603SOL     OW32707   1.980   5.262   4.191
10603SOL    HW132708   2.045   5.187   4.199
10603SOL    HW232709   1.936   5.258   4.101
10604SOL     OW32710   6.473   4.147   4.041
10604SOL    HW132711   6.462   4.096   4.126
10604SOL    HW232712   6.561   4.124   3.999
10605SOL     OW32713   1.304   5.444   6.431
10605SOL    HW132714   1.394   5.486   6.446
10605SOL    HW232715   1.290   5.430   6.334
10606SOL     OW32716   0.498   0.358   1.858
10606SOL    HW132717   0.418   0.417   1.870
10606SOL    HW232718   0.501   0.291   1.932
10607SOL     OW32719   5.115   4.495   0.014
10607SOL    HW132720   5.068   4.462   6.952
10607SOL    HW232721   5.202   4.537   7.008
10608SOL     OW32722   5.962   1.463   3.955
10608SOL    HW132723   6.011   1.461   3.868
10608SOL    HW232724   6.026   1.454   4.030
10609SOL     OW32725   4.068   6.552   1.142
10609SOL    HW132726   4.005   6.616   1.186
10609SOL    HW232727   4.018   6.496   1.076
10610SOL     OW32728   1.194   3.018   5.553
10610SOL    HW132729   1.245   3.031   5.468
10610SOL    HW232730   1.175   2.921   5.567
10611SOL     OW32731   5.484   2.685   6.139
10611SOL    HW132732   5.419   2.741   6.189
10611SOL    HW232733   5.559   2.658   6.199
10612SOL     OW32734   2.143   0.635   6.815
10612SOL    HW132735   2.095   0.564   6.765
10612SOL    HW232736   2.077   0.703   6.848
10613SOL     OW32737   0.598   6.319   5.568
10613SOL    HW132738   0.528   6.386   5.592
10613SOL    HW232739   0.568   6.227   5.594
10614SOL     OW32740   6.512   0.962   4.090
10614SOL    HW132741   6.467   1.014   4.163
10614SOL    HW232742   6.504   1.012   4.004
10615SOL     OW32743   5.290   5.380   5.170
10615SOL    HW132744   5.367   5.319   5.184
10615SOL    HW232745   5.217   5.356   5.235
10616SOL     OW32746   3.342   5.854   6.794
10616SOL    HW132747   3.303   5.809   6.714
10616SOL    HW232748   3.437   5.877   6.778
10617SOL     OW32749   2.167   2.566   0.396
10617SOL    HW132750   2.101   2.615   0.453
10617SOL    HW232751   2.230   2.515   0.454
10618SOL     OW32752   5.925   3.214   0.282
10618SOL    HW132753   5.893   3.181   0.193
10618SOL    HW232754   5.985   3.293   0.269
10619SOL     OW32755   1.214   4.267   4.363
10619SOL    HW132756   1.224   4.266   4.463
10619SOL    HW232757   1.299   4.298   4.321
10620SOL     OW32758   1.494   5.944   4.920
10620SOL    HW132759   1.403   5.985   4.932
10620SOL    HW232760   1.563   6.017   4.915
10621SOL     OW32761   1.788   6.258   0.129
10621SOL    HW132762   1.752   6.241   0.037
10621SOL    HW232763   1.829   6.349   0.133
10622SOL     OW32764   3.821   0.490   1.399
10622SOL    HW132765   3.792   0.500   1.494
10622SOL    HW232766   3.741   0.480   1.340
10623SOL     OW32767   5.905   2.455   3.837
10623SOL    HW132768   5.999   2.466   3.803
10623SOL    HW232769   5.845   2.519   3.789
10624SOL     OW32770   1.550   0.593   4.584
10624SOL    HW132771   1.579   0.631   4.496
10624SOL    HW232772   1.568   0.659   4.657
10625SOL     OW32773   0.772   3.277   0.356
10625SOL    HW132774   0.717   3.227   0.290
10625SOL    HW232775   0.729   3.272   0.446
10626SOL     OW32776   0.600   2.044   1.960
10626SOL    HW132777   0.514   1.992   1.965
10626SOL    HW232778   0.578   2.141   1.950
10627SOL     OW32779   6.428   6.567   3.700
10627SOL    HW132780   6.504   6.568   3.635
10627SOL    HW232781   6.434   6.485   3.757
10628SOL     OW32782   6.441   5.798   6.126
10628SOL    HW132783   6.364   5.858   6.105
10628SOL    HW232784   6.460   5.739   6.047
10629SOL     OW32785   2.510   5.427   5.916
10629SOL    HW132786   2.520   5.336   5.878
10629SOL    HW232787   2.530   5.495   5.845
10630SOL     OW32788   6.087   1.723   3.227
10630SOL    HW132789   6.007   1.733   3.167
10630SOL    HW232790   6.159   1.673   3.179
10631SOL     OW32791   0.881   6.863   4.006
10631SOL    HW132792   0.897   6.948   3.956
10631SOL    HW232793   0.917   6.872   4.099
10632SOL     OW32794   6.862   1.886   4.953
10632SOL    HW132795   6.939   1.947   4.935
10632SOL    HW232796   6.870   1.849   5.046
10633SOL     OW32797   2.138   5.307   1.585
10633SOL    HW132798   2.168   5.238   1.519
10633SOL    HW232799   2.135   5.268   1.676
10634SOL     OW32800   3.939   6.363   1.001
10634SOL    HW132801   3.923   6.322   0.911
10634SOL    HW232802   3.852   6.372   1.049
10635SOL     OW32803   2.313   0.946   1.122
10635SOL    HW132804   2.267   1.029   1.089
10635SOL    HW232805   2.333   0.957   1.219
10636SOL     OW32806   1.012   1.969   1.158
10636SOL    HW132807   1.089   2.010   1.108
10636SOL    HW232808   0.945   2.039   1.179
10637SOL     OW32809   3.447   3.993   4.341
10637SOL    HW132810   3.372   4.023   4.281
10637SOL    HW232811   3.521   4.061   4.337
10638SOL     OW32812   0.132   6.743   5.008
10638SOL    HW132813   0.116   6.837   4.977
10638SOL    HW232814   0.149   6.744   5.107
10639SOL     OW32815   2.022   1.033   5.167
10639SOL    HW132816   1.973   1.119   5.167
10639SOL    HW232817   1.967   0.962   5.210
10640SOL     OW32818   4.649   1.249   0.291
10640SOL    HW132819   4.571   1.207   0.337
10640SOL    HW232820   4.733   1.200   0.315
10641SOL     OW32821   5.841   1.541   0.029
10641SOL    HW132822   5.822   1.498   0.117
10641SOL    HW232823   5.805   1.483   6.976
10642SOL     OW32824   0.387   2.695   1.562
10642SOL    HW132825   0.383   2.735   1.653
10642SOL    HW232826   0.378   2.596   1.568
10643SOL     OW32827   2.458   3.571   5.424
10643SOL    HW132828   2.403   3.513   5.364
10643SOL    HW232829   2.433   3.667   5.409
10644SOL     OW32830   4.704   1.472   3.545
10644SOL    HW132831   4.720   1.476   3.644
10644SOL    HW232832   4.630   1.534   3.521
10645SOL     OW32833   2.441   0.106   4.992
10645SOL    HW132834   2.373   0.176   4.969
10645SOL    HW232835   2.474   0.062   4.908
10646SOL     OW32836   1.174   3.309   6.370
10646SOL    HW132837   1.268   3.277   6.383
10646SOL    HW232838   1.160   3.393   6.422
10647SOL     OW32839   6.819   5.105   0.838
10647SOL    HW132840   6.775   5.141   0.756
10647SOL    HW232841   6.919   5.112   0.828
10648SOL     OW32842   4.612   2.596   0.020
10648SOL    HW132843   4.586   2.692   0.019
10648SOL    HW232844   4.574   2.550   6.960
10649SOL     OW32845   6.875   4.773   5.901
10649SOL    HW132846   6.849   4.690   5.949
10649SOL    HW232847   6.948   4.753   5.836
10650SOL     OW32848   2.893   6.193   3.595
10650SOL    HW132849   2.911   6.125   3.666
10650SOL    HW232850   2.844   6.150   3.519
10651SOL     OW32851   4.560   6.308   6.338
10651SOL    HW132852   4.629   6.321   6.409
10651SOL    HW232853   4.500   6.233   6.364
10652SOL     OW32854   3.323   0.447   6.279
10652SOL    HW132855   3.350   0.353   6.260
10652SOL    HW232856   3.229   0.449   6.313
10653SOL     OW32857   5.177   3.699   3.965
10653SOL    HW132858   5.189   3.619   4.024
10653SOL    HW232859   5.090   3.743   3.985
10654SOL     OW32860   4.013   1.101   0.501
10654SOL    HW132861   4.078   1.026   0.491
10654SOL    HW232862   4.061   1.183   0.531
10655SOL     OW32863   2.784   6.194   1.285
10655SOL    HW132864   2.856   6.148   1.235
10655SOL    HW232865   2.759   6.279   1.238
10656SOL     OW32866   6.525   2.510   6.725
10656SOL    HW132867   6.426   2.495   6.736
10656SOL    HW232868   6.556   2.580   6.789
10657SOL     OW32869   6.335   1.124   1.119
10657SOL    HW132870   6.321   1.110   1.021
10657SOL    HW232871   6.293   1.211   1.146
10658SOL     OW32872   0.186   5.466   4.744
10658SOL    HW132873   0.237   5.431   4.823
10658SOL    HW232874   0.159   5.561   4.761
10659SOL     OW32875   6.153   0.483   0.136
10659SOL    HW132876   6.128   0.462   0.041
10659SOL    HW232877   6.190   0.400   0.180
10660SOL     OW32878   4.589   5.200   5.695
10660SOL    HW132879   4.658   5.201   5.622
10660SOL    HW232880   4.573   5.293   5.726
10661SOL     OW32881   0.279   6.674   2.525
10661SOL    HW132882   0.331   6.657   2.441
10661SOL    HW232883   0.249   6.587   2.564
10662SOL     OW32884   5.886   1.629   0.724
10662SOL    HW132885   5.968   1.642   0.780
10662SOL    HW232886   5.814   1.587   0.780
10663SOL     OW32887   6.798   0.264   0.273
10663SOL    HW132888   6.772   0.309   0.187
10663SOL    HW232889   6.881   0.306   0.308
10664SOL     OW32890   2.174   5.631   0.009
10664SOL    HW132891   2.237   5.699   6.991
10664SOL    HW232892   2.143   5.661   0.099
10665SOL     OW32893   6.240   1.836   1.046
10665SOL    HW132894   6.286   1.767   0.991
10665SOL    HW232895   6.287   1.846   1.133
10666SOL     OW32896   1.915   6.913   0.084
10666SOL    HW132897   1.914   6.990   0.020
10666SOL    HW232898   2.008   6.902   0.120
10667SOL     OW32899   3.145   1.978   5.327
10667SOL    HW132900   3.166   2.075   5.340
10667SOL    HW232901   3.132   1.935   5.416
10668SOL     OW32902   1.402   1.240   5.681
10668SOL    HW132903   1.366   1.234   5.588
10668SOL    HW232904   1.341   1.298   5.736
10669SOL     OW32905   1.226   0.021   0.173
10669SOL    HW132906   1.168   6.997   0.242
10669SOL    HW232907   1.254   0.112   0.206
10670SOL     OW32908   6.154   4.569   5.661
10670SOL    HW132909   6.156   4.657   5.613
10670SOL    HW232910   6.154   4.495   5.593
10671SOL     OW32911   2.046   1.119   3.483
10671SOL    HW132912   2.109   1.190   3.514
10671SOL    HW232913   2.098   1.043   3.444
10672SOL     OW32914   0.206   2.897   1.186
10672SOL    HW132915   0.300   2.922   1.206
10672SOL    HW232916   0.193   2.799   1.202
10673SOL     OW32917   2.629   2.965   5.339
10673SOL    HW132918   2.559   2.995   5.274
10673SOL    HW232919   2.650   3.039   5.403
10674SOL     OW32920   3.578   2.896   1.507
10674SOL    HW132921   3.601   2.989   1.479
10674SOL    HW232922   3.662   2.843   1.520
10675SOL     OW32923   0.362   0.572   5.557
10675SOL    HW132924   0.290   0.503   5.550
10675SOL    HW232925   0.386   0.586   5.653
10676SOL     OW32926   6.661   0.232   6.312
10676SOL    HW132927   6.669   0.146   6.263
10676SOL    HW232928   6.571   0.237   6.355
10677SOL     OW32929   0.417   0.490   0.754
10677SOL    HW132930   0.499   0.525   0.709
10677SOL    HW232931   0.339   0.549   0.731
10678SOL     OW32932   2.569   6.259   2.869
10678SOL    HW132933   2.549   6.214   2.782
10678SOL    HW232934   2.622   6.197   2.926
10679SOL     OW32935   5.341   4.747   4.571
10679SOL    HW132936   5.334   4.666   4.630
10679SOL    HW232937   5.328   4.829   4.625
10680SOL     OW32938   1.198   2.289   3.244
10680SOL    HW132939   1.244   2.252   3.164
10680SOL    HW232940   1.236   2.379   3.265
10681SOL     OW32941   0.117   1.724   6.212
10681SOL    HW132942   0.093   1.783   6.289
10681SOL    HW232943   0.214   1.734   6.192
10682SOL     OW32944   6.969   1.951   3.040
10682SOL    HW132945   6.886   1.995   3.073
10682SOL    HW232946   6.985   1.977   2.944
10683SOL     OW32947   1.818   1.206   4.763
10683SOL    HW132948   1.770   1.240   4.682
10683SOL    HW232949   1.787   1.255   4.844
10684SOL     OW32950   6.124   5.225   0.223
10684SOL    HW132951   6.107   5.148   0.284
10684SOL    HW232952   6.085   5.205   0.133
10685SOL     OW32953   0.277   2.988   2.798
10685SOL    HW132954   0.241   3.004   2.890
10685SOL    HW232955   0.228   2.912   2.756
10686SOL     OW32956   3.341   5.104   0.230
10686SOL    HW132957   3.322   5.181   0.169
10686SOL    HW232958   3.438   5.081   0.225
10687SOL     OW32959   0.082   4.376   3.028
10687SOL    HW132960   0.060   4.450   3.091
10687SOL    HW232961   0.171   4.395   2.985
10688SOL     OW32962   6.230   5.215   2.147
10688SOL    HW132963   6.232   5.176   2.055
10688SOL    HW232964   6.226   5.315   2.141
10689SOL     OW32965   0.701   1.040   2.763
10689SOL    HW132966   0.708   1.139   2.751
10689SOL    HW232967   0.789   0.998   2.742
10690SOL     OW32968   4.714   5.036   1.921
10690SOL    HW132969   4.749   5.022   2.014
10690SOL    HW232970   4.636   4.976   1.905
10691SOL     OW32971   6.749   1.332   1.911
10691SOL    HW132972   6.735   1.345   1.813
10691SOL    HW232973   6.793   1.244   1.927
10692SOL     OW32974   3.495   5.873   3.708
10692SOL    HW132975   3.521   5.856   3.803
10692SOL    HW232976   3.573   5.852   3.648
10693SOL     OW32977   6.608   2.032   1.838
10693SOL    HW132978   6.619   1.969   1.916
10693SOL    HW232979   6.653   1.993   1.758
10694SOL     OW32980   3.785   6.304   0.748
10694SOL    HW132981   3.760   6.399   0.728
10694SOL    HW232982   3.703   6.248   0.752
10695SOL     OW32983   6.876   2.844   4.051
10695SOL    HW132984   6.858   2.915   3.984
10695SOL    HW232985   6.797   2.834   4.112
10696SOL     OW32986   6.720   6.264   1.539
10696SOL    HW132987   6.749   6.357   1.562
10696SOL    HW232988   6.644   6.267   1.474
10697SOL     OW32989   2.673   5.522   3.611
10697SOL    HW132990   2.743   5.592   3.623
10697SOL    HW232991   2.608   5.526   3.687
10698SOL     OW32992   3.107   6.800   3.692
10698SOL    HW132993   3.009   6.781   3.700
10698SOL    HW232994   3.128   6.830   3.599
10699SOL     OW32995   2.416   2.250   3.150
10699SOL    HW132996   2.393   2.258   3.247
10699SOL    HW232997   2.476   2.326   3.124
10700SOL     OW32998   6.782   6.847   1.422
10700SOL    HW132999   6.747   6.868   1.331
10700SOL    HW233000   6.706   6.825   1.483
10701SOL     OW33001   3.229   6.197   0.493
10701SOL    HW133002   3.302   6.266   0.483
10701SOL    HW233003   3.143   6.243   0.514
10702SOL     OW33004   6.714   3.313   1.289
10702SOL    HW133005   6.643   3.380   1.311
10702SOL    HW233006   6.752   3.334   1.199
10703SOL     OW33007   4.046   3.766   3.883
10703SOL    HW133008   4.105   3.768   3.964
10703SOL    HW233009   4.069   3.686   3.828
10704SOL     OW33010   5.124   6.787   1.785
10704SOL    HW133011   5.074   6.868   1.817
10704SOL    HW233012   5.222   6.809   1.778
10705SOL     OW33013   0.114   2.392   6.793
10705SOL    HW133014   0.120   2.370   6.696
10705SOL    HW233015   0.192   2.351   6.841
10706SOL     OW33016   3.433   1.101   1.942
10706SOL    HW133017   3.508   1.052   1.987
10706SOL    HW233018   3.386   1.039   1.879
10707SOL     OW33019   6.055   0.075   6.127
10707SOL    HW133020   6.082   0.001   6.189
10707SOL    HW233021   6.012   0.036   6.046
10708SOL     OW33022   4.660   1.006   1.287
10708SOL    HW133023   4.641   1.028   1.383
10708SOL    HW233024   4.640   0.909   1.271
10709SOL     OW33025   0.334   5.693   5.756
10709SOL    HW133026   0.297   5.637   5.830
10709SOL    HW233027   0.340   5.638   5.673
10710SOL     OW33028   6.254   5.446   3.429
10710SOL    HW133029   6.204   5.512   3.373
10710SOL    HW233030   6.227   5.353   3.404
10711SOL     OW33031   1.626   6.176   4.630
10711SOL    HW133032   1.708   6.155   4.576
10711SOL    HW233033   1.546   6.138   4.584
10712SOL     OW33034   3.887   1.541   4.717
10712SOL    HW133035   3.835   1.622   4.692
10712SOL    HW233036   3.823   1.467   4.740
10713SOL     OW33037   0.878   5.799   1.387
10713SOL    HW133038   0.976   5.821   1.380
10713SOL    HW233039   0.861   5.708   1.351
10714SOL     OW33040   6.623   4.352   5.711
10714SOL    HW133041   6.548   4.294   5.741
10714SOL    HW233042   6.587   4.440   5.682
10715SOL     OW33043   5.880   1.588   4.337
10715SOL    HW133044   5.852   1.492   4.345
10715SOL    HW233045   5.919   1.604   4.247
10716SOL     OW33046   6.148   0.438   3.285
10716SOL    HW133047   6.203   0.453   3.367
10716SOL    HW233048   6.111   0.525   3.252
10717SOL     OW33049   6.882   6.511   1.735
10717SOL    HW133050   6.957   6.575   1.717
10717SOL    HW233051   6.819   6.551   1.801
10718SOL     OW33052   6.823   4.558   6.866
10718SOL    HW133053   6.871   4.542   6.952
10718SOL    HW233054   6.887   4.547   6.790
10719SOL     OW33055   4.575   0.941   2.252
10719SOL    HW133056   4.538   0.975   2.165
10719SOL    HW233057   4.520   0.864   2.284
10720SOL     OW33058   0.660   3.775   0.129
10720SOL    HW133059   0.572   3.772   0.081
10720SOL    HW233060   0.687   3.683   0.157
10721SOL     OW33061   4.642   2.659   4.022
10721SOL    HW133062   4.664   2.598   4.099
10721SOL    HW233063   4.573   2.615   3.964
10722SOL     OW33064   0.300   4.007   0.026
10722SOL    HW133065   0.215   4.015   6.993
10722SOL    HW233066   0.279   3.981   0.120
10723SOL     OW33067   6.370   4.107   0.190
10723SOL    HW133068   6.443   4.111   0.122
10723SOL    HW233069   6.283   4.133   0.148
10724SOL     OW33070   3.317   6.469   5.852
10724SOL    HW133071   3.275   6.378   5.858
10724SOL    HW233072   3.268   6.524   5.785
10725SOL     OW33073   6.905   6.548   5.031
10725SOL    HW133074   6.977   6.607   4.995
10725SOL    HW233075   6.833   6.603   5.072
10726SOL     OW33076   5.185   0.563   4.425
10726SOL    HW133077   5.123   0.627   4.380
10726SOL    HW233078   5.196   0.590   4.521
10727SOL     OW33079   2.341   5.883   6.929
10727SOL    HW133080   2.282   5.930   6.864
10727SOL    HW233081   2.429   5.863   6.886
10728SOL     OW33082   5.334   5.769   3.334
10728SOL    HW133083   5.386   5.787   3.417
10728SOL    HW233084   5.362   5.680   3.296
10729SOL     OW33085   6.024   3.281   3.900
10729SOL    HW133086   6.032   3.196   3.952
10729SOL    HW233087   6.106   3.336   3.913
10730SOL     OW33088   1.811   5.821   3.034
10730SOL    HW133089   1.801   5.920   3.024
10730SOL    HW233090   1.901   5.800   3.072
10731SOL     OW33091   5.195   6.486   6.687
10731SOL    HW133092   5.202   6.585   6.696
10731SOL    HW233093   5.146   6.449   6.766
10732SOL     OW33094   6.061   5.931   3.165
10732SOL    HW133095   6.005   5.851   3.187
10732SOL    HW233096   6.100   5.921   3.074
10733SOL     OW33097   0.650   0.888   6.329
10733SOL    HW133098   0.636   0.803   6.380
10733SOL    HW233099   0.571   0.947   6.342
10734SOL     OW33100   1.035   1.303   4.805
10734SOL    HW133101   1.131   1.286   4.828
10734SOL    HW233102   1.020   1.401   4.792
10735SOL     OW33103   0.597   5.822   2.079
10735SOL    HW133104   0.524   5.827   2.148
10735SOL    HW233105   0.568   5.762   2.005
10736SOL     OW33106   5.868   6.251   4.192
10736SOL    HW133107   5.889   6.345   4.165
10736SOL    HW233108   5.885   6.241   4.290
10737SOL     OW33109   6.521   0.839   2.123
10737SOL    HW133110   6.611   0.834   2.080
10737SOL    HW233111   6.478   0.749   2.120
10738SOL     OW33112   3.720   1.408   1.268
10738SOL    HW133113   3.799   1.398   1.329
10738SOL    HW233114   3.637   1.383   1.316
10739SOL     OW33115   5.934   2.909   3.526
10739SOL    HW133116   5.998   2.954   3.587
10739SOL    HW233117   5.842   2.947   3.538
10740SOL     OW33118   2.139   0.345   5.979
10740SOL    HW133119   2.179   0.384   6.062
10740SOL    HW233120   2.201   0.362   5.902
10741SOL     OW33121   2.351   2.232   3.404
10741SOL    HW133122   2.411   2.217   3.483
10741SOL    HW233123   2.261   2.192   3.423
10742SOL     OW33124   6.129   6.041   2.512
10742SOL    HW133125   6.218   6.074   2.481
10742SOL    HW233126   6.084   6.111   2.566
10743SOL     OW33127   2.959   0.851   5.726
10743SOL    HW133128   2.898   0.928   5.744
10743SOL    HW233129   3.010   0.868   5.641
10744SOL     OW33130   2.206   1.062   0.577
10744SOL    HW133131   2.301   1.033   0.572
10744SOL    HW233132   2.199   1.147   0.628
10745SOL     OW33133   1.404   4.608   2.375
10745SOL    HW133134   1.474   4.538   2.362
10745SOL    HW233135   1.422   4.684   2.312
10746SOL     OW33136   2.064   6.378   6.695
10746SOL    HW133137   2.047   6.469   6.732
10746SOL    HW233138   2.042   6.377   6.597
10747SOL     OW33139   6.290   1.404   4.784
10747SOL    HW133140   6.363   1.384   4.718
10747SOL    HW233141   6.331   1.432   4.871
10748SOL     OW33142   3.794   6.202   1.237
10748SOL    HW133143   3.885   6.180   1.270
10748SOL    HW233144   3.788   6.300   1.218
10749SOL     OW33145   5.704   4.748   1.709
10749SOL    HW133146   5.641   4.707   1.774
10749SOL    HW233147   5.658   4.822   1.660
10750SOL     OW33148   4.464   2.162   4.280
10750SOL    HW133149   4.429   2.214   4.357
10750SOL    HW233150   4.391   2.105   4.242
10751SOL     OW33151   0.331   4.907   5.176
10751SOL    HW133152   0.291   4.821   5.144
10751SOL    HW233153   0.302   4.981   5.116
10752SOL     OW33154   6.454   6.180   0.454
10752SOL    HW133155   6.505   6.242   0.394
10752SOL    HW233156   6.366   6.222   0.479
10753SOL     OW33157   5.177   6.866   4.480
10753SOL    HW133158   5.137   6.839   4.392
10753SOL    HW233159   5.277   6.856   4.475
10754SOL     OW33160   0.932   3.852   2.350
10754SOL    HW133161   0.868   3.863   2.274
10754SOL    HW233162   1.020   3.820   2.315
10755SOL     OW33163   6.836   2.927   1.091
10755SOL    HW133164   6.788   2.962   1.171
10755SOL    HW233165   6.917   2.983   1.074
10756SOL     OW33166   0.744   1.203   0.230
10756SOL    HW133167   0.750   1.285   0.175
10756SOL    HW233168   0.669   1.213   0.296
10757SOL     OW33169   6.990   4.263   2.133
10757SOL    HW133170   7.020   4.332   2.199
10757SOL    HW233171   0.003   4.173   2.161
10758SOL     OW33172   0.459   0.823   6.721
10758SOL    HW133173   0.483   0.730   6.749
10758SOL    HW233174   0.376   0.821   6.666
10759SOL     OW33175   2.984   1.875   5.835
10759SOL    HW133176   3.036   1.791   5.818
10759SOL    HW233177   3.005   1.908   5.928
10760SOL     OW33178   1.216   5.147   0.273
10760SOL    HW133179   1.166   5.066   0.303
10760SOL    HW233180   1.310   5.143   0.307
10761SOL     OW33181   0.553   1.367   6.030
10761SOL    HW133182   0.644   1.342   6.063
10761SOL    HW233183   0.561   1.433   5.955
10762SOL     OW33184   2.892   6.194   6.364
10762SOL    HW133185   2.858   6.119   6.420
10762SOL    HW233186   2.989   6.180   6.344
10763SOL     OW33187   5.281   7.012   3.713
10763SOL    HW133188   5.329   0.062   3.660
10763SOL    HW233189   5.220   6.961   3.653
10764SOL     OW33190   4.527   0.311   4.326
10764SOL    HW133191   4.493   0.405   4.336
10764SOL    HW233192   4.615   0.313   4.277
10765SOL     OW33193   0.343   2.031   2.156
10765SOL    HW133194   0.397   2.000   2.235
10765SOL    HW233195   0.276   1.961   2.132
10766SOL     OW33196   1.549   5.336   6.917
10766SOL    HW133197   1.495   5.252   6.928
10766SOL    HW233198   1.646   5.314   6.923
10767SOL     OW33199   1.439   5.104   0.792
10767SOL    HW133200   1.394   5.192   0.778
10767SOL    HW233201   1.374   5.041   0.836
10768SOL     OW33202   5.184   5.529   0.207
10768SOL    HW133203   5.187   5.556   0.110
10768SOL    HW233204   5.250   5.455   0.222
10769SOL     OW33205   3.418   3.019   4.573
10769SOL    HW133206   3.493   2.959   4.598
10769SOL    HW233207   3.343   3.008   4.638
10770SOL     OW33208   5.737   0.047   3.261
10770SOL    HW133209   5.683   7.006   3.319
10770SOL    HW233210   5.834   0.023   3.269
10771SOL     OW33211   4.937   5.987   5.776
10771SOL    HW133212   4.896   6.067   5.819
10771SOL    HW233213   5.020   6.013   5.727
10772SOL     OW33214   5.346   5.991   2.310
10772SOL    HW133215   5.396   5.904   2.308
10772SOL    HW233216   5.355   6.038   2.222
10773SOL     OW33217   0.095   3.541   1.499
10773SOL    HW133218   0.021   3.507   1.441
10773SOL    HW233219   0.182   3.532   1.450
10774SOL     OW33220   0.925   2.414   0.601
10774SOL    HW133221   0.980   2.330   0.599
10774SOL    HW233222   0.986   2.493   0.609
10775SOL     OW33223   1.195   3.889   0.490
10775SOL    HW133224   1.226   3.982   0.468
10775SOL    HW233225   1.168   3.842   0.406
10776SOL     OW33226   1.007   2.634   3.631
10776SOL    HW133227   1.079   2.619   3.564
10776SOL    HW233228   0.919   2.606   3.593
10777SOL     OW33229   3.205   1.221   1.964
10777SOL    HW133230   3.229   1.317   1.977
10777SOL    HW233231   3.288   1.165   1.965
10778SOL     OW33232   6.321   0.300   3.627
10778SOL    HW133233   6.371   0.370   3.575
10778SOL    HW233234   6.266   0.345   3.697
10779SOL     OW33235   5.429   3.919   4.921
10779SOL    HW133236   5.446   3.855   4.995
10779SOL    HW233237   5.373   3.875   4.851
10780SOL     OW33238   1.799   5.642   5.033
10780SOL    HW133239   1.862   5.719   5.026
10780SOL    HW233240   1.727   5.664   5.099
10781SOL     OW33241   6.138   2.340   5.201
10781SOL    HW133242   6.127   2.299   5.291
10781SOL    HW233243   6.074   2.297   5.136
10782SOL     OW33244   1.313   2.338   5.202
10782SOL    HW133245   1.371   2.305   5.276
10782SOL    HW233246   1.217   2.331   5.228
10783SOL     OW33247   1.279   2.635   3.541
10783SOL    HW133248   1.263   2.541   3.509
10783SOL    HW233249   1.317   2.631   3.634
10784SOL     OW33250   3.673   5.602   2.576
10784SOL    HW133251   3.644   5.695   2.601
10784SOL    HW233252   3.697   5.600   2.479
10785SOL     OW33253   1.590   5.423   2.421
10785SOL    HW133254   1.674   5.378   2.452
10785SOL    HW233255   1.537   5.359   2.365
10786SOL     OW33256   4.312   1.251   1.962
10786SOL    HW133257   4.342   1.342   1.990
10786SOL    HW233258   4.302   1.248   1.862
10787SOL     OW33259   4.517   0.754   3.153
10787SOL    HW133260   4.506   0.752   3.253
10787SOL    HW233261   4.521   0.660   3.119
10788SOL     OW33262   1.155   4.396   0.040
10788SOL    HW133263   1.143   4.329   0.114
10788SOL    HW233264   1.150   4.349   6.972
10789SOL     OW33265   6.335   1.333   1.730
10789SOL    HW133266   6.334   1.239   1.762
10789SOL    HW233267   6.419   1.350   1.678
10790SOL     OW33268   0.628   1.876   5.375
10790SOL    HW133269   0.576   1.933   5.438
10790SOL    HW233270   0.565   1.825   5.316
10791SOL     OW33271   1.200   1.838   4.337
10791SOL    HW133272   1.263   1.899   4.290
10791SOL    HW233273   1.172   1.765   4.275
10792SOL     OW33274   3.987   1.820   2.185
10792SOL    HW133275   3.908   1.758   2.183
10792SOL    HW233276   3.959   1.910   2.151
10793SOL     OW33277   4.405   2.026   4.777
10793SOL    HW133278   4.373   1.997   4.687
10793SOL    HW233279   4.505   2.036   4.775
10794SOL     OW33280   5.134   2.457   0.487
10794SOL    HW133281   5.171   2.524   0.424
10794SOL    HW233282   5.053   2.495   0.533
10795SOL     OW33283   0.309   3.945   3.367
10795SOL    HW133284   0.300   4.022   3.304
10795SOL    HW233285   0.309   3.860   3.314
10796SOL     OW33286   0.188   6.959   6.051
10796SOL    HW133287   0.270   7.009   6.081
10796SOL    HW233288   0.191   6.867   6.089
10797SOL     OW33289   4.079   4.348   6.620
10797SOL    HW133290   4.101   4.443   6.642
10797SOL    HW233291   4.129   4.320   6.539
10798SOL     OW33292   1.573   0.169   6.969
10798SOL    HW133293   1.555   0.079   6.928
10798SOL    HW233294   1.488   0.221   6.975
10799SOL     OW33295   3.280   0.966   2.916
10799SOL    HW133296   3.225   0.958   2.999
10799SOL    HW233297   3.315   1.059   2.908
10800SOL     OW33298   1.930   0.227   5.856
10800SOL    HW133299   1.936   0.146   5.797
10800SOL    HW233300   2.014   0.236   5.909
10801SOL     OW33301   2.471   6.416   5.871
10801SOL    HW133302   2.518   6.495   5.910
10801SOL    HW233303   2.525   6.378   5.797
10802SOL     OW33304   0.732   4.639   4.595
10802SOL    HW133305   0.716   4.731   4.559
10802SOL    HW233306   0.723   4.572   4.521
10803SOL     OW33307   0.391   4.017   4.753
10803SOL    HW133308   0.337   4.073   4.691
10803SOL    HW233309   0.464   4.072   4.793
10804SOL     OW33310   5.112   4.729   1.144
10804SOL    HW133311   5.072   4.816   1.173
10804SOL    HW233312   5.122   4.669   1.224
10805SOL     OW33313   3.599   6.301   0.205
10805SOL    HW133314   3.545   6.346   0.134
10805SOL    HW233315   3.538   6.246   0.262
10806SOL     OW33316   5.591   4.082   6.752
10806SOL    HW133317   5.549   4.011   6.810
10806SOL    HW233318   5.582   4.056   6.656
10807SOL     OW33319   4.904   0.057   3.543
10807SOL    HW133320   4.809   0.073   3.568
10807SOL    HW233321   4.956   0.141   3.555
10808SOL     OW33322   0.272   2.655   6.690
10808SOL    HW133323   0.240   2.563   6.670
10808SOL    HW233324   0.216   2.722   6.641
10809SOL     OW33325   3.390   0.688   2.864
10809SOL    HW133326   3.418   0.729   2.951
10809SOL    HW233327   3.291   0.679   2.861
10810SOL     OW33328   0.606   2.023   6.511
10810SOL    HW133329   0.537   2.068   6.454
10810SOL    HW233330   0.605   1.925   6.493
10811SOL     OW33331   4.951   4.631   5.637
10811SOL    HW133332   5.029   4.609   5.695
10811SOL    HW233333   4.949   4.569   5.558
10812SOL     OW33334   6.643   2.361   2.740
10812SOL    HW133335   6.669   2.457   2.744
10812SOL    HW233336   6.585   2.344   2.661
10813SOL     OW33337   2.494   5.702   2.385
10813SOL    HW133338   2.444   5.671   2.466
10813SOL    HW233339   2.577   5.750   2.413
10814SOL     OW33340   1.822   6.562   5.450
10814SOL    HW133341   1.900   6.561   5.511
10814SOL    HW233342   1.779   6.652   5.451
10815SOL     OW33343   4.532   2.469   3.083
10815SOL    HW133344   4.550   2.380   3.124
10815SOL    HW233345   4.441   2.501   3.111
10816SOL     OW33346   2.179   1.796   2.453
10816SOL    HW133347   2.203   1.772   2.359
10816SOL    HW233348   2.263   1.807   2.506
10817SOL     OW33349   5.066   6.623   2.132
10817SOL    HW133350   5.043   6.549   2.069
10817SOL    HW233351   4.985   6.677   2.153
10818SOL     OW33352   4.659   2.962   6.722
10818SOL    HW133353   4.672   3.010   6.635
10818SOL    HW233354   4.687   3.021   6.798
10819SOL     OW33355   0.545   3.872   6.186
10819SOL    HW133356   0.478   3.853   6.113
10819SOL    HW233357   0.560   3.789   6.240
10820SOL     OW33358   0.189   0.156   4.402
10820SOL    HW133359   0.153   0.249   4.399
10820SOL    HW233360   0.253   0.142   4.326
10821SOL     OW33361   0.117   6.837   0.435
10821SOL    HW133362   0.048   6.829   0.364
10821SOL    HW233363   0.098   6.918   0.492
10822SOL     OW33364   1.204   4.874   0.880
10822SOL    HW133365   1.274   4.895   0.948
10822SOL    HW233366   1.114   4.877   0.924
10823SOL     OW33367   1.409   1.514   1.874
10823SOL    HW133368   1.426   1.539   1.778
10823SOL    HW233369   1.493   1.528   1.927
10824SOL     OW33370   5.599   0.555   2.792
10824SOL    HW133371   5.598   0.457   2.810
10824SOL    HW233372   5.692   0.583   2.766
10825SOL     OW33373   3.632   1.903   1.038
10825SOL    HW133374   3.655   1.806   1.047
10825SOL    HW233375   3.545   1.912   0.989
10826SOL     OW33376   6.664   2.776   1.551
10826SOL    HW133377   6.657   2.701   1.617
10826SOL    HW233378   6.572   2.812   1.532
10827SOL     OW33379   0.912   2.471   4.309
10827SOL    HW133380   0.935   2.548   4.250
10827SOL    HW233381   0.914   2.500   4.405
10828SOL     OW33382   1.274   5.966   0.089
10828SOL    HW133383   1.357   5.964   0.033
10828SOL    HW233384   1.194   5.944   0.033
10829SOL     OW33385   2.636   3.713   1.458
10829SOL    HW133386   2.587   3.796   1.432
10829SOL    HW233387   2.591   3.671   1.537
10830SOL     OW33388   4.603   1.766   3.650
10830SOL    HW133389   4.508   1.774   3.680
10830SOL    HW233390   4.663   1.759   3.730
10831SOL     OW33391   5.348   2.788   3.545
10831SOL    HW133392   5.261   2.827   3.516
10831SOL    HW233393   5.345   2.766   3.643
10832SOL     OW33394   6.988   2.611   1.690
10832SOL    HW133395   6.942   2.698   1.675
10832SOL    HW233396   0.038   2.621   1.761
10833SOL     OW33397   2.971   6.816   4.213
10833SOL    HW133398   2.998   6.912   4.221
10833SOL    HW233399   3.025   6.773   4.140
10834SOL     OW33400   7.005   1.228   5.550
10834SOL    HW133401   6.907   1.223   5.535
10834SOL    HW233402   0.008   1.183   5.637
10835SOL     OW33403   6.915   1.942   2.160
10835SOL    HW133404   6.831   1.894   2.131
10835SOL    HW233405   6.943   2.006   2.089
10836SOL     OW33406   1.248   2.252   0.030
10836SOL    HW133407   1.204   2.325   0.081
10836SOL    HW233408   1.344   2.274   0.016
10837SOL     OW33409   0.509   6.096   1.455
10837SOL    HW133410   0.411   6.090   1.471
10837SOL    HW233411   0.533   6.190   1.432
10838SOL     OW33412   6.381   6.901   1.338
10838SOL    HW133413   6.424   6.984   1.373
10838SOL    HW233414   6.436   6.822   1.363
10839SOL     OW33415   2.358   1.739   0.627
10839SOL    HW133416   2.290   1.811   0.637
10839SOL    HW233417   2.316   1.659   0.584
10840SOL     OW33418   3.706   4.934   2.733
10840SOL    HW133419   3.729   4.925   2.830
10840SOL    HW233420   3.733   5.025   2.700
10841SOL     OW33421   5.169   4.099   5.776
10841SOL    HW133422   5.071   4.112   5.789
10841SOL    HW233423   5.205   4.041   5.849
10842SOL     OW33424   6.709   3.041   1.313
10842SOL    HW133425   6.731   3.020   1.409
10842SOL    HW233426   6.683   3.138   1.306
10843SOL     OW33427   0.181   1.077   1.786
10843SOL    HW133428   0.172   1.175   1.769
10843SOL    HW233429   0.243   1.062   1.864
10844SOL     OW33430   3.602   6.605   3.490
10844SOL    HW133431   3.618   6.627   3.586
10844SOL    HW233432   3.506   6.620   3.468
10845SOL     OW33433   1.405   2.771   0.928
10845SOL    HW133434   1.402   2.848   0.864
10845SOL    HW233435   1.393   2.804   1.021
10846SOL     OW33436   3.604   1.989   1.842
10846SOL    HW133437   3.618   2.073   1.895
10846SOL    HW233438   3.537   2.005   1.770
10847SOL     OW33439   3.838   2.584   5.740
10847SOL    HW133440   3.863   2.681   5.729
10847SOL    HW233441   3.909   2.527   5.700
10848SOL     OW33442   1.704   1.466   0.552
10848SOL    HW133443   1.769   1.538   0.530
10848SOL    HW233444   1.753   1.386   0.586
10849SOL     OW33445   2.435   4.959   4.693
10849SOL    HW133446   2.401   4.921   4.778
10849SOL    HW233447   2.473   5.050   4.710
10850SOL     OW33448   5.585   0.737   1.629
10850SOL    HW133449   5.682   0.726   1.648
10850SOL    HW233450   5.554   0.665   1.567
10851SOL     OW33451   4.168   2.395   6.325
10851SOL    HW133452   4.237   2.327   6.299
10851SOL    HW233453   4.105   2.410   6.250
10852SOL     OW33454   0.506   6.734   6.276
10852SOL    HW133455   0.461   6.651   6.243
10852SOL    HW233456   0.484   6.810   6.215
10853SOL     OW33457   2.074   1.246   4.783
10853SOL    HW133458   2.092   1.325   4.725
10853SOL    HW233459   1.975   1.228   4.785
10854SOL     OW33460   0.507   6.387   0.173
10854SOL    HW133461   0.442   6.452   0.132
10854SOL    HW233462   0.593   6.434   0.193
10855SOL     OW33463   1.246   6.170   2.003
10855SOL    HW133464   1.267   6.267   1.994
10855SOL    HW233465   1.325   6.122   2.041
10856SOL     OW33466   6.093   0.482   6.607
10856SOL    HW133467   6.145   0.447   6.530
10856SOL    HW233468   6.014   0.423   6.624
10857SOL     OW33469   6.405   0.304   4.840
10857SOL    HW133470   6.414   0.373   4.911
10857SOL    HW233471   6.439   0.341   4.753
10858SOL     OW33472   2.169   2.124   6.865
10858SOL    HW133473   2.249   2.161   6.912
10858SOL    HW233474   2.198   2.086   6.777
10859SOL     OW33475   0.846   5.211   2.264
10859SOL    HW133476   0.886   5.223   2.173
10859SOL    HW233477   0.759   5.260   2.270
10860SOL     OW33478   5.883   2.821   0.896
10860SOL    HW133479   5.787   2.796   0.890
10860SOL    HW233480   5.939   2.747   0.857
10861SOL     OW33481   3.469   2.887   1.986
10861SOL    HW133482   3.484   2.827   2.064
10861SOL    HW233483   3.435   2.833   1.908
10862SOL     OW33484   3.568   2.916   5.902
10862SOL    HW133485   3.477   2.882   5.876
10862SOL    HW233486   3.564   2.957   5.993
10863SOL     OW33487   2.636   0.838   2.922
10863SOL    HW133488   2.585   0.798   2.847
10863SOL    HW233489   2.638   0.774   2.999
10864SOL     OW33490   3.066   4.669   1.787
10864SOL    HW133491   3.029   4.579   1.807
10864SOL    HW233492   2.991   4.736   1.782
10865SOL     OW33493   3.531   0.982   2.449
10865SOL    HW133494   3.547   0.895   2.496
10865SOL    HW233495   3.612   1.008   2.397
10866SOL     OW33496   6.889   3.539   2.985
10866SOL    HW133497   6.925   3.599   2.914
10866SOL    HW233498   6.945   3.545   3.067
10867SOL     OW33499   4.331   3.457   0.428
10867SOL    HW133500   4.261   3.511   0.476
10867SOL    HW233501   4.414   3.454   0.483
10868SOL     OW33502   1.654   0.809   5.366
10868SOL    HW133503   1.634   0.718   5.402
10868SOL    HW233504   1.607   0.822   5.279
10869NA      NA33505   6.992   1.732   6.027
10870NA      NA33506   4.516   4.613   5.081
10871NA      NA33507   1.440   4.886   2.971
10872NA      NA33508   5.992   3.845   3.390
10873NA      NA33509   3.675   2.272   5.421
10874NA      NA33510   2.391   5.055   0.292
10875NA      NA33511   1.193   5.449   6.908
10876NA      NA33512   3.886   4.301   0.977
10877NA      NA33513   4.016   4.999   0.508
10878NA      NA33514   3.356   1.050   6.356
10879NA      NA33515   5.548   6.935   1.641
10880NA      NA33516   2.208   6.593   5.271
10881NA      NA33517   4.108   5.361   1.771
10882NA      NA33518   3.609   3.238   6.526
   7.01987   7.01987   7.01987
