Generated by trjconv : CNT in water t=  17.00000
33518
    1C        C    1   2.839   2.765   4.747
    1C        C    2   2.891   2.713   4.867
    1C        C    3   2.841   2.769   4.985
    1C        C    4   2.847   2.772   4.260
    1C        C    5   2.902   2.731   4.383
    1C        C    6   2.845   2.774   4.505
    1C        C    7   3.015   2.643   4.625
    1C        C    8   2.896   2.720   4.626
    1C        C    9   3.077   2.604   4.746
    1C        C   10   3.007   2.632   4.866
    1C        C   11   3.180   2.489   4.976
    1C        C   12   3.056   2.553   4.971
    1C        C   13   2.855   2.775   3.772
    1C        C   14   2.903   2.725   3.895
    1C        C   15   2.850   2.777   4.015
    1C        C   16   3.017   2.646   4.140
    1C        C   17   2.904   2.730   4.137
    1C        C   18   3.081   2.618   4.263
    1C        C   19   3.016   2.648   4.384
    1C        C   20   3.208   2.551   4.506
    1C        C   21   3.078   2.607   4.505
    1C        C   22   3.278   2.532   4.627
    1C        C   23   3.209   2.552   4.748
    1C        C   24   3.412   2.477   4.868
    1C        C   25   3.271   2.502   4.866
    1C        C   26   3.489   2.489   4.985
    1C        C   27   2.851   2.770   3.282
    1C        C   28   2.904   2.726   3.406
    1C        C   29   2.854   2.775   3.528
    1C        C   30   3.019   2.642   3.649
    1C        C   31   2.910   2.731   3.650
    1C        C   32   3.078   2.607   3.772
    1C        C   33   3.016   2.640   3.895
    1C        C   34   3.210   2.557   4.017
    1C        C   35   3.078   2.608   4.018
    1C        C   36   3.276   2.533   4.140
    1C        C   37   3.209   2.558   4.262
    1C        C   38   3.413   2.502   4.382
    1C        C   39   3.275   2.531   4.383
    1C        C   40   3.486   2.497   4.503
    1C        C   41   3.417   2.502   4.626
    1C        C   42   3.629   2.489   4.743
    1C        C   43   3.487   2.482   4.747
    1C        C   44   3.703   2.484   4.863
    1C        C   45   3.628   2.479   4.981
    1C        C   46   2.839   2.755   2.792
    1C        C   47   2.893   2.713   2.916
    1C        C   48   2.846   2.766   3.038
    1C        C   49   3.021   2.646   3.161
    1C        C   50   2.905   2.726   3.159
    1C        C   51   3.080   2.609   3.284
    1C        C   52   3.020   2.645   3.407
    1C        C   53   3.211   2.548   3.531
    1C        C   54   3.082   2.605   3.527
    1C        C   55   3.280   2.528   3.652
    1C        C   56   3.211   2.558   3.771
    1C        C   57   3.416   2.511   3.895
    1C        C   58   3.277   2.539   3.894
    1C        C   59   3.487   2.503   4.017
    1C        C   60   3.414   2.506   4.138
    1C        C   61   3.625   2.493   4.259
    1C        C   62   3.484   2.493   4.260
    1C        C   63   3.699   2.501   4.379
    1C        C   64   3.627   2.499   4.500
    1C        C   65   3.834   2.543   4.621
    1C        C   66   3.699   2.501   4.622
    1C        C   67   3.902   2.565   4.743
    1C        C   68   3.839   2.525   4.862
    1C        C   69   4.052   2.584   4.976
    1C        C   70   3.923   2.530   4.974
    1C        C   71   2.824   2.734   2.308
    1C        C   72   2.883   2.693   2.430
    1C        C   73   2.832   2.746   2.550
    1C        C   74   3.009   2.628   2.672
    1C        C   75   2.889   2.702   2.671
    1C        C   76   3.076   2.601   2.794
    1C        C   77   3.012   2.636   2.915
    1C        C   78   3.206   2.550   3.036
    1C        C   79   3.078   2.609   3.037
    1C        C   80   3.274   2.531   3.158
    1C        C   81   3.210   2.553   3.282
    1C        C   82   3.412   2.498   3.404
    1C        C   83   3.275   2.530   3.406
    1C        C   84   3.484   2.484   3.525
    1C        C   85   3.417   2.493   3.650
    1C        C   86   3.627   2.497   3.770
    1C        C   87   3.486   2.492   3.773
    1C        C   88   3.697   2.507   3.892
    1C        C   89   3.628   2.502   4.015
    1C        C   90   3.833   2.547   4.137
    1C        C   91   3.697   2.510   4.138
    1C        C   92   3.901   2.573   4.259
    1C        C   93   3.835   2.541   4.379
    1C        C   94   4.024   2.640   4.500
    1C        C   95   3.903   2.567   4.500
    1C        C   96   4.088   2.672   4.622
    1C        C   97   4.032   2.623   4.742
    1C        C   98   4.195   2.763   4.864
    1C        C   99   4.100   2.656   4.862
    1C        C  100   4.218   2.842   4.977
    1C        C  101   2.827   2.733   2.069
    1C        C  102   2.989   2.590   2.190
    1C        C  103   2.879   2.682   2.188
    1C        C  104   3.062   2.572   2.310
    1C        C  105   3.002   2.616   2.430
    1C        C  106   3.203   2.542   2.548
    1C        C  107   3.070   2.588   2.551
    1C        C  108   3.269   2.520   2.670
    1C        C  109   3.205   2.542   2.794
    1C        C  110   3.412   2.494   2.917
    1C        C  111   3.272   2.517   2.916
    1C        C  112   3.480   2.492   3.041
    1C        C  113   3.413   2.504   3.164
    1C        C  114   3.627   2.502   3.280
    1C        C  115   3.486   2.492   3.284
    1C        C  116   3.691   2.510   3.405
    1C        C  117   3.624   2.493   3.529
    1C        C  118   3.835   2.544   3.646
    1C        C  119   3.698   2.509   3.649
    1C        C  120   3.897   2.569   3.770
    1C        C  121   3.834   2.541   3.894
    1C        C  122   4.024   2.639   4.012
    1C        C  123   3.900   2.572   4.015
    1C        C  124   4.083   2.680   4.134
    1C        C  125   4.025   2.640   4.256
    1C        C  126   4.187   2.776   4.376
    1C        C  127   4.085   2.678   4.378
    1C        C  128   4.236   2.826   4.499
    1C        C  129   4.189   2.771   4.620
    1C        C  130   4.325   2.934   4.741
    1C        C  131   4.240   2.820   4.741
    1C        C  132   4.354   3.004   4.860
    1C        C  133   4.291   2.961   4.977
    1C        C  134   3.174   2.462   2.083
    1C        C  135   3.045   2.516   2.081
    1C        C  136   3.262   2.478   2.191
    1C        C  137   3.195   2.521   2.308
    1C        C  138   3.407   2.476   2.429
    1C        C  139   3.269   2.507   2.428
    1C        C  140   3.478   2.473   2.550
    1C        C  141   3.407   2.488   2.671
    1C        C  142   3.619   2.498   2.792
    1C        C  143   3.479   2.489   2.793
    1C        C  144   3.694   2.502   2.913
    1C        C  145   3.622   2.492   3.034
    1C        C  146   3.831   2.537   3.157
    1C        C  147   3.693   2.506   3.155
    1C        C  148   3.895   2.567   3.279
    1C        C  149   3.827   2.548   3.401
    1C        C  150   4.027   2.624   3.524
    1C        C  151   3.900   2.562   3.522
    1C        C  152   4.082   2.668   3.646
    1C        C  153   4.021   2.637   3.770
    1C        C  154   4.198   2.761   3.887
    1C        C  155   4.083   2.680   3.890
    1C        C  156   4.248   2.809   4.010
    1C        C  157   4.198   2.762   4.133
    1C        C  158   4.338   2.923   4.253
    1C        C  159   4.250   2.812   4.255
    1C        C  160   4.369   2.988   4.374
    1C        C  161   4.329   2.933   4.498
    1C        C  162   4.432   3.119   4.616
    1C        C  163   4.365   2.995   4.620
    1C        C  164   4.466   3.183   4.737
    1C        C  165   4.435   3.120   4.860
    1C        C  166   4.514   3.322   4.972
    1C        C  167   4.482   3.187   4.973
    1C        C  168   3.477   2.441   2.072
    1C        C  169   3.402   2.461   2.189
    1C        C  170   3.621   2.466   2.307
    1C        C  171   3.479   2.467   2.307
    1C        C  172   3.693   2.484   2.427
    1C        C  173   3.619   2.483   2.548
    1C        C  174   3.826   2.535   2.665
    1C        C  175   3.688   2.505   2.669
    1C        C  176   3.893   2.559   2.787
    1C        C  177   3.830   2.539   2.912
    1C        C  178   4.019   2.633   3.031
    1C        C  179   3.895   2.564   3.035
    1C        C  180   4.079   2.670   3.154
    1C        C  181   4.020   2.633   3.277
    1C        C  182   4.193   2.752   3.398
    1C        C  183   4.082   2.665   3.400
    1C        C  184   4.241   2.805   3.521
    1C        C  185   4.190   2.759   3.644
    1C        C  186   4.336   2.919   3.764
    1C        C  187   4.246   2.810   3.763
    1C        C  188   4.379   2.975   3.887
    1C        C  189   4.334   2.921   4.009
    1C        C  190   4.441   3.107   4.130
    1C        C  191   4.377   2.981   4.130
    1C        C  192   4.467   3.173   4.252
    1C        C  193   4.432   3.114   4.376
    1C        C  194   4.513   3.316   4.492
    1C        C  195   4.459   3.186   4.495
    1C        C  196   4.525   3.387   4.614
    1C        C  197   4.510   3.318   4.737
    1C        C  198   4.557   3.536   4.851
    1C        C  199   4.537   3.394   4.854
    1C        C  200   4.584   3.623   4.962
    1C        C  201   3.616   2.421   2.072
    1C        C  202   3.829   2.508   2.183
    1C        C  203   3.694   2.460   2.185
    1C        C  204   3.899   2.535   2.304
    1C        C  205   3.830   2.515   2.426
    1C        C  206   4.021   2.622   2.545
    1C        C  207   3.898   2.552   2.544
    1C        C  208   4.078   2.666   2.667
    1C        C  209   4.017   2.626   2.788
    1C        C  210   4.188   2.757   2.908
    1C        C  211   4.078   2.668   2.908
    1C        C  212   4.245   2.802   3.030
    1C        C  213   4.192   2.754   3.152
    1C        C  214   4.334   2.907   3.272
    1C        C  215   4.243   2.799   3.275
    1C        C  216   4.371   2.969   3.394
    1C        C  217   4.333   2.912   3.517
    1C        C  218   4.433   3.100   3.639
    1C        C  219   4.372   2.973   3.639
    1C        C  220   4.466   3.168   3.759
    1C        C  221   4.440   3.102   3.881
    1C        C  222   4.495   3.306   4.003
    1C        C  223   4.459   3.169   4.004
    1C        C  224   4.513   3.378   4.124
    1C        C  225   4.502   3.310   4.247
    1C        C  226   4.527   3.523   4.368
    1C        C  227   4.521   3.382   4.367
    1C        C  228   4.528   3.599   4.487
    1C        C  229   4.534   3.527   4.609
    1C        C  230   4.505   3.742   4.724
    1C        C  231   4.535   3.603   4.728
    1C        C  232   4.499   3.822   4.840
    1C        C  233   4.547   3.758   4.955
    1C        C  234   4.017   2.607   2.065
    1C        C  235   3.888   2.555   2.065
    1C        C  236   4.081   2.650   2.183
    1C        C  237   4.024   2.604   2.304
    1C        C  238   4.200   2.733   2.422
    1C        C  239   4.084   2.650   2.422
    1C        C  240   4.255   2.783   2.542
    1C        C  241   4.194   2.746   2.663
    1C        C  242   4.338   2.904   2.785
    1C        C  243   4.244   2.798   2.785
    1C        C  244   4.373   2.966   2.906
    1C        C  245   4.335   2.910   3.030
    1C        C  246   4.438   3.094   3.147
    1C        C  247   4.381   2.965   3.152
    1C        C  248   4.456   3.159   3.272
    1C        C  249   4.432   3.096   3.396
    1C        C  250   4.495   3.302   3.513
    1C        C  251   4.454   3.167   3.516
    1C        C  252   4.509   3.372   3.635
    1C        C  253   4.497   3.306   3.759
    1C        C  254   4.519   3.517   3.879
    1C        C  255   4.509   3.376   3.882
    1C        C  256   4.517   3.587   4.002
    1C        C  257   4.523   3.518   4.125
    1C        C  258   4.492   3.730   4.242
    1C        C  259   4.524   3.593   4.245
    1C        C  260   4.466   3.801   4.361
    1C        C  261   4.487   3.734   4.484
    1C        C  262   4.427   3.941   4.602
    1C        C  263   4.473   3.808   4.604
    1C        C  264   4.402   4.011   4.723
    1C        C  265   4.438   3.950   4.845
    1C        C  266   4.322   4.134   4.959
    1C        C  267   4.391   4.014   4.960
    1C        C  268   4.266   2.770   2.064
    1C        C  269   4.195   2.733   2.179
    1C        C  270   4.334   2.897   2.297
    1C        C  271   4.249   2.783   2.299
    1C        C  272   4.378   2.955   2.418
    1C        C  273   4.345   2.892   2.540
    1C        C  274   4.445   3.081   2.661
    1C        C  275   4.386   2.952   2.661
    1C        C  276   4.472   3.153   2.779
    1C        C  277   4.444   3.089   2.902
    1C        C  278   4.507   3.293   3.026
    1C        C  279   4.468   3.157   3.024
    1C        C  280   4.516   3.365   3.147
    1C        C  281   4.495   3.294   3.268
    1C        C  282   4.520   3.508   3.389
    1C        C  283   4.509   3.367   3.388
    1C        C  284   4.524   3.581   3.510
    1C        C  285   4.518   3.513   3.634
    1C        C  286   4.492   3.725   3.752
    1C        C  287   4.514   3.585   3.755
    1C        C  288   4.474   3.792   3.875
    1C        C  289   4.489   3.725   3.999
    1C        C  290   4.430   3.932   4.112
    1C        C  291   4.472   3.798   4.119
    1C        C  292   4.396   3.996   4.234
    1C        C  293   4.423   3.936   4.359
    1C        C  294   4.323   4.125   4.476
    1C        C  295   4.392   4.002   4.480
    1C        C  296   4.288   4.189   4.597
    1C        C  297   4.331   4.134   4.720
    1C        C  298   4.198   4.311   4.838
    1C        C  299   4.284   4.197   4.839
    1C        C  300   4.169   4.404   4.943
    1C        C  301   4.354   2.877   2.061
    1C        C  302   4.468   3.067   2.175
    1C        C  303   4.396   2.944   2.177
    1C        C  304   4.482   3.141   2.296
    1C        C  305   4.446   3.079   2.418
    1C        C  306   4.503   3.284   2.533
    1C        C  307   4.472   3.146   2.539
    1C        C  308   4.513   3.355   2.654
    1C        C  309   4.502   3.291   2.779
    1C        C  310   4.518   3.500   2.897
    1C        C  311   4.518   3.359   2.902
    1C        C  312   4.515   3.570   3.019
    1C        C  313   4.521   3.506   3.145
    1C        C  314   4.492   3.718   3.264
    1C        C  315   4.515   3.578   3.267
    1C        C  316   4.477   3.787   3.387
    1C        C  317   4.500   3.720   3.509
    1C        C  318   4.430   3.925   3.627
    1C        C  319   4.474   3.791   3.629
    1C        C  320   4.393   3.987   3.749
    1C        C  321   4.424   3.924   3.871
    1C        C  322   4.320   4.112   3.989
    1C        C  323   4.401   3.997   3.990
    1C        C  324   4.273   4.166   4.111
    1C        C  325   4.320   4.115   4.234
    1C        C  326   4.184   4.283   4.352
    1C        C  327   4.282   4.181   4.353
    1C        C  328   4.139   4.339   4.473
    1C        C  329   4.194   4.294   4.596
    1C        C  330   4.023   4.432   4.712
    1C        C  331   4.137   4.347   4.714
    1C        C  332   3.969   4.489   4.829
    1C        C  333   4.050   4.477   4.943
    1C        C  334   4.546   3.269   2.061
    1C        C  335   4.531   3.129   2.063
    1C        C  336   4.537   3.351   2.174
    1C        C  337   4.515   3.279   2.293
    1C        C  338   4.526   3.497   2.410
    1C        C  339   4.519   3.356   2.412
    1C        C  340   4.522   3.567   2.532
    1C        C  341   4.520   3.496   2.654
    1C        C  342   4.500   3.711   2.774
    1C        C  343   4.517   3.571   2.774
    1C        C  344   4.480   3.780   2.896
    1C        C  345   4.491   3.710   3.018
    1C        C  346   4.423   3.913   3.140
    1C        C  347   4.472   3.780   3.139
    1C        C  348   4.391   3.981   3.260
    1C        C  349   4.423   3.917   3.382
    1C        C  350   4.326   4.107   3.502
    1C        C  351   4.400   3.986   3.503
    1C        C  352   4.277   4.165   3.621
    1C        C  353   4.318   4.107   3.742
    1C        C  354   4.178   4.264   3.867
    1C        C  355   4.281   4.167   3.865
    1C        C  356   4.124   4.318   3.986
    1C        C  357   4.178   4.271   4.108
    1C        C  358   4.012   4.405   4.232
    1C        C  359   4.127   4.323   4.229
    1C        C  360   3.953   4.448   4.353
    1C        C  361   4.022   4.418   4.472
    1C        C  362   3.828   4.518   4.593
    1C        C  363   3.957   4.460   4.590
    1C        C  364   3.760   4.550   4.713
    1C        C  365   3.839   4.545   4.830
    1C        C  366   3.627   4.585   4.947
    1C        C  367   3.765   4.568   4.947
    1C        C  368   4.504   3.565   2.050
    1C        C  369   4.524   3.492   2.168
    1C        C  370   4.499   3.706   2.286
    1C        C  371   4.525   3.567   2.287
    1C        C  372   4.479   3.776   2.407
    1C        C  373   4.502   3.707   2.528
    1C        C  374   4.431   3.908   2.651
    1C        C  375   4.481   3.775   2.650
    1C        C  376   4.405   3.978   2.770
    1C        C  377   4.432   3.913   2.893
    1C        C  378   4.323   4.093   3.011
    1C        C  379   4.402   3.976   3.016
    1C        C  380   4.274   4.151   3.131
    1C        C  381   4.314   4.099   3.256
    1C        C  382   4.181   4.260   3.377
    1C        C  383   4.281   4.160   3.379
    1C        C  384   4.122   4.308   3.496
    1C        C  385   4.174   4.262   3.619
    1C        C  386   4.009   4.388   3.742
    1C        C  387   4.125   4.308   3.744
    1C        C  388   3.946   4.425   3.863
    1C        C  389   4.008   4.398   3.987
    1C        C  390   3.820   4.493   4.107
    1C        C  391   3.948   4.433   4.109
    1C        C  392   3.753   4.515   4.229
    1C        C  393   3.821   4.501   4.352
    1C        C  394   3.615   4.547   4.474
    1C        C  395   3.755   4.529   4.473
    1C        C  396   3.542   4.562   4.595
    1C        C  397   3.620   4.566   4.713
    1C        C  398   3.407   4.552   4.841
    1C        C  399   3.546   4.575   4.833
    1C        C  400   3.340   4.508   4.956
    1C        C  401   4.505   3.704   2.049
    1C        C  402   4.451   3.916   2.167
    1C        C  403   4.485   3.779   2.166
    1C        C  404   4.414   3.982   2.286
    1C        C  405   4.429   3.909   2.406
    1C        C  406   4.318   4.087   2.528
    1C        C  407   4.400   3.972   2.529
    1C        C  408   4.276   4.150   2.648
    1C        C  409   4.323   4.093   2.768
    1C        C  410   4.175   4.247   2.889
    1C        C  411   4.275   4.147   2.890
    1C        C  412   4.120   4.296   3.009
    1C        C  413   4.175   4.251   3.131
    1C        C  414   4.003   4.373   3.252
    1C        C  415   4.122   4.298   3.254
    1C        C  416   3.941   4.414   3.373
    1C        C  417   4.004   4.386   3.496
    1C        C  418   3.814   4.474   3.620
    1C        C  419   3.945   4.420   3.620
    1C        C  420   3.745   4.499   3.741
    1C        C  421   3.814   4.476   3.862
    1C        C  422   3.611   4.535   3.986
    1C        C  423   3.750   4.506   3.985
    1C        C  424   3.542   4.547   4.109
    1C        C  425   3.614   4.541   4.230
    1C        C  426   3.402   4.547   4.354
    1C        C  427   3.544   4.549   4.352
    1C        C  428   3.331   4.544   4.476
    1C        C  429   3.401   4.559   4.598
    1C        C  430   3.194   4.518   4.723
    1C        C  431   3.333   4.547   4.721
    1C        C  432   3.123   4.493   4.844
    1C        C  433   3.203   4.483   4.958
    1C        C  434   4.382   4.125   2.051
    1C        C  435   4.449   4.002   2.056
    1C        C  436   4.303   4.165   2.164
    1C        C  437   4.338   4.102   2.286
    1C        C  438   4.179   4.246   2.403
    1C        C  439   4.282   4.149   2.407
    1C        C  440   4.126   4.300   2.522
    1C        C  441   4.176   4.250   2.644
    1C        C  442   4.005   4.375   2.763
    1C        C  443   4.122   4.296   2.767
    1C        C  444   3.945   4.410   2.885
    1C        C  445   4.004   4.376   3.009
    1C        C  446   3.810   4.464   3.130
    1C        C  447   3.941   4.411   3.131
    1C        C  448   3.745   4.488   3.253
    1C        C  449   3.812   4.470   3.377
    1C        C  450   3.609   4.533   3.496
    1C        C  451   3.747   4.500   3.499
    1C        C  452   3.540   4.543   3.618
    1C        C  453   3.609   4.537   3.741
    1C        C  454   3.400   4.544   3.862
    1C        C  455   3.541   4.544   3.864
    1C        C  456   3.333   4.532   3.986
    1C        C  457   3.401   4.544   4.109
    1C        C  458   3.193   4.511   4.237
    1C        C  459   3.332   4.538   4.232
    1C        C  460   3.125   4.488   4.359
    1C        C  461   3.193   4.511   4.480
    1C        C  462   2.996   4.433   4.602
    1C        C  463   3.124   4.493   4.602
    1C        C  464   2.933   4.395   4.723
    1C        C  465   2.987   4.448   4.843
    1C        C  466   2.800   4.339   4.959
    1C        C  467   2.908   4.429   4.961
    1C        C  468   4.126   4.284   2.040
    1C        C  469   4.187   4.248   2.161
    1C        C  470   4.003   4.365   2.279
    1C        C  471   4.124   4.290   2.281
    1C        C  472   3.941   4.400   2.401
    1C        C  473   4.007   4.376   2.523
    1C        C  474   3.808   4.460   2.643
    1C        C  475   3.939   4.409   2.643
    1C        C  476   3.746   4.492   2.766
    1C        C  477   3.815   4.465   2.887
    1C        C  478   3.607   4.520   3.009
    1C        C  479   3.744   4.486   3.007
    1C        C  480   3.537   4.531   3.131
    1C        C  481   3.608   4.521   3.253
    1C        C  482   3.395   4.533   3.376
    1C        C  483   3.537   4.533   3.374
    1C        C  484   3.327   4.532   3.499
    1C        C  485   3.398   4.544   3.620
    1C        C  486   3.190   4.502   3.742
    1C        C  487   3.326   4.539   3.742
    1C        C  488   3.131   4.477   3.869
    1C        C  489   3.195   4.501   3.992
    1C        C  490   3.004   4.416   4.115
    1C        C  491   3.127   4.485   4.115
    1C        C  492   2.945   4.380   4.238
    1C        C  493   3.000   4.422   4.360
    1C        C  494   2.826   4.302   4.483
    1C        C  495   2.936   4.390   4.482
    1C        C  496   2.771   4.255   4.604
    1C        C  497   2.819   4.310   4.726
    1C        C  498   2.662   4.166   4.843
    1C        C  499   2.753   4.273   4.845
    1C        C  500   2.598   4.116   4.958
    1C        C  501   4.013   4.364   2.039
    1C        C  502   3.813   4.455   2.152
    1C        C  503   3.944   4.402   2.155
    1C        C  504   3.745   4.477   2.273
    1C        C  505   3.810   4.453   2.397
    1C        C  506   3.605   4.509   2.519
    1C        C  507   3.744   4.480   2.519
    1C        C  508   3.534   4.519   2.641
    1C        C  509   3.607   4.516   2.762
    1C        C  510   3.397   4.526   2.885
    1C        C  511   3.538   4.525   2.885
    1C        C  512   3.324   4.518   3.006
    1C        C  513   3.396   4.530   3.127
    1C        C  514   3.192   4.488   3.256
    1C        C  515   3.329   4.521   3.252
    1C        C  516   3.120   4.473   3.376
    1C        C  517   3.190   4.497   3.497
    1C        C  518   2.999   4.412   3.626
    1C        C  519   3.122   4.483   3.620
    1C        C  520   2.945   4.372   3.750
    1C        C  521   3.005   4.415   3.871
    1C        C  522   2.842   4.280   3.998
    1C        C  523   2.942   4.379   3.993
    1C        C  524   2.786   4.236   4.120
    1C        C  525   2.835   4.290   4.240
    1C        C  526   2.697   4.131   4.366
    1C        C  527   2.777   4.247   4.362
    1C        C  528   2.652   4.076   4.488
    1C        C  529   2.682   4.146   4.607
    1C        C  530   2.577   3.960   4.732
    1C        C  531   2.635   4.089   4.728
    1C        C  532   2.538   3.899   4.855
    1C        C  533   2.527   3.995   4.961
    1C        C  534   3.617   4.558   2.042
    1C        C  535   3.747   4.505   2.039
    1C        C  536   3.535   4.535   2.157
    1C        C  537   3.607   4.512   2.277
    1C        C  538   3.393   4.517   2.401
    1C        C  539   3.534   4.518   2.398
    1C        C  540   3.321   4.509   2.523
    1C        C  541   3.393   4.518   2.644
    1C        C  542   3.185   4.483   2.766
    1C        C  543   3.322   4.514   2.766
    1C        C  544   3.123   4.456   2.890
    1C        C  545   3.189   4.478   3.013
    1C        C  546   2.991   4.407   3.137
    1C        C  547   3.121   4.462   3.136
    1C        C  548   2.934   4.367   3.260
    1C        C  549   2.994   4.410   3.380
    1C        C  550   2.833   4.279   3.508
    1C        C  551   2.939   4.373   3.505
    1C        C  552   2.781   4.233   3.631
    1C        C  553   2.832   4.288   3.751
    1C        C  554   2.703   4.122   3.877
    1C        C  555   2.793   4.232   3.874
    1C        C  556   2.661   4.065   3.998
    1C        C  557   2.697   4.126   4.120
    1C        C  558   2.600   3.941   4.247
    1C        C  559   2.669   4.065   4.244
    1C        C  560   2.572   3.877   4.370
    1C        C  561   2.592   3.948   4.490
    1C        C  562   2.527   3.749   4.616
    1C        C  563   2.559   3.886   4.613
    1C        C  564   2.508   3.682   4.739
    1C        C  565   2.518   3.757   4.859
    1C        C  566   2.530   3.543   4.975
    1C        C  567   2.520   3.682   4.977
    1C        C  568   3.324   4.478   2.043
    1C        C  569   3.394   4.514   2.159
    1C        C  570   3.183   4.475   2.280
    1C        C  571   3.320   4.511   2.280
    1C        C  572   3.112   4.459   2.401
    1C        C  573   3.182   4.481   2.521
    1C        C  574   2.992   4.390   2.648
    1C        C  575   3.117   4.456   2.644
    1C        C  576   2.929   4.359   2.771
    1C        C  577   2.995   4.395   2.890
    1C        C  578   2.826   4.274   3.016
    1C        C  579   2.935   4.365   3.015
    1C        C  580   2.775   4.226   3.138
    1C        C  581   2.826   4.276   3.260
    1C        C  582   2.702   4.113   3.383
    1C        C  583   2.783   4.229   3.386
    1C        C  584   2.660   4.061   3.507
    1C        C  585   2.694   4.122   3.630
    1C        C  586   2.600   3.937   3.757
    1C        C  587   2.661   4.064   3.755
    1C        C  588   2.574   3.871   3.879
    1C        C  589   2.601   3.937   4.001
    1C        C  590   2.534   3.740   4.128
    1C        C  591   2.572   3.876   4.125
    1C        C  592   2.522   3.670   4.250
    1C        C  593   2.539   3.740   4.372
    1C        C  594   2.514   3.534   4.497
    1C        C  595   2.520   3.675   4.496
    1C        C  596   2.520   3.464   4.619
    1C        C  597   2.514   3.539   4.738
    1C        C  598   2.530   3.325   4.863
    1C        C  599   2.524   3.466   4.858
    1C        C  600   2.549   3.250   4.980
    1C        C  601   3.191   4.443   2.041
    1C        C  602   2.981   4.391   2.157
    1C        C  603   3.116   4.439   2.160
    1C        C  604   2.922   4.359   2.283
    1C        C  605   2.986   4.395   2.404
    1C        C  606   2.822   4.263   2.527
    1C        C  607   2.930   4.354   2.527
    1C        C  608   2.772   4.219   2.651
    1C        C  609   2.820   4.270   2.774
    1C        C  610   2.686   4.109   2.895
    1C        C  611   2.769   4.224   2.897
    1C        C  612   2.652   4.053   3.021
    1C        C  613   2.691   4.112   3.143
    1C        C  614   2.588   3.926   3.264
    1C        C  615   2.658   4.049   3.265
    1C        C  616   2.566   3.868   3.391
    1C        C  617   2.598   3.934   3.512
    1C        C  618   2.533   3.734   3.636
    1C        C  619   2.576   3.868   3.635
    1C        C  620   2.516   3.667   3.760
    1C        C  621   2.532   3.736   3.882
    1C        C  622   2.508   3.529   4.008
    1C        C  623   2.521   3.670   4.006
    1C        C  624   2.515   3.458   4.131
    1C        C  625   2.512   3.530   4.253
    1C        C  626   2.537   3.322   4.378
    1C        C  627   2.510   3.460   4.376
    1C        C  628   2.555   3.254   4.501
    1C        C  629   2.536   3.323   4.622
    1C        C  630   2.589   3.117   4.743
    1C        C  631   2.543   3.251   4.744
    1C        C  632   2.612   3.046   4.864
    1C        C  633   2.559   3.111   4.980
    1C        C  634   2.781   4.303   2.054
    1C        C  635   2.893   4.386   2.044
    1C        C  636   2.749   4.227   2.167
    1C        C  637   2.811   4.272   2.286
    1C        C  638   2.673   4.110   2.410
    1C        C  639   2.760   4.221   2.407
    1C        C  640   2.638   4.049   2.533
    1C        C  641   2.683   4.109   2.652
    1C        C  642   2.582   3.923   2.779
    1C        C  643   2.644   4.050   2.774
    1C        C  644   2.555   3.859   2.902
    1C        C  645   2.582   3.930   3.021
    1C        C  646   2.529   3.723   3.149
    1C        C  647   2.561   3.860   3.142
    1C        C  648   2.511   3.660   3.274
    1C        C  649   2.525   3.733   3.394
    1C        C  650   2.511   3.521   3.519
    1C        C  651   2.516   3.662   3.516
    1C        C  652   2.515   3.455   3.644
    1C        C  653   2.510   3.526   3.766
    1C        C  654   2.536   3.316   3.888
    1C        C  655   2.510   3.455   3.888
    1C        C  656   2.554   3.250   4.011
    1C        C  657   2.534   3.319   4.133
    1C        C  658   2.605   3.121   4.254
    1C        C  659   2.551   3.251   4.256
    1C        C  660   2.631   3.058   4.378
    1C        C  661   2.603   3.122   4.501
    1C        C  662   2.706   2.935   4.624
    1C        C  663   2.635   3.058   4.623
    1C        C  664   2.745   2.872   4.744
    1C        C  665   2.696   2.930   4.864
    1C        C  666   2.748   2.873   4.981
    1C        C  667   2.677   4.023   2.050
    1C        C  668   2.685   4.101   2.166
    1C        C  669   2.591   3.912   2.290
    1C        C  670   2.644   4.044   2.289
    1C        C  671   2.563   3.848   2.412
    1C        C  672   2.586   3.917   2.534
    1C        C  673   2.521   3.719   2.658
    1C        C  674   2.558   3.855   2.657
    1C        C  675   2.516   3.651   2.782
    1C        C  676   2.525   3.721   2.905
    1C        C  677   2.504   3.511   3.030
    1C        C  678   2.518   3.652   3.028
    1C        C  679   2.505   3.445   3.155
    1C        C  680   2.503   3.519   3.276
    1C        C  681   2.528   3.309   3.400
    1C        C  682   2.505   3.448   3.398
    1C        C  683   2.553   3.245   3.523
    1C        C  684   2.533   3.315   3.644
    1C        C  685   2.605   3.115   3.768
    1C        C  686   2.552   3.246   3.766
    1C        C  687   2.637   3.054   3.892
    1C        C  688   2.607   3.119   4.014
    1C        C  689   2.716   2.935   4.139
    1C        C  690   2.640   3.054   4.135
    1C        C  691   2.756   2.881   4.263
    1C        C  692   2.710   2.941   4.382
    1C        C  693   2.751   2.879   4.503
    1C        C  694   2.624   3.893   2.054
    1C        C  695   2.523   3.704   2.176
    1C        C  696   2.577   3.835   2.172
    1C        C  697   2.508   3.637   2.299
    1C        C  698   2.523   3.713   2.418
    1C        C  699   2.489   3.503   2.543
    1C        C  700   2.505   3.643   2.539
    1C        C  701   2.503   3.434   2.665
    1C        C  702   2.507   3.510   2.784
    1C        C  703   2.531   3.303   2.911
    1C        C  704   2.505   3.442   2.907
    1C        C  705   2.549   3.235   3.034
    1C        C  706   2.530   3.306   3.155
    1C        C  707   2.600   3.109   3.279
    1C        C  708   2.547   3.239   3.278
    1C        C  709   2.635   3.046   3.401
    1C        C  710   2.610   3.115   3.521
    1C        C  711   2.710   2.933   3.650
    1C        C  712   2.635   3.052   3.645
    1C        C  713   2.759   2.879   3.771
    1C        C  714   2.707   2.931   3.892
    1C        C  715   2.751   2.878   4.014
    1C        C  716   2.448   3.497   2.063
    1C        C  717   2.486   3.632   2.062
    1C        C  718   2.464   3.421   2.183
    1C        C  719   2.487   3.497   2.301
    1C        C  720   2.512   3.287   2.424
    1C        C  721   2.487   3.427   2.424
    1C        C  722   2.531   3.222   2.547
    1C        C  723   2.525   3.294   2.668
    1C        C  724   2.592   3.096   2.790
    1C        C  725   2.540   3.227   2.792
    1C        C  726   2.620   3.033   2.913
    1C        C  727   2.593   3.101   3.034
    1C        C  728   2.704   2.923   3.159
    1C        C  729   2.628   3.042   3.158
    1C        C  730   2.756   2.874   3.281
    1C        C  731   2.714   2.929   3.405
    1C        C  732   2.752   2.873   3.529
    1C        C  733   2.485   3.195   2.069
    1C        C  734   2.489   3.280   2.180
    1C        C  735   2.584   3.087   2.305
    1C        C  736   2.527   3.218   2.302
    1C        C  737   2.617   3.022   2.426
    1C        C  738   2.587   3.092   2.545
    1C        C  739   2.698   2.912   2.670
    1C        C  740   2.624   3.032   2.668
    1C        C  741   2.740   2.856   2.792
    1C        C  742   2.701   2.917   2.913
    1C        C  743   2.745   2.865   3.037
    1C        C  744   2.547   3.070   2.073
    1C        C  745   2.683   2.895   2.183
    1C        C  746   2.611   3.017   2.186
    1C        C  747   2.726   2.838   2.305
    1C        C  748   2.690   2.902   2.426
    1C        C  749   2.735   2.849   2.549
    1C        C  750   2.734   2.837   2.067
    1C        C  751   3.668   2.310   1.989
    1C        O  752   3.670   2.188   2.019
    1C        O  753   3.652   2.330   1.852
    1C        C  754   4.629   3.054   1.982
    1C        O  755   4.582   3.009   1.874
    1C        O  756   4.765   3.087   1.985
    1C        C  757   4.454   4.228   1.974
    1C        O  758   4.569   4.271   2.003
    1C        O  759   4.398   4.289   1.861
    1C        C  760   3.578   4.652   1.935
    1C        O  761   3.614   4.770   1.960
    1C        O  762   3.603   4.619   1.801
    1C        C  763   2.887   4.492   1.941
    1C        O  764   2.941   4.487   1.827
    1C        O  765   2.834   4.622   1.946
    1C        C  766   2.339   3.472   1.966
    1C        O  767   2.347   3.435   1.846
    1C        O  768   2.205   3.497   1.997
    1C        C  769   4.698   3.603   5.054
    1C        O  770   4.671   3.581   5.174
    1C        O  771   4.835   3.599   5.022
    1C        C  772   4.272   4.476   5.021
    1C        O  773   4.287   4.458   5.145
    1C        O  774   4.374   4.550   4.960
    1C        C  775   4.138   2.499   5.063
    1C        O  776   4.172   2.383   5.029
    1C        O  777   4.227   2.558   5.154
    1C        C  778   2.889   4.528   5.069
    1C        O  779   2.811   4.623   5.043
    1C        O  780   2.899   4.509   5.207
    1C        C  781   2.450   3.044   5.054
    1C        O  782   2.364   2.969   5.001
    1C        O  783   2.471   3.019   5.190
    1C        C  784   2.405   4.011   5.043
    1C        O  785   2.318   4.100   5.022
    1C        O  786   2.392   3.955   5.170
    1C        C  787   2.966   2.447   1.976
    1C        O  788   2.980   2.466   1.852
    1C        O  789   2.920   2.318   2.000
    1C        C  790   3.164   2.369   5.060
    1C        O  791   3.147   2.254   5.011
    1C        O  792   3.110   2.377   5.189
    1C        H  793   4.248   3.038   5.038
    1C        H  794   4.221   2.796   5.073
    1C        H  795   4.499   3.133   5.064
    1C        H  796   4.489   3.376   5.061
    1C        H  797   4.573   3.821   5.038
    1C        H  798   4.367   3.950   5.043
    1C        H  799   4.319   4.182   5.055
    1C        H  800   4.021   4.538   5.026
    1C        H  801   3.810   4.573   5.044
    1C        H  802   3.591   4.640   5.031
    1C        H  803   3.400   4.447   5.020
    1C        H  804   3.157   4.483   5.055
    1C        H  805   3.876   2.514   5.069
    1C        H  806   3.670   2.435   5.069
    1C        H  807   2.990   2.538   5.054
    1C        H  808   3.449   2.472   5.082
    1C        H  809   2.857   2.715   5.076
    1C        H  810   2.749   2.934   5.069
    1C        H  811   2.589   3.301   5.066
    1C        H  812   2.548   3.511   5.076
    1C        H  813   2.575   3.721   5.060
    1C        H  814   2.610   4.169   5.050
    1C        H  815   2.757   4.319   5.055
    1C        H  816   2.677   2.845   1.977
    1C        H  817   2.872   2.711   1.974
    1C        H  818   3.195   2.381   2.016
    1C        H  819   3.425   2.462   1.982
    1C        H  820   3.813   2.601   2.004
    1C        H  821   4.082   2.557   1.997
    1C        H  822   4.269   2.697   1.986
    1C        H  823   4.399   2.896   1.966
    1C        H  824   4.526   3.315   1.966
    1C        H  825   4.468   3.519   1.960
    1C        H  826   4.576   3.741   1.979
    1C        H  827   3.801   4.526   1.949
    1C        H  828   3.961   4.374   1.946
    1C        H  829   4.124   4.211   1.961
    1C        H  830   4.473   3.953   1.964
    1C        H  831   2.620   3.842   1.960
    1C        H  832   2.731   4.037   1.959
    1C        H  833   2.704   4.312   1.979
    1C        H  834   3.382   4.436   1.963
    1C        H  835   3.162   4.374   1.964
    1C        H  836   2.536   3.011   1.985
    1C        H  837   2.444   3.223   1.974
    1C        H  838   2.487   3.678   1.965
    2V3OU   H29  839   2.805   3.539   0.742
    2V3OU   C27  840   2.783   3.501   0.846
    2V3OU   H27  841   2.726   3.578   0.902
    2V3OU   H28  842   2.725   3.405   0.840
    2V3OU   O11  843   2.910   3.475   0.907
    2V3OU   C15  844   2.921   3.399   1.022
    2V3OU   C13  845   3.051   3.374   1.072
    2V3OU   C14  846   3.076   3.270   1.162
    2V3OU   C16  847   2.971   3.192   1.208
    2V3OU    H6  848   2.988   3.104   1.271
    2V3OU   C12  849   3.217   3.230   1.184
    2V3OU    O2  850   3.242   3.124   1.246
    2V3OU   C10  851   3.329   3.308   1.128
    2V3OU    C8  852   3.460   3.271   1.154
    2V3OU   O10  853   3.490   3.149   1.206
    2V3OU   H26  854   3.400   3.121   1.228
    2V3OU    C6  855   3.565   3.351   1.098
    2V3OU    C5  856   3.536   3.468   1.029
    2V3OU    C4  857   3.701   3.293   1.088
    2V3OU    H4  858   3.726   3.222   1.173
    2V3OU    H5  859   3.712   3.224   0.999
    2V3OU    C2  860   3.815   3.395   1.084
    2V3OU    O6  861   3.812   3.474   1.203
    2V3OU   H21  862   3.764   3.555   1.180
    2V3OU    C3  863   3.775   3.500   0.980
    2V3OU    H2  864   3.854   3.580   0.982
    2V3OU    H3  865   3.779   3.443   0.884
    2V3OU   C25  866   3.950   3.325   1.065
    2V3OU    O7  867   4.000   3.302   0.955
    2V3OU   C26  868   4.026   3.287   1.191
    2V3OU   H22  869   4.063   3.384   1.232
    2V3OU   H23  870   4.116   3.225   1.164
    2V3OU    O8  871   3.965   3.206   1.289
    2V3OU   H24  872   3.922   3.271   1.346
    2V3OU    C1  873   3.641   3.569   0.992
    2V3OU    H1  874   3.623   3.622   0.893
    2V3OU    O3  875   3.659   3.654   1.106
    2V3OU   C19  876   3.618   3.790   1.094
    2V3OU    H9  877   3.528   3.804   1.026
    2V3OU    O4  878   3.717   3.851   1.013
    2V3OU   C20  879   3.851   3.878   1.055
    2V3OU   H10  880   3.888   3.776   1.086
    2V3OU   C24  881   3.610   3.855   1.232
    2V3OU   H16  882   3.547   3.792   1.300
    2V3OU   H17  883   3.565   3.956   1.216
    2V3OU   C23  884   3.750   3.878   1.290
    2V3OU   H15  885   3.786   3.773   1.316
    2V3OU    N1  886   3.736   3.959   1.410
    2V3OU   H19  887   3.809   3.924   1.469
    2V3OU   H20  888   3.649   3.943   1.455
    2V3OU   C21  889   3.851   3.946   1.192
    2V3OU   H11  890   3.951   3.927   1.240
    2V3OU    O5  891   3.824   4.086   1.193
    2V3OU   H18  892   3.776   4.101   1.276
    2V3OU   C22  893   3.916   3.951   0.939
    2V3OU   H12  894   3.861   4.047   0.923
    2V3OU   H13  895   3.905   3.892   0.845
    2V3OU   H14  896   4.026   3.958   0.958
    2V3OU   C11  897   3.157   3.470   1.038
    2V3OU    O1  898   3.133   3.586   0.997
    2V3OU    C9  899   3.297   3.428   1.059
    2V3OU    C7  900   3.400   3.508   1.011
    2V3OU    O9  901   3.387   3.615   0.925
    2V3OU   H25  902   3.290   3.626   0.920
    2V3OU   C17  903   2.820   3.316   1.075
    2V3OU    H7  904   2.716   3.336   1.050
    2V3OU   C18  905   2.840   3.214   1.167
    2V3OU    H8  906   2.762   3.153   1.215
    3SOL     OW  907   0.438   4.756   1.049
    3SOL    HW1  908   0.359   4.805   1.012
    3SOL    HW2  909   0.418   4.658   1.052
    4SOL     OW  910   5.910   0.835   2.081
    4SOL    HW1  911   5.833   0.783   2.046
    4SOL    HW2  912   5.946   0.894   2.009
    5SOL     OW  913   3.666   2.956   1.050
    5SOL    HW1  914   3.610   2.975   0.970
    5SOL    HW2  915   3.630   3.004   1.129
    6SOL     OW  916   3.168   2.318   0.293
    6SOL    HW1  917   3.079   2.272   0.285
    6SOL    HW2  918   3.223   2.299   0.212
    7SOL     OW  919   5.289   0.830   1.922
    7SOL    HW1  920   5.251   0.917   1.892
    7SOL    HW2  921   5.343   0.790   1.848
    8SOL     OW  922   3.102   2.078   3.348
    8SOL    HW1  923   3.069   2.147   3.283
    8SOL    HW2  924   3.175   2.117   3.404
    9SOL     OW  925   6.230   4.369   6.459
    9SOL    HW1  926   6.245   4.439   6.389
    9SOL    HW2  927   6.272   4.398   6.545
   10SOL     OW  928   6.974   4.571   1.369
   10SOL    HW1  929   7.007   4.523   1.451
   10SOL    HW2  930   0.027   4.620   1.326
   11SOL     OW  931   4.003   6.568   6.958
   11SOL    HW1  932   4.083   6.509   6.969
   11SOL    HW2  933   3.926   6.531   7.010
   12SOL     OW  934   5.807   6.958   2.106
   12SOL    HW1  935   5.897   7.001   2.099
   12SOL    HW2  936   5.772   6.940   2.014
   13SOL     OW  937   2.243   0.103   2.484
   13SOL    HW1  938   2.225   0.005   2.487
   13SOL    HW2  939   2.337   0.119   2.454
   14SOL     OW  940   3.151   0.421   3.365
   14SOL    HW1  941   3.216   0.493   3.388
   14SOL    HW2  942   3.194   0.356   3.302
   15SOL     OW  943   2.701   6.544   6.074
   15SOL    HW1  944   2.694   6.446   6.088
   15SOL    HW2  945   2.721   6.563   5.977
   16SOL     OW  946   6.398   2.447   0.455
   16SOL    HW1  947   6.448   2.442   0.368
   16SOL    HW2  948   6.302   2.424   0.439
   17SOL     OW  949   3.767   5.764   2.994
   17SOL    HW1  950   3.678   5.718   2.987
   17SOL    HW2  951   3.754   5.863   2.989
   18SOL     OW  952   1.691   0.524   6.828
   18SOL    HW1  953   1.648   0.559   6.745
   18SOL    HW2  954   1.639   0.555   6.908
   19SOL     OW  955   0.950   6.927   1.184
   19SOL    HW1  956   0.919   6.909   1.090
   19SOL    HW2  957   0.872   6.922   1.246
   20SOL     OW  958   3.455   0.414   4.271
   20SOL    HW1  959   3.419   0.436   4.361
   20SOL    HW2  960   3.555   0.420   4.273
   21SOL     OW  961   3.006   3.348   1.541
   21SOL    HW1  962   2.983   3.253   1.558
   21SOL    HW2  963   3.105   3.356   1.525
   22SOL     OW  964   1.590   1.418   5.455
   22SOL    HW1  965   1.499   1.393   5.422
   22SOL    HW2  966   1.653   1.341   5.439
   23SOL     OW  967   2.699   6.449   4.793
   23SOL    HW1  968   2.624   6.394   4.831
   23SOL    HW2  969   2.768   6.463   4.864
   24SOL     OW  970   4.582   1.488   5.069
   24SOL    HW1  971   4.606   1.547   4.992
   24SOL    HW2  972   4.483   1.475   5.072
   25SOL     OW  973   2.411   5.941   0.811
   25SOL    HW1  974   2.447   5.868   0.753
   25SOL    HW2  975   2.377   5.902   0.896
   26SOL     OW  976   5.528   0.719   3.070
   26SOL    HW1  977   5.595   0.792   3.081
   26SOL    HW2  978   5.566   0.633   3.105
   27SOL     OW  979   5.986   0.231   2.704
   27SOL    HW1  980   5.939   0.307   2.748
   27SOL    HW2  981   6.056   0.266   2.641
   28SOL     OW  982   2.596   1.221   0.125
   28SOL    HW1  983   2.553   1.215   0.035
   28SOL    HW2  984   2.525   1.221   0.196
   29SOL     OW  985   4.828   3.013   1.674
   29SOL    HW1  986   4.769   3.047   1.748
   29SOL    HW2  987   4.861   2.922   1.697
   30SOL     OW  988   4.111   1.450   5.984
   30SOL    HW1  989   4.061   1.451   5.898
   30SOL    HW2  990   4.210   1.455   5.966
   31SOL     OW  991   0.666   1.767   5.266
   31SOL    HW1  992   0.758   1.756   5.229
   31SOL    HW2  993   0.602   1.781   5.190
   32SOL     OW  994   6.342   1.930   2.148
   32SOL    HW1  995   6.429   1.912   2.193
   32SOL    HW2  996   6.332   2.029   2.133
   33SOL     OW  997   1.559   1.237   5.091
   33SOL    HW1  998   1.634   1.287   5.047
   33SOL    HW2  999   1.592   1.197   5.176
   34SOL     OW 1000   1.007   0.955   4.959
   34SOL    HW1 1001   0.916   0.987   4.985
   34SOL    HW2 1002   1.062   1.033   4.929
   35SOL     OW 1003   4.857   2.234   6.222
   35SOL    HW1 1004   4.877   2.146   6.265
   35SOL    HW2 1005   4.929   2.300   6.246
   36SOL     OW 1006   0.968   2.204   5.793
   36SOL    HW1 1007   1.024   2.273   5.839
   36SOL    HW2 1008   0.915   2.154   5.860
   37SOL     OW 1009   3.331   6.607   1.780
   37SOL    HW1 1010   3.339   6.704   1.759
   37SOL    HW2 1011   3.313   6.595   1.878
   38SOL     OW 1012   6.796   5.691   1.778
   38SOL    HW1 1013   6.760   5.743   1.700
   38SOL    HW2 1014   6.873   5.741   1.818
   39SOL     OW 1015   6.987   2.617   6.655
   39SOL    HW1 1016   0.049   2.590   6.610
   39SOL    HW2 1017   7.000   2.705   6.702
   40SOL     OW 1018   0.363   1.460   1.967
   40SOL    HW1 1019   0.317   1.486   2.051
   40SOL    HW2 1020   0.296   1.422   1.903
   41SOL     OW 1021   0.930   1.095   5.875
   41SOL    HW1 1022   0.960   1.125   5.965
   41SOL    HW2 1023   0.897   1.174   5.823
   42SOL     OW 1024   3.865   6.977   0.428
   42SOL    HW1 1025   3.922   6.906   0.387
   42SOL    HW2 1026   3.850   0.027   0.362
   43SOL     OW 1027   4.594   5.600   5.208
   43SOL    HW1 1028   4.633   5.661   5.277
   43SOL    HW2 1029   4.660   5.528   5.186
   44SOL     OW 1030   1.121   3.937   0.350
   44SOL    HW1 1031   1.204   3.988   0.372
   44SOL    HW2 1032   1.045   3.973   0.404
   45SOL     OW 1033   2.131   0.148   1.452
   45SOL    HW1 1034   2.075   0.124   1.531
   45SOL    HW2 1035   2.078   0.210   1.392
   46SOL     OW 1036   0.960   5.421   3.547
   46SOL    HW1 1037   0.980   5.518   3.531
   46SOL    HW2 1038   0.940   5.376   3.460
   47SOL     OW 1039   6.149   4.508   2.839
   47SOL    HW1 1040   6.080   4.453   2.885
   47SOL    HW2 1041   6.227   4.450   2.815
   48SOL     OW 1042   0.730   1.183   5.461
   48SOL    HW1 1043   0.795   1.202   5.387
   48SOL    HW2 1044   0.713   1.266   5.513
   49SOL     OW 1045   5.962   3.274   0.112
   49SOL    HW1 1046   5.873   3.251   0.152
   49SOL    HW2 1047   6.030   3.281   0.185
   50SOL     OW 1048   0.520   3.957   4.445
   50SOL    HW1 1049   0.576   4.029   4.487
   50SOL    HW2 1050   0.561   3.929   4.359
   51SOL     OW 1051   3.065   5.640   2.185
   51SOL    HW1 1052   3.135   5.704   2.215
   51SOL    HW2 1053   2.976   5.685   2.184
   52SOL     OW 1054   0.433   2.353   1.714
   52SOL    HW1 1055   0.431   2.439   1.663
   52SOL    HW2 1056   0.513   2.352   1.774
   53SOL     OW 1057   4.447   6.674   3.941
   53SOL    HW1 1058   4.529   6.652   3.888
   53SOL    HW2 1059   4.464   6.755   3.997
   54SOL     OW 1060   4.731   4.454   5.535
   54SOL    HW1 1061   4.781   4.473   5.620
   54SOL    HW2 1062   4.796   4.431   5.463
   55SOL     OW 1063   3.755   2.289   1.239
   55SOL    HW1 1064   3.731   2.374   1.286
   55SOL    HW2 1065   3.817   2.235   1.297
   56SOL     OW 1066   0.493   0.316   1.993
   56SOL    HW1 1067   0.479   0.302   2.091
   56SOL    HW2 1068   0.546   0.239   1.956
   57SOL     OW 1069   5.145   0.688   0.423
   57SOL    HW1 1070   5.218   0.737   0.470
   57SOL    HW2 1071   5.067   0.677   0.485
   58SOL     OW 1072   6.553   0.648   6.951
   58SOL    HW1 1073   6.618   0.627   0.001
   58SOL    HW2 1074   6.572   0.592   6.871
   59SOL     OW 1075   0.478   6.860   5.658
   59SOL    HW1 1076   0.480   6.947   5.706
   59SOL    HW2 1077   0.384   6.833   5.640
   60SOL     OW 1078   4.874   6.772   4.979
   60SOL    HW1 1079   4.787   6.820   4.991
   60SOL    HW2 1080   4.860   6.673   4.989
   61SOL     OW 1081   3.728   6.801   5.330
   61SOL    HW1 1082   3.630   6.813   5.347
   61SOL    HW2 1083   3.744   6.709   5.294
   62SOL     OW 1084   2.754   0.296   4.740
   62SOL    HW1 1085   2.673   0.354   4.725
   62SOL    HW2 1086   2.835   0.345   4.707
   63SOL     OW 1087   6.712   2.896   4.033
   63SOL    HW1 1088   6.803   2.936   4.029
   63SOL    HW2 1089   6.710   2.825   4.104
   64SOL     OW 1090   6.807   2.515   5.389
   64SOL    HW1 1091   6.716   2.522   5.431
   64SOL    HW2 1092   6.828   2.418   5.371
   65SOL     OW 1093   1.148   3.984   5.728
   65SOL    HW1 1094   1.092   4.066   5.715
   65SOL    HW2 1095   1.170   3.945   5.638
   66SOL     OW 1096   2.493   0.910   1.445
   66SOL    HW1 1097   2.423   0.977   1.424
   66SOL    HW2 1098   2.535   0.932   1.533
   67SOL     OW 1099   4.447   5.353   3.998
   67SOL    HW1 1100   4.414   5.316   4.085
   67SOL    HW2 1101   4.511   5.428   4.016
   68SOL     OW 1102   5.249   3.019   6.538
   68SOL    HW1 1103   5.161   3.031   6.585
   68SOL    HW2 1104   5.232   3.008   6.440
   69SOL     OW 1105   2.463   2.934   5.659
   69SOL    HW1 1106   2.461   3.034   5.664
   69SOL    HW2 1107   2.498   2.905   5.570
   70SOL     OW 1108   5.728   0.228   2.383
   70SOL    HW1 1109   5.722   0.325   2.405
   70SOL    HW2 1110   5.753   0.177   2.465
   71SOL     OW 1111   1.641   4.357   2.189
   71SOL    HW1 1112   1.644   4.330   2.285
   71SOL    HW2 1113   1.707   4.303   2.137
   72SOL     OW 1114   4.130   5.385   3.569
   72SOL    HW1 1115   4.138   5.413   3.474
   72SOL    HW2 1116   4.105   5.289   3.574
   73SOL     OW 1117   3.245   3.228   6.707
   73SOL    HW1 1118   3.206   3.237   6.799
   73SOL    HW2 1119   3.215   3.141   6.667
   74SOL     OW 1120   5.285   0.263   5.979
   74SOL    HW1 1121   5.217   0.189   5.975
   74SOL    HW2 1122   5.347   0.255   5.901
   75SOL     OW 1123   3.884   5.366   5.493
   75SOL    HW1 1124   3.961   5.314   5.531
   75SOL    HW2 1125   3.804   5.355   5.552
   76SOL     OW 1126   2.753   2.868   0.972
   76SOL    HW1 1127   2.817   2.807   1.019
   76SOL    HW2 1128   2.720   2.937   1.037
   77SOL     OW 1129   5.836   4.063   6.552
   77SOL    HW1 1130   5.855   4.048   6.649
   77SOL    HW2 1131   5.908   4.120   6.512
   78SOL     OW 1132   6.120   0.074   5.792
   78SOL    HW1 1133   6.197   0.065   5.729
   78SOL    HW2 1134   6.057   0.143   5.758
   79SOL     OW 1135   3.243   6.790   1.044
   79SOL    HW1 1136   3.329   6.748   1.073
   79SOL    HW2 1137   3.251   6.890   1.048
   80SOL     OW 1138   0.473   0.872   4.215
   80SOL    HW1 1139   0.449   0.842   4.308
   80SOL    HW2 1140   0.428   0.813   4.148
   81SOL     OW 1141   1.937   6.646   3.114
   81SOL    HW1 1142   1.860   6.666   3.053
   81SOL    HW2 1143   1.964   6.551   3.104
   82SOL     OW 1144   6.534   4.924   5.861
   82SOL    HW1 1145   6.590   4.884   5.933
   82SOL    HW2 1146   6.491   4.851   5.808
   83SOL     OW 1147   6.192   6.568   5.301
   83SOL    HW1 1148   6.159   6.481   5.265
   83SOL    HW2 1149   6.139   6.643   5.262
   84SOL     OW 1150   6.688   3.527   2.078
   84SOL    HW1 1151   6.733   3.602   2.028
   84SOL    HW2 1152   6.652   3.562   2.164
   85SOL     OW 1153   1.299   1.184   5.109
   85SOL    HW1 1154   1.397   1.199   5.102
   85SOL    HW2 1155   1.260   1.178   5.017
   86SOL     OW 1156   2.171   1.087   4.632
   86SOL    HW1 1157   2.154   1.179   4.595
   86SOL    HW2 1158   2.198   1.095   4.729
   87SOL     OW 1159   4.640   6.817   1.822
   87SOL    HW1 1160   4.728   6.839   1.781
   87SOL    HW2 1161   4.651   6.741   1.886
   88SOL     OW 1162   6.033   0.557   1.792
   88SOL    HW1 1163   5.992   0.495   1.859
   88SOL    HW2 1164   6.012   0.525   1.700
   89SOL     OW 1165   2.223   1.924   5.199
   89SOL    HW1 1166   2.288   1.908   5.125
   89SOL    HW2 1167   2.216   1.842   5.256
   90SOL     OW 1168   6.120   6.193   3.731
   90SOL    HW1 1169   6.032   6.152   3.705
   90SOL    HW2 1170   6.107   6.253   3.810
   91SOL     OW 1171   4.825   4.933   4.410
   91SOL    HW1 1172   4.834   5.032   4.413
   91SOL    HW2 1173   4.729   4.909   4.394
   92SOL     OW 1174   3.642   5.740   1.435
   92SOL    HW1 1175   3.571   5.687   1.389
   92SOL    HW2 1176   3.613   5.835   1.443
   93SOL     OW 1177   3.140   4.962   5.860
   93SOL    HW1 1178   3.122   4.948   5.957
   93SOL    HW2 1179   3.211   5.032   5.848
   94SOL     OW 1180   1.777   6.676   1.949
   94SOL    HW1 1181   1.837   6.729   2.009
   94SOL    HW2 1182   1.815   6.584   1.936
   95SOL     OW 1183   6.878   6.981   4.835
   95SOL    HW1 1184   6.946   6.918   4.798
   95SOL    HW2 1185   6.885   6.984   4.935
   96SOL     OW 1186   1.255   6.556   4.866
   96SOL    HW1 1187   1.268   6.617   4.788
   96SOL    HW2 1188   1.264   6.461   4.835
   97SOL     OW 1189   6.157   2.234   4.241
   97SOL    HW1 1190   6.245   2.225   4.288
   97SOL    HW2 1191   6.171   2.238   4.142
   98SOL     OW 1192   4.498   0.570   5.440
   98SOL    HW1 1193   4.408   0.607   5.419
   98SOL    HW2 1194   4.566   0.609   5.378
   99SOL     OW 1195   4.647   1.073   0.750
   99SOL    HW1 1196   4.680   1.064   0.656
   99SOL    HW2 1197   4.616   0.984   0.784
  100SOL     OW 1198   6.610   5.540   6.991
  100SOL    HW1 1199   6.559   5.588   6.920
  100SOL    HW2 1200   6.564   5.455   7.014
  101SOL     OW 1201   1.460   6.944   3.843
  101SOL    HW1 1202   1.443   0.008   3.798
  101SOL    HW2 1203   1.534   6.954   3.909
  102SOL     OW 1204   4.286   0.623   2.541
  102SOL    HW1 1205   4.339   0.619   2.625
  102SOL    HW2 1206   4.325   0.690   2.478
  103SOL     OW 1207   3.909   1.544   1.901
  103SOL    HW1 1208   3.994   1.531   1.953
  103SOL    HW2 1209   3.880   1.639   1.908
  104SOL     OW 1210   6.026   6.374   2.401
  104SOL    HW1 1211   5.960   6.301   2.416
  104SOL    HW2 1212   6.109   6.357   2.455
  105SOL     OW 1213   5.697   0.702   6.284
  105SOL    HW1 1214   5.709   0.603   6.272
  105SOL    HW2 1215   5.607   0.729   6.251
  106SOL     OW 1216   3.719   6.797   1.423
  106SOL    HW1 1217   3.801   6.853   1.411
  106SOL    HW2 1218   3.642   6.839   1.375
  107SOL     OW 1219   2.572   3.313   0.105
  107SOL    HW1 1220   2.559   3.229   0.052
  107SOL    HW2 1221   2.485   3.340   0.147
  108SOL     OW 1222   4.756   4.143   5.505
  108SOL    HW1 1223   4.778   4.050   5.476
  108SOL    HW2 1224   4.818   4.171   5.578
  109SOL     OW 1225   6.224   0.640   2.290
  109SOL    HW1 1226   6.177   0.726   2.307
  109SOL    HW2 1227   6.313   0.640   2.336
  110SOL     OW 1228   3.316   6.466   4.426
  110SOL    HW1 1229   3.361   6.551   4.451
  110SOL    HW2 1230   3.325   6.452   4.327
  111SOL     OW 1231   3.005   1.390   2.965
  111SOL    HW1 1232   2.987   1.328   3.041
  111SOL    HW2 1233   2.926   1.391   2.904
  112SOL     OW 1234   0.089   1.818   6.514
  112SOL    HW1 1235   0.090   1.723   6.545
  112SOL    HW2 1236   0.001   1.837   6.470
  113SOL     OW 1237   6.797   6.848   3.786
  113SOL    HW1 1238   6.805   6.749   3.775
  113SOL    HW2 1239   6.882   6.885   3.824
  114SOL     OW 1240   1.241   6.439   0.263
  114SOL    HW1 1241   1.175   6.400   0.198
  114SOL    HW2 1242   1.259   6.374   0.336
  115SOL     OW 1243   5.256   1.072   5.330
  115SOL    HW1 1244   5.171   1.034   5.366
  115SOL    HW2 1245   5.323   0.999   5.319
  116SOL     OW 1246   6.193   4.021   2.950
  116SOL    HW1 1247   6.164   3.968   3.029
  116SOL    HW2 1248   6.218   3.960   2.875
  117SOL     OW 1249   0.619   6.805   6.214
  117SOL    HW1 1250   0.689   6.752   6.168
  117SOL    HW2 1251   0.564   6.855   6.147
  118SOL     OW 1252   2.175   0.997   3.111
  118SOL    HW1 1253   2.238   1.068   3.141
  118SOL    HW2 1254   2.182   0.918   3.173
  119SOL     OW 1255   6.943   2.353   6.504
  119SOL    HW1 1256   7.012   2.398   6.447
  119SOL    HW2 1257   6.920   2.412   6.581
  120SOL     OW 1258   4.804   5.997   1.721
  120SOL    HW1 1259   4.822   5.900   1.733
  120SOL    HW2 1260   4.821   6.045   1.807
  121SOL     OW 1261   2.778   3.152   5.903
  121SOL    HW1 1262   2.748   3.193   5.816
  121SOL    HW2 1263   2.700   3.108   5.947
  122SOL     OW 1264   1.105   3.333   4.942
  122SOL    HW1 1265   1.049   3.251   4.955
  122SOL    HW2 1266   1.083   3.374   4.853
  123SOL     OW 1267   6.542   1.770   1.902
  123SOL    HW1 1268   6.581   1.860   1.881
  123SOL    HW2 1269   6.615   1.701   1.903
  124SOL     OW 1270   5.099   3.877   1.189
  124SOL    HW1 1271   5.052   3.964   1.171
  124SOL    HW2 1272   5.123   3.873   1.286
  125SOL     OW 1273   2.464   3.552   1.657
  125SOL    HW1 1274   2.468   3.651   1.672
  125SOL    HW2 1275   2.419   3.508   1.735
  126SOL     OW 1276   4.010   4.336   0.313
  126SOL    HW1 1277   4.076   4.288   0.255
  126SOL    HW2 1278   3.985   4.422   0.270
  127SOL     OW 1279   0.706   5.525   5.656
  127SOL    HW1 1280   0.762   5.442   5.655
  127SOL    HW2 1281   0.619   5.507   5.610
  128SOL     OW 1282   4.786   2.405   0.452
  128SOL    HW1 1283   4.762   2.316   0.414
  128SOL    HW2 1284   4.765   2.476   0.385
  129SOL     OW 1285   2.730   3.600   0.123
  129SOL    HW1 1286   2.822   3.609   0.161
  129SOL    HW2 1287   2.672   3.673   0.160
  130SOL     OW 1288   1.591   2.172   4.764
  130SOL    HW1 1289   1.593   2.218   4.852
  130SOL    HW2 1290   1.599   2.073   4.778
  131SOL     OW 1291   5.905   1.052   2.374
  131SOL    HW1 1292   5.898   1.114   2.295
  131SOL    HW2 1293   5.826   0.991   2.374
  132SOL     OW 1294   0.583   2.334   1.955
  132SOL    HW1 1295   0.554   2.239   1.970
  132SOL    HW2 1296   0.637   2.364   2.034
  133SOL     OW 1297   6.943   6.080   2.989
  133SOL    HW1 1298   6.898   6.067   3.077
  133SOL    HW2 1299   6.948   5.992   2.941
  134SOL     OW 1300   1.049   3.292   3.108
  134SOL    HW1 1301   1.047   3.199   3.072
  134SOL    HW2 1302   1.139   3.332   3.090
  135SOL     OW 1303   4.438   0.890   4.257
  135SOL    HW1 1304   4.498   0.941   4.195
  135SOL    HW2 1305   4.467   0.795   4.260
  136SOL     OW 1306   5.073   4.732   6.445
  136SOL    HW1 1307   5.077   4.648   6.390
  136SOL    HW2 1308   4.985   4.777   6.430
  137SOL     OW 1309   3.711   0.819   5.512
  137SOL    HW1 1310   3.739   0.767   5.432
  137SOL    HW2 1311   3.787   0.874   5.546
  138SOL     OW 1312   5.619   4.377   5.762
  138SOL    HW1 1313   5.646   4.345   5.854
  138SOL    HW2 1314   5.585   4.300   5.709
  139SOL     OW 1315   3.434   5.783   5.866
  139SOL    HW1 1316   3.457   5.728   5.786
  139SOL    HW2 1317   3.467   5.737   5.949
  140SOL     OW 1318   6.167   3.909   4.704
  140SOL    HW1 1319   6.218   3.891   4.788
  140SOL    HW2 1320   6.159   3.824   4.652
  141SOL     OW 1321   1.370   1.910   2.268
  141SOL    HW1 1322   1.416   1.944   2.350
  141SOL    HW2 1323   1.430   1.847   2.220
  142SOL     OW 1324   1.294   5.442   1.300
  142SOL    HW1 1325   1.357   5.363   1.301
  142SOL    HW2 1326   1.200   5.409   1.310
  143SOL     OW 1327   4.988   4.358   2.009
  143SOL    HW1 1328   4.938   4.285   2.057
  143SOL    HW2 1329   5.030   4.419   2.077
  144SOL     OW 1330   2.936   7.000   1.146
  144SOL    HW1 1331   2.878   6.920   1.153
  144SOL    HW2 1332   3.001   6.987   1.071
  145SOL     OW 1333   6.562   5.474   0.649
  145SOL    HW1 1334   6.634   5.543   0.644
  145SOL    HW2 1335   6.539   5.443   0.557
  146SOL     OW 1336   0.046   4.762   0.816
  146SOL    HW1 1337   7.006   4.749   0.739
  146SOL    HW2 1338   0.099   4.845   0.802
  147SOL     OW 1339   5.631   2.506   0.960
  147SOL    HW1 1340   5.554   2.569   0.951
  147SOL    HW2 1341   5.717   2.558   0.959
  148SOL     OW 1342   1.070   5.593   5.369
  148SOL    HW1 1343   1.115   5.545   5.443
  148SOL    HW2 1344   1.060   5.690   5.392
  149SOL     OW 1345   3.009   1.037   5.913
  149SOL    HW1 1346   2.946   1.110   5.938
  149SOL    HW2 1347   3.082   1.074   5.855
  150SOL     OW 1348   6.943   5.933   5.051
  150SOL    HW1 1349   6.891   5.848   5.064
  150SOL    HW2 1350   6.880   6.011   5.048
  151SOL     OW 1351   4.406   0.689   2.253
  151SOL    HW1 1352   4.407   0.695   2.153
  151SOL    HW2 1353   4.382   0.596   2.281
  152SOL     OW 1354   2.973   0.721   4.483
  152SOL    HW1 1355   3.047   0.759   4.539
  152SOL    HW2 1356   2.945   0.789   4.416
  153SOL     OW 1357   1.067   0.368   2.547
  153SOL    HW1 1358   1.112   0.393   2.633
  153SOL    HW2 1359   1.133   0.326   2.485
  154SOL     OW 1360   0.313   1.889   3.045
  154SOL    HW1 1361   0.398   1.895   3.098
  154SOL    HW2 1362   0.297   1.976   2.998
  155SOL     OW 1363   0.271   1.014   3.393
  155SOL    HW1 1364   0.366   1.027   3.365
  155SOL    HW2 1365   0.214   0.996   3.313
  156SOL     OW 1366   6.914   2.377   1.261
  156SOL    HW1 1367   6.959   2.459   1.297
  156SOL    HW2 1368   6.977   2.299   1.267
  157SOL     OW 1369   0.226   2.667   2.722
  157SOL    HW1 1370   0.210   2.638   2.816
  157SOL    HW2 1371   0.188   2.599   2.659
  158SOL     OW 1372   2.179   1.568   3.566
  158SOL    HW1 1373   2.145   1.612   3.483
  158SOL    HW2 1374   2.165   1.629   3.645
  159SOL     OW 1375   5.030   3.475   1.698
  159SOL    HW1 1376   4.966   3.425   1.756
  159SOL    HW2 1377   5.004   3.571   1.694
  160SOL     OW 1378   5.990   4.647   6.453
  160SOL    HW1 1379   6.071   4.608   6.498
  160SOL    HW2 1380   5.998   4.747   6.452
  161SOL     OW 1381   2.870   4.712   5.361
  161SOL    HW1 1382   2.891   4.636   5.299
  161SOL    HW2 1383   2.931   4.709   5.440
  162SOL     OW 1384   4.647   5.852   2.487
  162SOL    HW1 1385   4.638   5.850   2.586
  162SOL    HW2 1386   4.732   5.807   2.460
  163SOL     OW 1387   6.191   0.266   1.558
  163SOL    HW1 1388   6.094   0.277   1.539
  163SOL    HW2 1389   6.239   0.243   1.473
  164SOL     OW 1390   6.459   3.097   1.251
  164SOL    HW1 1391   6.552   3.097   1.213
  164SOL    HW2 1392   6.438   3.187   1.288
  165SOL     OW 1393   6.094   3.568   6.869
  165SOL    HW1 1394   6.019   3.605   6.923
  165SOL    HW2 1395   6.130   3.485   6.913
  166SOL     OW 1396   1.606   0.060   0.459
  166SOL    HW1 1397   1.551   0.020   0.532
  166SOL    HW2 1398   1.623   0.156   0.479
  167SOL     OW 1399   6.523   2.817   1.311
  167SOL    HW1 1400   6.493   2.912   1.302
  167SOL    HW2 1401   6.484   2.778   1.395
  168SOL     OW 1402   2.447   5.599   1.309
  168SOL    HW1 1403   2.510   5.585   1.233
  168SOL    HW2 1404   2.465   5.688   1.351
  169SOL     OW 1405   0.976   0.210   1.371
  169SOL    HW1 1406   0.965   0.159   1.286
  169SOL    HW2 1407   0.989   0.307   1.350
  170SOL     OW 1408   0.105   1.754   3.321
  170SOL    HW1 1409   0.113   1.679   3.386
  170SOL    HW2 1410   0.179   1.749   3.254
  171SOL     OW 1411   3.486   3.979   0.560
  171SOL    HW1 1412   3.513   3.920   0.637
  171SOL    HW2 1413   3.556   4.048   0.545
  172SOL     OW 1414   0.075   2.913   2.148
  172SOL    HW1 1415   0.175   2.917   2.144
  172SOL    HW2 1416   0.043   2.951   2.234
  173SOL     OW 1417   6.866   6.527   5.909
  173SOL    HW1 1418   6.929   6.508   5.984
  173SOL    HW2 1419   6.779   6.559   5.945
  174SOL     OW 1420   2.436   5.888   3.774
  174SOL    HW1 1421   2.469   5.981   3.759
  174SOL    HW2 1422   2.352   5.891   3.828
  175SOL     OW 1423   0.326   5.008   3.762
  175SOL    HW1 1424   0.253   4.998   3.694
  175SOL    HW2 1425   0.409   4.965   3.728
  176SOL     OW 1426   2.913   5.433   0.052
  176SOL    HW1 1427   2.826   5.432   0.101
  176SOL    HW2 1428   2.948   5.526   0.046
  177SOL     OW 1429   4.549   1.535   2.711
  177SOL    HW1 1430   4.570   1.446   2.751
  177SOL    HW2 1431   4.450   1.550   2.711
  178SOL     OW 1432   5.399   3.821   6.269
  178SOL    HW1 1433   5.364   3.728   6.258
  178SOL    HW2 1434   5.348   3.867   6.342
  179SOL     OW 1435   2.913   6.787   0.133
  179SOL    HW1 1436   2.852   6.708   0.145
  179SOL    HW2 1437   2.920   6.810   0.036
  180SOL     OW 1438   1.216   2.277   6.824
  180SOL    HW1 1439   1.185   2.324   6.907
  180SOL    HW2 1440   1.164   2.193   6.812
  181SOL     OW 1441   2.978   3.578   3.773
  181SOL    HW1 1442   3.072   3.568   3.805
  181SOL    HW2 1443   2.918   3.518   3.826
  182SOL     OW 1444   5.444   2.538   5.072
  182SOL    HW1 1445   5.369   2.576   5.017
  182SOL    HW2 1446   5.407   2.501   5.157
  183SOL     OW 1447   6.251   1.307   2.605
  183SOL    HW1 1448   6.162   1.275   2.636
  183SOL    HW2 1449   6.278   1.258   2.522
  184SOL     OW 1450   0.319   4.886   2.454
  184SOL    HW1 1451   0.352   4.908   2.362
  184SOL    HW2 1452   0.397   4.880   2.516
  185SOL     OW 1453   3.039   3.899   5.942
  185SOL    HW1 1454   3.033   3.921   5.845
  185SOL    HW2 1455   3.054   3.800   5.953
  186SOL     OW 1456   6.178   6.648   3.550
  186SOL    HW1 1457   6.086   6.628   3.584
  186SOL    HW2 1458   6.195   6.597   3.466
  187SOL     OW 1459   5.632   0.058   4.440
  187SOL    HW1 1460   5.651   0.021   4.348
  187SOL    HW2 1461   5.662   7.015   4.508
  188SOL     OW 1462   6.206   2.008   4.996
  188SOL    HW1 1463   6.254   2.094   4.983
  188SOL    HW2 1464   6.188   1.993   5.093
  189SOL     OW 1465   1.919   4.640   3.440
  189SOL    HW1 1466   2.007   4.594   3.426
  189SOL    HW2 1467   1.915   4.722   3.384
  190SOL     OW 1468   3.662   1.277   7.016
  190SOL    HW1 1469   3.571   1.238   0.006
  190SOL    HW2 1470   3.666   1.322   6.927
  191SOL     OW 1471   5.376   5.920   6.262
  191SOL    HW1 1472   5.448   5.855   6.238
  191SOL    HW2 1473   5.376   5.936   6.361
  192SOL     OW 1474   5.882   0.697   6.788
  192SOL    HW1 1475   5.854   0.784   6.747
  192SOL    HW2 1476   5.818   0.674   6.862
  193SOL     OW 1477   6.221   3.845   6.989
  193SOL    HW1 1478   6.254   3.805   0.051
  193SOL    HW2 1479   6.221   3.776   6.917
  194SOL     OW 1480   4.252   0.086   4.933
  194SOL    HW1 1481   4.237   0.184   4.943
  194SOL    HW2 1482   4.186   0.036   4.991
  195SOL     OW 1483   0.145   5.846   3.397
  195SOL    HW1 1484   0.179   5.811   3.484
  195SOL    HW2 1485   0.221   5.878   3.341
  196SOL     OW 1486   0.722   1.016   1.002
  196SOL    HW1 1487   0.718   0.934   1.058
  196SOL    HW2 1488   0.736   0.990   0.906
  197SOL     OW 1489   1.988   1.017   0.887
  197SOL    HW1 1490   2.034   0.983   0.968
  197SOL    HW2 1491   2.011   0.959   0.808
  198SOL     OW 1492   2.637   1.376   4.517
  198SOL    HW1 1493   2.578   1.427   4.580
  198SOL    HW2 1494   2.581   1.326   4.451
  199SOL     OW 1495   1.315   0.993   4.395
  199SOL    HW1 1496   1.386   0.989   4.465
  199SOL    HW2 1497   1.292   1.089   4.376
  200SOL     OW 1498   6.399   2.001   0.615
  200SOL    HW1 1499   6.455   2.026   0.694
  200SOL    HW2 1500   6.456   1.995   0.534
  201SOL     OW 1501   0.301   1.626   6.051
  201SOL    HW1 1502   0.382   1.685   6.061
  201SOL    HW2 1503   0.219   1.682   6.059
  202SOL     OW 1504   5.314   6.915   0.341
  202SOL    HW1 1505   5.236   6.941   0.285
  202SOL    HW2 1506   5.373   6.852   0.289
  203SOL     OW 1507   6.831   3.473   6.992
  203SOL    HW1 1508   6.807   3.486   0.065
  203SOL    HW2 1509   6.758   3.423   6.945
  204SOL     OW 1510   6.626   0.906   5.345
  204SOL    HW1 1511   6.541   0.915   5.293
  204SOL    HW2 1512   6.695   0.861   5.289
  205SOL     OW 1513   2.186   4.559   3.448
  205SOL    HW1 1514   2.192   4.638   3.509
  205SOL    HW2 1515   2.269   4.504   3.457
  206SOL     OW 1516   0.732   4.101   1.153
  206SOL    HW1 1517   0.781   4.020   1.120
  206SOL    HW2 1518   0.635   4.092   1.133
  207SOL     OW 1519   6.915   2.559   4.634
  207SOL    HW1 1520   6.951   2.643   4.593
  207SOL    HW2 1521   6.886   2.577   4.728
  208SOL     OW 1522   1.362   2.973   4.960
  208SOL    HW1 1523   1.329   3.038   4.890
  208SOL    HW2 1524   1.460   2.960   4.949
  209SOL     OW 1525   6.020   3.701   2.491
  209SOL    HW1 1526   6.001   3.603   2.480
  209SOL    HW2 1527   6.013   3.746   2.403
  210SOL     OW 1528   4.771   3.761   1.175
  210SOL    HW1 1529   4.807   3.740   1.266
  210SOL    HW2 1530   4.727   3.680   1.137
  211SOL     OW 1531   1.238   1.523   1.495
  211SOL    HW1 1532   1.290   1.558   1.573
  211SOL    HW2 1533   1.208   1.429   1.514
  212SOL     OW 1534   2.454   3.823   1.714
  212SOL    HW1 1535   2.396   3.903   1.700
  212SOL    HW2 1536   2.550   3.850   1.712
  213SOL     OW 1537   1.023   5.328   1.231
  213SOL    HW1 1538   0.983   5.240   1.260
  213SOL    HW2 1539   0.973   5.362   1.151
  214SOL     OW 1540   5.744   6.619   2.259
  214SOL    HW1 1541   5.805   6.621   2.179
  214SOL    HW2 1542   5.755   6.703   2.311
  215SOL     OW 1543   2.219   4.800   2.488
  215SOL    HW1 1544   2.221   4.708   2.528
  215SOL    HW2 1545   2.258   4.797   2.396
  216SOL     OW 1546   1.592   6.198   3.095
  216SOL    HW1 1547   1.574   6.176   3.191
  216SOL    HW2 1548   1.635   6.288   3.088
  217SOL     OW 1549   7.014   5.228   4.867
  217SOL    HW1 1550   6.960   5.207   4.785
  217SOL    HW2 1551   0.034   5.144   4.901
  218SOL     OW 1552   2.890   2.348   5.593
  218SOL    HW1 1553   2.890   2.305   5.684
  218SOL    HW2 1554   2.979   2.390   5.577
  219SOL     OW 1555   5.111   2.081   1.521
  219SOL    HW1 1556   5.066   2.133   1.448
  219SOL    HW2 1557   5.198   2.045   1.488
  220SOL     OW 1558   2.539   6.633   0.650
  220SOL    HW1 1559   2.468   6.701   0.630
  220SOL    HW2 1560   2.543   6.565   0.576
  221SOL     OW 1561   4.798   4.609   2.143
  221SOL    HW1 1562   4.843   4.530   2.185
  221SOL    HW2 1563   4.702   4.587   2.124
  222SOL     OW 1564   1.590   3.937   6.715
  222SOL    HW1 1565   1.679   3.892   6.727
  222SOL    HW2 1566   1.601   4.036   6.725
  223SOL     OW 1567   6.596   1.942   4.806
  223SOL    HW1 1568   6.675   1.882   4.807
  223SOL    HW2 1569   6.567   1.958   4.711
  224SOL     OW 1570   3.303   2.732   5.534
  224SOL    HW1 1571   3.349   2.812   5.573
  224SOL    HW2 1572   3.331   2.721   5.438
  225SOL     OW 1573   4.326   6.152   6.411
  225SOL    HW1 1574   4.417   6.127   6.443
  225SOL    HW2 1575   4.265   6.165   6.489
  226SOL     OW 1576   1.790   2.447   0.377
  226SOL    HW1 1577   1.842   2.363   0.393
  226SOL    HW2 1578   1.709   2.448   0.437
  227SOL     OW 1579   1.377   3.838   0.883
  227SOL    HW1 1580   1.351   3.921   0.932
  227SOL    HW2 1581   1.392   3.763   0.948
  228SOL     OW 1582   0.791   0.405   2.550
  228SOL    HW1 1583   0.780   0.440   2.457
  228SOL    HW2 1584   0.887   0.378   2.564
  229SOL     OW 1585   4.525   0.615   6.005
  229SOL    HW1 1586   4.458   0.547   6.034
  229SOL    HW2 1587   4.565   0.659   6.085
  230SOL     OW 1588   5.815   4.127   6.210
  230SOL    HW1 1589   5.902   4.088   6.242
  230SOL    HW2 1590   5.749   4.053   6.196
  231SOL     OW 1591   5.128   1.074   0.237
  231SOL    HW1 1592   5.200   1.114   0.180
  231SOL    HW2 1593   5.157   1.076   0.333
  232SOL     OW 1594   1.250   2.478   5.141
  232SOL    HW1 1595   1.274   2.555   5.081
  232SOL    HW2 1596   1.282   2.497   5.234
  233SOL     OW 1597   3.288   1.546   3.677
  233SOL    HW1 1598   3.365   1.483   3.667
  233SOL    HW2 1599   3.226   1.514   3.748
  234SOL     OW 1600   5.396   0.198   0.297
  234SOL    HW1 1601   5.436   0.172   0.385
  234SOL    HW2 1602   5.369   0.116   0.248
  235SOL     OW 1603   5.270   3.240   2.114
  235SOL    HW1 1604   5.277   3.286   2.025
  235SOL    HW2 1605   5.175   3.242   2.146
  236SOL     OW 1606   3.828   2.909   6.144
  236SOL    HW1 1607   3.839   2.996   6.192
  236SOL    HW2 1608   3.875   2.837   6.195
  237SOL     OW 1609   6.120   3.420   3.249
  237SOL    HW1 1610   6.119   3.517   3.273
  237SOL    HW2 1611   6.057   3.404   3.173
  238SOL     OW 1612   6.275   1.702   0.176
  238SOL    HW1 1613   6.226   1.756   0.244
  238SOL    HW2 1614   6.219   1.694   0.093
  239SOL     OW 1615   1.844   3.332   0.451
  239SOL    HW1 1616   1.769   3.265   0.446
  239SOL    HW2 1617   1.932   3.284   0.444
  240SOL     OW 1618   5.411   3.394   3.916
  240SOL    HW1 1619   5.439   3.385   3.821
  240SOL    HW2 1620   5.341   3.326   3.936
  241SOL     OW 1621   2.020   2.522   3.962
  241SOL    HW1 1622   2.086   2.455   3.927
  241SOL    HW2 1623   1.935   2.515   3.911
  242SOL     OW 1624   3.848   3.319   2.022
  242SOL    HW1 1625   3.855   3.335   2.121
  242SOL    HW2 1626   3.878   3.226   2.002
  243SOL     OW 1627   3.919   2.679   6.298
  243SOL    HW1 1628   4.009   2.678   6.342
  243SOL    HW2 1629   3.918   2.614   6.223
  244SOL     OW 1630   4.930   3.550   4.776
  244SOL    HW1 1631   4.909   3.453   4.765
  244SOL    HW2 1632   4.903   3.579   4.868
  245SOL     OW 1633   3.577   1.062   3.100
  245SOL    HW1 1634   3.638   0.999   3.053
  245SOL    HW2 1635   3.484   1.052   3.064
  246SOL     OW 1636   6.649   1.276   2.299
  246SOL    HW1 1637   6.739   1.240   2.272
  246SOL    HW2 1638   6.598   1.302   2.217
  247SOL     OW 1639   2.416   1.271   2.200
  247SOL    HW1 1640   2.487   1.341   2.209
  247SOL    HW2 1641   2.439   1.193   2.257
  248SOL     OW 1642   3.290   3.716   1.398
  248SOL    HW1 1643   3.280   3.739   1.301
  248SOL    HW2 1644   3.211   3.751   1.449
  249SOL     OW 1645   4.779   6.582   5.432
  249SOL    HW1 1646   4.819   6.673   5.441
  249SOL    HW2 1647   4.825   6.532   5.359
  250SOL     OW 1648   3.913   2.666   6.966
  250SOL    HW1 1649   3.859   2.721   0.007
  250SOL    HW2 1650   3.950   2.726   6.895
  251SOL     OW 1651   4.405   5.299   5.012
  251SOL    HW1 1652   4.394   5.391   5.052
  251SOL    HW2 1653   4.502   5.277   5.006
  252SOL     OW 1654   6.507   6.116   5.055
  252SOL    HW1 1655   6.457   6.038   5.016
  252SOL    HW2 1656   6.446   6.168   5.115
  253SOL     OW 1657   4.515   6.260   6.044
  253SOL    HW1 1658   4.430   6.226   6.004
  253SOL    HW2 1659   4.592   6.203   6.015
  254SOL     OW 1660   6.248   2.068   5.489
  254SOL    HW1 1661   6.300   2.022   5.417
  254SOL    HW2 1662   6.292   2.155   5.511
  255SOL     OW 1663   1.557   4.173   6.884
  255SOL    HW1 1664   1.602   4.253   6.847
  255SOL    HW2 1665   1.462   4.170   6.852
  256SOL     OW 1666   4.795   2.615   5.329
  256SOL    HW1 1667   4.841   2.559   5.260
  256SOL    HW2 1668   4.863   2.655   5.391
  257SOL     OW 1669   4.878   6.377   2.497
  257SOL    HW1 1670   4.809   6.433   2.454
  257SOL    HW2 1671   4.905   6.417   2.585
  258SOL     OW 1672   2.179   3.458   5.719
  258SOL    HW1 1673   2.228   3.441   5.633
  258SOL    HW2 1674   2.244   3.492   5.788
  259SOL     OW 1675   3.386   0.353   3.862
  259SOL    HW1 1676   3.459   0.299   3.819
  259SOL    HW2 1677   3.311   0.366   3.798
  260SOL     OW 1678   3.572   5.638   3.251
  260SOL    HW1 1679   3.509   5.710   3.222
  260SOL    HW2 1680   3.654   5.680   3.291
  261SOL     OW 1681   4.002   4.819   6.882
  261SOL    HW1 1682   3.927   4.764   6.845
  261SOL    HW2 1683   4.047   4.769   6.956
  262SOL     OW 1684   1.158   3.466   6.652
  262SOL    HW1 1685   1.149   3.402   6.576
  262SOL    HW2 1686   1.243   3.518   6.642
  263SOL     OW 1687   1.774   0.086   3.864
  263SOL    HW1 1688   1.674   0.090   3.856
  263SOL    HW2 1689   1.807   7.021   3.829
  264SOL     OW 1690   6.553   3.055   6.465
  264SOL    HW1 1691   6.641   3.056   6.512
  264SOL    HW2 1692   6.488   3.001   6.517
  265SOL     OW 1693   6.898   0.084   3.070
  265SOL    HW1 1694   6.956   0.161   3.097
  265SOL    HW2 1695   6.818   0.079   3.130
  266SOL     OW 1696   3.699   0.816   6.010
  266SOL    HW1 1697   3.764   0.756   5.963
  266SOL    HW2 1698   3.631   0.760   6.057
  267SOL     OW 1699   2.354   0.134   2.806
  267SOL    HW1 1700   2.300   0.120   2.723
  267SOL    HW2 1701   2.439   0.081   2.799
  268SOL     OW 1702   3.735   2.242   0.762
  268SOL    HW1 1703   3.806   2.190   0.809
  268SOL    HW2 1704   3.759   2.339   0.762
  269SOL     OW 1705   5.082   1.805   6.885
  269SOL    HW1 1706   5.164   1.845   6.846
  269SOL    HW2 1707   5.061   1.849   6.972
  270SOL     OW 1708   5.515   1.196   0.546
  270SOL    HW1 1709   5.574   1.160   0.474
  270SOL    HW2 1710   5.437   1.243   0.506
  271SOL     OW 1711   0.267   4.330   6.250
  271SOL    HW1 1712   0.341   4.360   6.189
  271SOL    HW2 1713   0.195   4.287   6.196
  272SOL     OW 1714   3.119   6.054   3.321
  272SOL    HW1 1715   3.184   5.981   3.301
  272SOL    HW2 1716   3.077   6.038   3.410
  273SOL     OW 1717   1.749   5.665   6.048
  273SOL    HW1 1718   1.691   5.742   6.023
  273SOL    HW2 1719   1.779   5.617   5.965
  274SOL     OW 1720   4.480   2.198   3.923
  274SOL    HW1 1721   4.400   2.251   3.894
  274SOL    HW2 1722   4.468   2.169   4.018
  275SOL     OW 1723   5.732   0.152   1.598
  275SOL    HW1 1724   5.723   0.251   1.591
  275SOL    HW2 1725   5.796   0.120   1.528
  276SOL     OW 1726   0.861   6.715   4.725
  276SOL    HW1 1727   0.776   6.737   4.678
  276SOL    HW2 1728   0.899   6.630   4.688
  277SOL     OW 1729   2.219   4.606   1.580
  277SOL    HW1 1730   2.237   4.689   1.526
  277SOL    HW2 1731   2.132   4.616   1.628
  278SOL     OW 1732   0.578   2.337   3.313
  278SOL    HW1 1733   0.546   2.314   3.221
  278SOL    HW2 1734   0.649   2.272   3.341
  279SOL     OW 1735   6.236   0.979   3.142
  279SOL    HW1 1736   6.184   0.991   3.227
  279SOL    HW2 1737   6.315   1.040   3.143
  280SOL     OW 1738   1.749   5.129   2.731
  280SOL    HW1 1739   1.722   5.171   2.817
  280SOL    HW2 1740   1.737   5.194   2.656
  281SOL     OW 1741   2.618   4.214   1.321
  281SOL    HW1 1742   2.596   4.290   1.381
  281SOL    HW2 1743   2.541   4.151   1.316
  282SOL     OW 1744   1.737   1.332   4.921
  282SOL    HW1 1745   1.714   1.318   4.825
  282SOL    HW2 1746   1.834   1.314   4.935
  283SOL     OW 1747   3.128   3.056   6.489
  283SOL    HW1 1748   3.154   3.150   6.467
  283SOL    HW2 1749   3.117   3.004   6.404
  284SOL     OW 1750   0.361   3.724   3.747
  284SOL    HW1 1751   0.461   3.721   3.749
  284SOL    HW2 1752   0.327   3.674   3.667
  285SOL     OW 1753   5.311   4.052   3.971
  285SOL    HW1 1754   5.355   4.028   3.885
  285SOL    HW2 1755   5.376   4.043   4.046
  286SOL     OW 1756   2.847   4.358   1.184
  286SOL    HW1 1757   2.901   4.356   1.268
  286SOL    HW2 1758   2.775   4.289   1.190
  287SOL     OW 1759   0.659   3.196   0.188
  287SOL    HW1 1760   0.698   3.203   0.096
  287SOL    HW2 1761   0.716   3.247   0.253
  288SOL     OW 1762   5.317   3.220   1.443
  288SOL    HW1 1763   5.266   3.304   1.462
  288SOL    HW2 1764   5.413   3.234   1.468
  289SOL     OW 1765   3.641   5.399   6.674
  289SOL    HW1 1766   3.693   5.470   6.722
  289SOL    HW2 1767   3.658   5.310   6.716
  290SOL     OW 1768   2.008   1.151   4.949
  290SOL    HW1 1769   1.965   1.101   5.025
  290SOL    HW2 1770   2.100   1.115   4.935
  291SOL     OW 1771   6.600   1.878   3.036
  291SOL    HW1 1772   6.634   1.890   3.130
  291SOL    HW2 1773   6.592   1.780   3.017
  292SOL     OW 1774   3.520   7.020   4.203
  292SOL    HW1 1775   3.475   0.084   4.185
  292SOL    HW2 1776   3.491   6.953   4.135
  293SOL     OW 1777   3.105   4.934   3.478
  293SOL    HW1 1778   3.117   5.031   3.500
  293SOL    HW2 1779   3.146   4.915   3.389
  294SOL     OW 1780   4.924   0.257   0.584
  294SOL    HW1 1781   4.890   0.240   0.491
  294SOL    HW2 1782   5.021   0.279   0.580
  295SOL     OW 1783   5.668   0.665   4.248
  295SOL    HW1 1784   5.681   0.750   4.197
  295SOL    HW2 1785   5.604   0.681   4.323
  296SOL     OW 1786   2.628   2.133   3.191
  296SOL    HW1 1787   2.582   2.108   3.106
  296SOL    HW2 1788   2.648   2.050   3.244
  297SOL     OW 1789   1.876   4.963   2.001
  297SOL    HW1 1790   1.911   4.943   2.092
  297SOL    HW2 1791   1.899   5.058   1.977
  298SOL     OW 1792   6.761   5.032   0.850
  298SOL    HW1 1793   6.733   5.002   0.941
  298SOL    HW2 1794   6.720   5.121   0.830
  299SOL     OW 1795   5.841   2.534   3.860
  299SOL    HW1 1796   5.877   2.620   3.823
  299SOL    HW2 1797   5.764   2.504   3.805
  300SOL     OW 1798   6.217   6.911   1.448
  300SOL    HW1 1799   6.260   6.865   1.526
  300SOL    HW2 1800   6.279   6.980   1.412
  301SOL     OW 1801   4.788   2.853   5.874
  301SOL    HW1 1802   4.758   2.773   5.821
  301SOL    HW2 1803   4.751   2.936   5.832
  302SOL     OW 1804   1.357   5.361   4.432
  302SOL    HW1 1805   1.305   5.446   4.432
  302SOL    HW2 1806   1.350   5.317   4.521
  303SOL     OW 1807   5.850   0.303   4.041
  303SOL    HW1 1808   5.779   0.374   4.051
  303SOL    HW2 1809   5.807   0.217   4.014
  304SOL     OW 1810   3.821   0.421   3.929
  304SOL    HW1 1811   3.736   0.472   3.942
  304SOL    HW2 1812   3.806   0.325   3.955
  305SOL     OW 1813   1.408   5.032   0.564
  305SOL    HW1 1814   1.327   5.052   0.618
  305SOL    HW2 1815   1.454   4.951   0.602
  306SOL     OW 1816   1.901   1.256   3.230
  306SOL    HW1 1817   1.881   1.177   3.171
  306SOL    HW2 1818   1.967   1.229   3.300
  307SOL     OW 1819   3.266   0.669   1.630
  307SOL    HW1 1820   3.285   0.576   1.598
  307SOL    HW2 1821   3.349   0.724   1.624
  308SOL     OW 1822   0.811   4.872   3.777
  308SOL    HW1 1823   0.795   4.870   3.876
  308SOL    HW2 1824   0.724   4.878   3.729
  309SOL     OW 1825   3.845   4.638   5.395
  309SOL    HW1 1826   3.843   4.538   5.392
  309SOL    HW2 1827   3.874   4.668   5.486
  310SOL     OW 1828   1.440   6.100   6.274
  310SOL    HW1 1829   1.430   6.025   6.209
  310SOL    HW2 1830   1.525   6.089   6.324
  311SOL     OW 1831   0.162   0.903   1.287
  311SOL    HW1 1832   0.161   0.975   1.219
  311SOL    HW2 1833   0.112   0.933   1.369
  312SOL     OW 1834   3.849   1.640   5.863
  312SOL    HW1 1835   3.909   1.679   5.933
  312SOL    HW2 1836   3.829   1.709   5.793
  313SOL     OW 1837   6.891   4.815   1.130
  313SOL    HW1 1838   6.834   4.735   1.151
  313SOL    HW2 1839   6.981   4.784   1.099
  314SOL     OW 1840   3.484   5.971   2.512
  314SOL    HW1 1841   3.474   6.040   2.441
  314SOL    HW2 1842   3.523   5.887   2.472
  315SOL     OW 1843   0.557   3.728   2.875
  315SOL    HW1 1844   0.487   3.768   2.934
  315SOL    HW2 1845   0.636   3.701   2.930
  316SOL     OW 1846   2.064   3.010   4.075
  316SOL    HW1 1847   2.012   2.926   4.064
  316SOL    HW2 1848   2.119   3.004   4.158
  317SOL     OW 1849   6.666   1.747   0.222
  317SOL    HW1 1850   6.623   1.803   0.151
  317SOL    HW2 1851   6.595   1.709   0.281
  318SOL     OW 1852   2.796   4.092   1.031
  318SOL    HW1 1853   2.704   4.115   1.001
  318SOL    HW2 1854   2.791   4.033   1.111
  319SOL     OW 1855   0.606   0.902   6.016
  319SOL    HW1 1856   0.531   0.857   6.065
  319SOL    HW2 1857   0.639   0.979   6.071
  320SOL     OW 1858   5.278   3.087   1.731
  320SOL    HW1 1859   5.371   3.122   1.739
  320SOL    HW2 1860   5.215   3.162   1.713
  321SOL     OW 1861   2.085   1.402   2.226
  321SOL    HW1 1862   2.141   1.396   2.143
  321SOL    HW2 1863   2.144   1.421   2.304
  322SOL     OW 1864   3.561   2.831   5.400
  322SOL    HW1 1865   3.650   2.846   5.356
  322SOL    HW2 1866   3.540   2.733   5.399
  323SOL     OW 1867   1.556   4.145   1.797
  323SOL    HW1 1868   1.553   4.087   1.716
  323SOL    HW2 1869   1.609   4.228   1.777
  324SOL     OW 1870   0.068   2.809   3.949
  324SOL    HW1 1871   0.100   2.800   3.855
  324SOL    HW2 1872   0.049   2.719   3.987
  325SOL     OW 1873   1.843   2.250   2.730
  325SOL    HW1 1874   1.899   2.181   2.685
  325SOL    HW2 1875   1.897   2.332   2.746
  326SOL     OW 1876   1.859   4.349   4.598
  326SOL    HW1 1877   1.878   4.286   4.523
  326SOL    HW2 1878   1.937   4.352   4.660
  327SOL     OW 1879   6.385   3.541   6.202
  327SOL    HW1 1880   6.403   3.602   6.125
  327SOL    HW2 1881   6.347   3.594   6.278
  328SOL     OW 1882   3.330   5.845   3.293
  328SOL    HW1 1883   3.286   5.755   3.286
  328SOL    HW2 1884   3.346   5.866   3.389
  329SOL     OW 1885   3.678   4.019   1.952
  329SOL    HW1 1886   3.600   4.032   2.013
  329SOL    HW2 1887   3.762   4.012   2.007
  330SOL     OW 1888   2.649   2.587   1.791
  330SOL    HW1 1889   2.687   2.507   1.744
  330SOL    HW2 1890   2.592   2.639   1.727
  331SOL     OW 1891   6.255   4.066   5.739
  331SOL    HW1 1892   6.312   4.147   5.750
  331SOL    HW2 1893   6.199   4.053   5.821
  332SOL     OW 1894   3.685   1.800   3.463
  332SOL    HW1 1895   3.585   1.810   3.457
  332SOL    HW2 1896   3.728   1.874   3.412
  333SOL     OW 1897   4.796   6.393   1.174
  333SOL    HW1 1898   4.795   6.462   1.102
  333SOL    HW2 1899   4.837   6.309   1.140
  334SOL     OW 1900   4.891   6.394   2.784
  334SOL    HW1 1901   4.821   6.459   2.756
  334SOL    HW2 1902   4.898   6.394   2.884
  335SOL     OW 1903   3.090   0.569   2.234
  335SOL    HW1 1904   3.062   0.590   2.140
  335SOL    HW2 1905   3.162   0.499   2.232
  336SOL     OW 1906   3.745   0.769   4.726
  336SOL    HW1 1907   3.804   0.705   4.677
  336SOL    HW2 1908   3.693   0.720   4.796
  337SOL     OW 1909   1.118   4.064   2.536
  337SOL    HW1 1910   1.105   3.974   2.577
  337SOL    HW2 1911   1.209   4.067   2.493
  338SOL     OW 1912   2.273   2.390   1.007
  338SOL    HW1 1913   2.324   2.330   1.069
  338SOL    HW2 1914   2.307   2.484   1.016
  339SOL     OW 1915   4.481   0.813   3.211
  339SOL    HW1 1916   4.438   0.877   3.275
  339SOL    HW2 1917   4.428   0.810   3.126
  340SOL     OW 1918   5.345   3.624   4.526
  340SOL    HW1 1919   5.371   3.678   4.606
  340SOL    HW2 1920   5.253   3.587   4.539
  341SOL     OW 1921   4.398   4.391   5.763
  341SOL    HW1 1922   4.392   4.481   5.720
  341SOL    HW2 1923   4.446   4.328   5.703
  342SOL     OW 1924   5.793   3.404   0.649
  342SOL    HW1 1925   5.877   3.350   0.649
  342SOL    HW2 1926   5.721   3.353   0.696
  343SOL     OW 1927   2.566   0.457   2.492
  343SOL    HW1 1928   2.518   0.505   2.566
  343SOL    HW2 1929   2.559   0.510   2.407
  344SOL     OW 1930   3.470   0.054   0.104
  344SOL    HW1 1931   3.541   7.019   0.142
  344SOL    HW2 1932   3.452   0.027   0.009
  345SOL     OW 1933   1.500   0.836   5.157
  345SOL    HW1 1934   1.494   0.860   5.254
  345SOL    HW2 1935   1.439   0.759   5.138
  346SOL     OW 1936   2.368   0.584   5.299
  346SOL    HW1 1937   2.276   0.618   5.314
  346SOL    HW2 1938   2.368   0.484   5.301
  347SOL     OW 1939   5.297   6.173   5.848
  347SOL    HW1 1940   5.331   6.251   5.899
  347SOL    HW2 1941   5.369   6.102   5.844
  348SOL     OW 1942   3.148   6.861   3.494
  348SOL    HW1 1943   3.105   6.843   3.406
  348SOL    HW2 1944   3.195   6.949   3.491
  349SOL     OW 1945   2.173   5.425   1.907
  349SOL    HW1 1946   2.213   5.464   1.824
  349SOL    HW2 1947   2.244   5.410   1.975
  350SOL     OW 1948   5.132   3.422   1.412
  350SOL    HW1 1949   5.073   3.391   1.487
  350SOL    HW2 1950   5.077   3.429   1.329
  351SOL     OW 1951   3.427   1.525   0.626
  351SOL    HW1 1952   3.370   1.539   0.707
  351SOL    HW2 1953   3.464   1.613   0.596
  352SOL     OW 1954   3.044   1.876   6.474
  352SOL    HW1 1955   3.037   1.972   6.498
  352SOL    HW2 1956   2.953   1.839   6.455
  353SOL     OW 1957   1.998   6.969   1.271
  353SOL    HW1 1958   2.004   6.920   1.358
  353SOL    HW2 1959   2.055   0.029   1.275
  354SOL     OW 1960   4.935   0.093   2.534
  354SOL    HW1 1961   4.982   0.178   2.510
  354SOL    HW2 1962   4.859   0.114   2.596
  355SOL     OW 1963   0.835   0.786   2.193
  355SOL    HW1 1964   0.919   0.839   2.186
  355SOL    HW2 1965   0.789   0.807   2.279
  356SOL     OW 1966   3.133   0.066   3.035
  356SOL    HW1 1967   3.095   0.092   2.946
  356SOL    HW2 1968   3.210   0.003   3.020
  357SOL     OW 1969   1.102   5.159   4.485
  357SOL    HW1 1970   1.050   5.243   4.478
  357SOL    HW2 1971   1.169   5.167   4.559
  358SOL     OW 1972   5.011   0.656   3.421
  358SOL    HW1 1973   4.975   0.584   3.362
  358SOL    HW2 1974   4.935   0.698   3.471
  359SOL     OW 1975   0.394   1.560   0.459
  359SOL    HW1 1976   0.317   1.501   0.484
  359SOL    HW2 1977   0.362   1.653   0.447
  360SOL     OW 1978   5.202   6.842   6.835
  360SOL    HW1 1979   5.237   6.859   6.927
  360SOL    HW2 1980   5.262   6.888   6.768
  361SOL     OW 1981   2.770   0.568   2.132
  361SOL    HW1 1982   2.778   0.659   2.092
  361SOL    HW2 1983   2.798   0.572   2.228
  362SOL     OW 1984   2.987   3.771   0.368
  362SOL    HW1 1985   2.906   3.720   0.399
  362SOL    HW2 1986   3.024   3.728   0.286
  363SOL     OW 1987   4.739   4.678   4.251
  363SOL    HW1 1988   4.824   4.709   4.208
  363SOL    HW2 1989   4.692   4.756   4.292
  364SOL     OW 1990   2.809   5.637   6.672
  364SOL    HW1 1991   2.874   5.695   6.721
  364SOL    HW2 1992   2.848   5.608   6.584
  365SOL     OW 1993   5.188   6.389   3.065
  365SOL    HW1 1994   5.203   6.313   3.001
  365SOL    HW2 1995   5.270   6.446   3.068
  366SOL     OW 1996   5.156   1.471   7.011
  366SOL    HW1 1997   5.065   1.493   6.975
  366SOL    HW2 1998   5.161   1.497   0.084
  367SOL     OW 1999   6.448   2.244   2.375
  367SOL    HW1 2000   6.396   2.159   2.387
  367SOL    HW2 2001   6.395   2.321   2.412
  368SOL     OW 2002   0.292   5.240   4.719
  368SOL    HW1 2003   0.286   5.143   4.695
  368SOL    HW2 2004   0.205   5.284   4.699
  369SOL     OW 2005   1.137   3.840   2.013
  369SOL    HW1 2006   1.057   3.846   2.073
  369SOL    HW2 2007   1.200   3.915   2.033
  370SOL     OW 2008   3.864   1.984   6.314
  370SOL    HW1 2009   3.810   1.900   6.313
  370SOL    HW2 2010   3.816   2.057   6.266
  371SOL     OW 2011   3.579   2.564   6.598
  371SOL    HW1 2012   3.671   2.572   6.560
  371SOL    HW2 2013   3.516   2.619   6.544
  372SOL     OW 2014   2.118   5.544   0.332
  372SOL    HW1 2015   2.087   5.489   0.410
  372SOL    HW2 2016   2.054   5.532   0.256
  373SOL     OW 2017   6.427   6.887   6.814
  373SOL    HW1 2018   6.498   6.884   6.884
  373SOL    HW2 2019   6.405   6.794   6.785
  374SOL     OW 2020   5.375   0.831   0.548
  374SOL    HW1 2021   5.428   0.842   0.632
  374SOL    HW2 2022   5.350   0.921   0.512
  375SOL     OW 2023   6.834   3.958   1.970
  375SOL    HW1 2024   6.877   4.048   1.956
  375SOL    HW2 2025   6.735   3.966   1.952
  376SOL     OW 2026   2.355   4.159   5.330
  376SOL    HW1 2027   2.441   4.172   5.379
  376SOL    HW2 2028   2.358   4.073   5.280
  377SOL     OW 2029   4.618   1.058   4.104
  377SOL    HW1 2030   4.547   1.125   4.082
  377SOL    HW2 2031   4.699   1.074   4.047
  378SOL     OW 2032   5.048   2.059   5.608
  378SOL    HW1 2033   5.121   2.128   5.608
  378SOL    HW2 2034   4.959   2.105   5.600
  379SOL     OW 2035   6.204   2.978   0.762
  379SOL    HW1 2036   6.286   2.969   0.818
  379SOL    HW2 2037   6.198   2.899   0.700
  380SOL     OW 2038   0.488   2.426   0.039
  380SOL    HW1 2039   0.460   2.365   0.113
  380SOL    HW2 2040   0.577   2.466   0.062
  381SOL     OW 2041   4.441   4.805   0.245
  381SOL    HW1 2042   4.374   4.745   0.200
  381SOL    HW2 2043   4.402   4.896   0.255
  382SOL     OW 2044   2.029   5.614   6.836
  382SOL    HW1 2045   2.010   5.524   6.796
  382SOL    HW2 2046   2.125   5.619   6.863
  383SOL     OW 2047   6.064   1.724   6.924
  383SOL    HW1 2048   6.055   1.725   6.825
  383SOL    HW2 2049   6.086   1.816   6.956
  384SOL     OW 2050   1.690   5.405   4.442
  384SOL    HW1 2051   1.666   5.501   4.456
  384SOL    HW2 2052   1.613   5.357   4.401
  385SOL     OW 2053   4.602   4.771   0.860
  385SOL    HW1 2054   4.649   4.760   0.773
  385SOL    HW2 2055   4.503   4.775   0.844
  386SOL     OW 2056   2.500   5.978   4.699
  386SOL    HW1 2057   2.569   5.969   4.771
  386SOL    HW2 2058   2.538   5.947   4.612
  387SOL     OW 2059   0.482   0.343   5.418
  387SOL    HW1 2060   0.437   0.279   5.355
  387SOL    HW2 2061   0.492   0.299   5.508
  388SOL     OW 2062   0.159   2.179   4.381
  388SOL    HW1 2063   0.158   2.080   4.372
  388SOL    HW2 2064   0.075   2.217   4.344
  389SOL     OW 2065   4.907   3.463   2.816
  389SOL    HW1 2066   4.810   3.475   2.837
  389SOL    HW2 2067   4.928   3.504   2.728
  390SOL     OW 2068   3.373   2.849   0.355
  390SOL    HW1 2069   3.403   2.821   0.264
  390SOL    HW2 2070   3.406   2.784   0.423
  391SOL     OW 2071   3.943   3.772   3.723
  391SOL    HW1 2072   3.990   3.815   3.646
  391SOL    HW2 2073   3.863   3.722   3.690
  392SOL     OW 2074   1.775   3.225   1.918
  392SOL    HW1 2075   1.766   3.186   2.010
  392SOL    HW2 2076   1.840   3.301   1.920
  393SOL     OW 2077   1.060   6.082   1.019
  393SOL    HW1 2078   1.078   6.179   1.033
  393SOL    HW2 2079   1.144   6.030   1.032
  394SOL     OW 2080   6.118   1.633   6.061
  394SOL    HW1 2081   6.050   1.585   6.117
  394SOL    HW2 2082   6.099   1.731   6.064
  395SOL     OW 2083   6.323   5.219   6.590
  395SOL    HW1 2084   6.271   5.266   6.518
  395SOL    HW2 2085   6.413   5.262   6.599
  396SOL     OW 2086   0.591   1.107   1.294
  396SOL    HW1 2087   0.553   1.170   1.227
  396SOL    HW2 2088   0.598   1.016   1.253
  397SOL     OW 2089   4.730   2.243   5.108
  397SOL    HW1 2090   4.650   2.225   5.052
  397SOL    HW2 2091   4.810   2.256   5.049
  398SOL     OW 2092   0.026   1.244   3.022
  398SOL    HW1 2093   0.003   1.305   3.098
  398SOL    HW2 2094   6.981   1.254   2.950
  399SOL     OW 2095   5.960   5.786   4.496
  399SOL    HW1 2096   5.972   5.691   4.466
  399SOL    HW2 2097   5.913   5.788   4.584
  400SOL     OW 2098   6.634   6.256   3.396
  400SOL    HW1 2099   6.538   6.228   3.393
  400SOL    HW2 2100   6.646   6.339   3.342
  401SOL     OW 2101   1.277   6.306   4.755
  401SOL    HW1 2102   1.237   6.255   4.679
  401SOL    HW2 2103   1.320   6.243   4.819
  402SOL     OW 2104   6.083   1.403   4.380
  402SOL    HW1 2105   5.992   1.365   4.364
  402SOL    HW2 2106   6.075   1.494   4.422
  403SOL     OW 2107   2.584   1.918   5.539
  403SOL    HW1 2108   2.616   1.956   5.625
  403SOL    HW2 2109   2.515   1.979   5.499
  404SOL     OW 2110   3.048   5.772   3.483
  404SOL    HW1 2111   3.120   5.776   3.552
  404SOL    HW2 2112   2.959   5.775   3.528
  405SOL     OW 2113   2.870   4.909   3.884
  405SOL    HW1 2114   2.871   4.895   3.983
  405SOL    HW2 2115   2.820   4.834   3.840
  406SOL     OW 2116   1.184   0.407   0.232
  406SOL    HW1 2117   1.223   0.348   0.162
  406SOL    HW2 2118   1.217   0.500   0.219
  407SOL     OW 2119   2.150   3.736   4.076
  407SOL    HW1 2120   2.073   3.704   4.021
  407SOL    HW2 2121   2.165   3.672   4.152
  408SOL     OW 2122   2.795   2.086   1.858
  408SOL    HW1 2123   2.829   2.168   1.903
  408SOL    HW2 2124   2.786   2.102   1.760
  409SOL     OW 2125   0.125   2.484   1.804
  409SOL    HW1 2126   0.207   2.434   1.777
  409SOL    HW2 2127   0.053   2.420   1.830
  410SOL     OW 2128   1.800   3.288   2.397
  410SOL    HW1 2129   1.832   3.352   2.467
  410SOL    HW2 2130   1.750   3.338   2.326
  411SOL     OW 2131   6.888   1.166   1.508
  411SOL    HW1 2132   6.978   1.201   1.484
  411SOL    HW2 2133   6.824   1.183   1.432
  412SOL     OW 2134   2.345   4.264   3.059
  412SOL    HW1 2135   2.274   4.217   3.112
  412SOL    HW2 2136   2.399   4.322   3.120
  413SOL     OW 2137   6.484   4.891   3.128
  413SOL    HW1 2138   6.500   4.841   3.214
  413SOL    HW2 2139   6.555   4.867   3.062
  414SOL     OW 2140   2.614   6.990   2.418
  414SOL    HW1 2141   2.609   0.066   2.409
  414SOL    HW2 2142   2.546   6.947   2.360
  415SOL     OW 2143   5.885   3.071   1.222
  415SOL    HW1 2144   5.953   3.107   1.158
  415SOL    HW2 2145   5.928   3.054   1.311
  416SOL     OW 2146   6.027   3.276   6.881
  416SOL    HW1 2147   6.126   3.261   6.879
  416SOL    HW2 2148   5.998   3.292   6.975
  417SOL     OW 2149   2.507   2.457   5.841
  417SOL    HW1 2150   2.471   2.386   5.781
  417SOL    HW2 2151   2.479   2.547   5.807
  418SOL     OW 2152   4.650   5.761   6.294
  418SOL    HW1 2153   4.596   5.841   6.268
  418SOL    HW2 2154   4.601   5.708   6.363
  419SOL     OW 2155   5.648   0.038   0.693
  419SOL    HW1 2156   5.625   6.967   0.718
  419SOL    HW2 2157   5.568   0.081   0.651
  420SOL     OW 2158   3.138   6.804   0.809
  420SOL    HW1 2159   3.197   6.787   0.888
  420SOL    HW2 2160   3.113   6.717   0.767
  421SOL     OW 2161   5.195   4.443   3.106
  421SOL    HW1 2162   5.133   4.520   3.121
  421SOL    HW2 2163   5.287   4.476   3.088
  422SOL     OW 2164   4.075   1.620   2.156
  422SOL    HW1 2165   4.110   1.707   2.192
  422SOL    HW2 2166   4.006   1.583   2.218
  423SOL     OW 2167   2.451   1.258   5.800
  423SOL    HW1 2168   2.506   1.175   5.814
  423SOL    HW2 2169   2.424   1.295   5.889
  424SOL     OW 2170   1.629   4.746   4.103
  424SOL    HW1 2171   1.623   4.747   4.003
  424SOL    HW2 2172   1.558   4.805   4.141
  425SOL     OW 2173   3.735   1.586   6.565
  425SOL    HW1 2174   3.819   1.542   6.531
  425SOL    HW2 2175   3.688   1.524   6.628
  426SOL     OW 2176   2.458   2.621   2.928
  426SOL    HW1 2177   2.493   2.655   2.841
  426SOL    HW2 2178   2.389   2.685   2.964
  427SOL     OW 2179   4.466   1.180   4.463
  427SOL    HW1 2180   4.411   1.108   4.508
  427SOL    HW2 2181   4.430   1.195   4.370
  428SOL     OW 2182   2.096   1.881   6.260
  428SOL    HW1 2183   2.077   1.916   6.168
  428SOL    HW2 2184   2.169   1.812   6.255
  429SOL     OW 2185   6.956   6.984   3.479
  429SOL    HW1 2186   7.011   6.932   3.413
  429SOL    HW2 2187   6.905   0.033   3.431
  430SOL     OW 2188   1.805   1.155   3.485
  430SOL    HW1 2189   1.904   1.146   3.500
  430SOL    HW2 2190   1.789   1.206   3.400
  431SOL     OW 2191   2.602   1.116   1.914
  431SOL    HW1 2192   2.692   1.159   1.906
  431SOL    HW2 2193   2.600   1.059   1.997
  432SOL     OW 2194   6.042   1.840   2.185
  432SOL    HW1 2195   6.075   1.895   2.108
  432SOL    HW2 2196   5.943   1.828   2.177
  433SOL     OW 2197   1.814   3.250   6.647
  433SOL    HW1 2198   1.773   3.209   6.566
  433SOL    HW2 2199   1.801   3.349   6.645
  434SOL     OW 2200   3.617   5.648   2.766
  434SOL    HW1 2201   3.638   5.558   2.729
  434SOL    HW2 2202   3.700   5.705   2.764
  435SOL     OW 2203   2.516   2.527   6.557
  435SOL    HW1 2204   2.541   2.610   6.607
  435SOL    HW2 2205   2.499   2.549   6.461
  436SOL     OW 2206   5.577   6.418   2.294
  436SOL    HW1 2207   5.487   6.460   2.291
  436SOL    HW2 2208   5.647   6.488   2.283
  437SOL     OW 2209   0.078   1.411   5.677
  437SOL    HW1 2210   0.045   1.453   5.593
  437SOL    HW2 2211   0.172   1.438   5.694
  438SOL     OW 2212   0.586   3.744   1.598
  438SOL    HW1 2213   0.661   3.791   1.552
  438SOL    HW2 2214   0.516   3.720   1.531
  439SOL     OW 2215   0.930   1.376   6.765
  439SOL    HW1 2216   0.988   1.317   6.709
  439SOL    HW2 2217   0.896   1.452   6.710
  440SOL     OW 2218   3.869   1.503   1.339
  440SOL    HW1 2219   3.777   1.540   1.357
  440SOL    HW2 2220   3.937   1.562   1.381
  441SOL     OW 2221   1.414   4.526   2.819
  441SOL    HW1 2222   1.424   4.494   2.725
  441SOL    HW2 2223   1.435   4.452   2.882
  442SOL     OW 2224   2.906   3.295   4.613
  442SOL    HW1 2225   2.808   3.307   4.625
  442SOL    HW2 2226   2.937   3.348   4.534
  443SOL     OW 2227   5.174   2.641   1.987
  443SOL    HW1 2228   5.148   2.621   1.893
  443SOL    HW2 2229   5.211   2.734   1.992
  444SOL     OW 2230   4.367   2.373   0.917
  444SOL    HW1 2231   4.442   2.396   0.855
  444SOL    HW2 2232   4.285   2.352   0.864
  445SOL     OW 2233   2.210   6.235   3.864
  445SOL    HW1 2234   2.133   6.196   3.915
  445SOL    HW2 2235   2.206   6.334   3.868
  446SOL     OW 2236   0.335   0.044   0.428
  446SOL    HW1 2237   0.247   0.089   0.449
  446SOL    HW2 2238   0.380   0.019   0.514
  447SOL     OW 2239   6.386   3.439   0.640
  447SOL    HW1 2240   6.301   3.415   0.685
  447SOL    HW2 2241   6.435   3.356   0.613
  448SOL     OW 2242   3.841   6.978   4.630
  448SOL    HW1 2243   3.937   7.008   4.637
  448SOL    HW2 2244   3.810   6.987   4.535
  449SOL     OW 2245   0.817   4.131   4.944
  449SOL    HW1 2246   0.852   4.107   4.854
  449SOL    HW2 2247   0.788   4.227   4.945
  450SOL     OW 2248   6.514   3.622   3.990
  450SOL    HW1 2249   6.443   3.578   4.044
  450SOL    HW2 2250   6.603   3.605   4.032
  451SOL     OW 2251   2.925   1.475   6.354
  451SOL    HW1 2252   2.826   1.486   6.353
  451SOL    HW2 2253   2.969   1.565   6.345
  452SOL     OW 2254   4.629   4.872   1.130
  452SOL    HW1 2255   4.576   4.955   1.142
  452SOL    HW2 2256   4.591   4.818   1.055
  453SOL     OW 2257   4.270   1.033   0.375
  453SOL    HW1 2258   4.329   1.040   0.455
  453SOL    HW2 2259   4.225   1.121   0.359
  454SOL     OW 2260   6.979   3.037   4.046
  454SOL    HW1 2261   0.022   2.970   4.014
  454SOL    HW2 2262   6.973   3.034   4.146
  455SOL     OW 2263   5.740   5.632   0.236
  455SOL    HW1 2264   5.734   5.713   0.295
  455SOL    HW2 2265   5.828   5.631   0.190
  456SOL     OW 2266   1.394   0.922   3.198
  456SOL    HW1 2267   1.363   1.007   3.242
  456SOL    HW2 2268   1.320   0.886   3.140
  457SOL     OW 2269   3.018   6.076   0.743
  457SOL    HW1 2270   2.968   6.113   0.822
  457SOL    HW2 2271   2.954   6.055   0.669
  458SOL     OW 2272   3.020   1.518   4.156
  458SOL    HW1 2273   2.976   1.428   4.160
  458SOL    HW2 2274   3.039   1.550   4.248
  459SOL     OW 2275   3.058   1.646   3.929
  459SOL    HW1 2276   3.125   1.715   3.957
  459SOL    HW2 2277   3.031   1.592   4.009
  460SOL     OW 2278   1.225   1.569   6.862
  460SOL    HW1 2279   1.244   1.480   6.820
  460SOL    HW2 2280   1.132   1.570   6.900
  461SOL     OW 2281   1.246   6.775   4.263
  461SOL    HW1 2282   1.196   6.755   4.347
  461SOL    HW2 2283   1.319   6.841   4.282
  462SOL     OW 2284   3.708   4.049   5.346
  462SOL    HW1 2285   3.714   3.955   5.313
  462SOL    HW2 2286   3.767   4.108   5.292
  463SOL     OW 2287   5.986   6.504   2.973
  463SOL    HW1 2288   5.956   6.466   3.060
  463SOL    HW2 2289   5.917   6.568   2.939
  464SOL     OW 2290   4.275   6.104   4.968
  464SOL    HW1 2291   4.325   6.085   4.883
  464SOL    HW2 2292   4.219   6.025   4.992
  465SOL     OW 2293   0.366   5.550   0.702
  465SOL    HW1 2294   0.434   5.477   0.713
  465SOL    HW2 2295   0.301   5.523   0.631
  466SOL     OW 2296   3.619   4.996   3.599
  466SOL    HW1 2297   3.640   5.068   3.664
  466SOL    HW2 2298   3.521   4.973   3.605
  467SOL     OW 2299   6.940   6.868   1.401
  467SOL    HW1 2300   6.989   6.946   1.363
  467SOL    HW2 2301   7.004   6.809   1.450
  468SOL     OW 2302   2.609   6.750   6.822
  468SOL    HW1 2303   2.557   6.815   6.766
  468SOL    HW2 2304   2.576   6.754   6.916
  469SOL     OW 2305   4.228   5.118   5.243
  469SOL    HW1 2306   4.171   5.036   5.247
  469SOL    HW2 2307   4.318   5.094   5.208
  470SOL     OW 2308   2.543   4.951   1.956
  470SOL    HW1 2309   2.526   4.854   1.976
  470SOL    HW2 2310   2.640   4.964   1.937
  471SOL     OW 2311   1.696   2.449   4.269
  471SOL    HW1 2312   1.702   2.373   4.334
  471SOL    HW2 2313   1.612   2.440   4.215
  472SOL     OW 2314   4.892   3.793   6.762
  472SOL    HW1 2315   4.876   3.737   6.680
  472SOL    HW2 2316   4.846   3.881   6.751
  473SOL     OW 2317   5.674   3.503   2.047
  473SOL    HW1 2318   5.612   3.571   2.006
  473SOL    HW2 2319   5.712   3.446   1.975
  474SOL     OW 2320   4.690   5.083   3.715
  474SOL    HW1 2321   4.759   5.104   3.784
  474SOL    HW2 2322   4.733   5.040   3.636
  475SOL     OW 2323   4.753   1.344   0.640
  475SOL    HW1 2324   4.732   1.263   0.694
  475SOL    HW2 2325   4.818   1.402   0.689
  476SOL     OW 2326   1.034   3.150   0.184
  476SOL    HW1 2327   0.968   3.203   0.131
  476SOL    HW2 2328   1.006   3.148   0.280
  477SOL     OW 2329   5.650   5.906   4.423
  477SOL    HW1 2330   5.661   5.991   4.371
  477SOL    HW2 2331   5.678   5.828   4.367
  478SOL     OW 2332   6.576   5.065   1.521
  478SOL    HW1 2333   6.633   5.050   1.602
  478SOL    HW2 2334   6.488   5.105   1.550
  479SOL     OW 2335   3.592   3.617   2.772
  479SOL    HW1 2336   3.537   3.555   2.828
  479SOL    HW2 2337   3.603   3.704   2.820
  480SOL     OW 2338   0.064   0.347   1.593
  480SOL    HW1 2339   0.078   0.437   1.633
  480SOL    HW2 2340   6.990   0.325   1.591
  481SOL     OW 2341   6.368   6.447   0.960
  481SOL    HW1 2342   6.430   6.386   1.008
  481SOL    HW2 2343   6.277   6.443   1.002
  482SOL     OW 2344   3.721   5.133   2.870
  482SOL    HW1 2345   3.691   5.087   2.786
  482SOL    HW2 2346   3.649   5.194   2.901
  483SOL     OW 2347   6.273   2.444   4.840
  483SOL    HW1 2348   6.356   2.448   4.784
  483SOL    HW2 2349   6.193   2.442   4.780
  484SOL     OW 2350   2.535   5.405   3.985
  484SOL    HW1 2351   2.594   5.341   4.034
  484SOL    HW2 2352   2.592   5.464   3.927
  485SOL     OW 2353   4.767   2.583   1.066
  485SOL    HW1 2354   4.706   2.535   1.130
  485SOL    HW2 2355   4.713   2.642   1.006
  486SOL     OW 2356   6.033   6.319   5.196
  486SOL    HW1 2357   6.108   6.301   5.133
  486SOL    HW2 2358   5.963   6.248   5.186
  487SOL     OW 2359   6.443   1.142   6.893
  487SOL    HW1 2360   6.507   1.168   6.821
  487SOL    HW2 2361   6.349   1.149   6.858
  488SOL     OW 2362   1.605   5.941   3.993
  488SOL    HW1 2363   1.530   5.961   4.056
  488SOL    HW2 2364   1.653   6.026   3.970
  489SOL     OW 2365   2.568   4.289   5.463
  489SOL    HW1 2366   2.666   4.267   5.471
  489SOL    HW2 2367   2.557   4.387   5.448
  490SOL     OW 2368   1.113   3.722   4.834
  490SOL    HW1 2369   1.075   3.781   4.762
  490SOL    HW2 2370   1.077   3.752   4.923
  491SOL     OW 2371   6.389   3.322   1.432
  491SOL    HW1 2372   6.320   3.251   1.450
  491SOL    HW2 2373   6.369   3.402   1.488
  492SOL     OW 2374   1.609   2.666   5.793
  492SOL    HW1 2375   1.619   2.745   5.854
  492SOL    HW2 2376   1.593   2.584   5.847
  493SOL     OW 2377   1.503   5.627   4.131
  493SOL    HW1 2378   1.459   5.669   4.052
  493SOL    HW2 2379   1.443   5.556   4.169
  494SOL     OW 2380   2.997   0.111   2.781
  494SOL    HW1 2381   3.006   0.134   2.684
  494SOL    HW2 2382   2.929   0.171   2.823
  495SOL     OW 2383   4.393   4.502   6.778
  495SOL    HW1 2384   4.317   4.477   6.718
  495SOL    HW2 2385   4.455   4.424   6.788
  496SOL     OW 2386   4.862   6.909   3.062
  496SOL    HW1 2387   4.929   6.937   3.130
  496SOL    HW2 2388   4.816   6.826   3.093
  497SOL     OW 2389   4.366   3.177   1.204
  497SOL    HW1 2390   4.413   3.192   1.291
  497SOL    HW2 2391   4.317   3.090   1.208
  498SOL     OW 2392   1.071   7.011   0.799
  498SOL    HW1 2393   1.089   0.069   0.855
  498SOL    HW2 2394   1.004   6.953   0.846
  499SOL     OW 2395   2.963   6.934   6.303
  499SOL    HW1 2396   3.008   6.962   6.219
  499SOL    HW2 2397   2.927   6.841   6.293
  500SOL     OW 2398   6.244   1.386   6.020
  500SOL    HW1 2399   6.170   1.453   6.029
  500SOL    HW2 2400   6.292   1.401   5.933
  501SOL     OW 2401   1.635   2.284   4.502
  501SOL    HW1 2402   1.590   2.208   4.550
  501SOL    HW2 2403   1.712   2.317   4.557
  502SOL     OW 2404   3.109   3.084   6.981
  502SOL    HW1 2405   3.018   3.051   6.956
  502SOL    HW2 2406   3.129   3.060   0.053
  503SOL     OW 2407   3.935   5.663   1.637
  503SOL    HW1 2408   3.913   5.761   1.641
  503SOL    HW2 2409   3.872   5.618   1.574
  504SOL     OW 2410   5.944   0.695   0.147
  504SOL    HW1 2411   5.909   0.784   0.118
  504SOL    HW2 2412   6.039   0.706   0.178
  505SOL     OW 2413   0.185   4.114   5.671
  505SOL    HW1 2414   0.222   4.172   5.743
  505SOL    HW2 2415   0.219   4.020   5.682
  506SOL     OW 2416   2.847   5.796   2.180
  506SOL    HW1 2417   2.833   5.761   2.273
  506SOL    HW2 2418   2.759   5.825   2.141
  507SOL     OW 2419   2.537   0.113   3.779
  507SOL    HW1 2420   2.544   0.079   3.686
  507SOL    HW2 2421   2.492   0.203   3.778
  508SOL     OW 2422   0.945   5.054   2.771
  508SOL    HW1 2423   0.938   5.053   2.870
  508SOL    HW2 2424   0.954   5.149   2.739
  509SOL     OW 2425   5.059   0.747   6.227
  509SOL    HW1 2426   5.095   0.828   6.182
  509SOL    HW2 2427   4.960   0.754   6.236
  510SOL     OW 2428   6.703   4.876   0.184
  510SOL    HW1 2429   6.650   4.957   0.162
  510SOL    HW2 2430   6.676   4.801   0.124
  511SOL     OW 2431   6.995   2.248   0.586
  511SOL    HW1 2432   0.016   2.233   0.674
  511SOL    HW2 2433   0.024   2.202   0.514
  512SOL     OW 2434   1.544   1.641   4.824
  512SOL    HW1 2435   1.571   1.584   4.746
  512SOL    HW2 2436   1.503   1.583   4.895
  513SOL     OW 2437   5.806   5.603   2.420
  513SOL    HW1 2438   5.816   5.504   2.418
  513SOL    HW2 2439   5.742   5.631   2.348
  514SOL     OW 2440   5.105   1.326   4.626
  514SOL    HW1 2441   5.049   1.406   4.605
  514SOL    HW2 2442   5.164   1.346   4.704
  515SOL     OW 2443   3.001   0.696   6.748
  515SOL    HW1 2444   3.092   0.661   6.726
  515SOL    HW2 2445   2.978   0.771   6.686
  516SOL     OW 2446   0.413   5.848   2.928
  516SOL    HW1 2447   0.492   5.896   2.966
  516SOL    HW2 2448   0.347   5.914   2.893
  517SOL     OW 2449   3.392   5.322   0.665
  517SOL    HW1 2450   3.454   5.263   0.717
  517SOL    HW2 2451   3.299   5.286   0.670
  518SOL     OW 2452   1.832   0.395   3.769
  518SOL    HW1 2453   1.818   0.300   3.798
  518SOL    HW2 2454   1.796   0.457   3.840
  519SOL     OW 2455   6.831   6.374   3.191
  519SOL    HW1 2456   6.770   6.364   3.113
  519SOL    HW2 2457   6.811   6.459   3.238
  520SOL     OW 2458   3.604   5.682   0.669
  520SOL    HW1 2459   3.545   5.632   0.732
  520SOL    HW2 2460   3.550   5.716   0.592
  521SOL     OW 2461   0.148   6.972   5.012
  521SOL    HW1 2462   0.081   6.901   4.990
  521SOL    HW2 2463   0.240   6.935   5.001
  522SOL     OW 2464   3.456   5.194   6.380
  522SOL    HW1 2465   3.463   5.291   6.402
  522SOL    HW2 2466   3.509   5.175   6.297
  523SOL     OW 2467   1.717   6.545   6.021
  523SOL    HW1 2468   1.702   6.614   6.091
  523SOL    HW2 2469   1.641   6.480   6.021
  524SOL     OW 2470   6.765   1.651   1.548
  524SOL    HW1 2471   6.796   1.684   1.637
  524SOL    HW2 2472   6.684   1.703   1.521
  525SOL     OW 2473   0.352   3.164   3.385
  525SOL    HW1 2474   0.253   3.150   3.392
  525SOL    HW2 2475   0.385   3.127   3.298
  526SOL     OW 2476   4.125   5.971   4.617
  526SOL    HW1 2477   4.112   5.877   4.587
  526SOL    HW2 2478   4.057   6.030   4.573
  527SOL     OW 2479   6.472   1.565   0.355
  527SOL    HW1 2480   6.407   1.591   0.284
  527SOL    HW2 2481   6.440   1.482   0.402
  528SOL     OW 2482   6.975   1.218   3.842
  528SOL    HW1 2483   6.897   1.272   3.810
  528SOL    HW2 2484   6.962   1.196   3.939
  529SOL     OW 2485   0.675   1.408   5.587
  529SOL    HW1 2486   0.613   1.372   5.656
  529SOL    HW2 2487   0.641   1.495   5.552
  530SOL     OW 2488   3.463   4.415   1.715
  530SOL    HW1 2489   3.455   4.340   1.781
  530SOL    HW2 2490   3.521   4.487   1.753
  531SOL     OW 2491   0.329   1.516   5.785
  531SOL    HW1 2492   0.331   1.544   5.881
  531SOL    HW2 2493   0.336   1.597   5.727
  532SOL     OW 2494   3.739   1.015   6.963
  532SOL    HW1 2495   3.672   0.956   6.917
  532SOL    HW2 2496   3.714   1.110   6.949
  533SOL     OW 2497   3.407   6.934   4.519
  533SOL    HW1 2498   3.484   6.995   4.504
  533SOL    HW2 2499   3.395   6.918   4.617
  534SOL     OW 2500   2.166   4.356   1.135
  534SOL    HW1 2501   2.138   4.282   1.073
  534SOL    HW2 2502   2.118   4.347   1.222
  535SOL     OW 2503   4.751   4.052   3.384
  535SOL    HW1 2504   4.697   4.128   3.420
  535SOL    HW2 2505   4.847   4.065   3.409
  536SOL     OW 2506   6.562   0.275   1.082
  536SOL    HW1 2507   6.477   0.232   1.049
  536SOL    HW2 2508   6.543   0.324   1.167
  537SOL     OW 2509   3.088   2.002   2.276
  537SOL    HW1 2510   3.161   2.032   2.338
  537SOL    HW2 2511   3.092   1.902   2.267
  538SOL     OW 2512   4.040   5.677   6.311
  538SOL    HW1 2513   4.006   5.610   6.245
  538SOL    HW2 2514   4.140   5.671   6.315
  539SOL     OW 2515   3.079   0.054   6.990
  539SOL    HW1 2516   3.123   0.132   0.009
  539SOL    HW2 2517   3.008   0.018   0.028
  540SOL     OW 2518   1.897   1.733   5.311
  540SOL    HW1 2519   1.889   1.830   5.334
  540SOL    HW2 2520   1.894   1.723   5.212
  541SOL     OW 2521   6.056   5.767   1.762
  541SOL    HW1 2522   6.061   5.851   1.708
  541SOL    HW2 2523   6.141   5.754   1.812
  542SOL     OW 2524   4.121   5.648   5.932
  542SOL    HW1 2525   4.060   5.707   5.985
  542SOL    HW2 2526   4.185   5.704   5.879
  543SOL     OW 2527   6.794   1.638   4.928
  543SOL    HW1 2528   6.818   1.654   4.832
  543SOL    HW2 2529   6.777   1.540   4.941
  544SOL     OW 2530   1.093   2.140   0.993
  544SOL    HW1 2531   1.045   2.096   1.069
  544SOL    HW2 2532   1.070   2.093   0.908
  545SOL     OW 2533   0.226   5.442   0.504
  545SOL    HW1 2534   0.144   5.477   0.457
  545SOL    HW2 2535   0.280   5.388   0.440
  546SOL     OW 2536   6.549   6.075   2.733
  546SOL    HW1 2537   6.578   6.160   2.688
  546SOL    HW2 2538   6.473   6.095   2.795
  547SOL     OW 2539   3.528   6.006   6.970
  547SOL    HW1 2540   3.489   6.062   0.020
  547SOL    HW2 2541   3.519   6.053   6.883
  548SOL     OW 2542   4.297   3.115   6.323
  548SOL    HW1 2543   4.346   3.045   6.375
  548SOL    HW2 2544   4.362   3.171   6.272
  549SOL     OW 2545   5.389   2.636   4.046
  549SOL    HW1 2546   5.422   2.660   4.137
  549SOL    HW2 2547   5.429   2.699   3.979
  550SOL     OW 2548   0.129   5.508   4.012
  550SOL    HW1 2549   0.128   5.417   3.971
  550SOL    HW2 2550   0.137   5.577   3.940
  551SOL     OW 2551   5.481   0.773   0.298
  551SOL    HW1 2552   5.458   0.806   0.389
  551SOL    HW2 2553   5.455   0.677   0.289
  552SOL     OW 2554   1.033   0.369   4.246
  552SOL    HW1 2555   0.940   0.337   4.259
  552SOL    HW2 2556   1.088   0.297   4.202
  553SOL     OW 2557   4.102   2.212   5.570
  553SOL    HW1 2558   4.127   2.135   5.629
  553SOL    HW2 2559   4.057   2.283   5.624
  554SOL     OW 2560   0.321   4.828   0.504
  554SOL    HW1 2561   0.296   4.875   0.419
  554SOL    HW2 2562   0.302   4.887   0.582
  555SOL     OW 2563   4.211   5.038   5.911
  555SOL    HW1 2564   4.152   5.097   5.966
  555SOL    HW2 2565   4.262   5.092   5.845
  556SOL     OW 2566   5.621   6.126   3.099
  556SOL    HW1 2567   5.546   6.139   3.163
  556SOL    HW2 2568   5.592   6.065   3.025
  557SOL     OW 2569   6.612   3.733   0.516
  557SOL    HW1 2570   6.628   3.637   0.538
  557SOL    HW2 2571   6.700   3.783   0.519
  558SOL     OW 2572   3.533   3.592   1.965
  558SOL    HW1 2573   3.454   3.554   1.915
  558SOL    HW2 2574   3.506   3.676   2.011
  559SOL     OW 2575   5.944   1.184   6.301
  559SOL    HW1 2576   6.034   1.222   6.281
  559SOL    HW2 2577   5.953   1.088   6.329
  560SOL     OW 2578   1.699   2.422   2.954
  560SOL    HW1 2579   1.636   2.400   3.029
  560SOL    HW2 2580   1.777   2.359   2.957
  561SOL     OW 2581   6.711   4.452   0.485
  561SOL    HW1 2582   6.714   4.434   0.584
  561SOL    HW2 2583   6.723   4.550   0.469
  562SOL     OW 2584   3.154   6.493   3.294
  562SOL    HW1 2585   3.055   6.491   3.311
  562SOL    HW2 2586   3.182   6.404   3.257
  563SOL     OW 2587   1.025   0.862   4.299
  563SOL    HW1 2588   1.074   0.781   4.269
  563SOL    HW2 2589   0.927   0.842   4.303
  564SOL     OW 2590   6.097   1.919   5.971
  564SOL    HW1 2591   6.166   1.894   5.903
  564SOL    HW2 2592   6.006   1.910   5.931
  565SOL     OW 2593   3.472   3.430   3.704
  565SOL    HW1 2594   3.501   3.367   3.776
  565SOL    HW2 2595   3.446   3.377   3.623
  566SOL     OW 2596   1.114   2.547   3.568
  566SOL    HW1 2597   1.021   2.513   3.558
  566SOL    HW2 2598   1.113   2.635   3.614
  567SOL     OW 2599   1.628   3.188   5.274
  567SOL    HW1 2600   1.656   3.092   5.278
  567SOL    HW2 2601   1.590   3.216   5.362
  568SOL     OW 2602   0.948   0.243   6.618
  568SOL    HW1 2603   0.881   0.183   6.575
  568SOL    HW2 2604   0.988   0.303   6.548
  569SOL     OW 2605   5.278   3.339   5.217
  569SOL    HW1 2606   5.214   3.294   5.279
  569SOL    HW2 2607   5.281   3.437   5.236
  570SOL     OW 2608   2.970   0.400   5.493
  570SOL    HW1 2609   2.885   0.371   5.536
  570SOL    HW2 2610   3.032   0.437   5.563
  571SOL     OW 2611   2.134   4.206   2.526
  571SOL    HW1 2612   2.189   4.179   2.605
  571SOL    HW2 2613   2.044   4.239   2.558
  572SOL     OW 2614   2.232   1.633   4.688
  572SOL    HW1 2615   2.219   1.661   4.593
  572SOL    HW2 2616   2.181   1.694   4.748
  573SOL     OW 2617   0.686   0.065   5.903
  573SOL    HW1 2618   0.606   0.009   5.922
  573SOL    HW2 2619   0.658   0.152   5.863
  574SOL     OW 2620   2.616   0.565   5.776
  574SOL    HW1 2621   2.659   0.481   5.810
  574SOL    HW2 2622   2.539   0.541   5.717
  575SOL     OW 2623   4.100   3.870   0.257
  575SOL    HW1 2624   4.024   3.934   0.253
  575SOL    HW2 2625   4.092   3.804   0.183
  576SOL     OW 2626   0.128   0.424   3.807
  576SOL    HW1 2627   0.085   0.431   3.717
  576SOL    HW2 2628   0.078   0.359   3.863
  577SOL     OW 2629   0.123   0.104   2.153
  577SOL    HW1 2630   0.182   0.036   2.110
  577SOL    HW2 2631   0.157   0.126   2.244
  578SOL     OW 2632   4.353   6.729   0.849
  578SOL    HW1 2633   4.445   6.728   0.889
  578SOL    HW2 2634   4.348   6.659   0.777
  579SOL     OW 2635   0.537   3.981   1.788
  579SOL    HW1 2636   0.561   3.906   1.726
  579SOL    HW2 2637   0.440   4.004   1.778
  580SOL     OW 2638   4.623   4.821   4.900
  580SOL    HW1 2639   4.551   4.880   4.863
  580SOL    HW2 2640   4.618   4.821   5.000
  581SOL     OW 2641   2.617   2.413   3.594
  581SOL    HW1 2642   2.611   2.317   3.566
  581SOL    HW2 2643   2.710   2.446   3.579
  582SOL     OW 2644   5.448   4.090   4.872
  582SOL    HW1 2645   5.472   4.108   4.776
  582SOL    HW2 2646   5.351   4.066   4.877
  583SOL     OW 2647   2.959   5.705   5.424
  583SOL    HW1 2648   2.928   5.675   5.334
  583SOL    HW2 2649   2.881   5.708   5.487
  584SOL     OW 2650   3.777   0.681   5.284
  584SOL    HW1 2651   3.824   0.744   5.222
  584SOL    HW2 2652   3.698   0.641   5.238
  585SOL     OW 2653   3.966   6.594   1.764
  585SOL    HW1 2654   3.866   6.595   1.762
  585SOL    HW2 2655   4.001   6.687   1.776
  586SOL     OW 2656   3.628   6.876   0.862
  586SOL    HW1 2657   3.555   6.876   0.794
  586SOL    HW2 2658   3.655   6.781   0.882
  587SOL     OW 2659   4.773   0.721   2.914
  587SOL    HW1 2660   4.839   0.735   2.988
  587SOL    HW2 2661   4.789   0.632   2.871
  588SOL     OW 2662   2.125   3.936   2.733
  588SOL    HW1 2663   2.094   3.938   2.638
  588SOL    HW2 2664   2.179   4.018   2.753
  589SOL     OW 2665   3.639   4.631   5.804
  589SOL    HW1 2666   3.574   4.684   5.857
  589SOL    HW2 2667   3.590   4.576   5.737
  590SOL     OW 2668   2.280   1.683   6.231
  590SOL    HW1 2669   2.366   1.713   6.190
  590SOL    HW2 2670   2.240   1.609   6.175
  591SOL     OW 2671   2.722   0.128   3.975
  591SOL    HW1 2672   2.701   0.035   4.003
  591SOL    HW2 2673   2.659   0.156   3.902
  592SOL     OW 2674   4.457   2.116   4.165
  592SOL    HW1 2675   4.479   2.156   4.254
  592SOL    HW2 2676   4.479   2.018   4.167
  593SOL     OW 2677   1.517   6.917   0.085
  593SOL    HW1 2678   1.482   6.912   7.014
  593SOL    HW2 2679   1.449   6.961   0.143
  594SOL     OW 2680   3.092   1.484   5.248
  594SOL    HW1 2681   3.155   1.449   5.179
  594SOL    HW2 2682   3.134   1.477   5.338
  595SOL     OW 2683   5.983   3.914   2.656
  595SOL    HW1 2684   5.914   3.872   2.714
  595SOL    HW2 2685   6.007   3.851   2.582
  596SOL     OW 2686   6.238   4.774   4.598
  596SOL    HW1 2687   6.217   4.837   4.672
  596SOL    HW2 2688   6.155   4.752   4.548
  597SOL     OW 2689   4.101   1.715   6.644
  597SOL    HW1 2690   4.172   1.784   6.630
  597SOL    HW2 2691   4.142   1.633   6.684
  598SOL     OW 2692   3.037   3.048   2.067
  598SOL    HW1 2693   3.083   3.104   2.135
  598SOL    HW2 2694   3.099   2.978   2.032
  599SOL     OW 2695   1.730   5.059   1.398
  599SOL    HW1 2696   1.716   5.023   1.491
  599SOL    HW2 2697   1.788   4.996   1.347
  600SOL     OW 2698   0.095   3.362   5.701
  600SOL    HW1 2699   0.158   3.383   5.626
  600SOL    HW2 2700   0.135   3.292   5.760
  601SOL     OW 2701   6.932   0.190   5.822
  601SOL    HW1 2702   6.877   0.235   5.892
  601SOL    HW2 2703   0.004   0.187   5.851
  602SOL     OW 2704   0.406   0.384   3.394
  602SOL    HW1 2705   0.356   0.444   3.331
  602SOL    HW2 2706   0.466   0.439   3.452
  603SOL     OW 2707   1.400   1.622   3.830
  603SOL    HW1 2708   1.441   1.531   3.814
  603SOL    HW2 2709   1.304   1.611   3.853
  604SOL     OW 2710   5.470   1.811   0.849
  604SOL    HW1 2711   5.430   1.821   0.758
  604SOL    HW2 2712   5.526   1.890   0.871
  605SOL     OW 2713   5.562   6.392   1.915
  605SOL    HW1 2714   5.535   6.312   1.969
  605SOL    HW2 2715   5.501   6.403   1.837
  606SOL     OW 2716   2.945   6.681   5.429
  606SOL    HW1 2717   2.975   6.657   5.522
  606SOL    HW2 2718   2.909   6.775   5.429
  607SOL     OW 2719   1.734   3.395   6.261
  607SOL    HW1 2720   1.758   3.470   6.323
  607SOL    HW2 2721   1.753   3.308   6.306
  608SOL     OW 2722   3.060   1.113   6.590
  608SOL    HW1 2723   3.031   1.204   6.561
  608SOL    HW2 2724   3.153   1.096   6.557
  609SOL     OW 2725   4.039   3.171   2.706
  609SOL    HW1 2726   4.102   3.206   2.776
  609SOL    HW2 2727   3.948   3.207   2.723
  610SOL     OW 2728   5.651   2.648   1.972
  610SOL    HW1 2729   5.615   2.741   1.977
  610SOL    HW2 2730   5.580   2.584   2.003
  611SOL     OW 2731   3.683   1.449   2.020
  611SOL    HW1 2732   3.768   1.452   1.969
  611SOL    HW2 2733   3.609   1.419   1.959
  612SOL     OW 2734   4.017   5.637   3.927
  612SOL    HW1 2735   4.006   5.689   4.012
  612SOL    HW2 2736   4.057   5.548   3.949
  613SOL     OW 2737   3.651   5.898   6.606
  613SOL    HW1 2738   3.713   5.881   6.529
  613SOL    HW2 2739   3.595   5.817   6.622
  614SOL     OW 2740   3.552   6.045   5.848
  614SOL    HW1 2741   3.617   6.042   5.773
  614SOL    HW2 2742   3.476   5.982   5.829
  615SOL     OW 2743   6.841   5.192   3.692
  615SOL    HW1 2744   6.773   5.120   3.676
  615SOL    HW2 2745   6.828   5.230   3.783
  616SOL     OW 2746   6.212   2.645   3.678
  616SOL    HW1 2747   6.224   2.546   3.673
  616SOL    HW2 2748   6.116   2.667   3.691
  617SOL     OW 2749   2.297   0.435   6.089
  617SOL    HW1 2750   2.350   0.433   6.174
  617SOL    HW2 2751   2.200   0.422   6.110
  618SOL     OW 2752   2.175   0.608   2.562
  618SOL    HW1 2753   2.168   0.613   2.462
  618SOL    HW2 2754   2.269   0.588   2.588
  619SOL     OW 2755   1.296   2.632   6.856
  619SOL    HW1 2756   1.373   2.575   6.883
  619SOL    HW2 2757   1.329   2.711   6.805
  620SOL     OW 2758   4.988   4.071   0.999
  620SOL    HW1 2759   5.045   4.124   0.937
  620SOL    HW2 2760   4.961   3.985   0.955
  621SOL     OW 2761   0.286   6.039   0.830
  621SOL    HW1 2762   0.197   6.075   0.858
  621SOL    HW2 2763   0.311   6.078   0.741
  622SOL     OW 2764   1.259   1.311   6.767
  622SOL    HW1 2765   1.266   1.299   6.668
  622SOL    HW2 2766   1.340   1.274   6.812
  623SOL     OW 2767   6.053   5.762   5.266
  623SOL    HW1 2768   6.140   5.755   5.316
  623SOL    HW2 2769   5.992   5.688   5.295
  624SOL     OW 2770   6.898   1.637   1.265
  624SOL    HW1 2771   6.851   1.638   1.354
  624SOL    HW2 2772   6.921   1.543   1.241
  625SOL     OW 2773   1.331   0.813   1.825
  625SOL    HW1 2774   1.250   0.806   1.883
  625SOL    HW2 2775   1.402   0.863   1.873
  626SOL     OW 2776   3.958   5.391   5.234
  626SOL    HW1 2777   3.908   5.450   5.170
  626SOL    HW2 2778   3.907   5.386   5.321
  627SOL     OW 2779   4.384   5.529   0.588
  627SOL    HW1 2780   4.440   5.556   0.510
  627SOL    HW2 2781   4.288   5.528   0.561
  628SOL     OW 2782   5.005   3.503   3.751
  628SOL    HW1 2783   4.971   3.441   3.821
  628SOL    HW2 2784   5.010   3.455   3.663
  629SOL     OW 2785   1.332   0.074   1.378
  629SOL    HW1 2786   1.272   0.064   1.299
  629SOL    HW2 2787   1.409   0.010   1.370
  630SOL     OW 2788   2.605   1.480   1.916
  630SOL    HW1 2789   2.612   1.565   1.864
  630SOL    HW2 2790   2.693   1.459   1.957
  631SOL     OW 2791   2.336   1.279   4.099
  631SOL    HW1 2792   2.246   1.308   4.068
  631SOL    HW2 2793   2.395   1.260   4.020
  632SOL     OW 2794   3.435   1.115   0.243
  632SOL    HW1 2795   3.459   1.204   0.281
  632SOL    HW2 2796   3.363   1.073   0.298
  633SOL     OW 2797   2.160   0.200   4.389
  633SOL    HW1 2798   2.257   0.182   4.408
  633SOL    HW2 2799   2.149   0.221   4.293
  634SOL     OW 2800   2.998   5.177   1.884
  634SOL    HW1 2801   3.095   5.160   1.895
  634SOL    HW2 2802   2.979   5.205   1.790
  635SOL     OW 2803   3.248   0.779   1.898
  635SOL    HW1 2804   3.308   0.743   1.970
  635SOL    HW2 2805   3.243   0.713   1.823
  636SOL     OW 2806   4.991   4.736   6.707
  636SOL    HW1 2807   5.057   4.803   6.742
  636SOL    HW2 2808   5.018   4.708   6.615
  637SOL     OW 2809   5.768   5.106   6.509
  637SOL    HW1 2810   5.765   5.125   6.411
  637SOL    HW2 2811   5.711   5.026   6.530
  638SOL     OW 2812   5.380   1.420   3.321
  638SOL    HW1 2813   5.478   1.440   3.317
  638SOL    HW2 2814   5.361   1.339   3.264
  639SOL     OW 2815   3.764   3.632   1.586
  639SOL    HW1 2816   3.738   3.557   1.647
  639SOL    HW2 2817   3.746   3.719   1.631
  640SOL     OW 2818   2.927   2.525   5.344
  640SOL    HW1 2819   2.990   2.477   5.284
  640SOL    HW2 2820   2.865   2.459   5.387
  641SOL     OW 2821   0.242   0.195   5.030
  641SOL    HW1 2822   0.206   0.102   5.030
  641SOL    HW2 2823   0.339   0.193   5.007
  642SOL     OW 2824   0.803   4.920   6.023
  642SOL    HW1 2825   0.859   4.860   6.081
  642SOL    HW2 2826   0.714   4.876   6.006
  643SOL     OW 2827   5.310   6.534   4.098
  643SOL    HW1 2828   5.301   6.476   4.017
  643SOL    HW2 2829   5.405   6.564   4.108
  644SOL     OW 2830   3.309   5.819   1.900
  644SOL    HW1 2831   3.243   5.835   1.973
  644SOL    HW2 2832   3.286   5.733   1.853
  645SOL     OW 2833   0.894   2.987   2.811
  645SOL    HW1 2834   0.833   2.910   2.831
  645SOL    HW2 2835   0.890   3.008   2.714
  646SOL     OW 2836   1.939   3.467   4.509
  646SOL    HW1 2837   1.862   3.453   4.572
  646SOL    HW2 2838   1.975   3.378   4.480
  647SOL     OW 2839   5.489   4.851   1.158
  647SOL    HW1 2840   5.396   4.875   1.184
  647SOL    HW2 2841   5.511   4.895   1.071
  648SOL     OW 2842   4.192   2.321   4.090
  648SOL    HW1 2843   4.098   2.292   4.070
  648SOL    HW2 2844   4.241   2.338   4.005
  649SOL     OW 2845   4.137   4.640   1.522
  649SOL    HW1 2846   4.087   4.622   1.606
  649SOL    HW2 2847   4.234   4.617   1.535
  650SOL     OW 2848   5.619   5.717   6.733
  650SOL    HW1 2849   5.588   5.803   6.774
  650SOL    HW2 2850   5.719   5.719   6.723
  651SOL     OW 2851   1.378   5.435   6.381
  651SOL    HW1 2852   1.476   5.425   6.369
  651SOL    HW2 2853   1.346   5.516   6.332
  652SOL     OW 2854   4.842   2.835   1.350
  652SOL    HW1 2855   4.749   2.814   1.317
  652SOL    HW2 2856   4.838   2.914   1.411
  653SOL     OW 2857   3.477   5.382   3.146
  653SOL    HW1 2858   3.510   5.334   3.065
  653SOL    HW2 2859   3.529   5.466   3.159
  654SOL     OW 2860   0.118   5.105   0.080
  654SOL    HW1 2861   0.103   5.203   0.068
  654SOL    HW2 2862   0.046   5.054   0.035
  655SOL     OW 2863   1.917   1.276   0.377
  655SOL    HW1 2864   1.884   1.358   0.423
  655SOL    HW2 2865   1.846   1.241   0.316
  656SOL     OW 2866   1.598   6.367   1.209
  656SOL    HW1 2867   1.578   6.288   1.150
  656SOL    HW2 2868   1.592   6.451   1.155
  657SOL     OW 2869   3.629   0.138   6.758
  657SOL    HW1 2870   3.636   0.217   6.818
  657SOL    HW2 2871   3.543   0.090   6.776
  658SOL     OW 2872   3.896   5.432   0.751
  658SOL    HW1 2873   3.858   5.410   0.660
  658SOL    HW2 2874   3.914   5.530   0.757
  659SOL     OW 2875   3.618   0.224   6.048
  659SOL    HW1 2876   3.545   0.245   6.113
  659SOL    HW2 2877   3.632   0.125   6.044
  660SOL     OW 2878   3.042   6.598   3.917
  660SOL    HW1 2879   2.957   6.650   3.924
  660SOL    HW2 2880   3.065   6.584   3.820
  661SOL     OW 2881   6.901   5.383   3.092
  661SOL    HW1 2882   6.803   5.398   3.082
  661SOL    HW2 2883   6.951   5.461   3.055
  662SOL     OW 2884   4.464   2.304   6.889
  662SOL    HW1 2885   4.508   2.313   6.979
  662SOL    HW2 2886   4.456   2.394   6.847
  663SOL     OW 2887   1.660   4.153   4.623
  663SOL    HW1 2888   1.650   4.210   4.542
  663SOL    HW2 2889   1.757   4.137   4.641
  664SOL     OW 2890   5.844   0.107   6.284
  664SOL    HW1 2891   5.820   0.010   6.283
  664SOL    HW2 2892   5.761   0.161   6.290
  665SOL     OW 2893   1.660   4.293   2.485
  665SOL    HW1 2894   1.718   4.320   2.562
  665SOL    HW2 2895   1.642   4.195   2.490
  666SOL     OW 2896   3.967   0.921   2.512
  666SOL    HW1 2897   3.970   0.927   2.612
  666SOL    HW2 2898   3.976   0.825   2.484
  667SOL     OW 2899   0.098   0.386   1.220
  667SOL    HW1 2900   0.067   0.346   1.133
  667SOL    HW2 2901   0.029   0.371   1.290
  668SOL     OW 2902   5.079   3.407   6.625
  668SOL    HW1 2903   5.101   3.329   6.566
  668SOL    HW2 2904   5.154   3.423   6.689
  669SOL     OW 2905   5.460   1.194   3.163
  669SOL    HW1 2906   5.511   1.235   3.238
  669SOL    HW2 2907   5.516   1.195   3.080
  670SOL     OW 2908   4.063   1.856   1.850
  670SOL    HW1 2909   4.093   1.763   1.873
  670SOL    HW2 2910   3.975   1.874   1.895
  671SOL     OW 2911   1.330   5.814   2.069
  671SOL    HW1 2912   1.326   5.803   1.970
  671SOL    HW2 2913   1.258   5.877   2.099
  672SOL     OW 2914   0.128   7.009   1.283
  672SOL    HW1 2915   0.146   0.016   1.377
  672SOL    HW2 2916   0.193   0.030   1.221
  673SOL     OW 2917   6.381   7.020   6.344
  673SOL    HW1 2918   6.286   0.019   6.324
  673SOL    HW2 2919   6.393   7.013   6.443
  674SOL     OW 2920   4.685   6.964   4.780
  674SOL    HW1 2921   4.647   6.935   4.868
  674SOL    HW2 2922   4.723   6.885   4.733
  675SOL     OW 2923   1.306   5.264   2.602
  675SOL    HW1 2924   1.217   5.217   2.602
  675SOL    HW2 2925   1.300   5.346   2.658
  676SOL     OW 2926   2.260   5.619   6.971
  676SOL    HW1 2927   2.297   5.527   6.988
  676SOL    HW2 2928   2.334   5.686   6.980
  677SOL     OW 2929   5.157   0.615   0.986
  677SOL    HW1 2930   5.242   0.668   0.981
  677SOL    HW2 2931   5.177   0.518   0.969
  678SOL     OW 2932   0.669   5.426   4.206
  678SOL    HW1 2933   0.726   5.429   4.288
  678SOL    HW2 2934   0.697   5.349   4.149
  679SOL     OW 2935   5.582   1.122   6.057
  679SOL    HW1 2936   5.585   1.126   5.957
  679SOL    HW2 2937   5.673   1.142   6.094
  680SOL     OW 2938   5.976   0.284   4.342
  680SOL    HW1 2939   5.957   0.231   4.260
  680SOL    HW2 2940   6.010   0.374   4.316
  681SOL     OW 2941   4.577   4.476   2.843
  681SOL    HW1 2942   4.654   4.419   2.814
  681SOL    HW2 2943   4.534   4.518   2.762
  682SOL     OW 2944   6.089   1.367   3.180
  682SOL    HW1 2945   6.148   1.428   3.128
  682SOL    HW2 2946   6.017   1.331   3.120
  683SOL     OW 2947   3.469   5.404   0.299
  683SOL    HW1 2948   3.487   5.314   0.338
  683SOL    HW2 2949   3.404   5.396   0.223
  684SOL     OW 2950   5.744   2.002   6.085
  684SOL    HW1 2951   5.696   1.914   6.077
  684SOL    HW2 2952   5.797   2.018   6.001
  685SOL     OW 2953   3.364   6.522   3.491
  685SOL    HW1 2954   3.322   6.591   3.551
  685SOL    HW2 2955   3.303   6.502   3.415
  686SOL     OW 2956   3.160   0.423   5.673
  686SOL    HW1 2957   3.117   0.456   5.757
  686SOL    HW2 2958   3.235   0.361   5.696
  687SOL     OW 2959   0.351   0.700   4.410
  687SOL    HW1 2960   0.254   0.724   4.423
  687SOL    HW2 2961   0.407   0.757   4.469
  688SOL     OW 2962   4.911   3.691   7.021
  688SOL    HW1 2963   4.893   3.724   6.929
  688SOL    HW2 2964   4.946   3.597   7.017
  689SOL     OW 2965   2.378   5.878   0.062
  689SOL    HW1 2966   2.314   5.831   0.123
  689SOL    HW2 2967   2.393   5.971   0.095
  690SOL     OW 2968   5.867   3.565   3.887
  690SOL    HW1 2969   5.798   3.555   3.959
  690SOL    HW2 2970   5.849   3.648   3.835
  691SOL     OW 2971   5.400   0.577   2.830
  691SOL    HW1 2972   5.362   0.630   2.754
  691SOL    HW2 2973   5.451   0.638   2.891
  692SOL     OW 2974   1.173   0.238   3.592
  692SOL    HW1 2975   1.254   0.217   3.538
  692SOL    HW2 2976   1.200   0.257   3.686
  693SOL     OW 2977   5.744   4.030   2.209
  693SOL    HW1 2978   5.829   3.978   2.204
  693SOL    HW2 2979   5.743   4.084   2.293
  694SOL     OW 2980   4.224   4.725   4.238
  694SOL    HW1 2981   4.162   4.794   4.276
  694SOL    HW2 2982   4.277   4.684   4.313
  695SOL     OW 2983   4.478   0.115   4.325
  695SOL    HW1 2984   4.468   0.084   4.419
  695SOL    HW2 2985   4.568   0.159   4.314
  696SOL     OW 2986   6.907   4.668   1.980
  696SOL    HW1 2987   6.939   4.740   2.042
  696SOL    HW2 2988   6.961   4.585   1.993
  697SOL     OW 2989   0.553   6.196   3.143
  697SOL    HW1 2990   0.466   6.200   3.192
  697SOL    HW2 2991   0.550   6.124   3.075
  698SOL     OW 2992   5.849   6.290   5.468
  698SOL    HW1 2993   5.860   6.218   5.398
  698SOL    HW2 2994   5.755   6.289   5.502
  699SOL     OW 2995   3.934   2.873   0.467
  699SOL    HW1 2996   4.015   2.903   0.517
  699SOL    HW2 2997   3.908   2.944   0.401
  700SOL     OW 2998   3.396   6.540   5.315
  700SOL    HW1 2999   3.311   6.590   5.327
  700SOL    HW2 3000   3.406   6.474   5.390
  701SOL     OW 3001   4.472   4.544   1.830
  701SOL    HW1 3002   4.570   4.539   1.812
  701SOL    HW2 3003   4.434   4.452   1.841
  702SOL     OW 3004   3.565   1.013   4.846
  702SOL    HW1 3005   3.633   0.939   4.852
  702SOL    HW2 3006   3.610   1.096   4.814
  703SOL     OW 3007   3.417   3.087   0.457
  703SOL    HW1 3008   3.375   3.006   0.418
  703SOL    HW2 3009   3.499   3.111   0.405
  704SOL     OW 3010   3.932   2.004   0.132
  704SOL    HW1 3011   4.003   1.945   0.092
  704SOL    HW2 3012   3.860   2.020   0.065
  705SOL     OW 3013   7.016   6.768   5.763
  705SOL    HW1 3014   6.948   6.776   5.691
  705SOL    HW2 3015   6.990   6.695   5.827
  706SOL     OW 3016   3.666   0.609   4.925
  706SOL    HW1 3017   3.619   0.617   5.012
  706SOL    HW2 3018   3.765   0.609   4.941
  707SOL     OW 3019   3.345   5.065   4.279
  707SOL    HW1 3020   3.336   5.118   4.363
  707SOL    HW2 3021   3.266   5.005   4.269
  708SOL     OW 3022   2.596   6.212   4.155
  708SOL    HW1 3023   2.598   6.117   4.125
  708SOL    HW2 3024   2.678   6.259   4.124
  709SOL     OW 3025   2.116   6.891   1.666
  709SOL    HW1 3026   2.031   6.874   1.616
  709SOL    HW2 3027   2.122   6.988   1.690
  710SOL     OW 3028   4.661   2.643   2.671
  710SOL    HW1 3029   4.682   2.708   2.598
  710SOL    HW2 3030   4.614   2.564   2.633
  711SOL     OW 3031   6.944   1.253   0.790
  711SOL    HW1 3032   6.917   1.189   0.862
  711SOL    HW2 3033   6.933   1.210   0.700
  712SOL     OW 3034   4.653   4.434   6.965
  712SOL    HW1 3035   4.729   4.483   7.008
  712SOL    HW2 3036   4.669   4.428   6.866
  713SOL     OW 3037   3.926   3.001   5.638
  713SOL    HW1 3038   3.884   2.981   5.727
  713SOL    HW2 3039   3.974   2.919   5.605
  714SOL     OW 3040   4.301   6.530   3.062
  714SOL    HW1 3041   4.385   6.575   3.032
  714SOL    HW2 3042   4.223   6.590   3.044
  715SOL     OW 3043   6.059   4.475   5.773
  715SOL    HW1 3044   5.976   4.418   5.771
  715SOL    HW2 3045   6.132   4.425   5.819
  716SOL     OW 3046   3.265   1.182   3.337
  716SOL    HW1 3047   3.305   1.271   3.316
  716SOL    HW2 3048   3.229   1.182   3.430
  717SOL     OW 3049   5.681   4.655   3.700
  717SOL    HW1 3050   5.753   4.605   3.651
  717SOL    HW2 3051   5.697   4.646   3.798
  718SOL     OW 3052   6.626   1.933   5.500
  718SOL    HW1 3053   6.660   2.028   5.502
  718SOL    HW2 3054   6.610   1.902   5.593
  719SOL     OW 3055   4.799   5.492   1.966
  719SOL    HW1 3056   4.855   5.429   2.020
  719SOL    HW2 3057   4.739   5.544   2.027
  720SOL     OW 3058   2.933   1.824   0.983
  720SOL    HW1 3059   2.980   1.895   0.931
  720SOL    HW2 3060   2.836   1.846   0.990
  721SOL     OW 3061   6.922   2.636   2.631
  721SOL    HW1 3062   6.903   2.667   2.538
  721SOL    HW2 3063   6.912   2.713   2.694
  722SOL     OW 3064   5.630   5.828   2.198
  722SOL    HW1 3065   5.644   5.834   2.297
  722SOL    HW2 3066   5.554   5.888   2.172
  723SOL     OW 3067   2.434   0.245   4.918
  723SOL    HW1 3068   2.402   0.330   4.876
  723SOL    HW2 3069   2.533   0.248   4.930
  724SOL     OW 3070   1.147   2.723   4.760
  724SOL    HW1 3071   1.182   2.702   4.852
  724SOL    HW2 3072   1.151   2.640   4.704
  725SOL     OW 3073   1.660   3.960   3.551
  725SOL    HW1 3074   1.573   4.007   3.541
  725SOL    HW2 3075   1.643   3.862   3.563
  726SOL     OW 3076   2.556   3.406   0.491
  726SOL    HW1 3077   2.547   3.505   0.478
  726SOL    HW2 3078   2.652   3.380   0.478
  727SOL     OW 3079   4.013   5.196   5.008
  727SOL    HW1 3080   4.014   5.237   5.099
  727SOL    HW2 3081   3.981   5.263   4.941
  728SOL     OW 3082   6.177   3.778   3.542
  728SOL    HW1 3083   6.249   3.848   3.537
  728SOL    HW2 3084   6.139   3.776   3.634
  729SOL     OW 3085   0.712   4.775   0.291
  729SOL    HW1 3086   0.712   4.726   0.378
  729SOL    HW2 3087   0.758   4.720   0.221
  730SOL     OW 3088   3.973   1.324   3.255
  730SOL    HW1 3089   3.943   1.337   3.350
  730SOL    HW2 3090   3.895   1.295   3.199
  731SOL     OW 3091   4.921   4.475   4.839
  731SOL    HW1 3092   4.971   4.451   4.755
  731SOL    HW2 3093   4.944   4.409   4.910
  732SOL     OW 3094   4.722   0.737   4.370
  732SOL    HW1 3095   4.799   0.720   4.431
  732SOL    HW2 3096   4.755   0.781   4.286
  733SOL     OW 3097   0.644   4.998   4.419
  733SOL    HW1 3098   0.570   5.061   4.443
  733SOL    HW2 3099   0.613   4.904   4.435
  734SOL     OW 3100   6.304   5.803   3.453
  734SOL    HW1 3101   6.354   5.822   3.369
  734SOL    HW2 3102   6.212   5.770   3.431
  735SOL     OW 3103   4.424   0.604   2.784
  735SOL    HW1 3104   4.383   0.645   2.865
  735SOL    HW2 3105   4.486   0.531   2.812
  736SOL     OW 3106   1.963   1.496   3.110
  736SOL    HW1 3107   1.951   1.405   3.149
  736SOL    HW2 3108   1.960   1.491   3.010
  737SOL     OW 3109   3.339   1.327   6.494
  737SOL    HW1 3110   3.281   1.250   6.470
  737SOL    HW2 3111   3.396   1.352   6.416
  738SOL     OW 3112   1.201   5.519   0.333
  738SOL    HW1 3113   1.103   5.526   0.312
  738SOL    HW2 3114   1.213   5.474   0.421
  739SOL     OW 3115   1.508   0.745   2.746
  739SOL    HW1 3116   1.603   0.765   2.725
  739SOL    HW2 3117   1.504   0.667   2.809
  740SOL     OW 3118   4.744   2.582   2.919
  740SOL    HW1 3119   4.706   2.610   2.831
  740SOL    HW2 3120   4.739   2.482   2.926
  741SOL     OW 3121   3.196   1.116   2.863
  741SOL    HW1 3122   3.203   1.205   2.909
  741SOL    HW2 3123   3.278   1.101   2.807
  742SOL     OW 3124   2.057   0.618   2.328
  742SOL    HW1 3125   2.004   0.701   2.311
  742SOL    HW2 3126   2.007   0.539   2.293
  743SOL     OW 3127   6.878   6.663   2.465
  743SOL    HW1 3128   6.924   6.652   2.553
  743SOL    HW2 3129   6.793   6.609   2.465
  744SOL     OW 3130   5.737   1.317   1.061
  744SOL    HW1 3131   5.751   1.404   1.109
  744SOL    HW2 3132   5.825   1.278   1.035
  745SOL     OW 3133   1.222   6.907   5.668
  745SOL    HW1 3134   1.223   6.992   5.616
  745SOL    HW2 3135   1.131   6.891   5.706
  746SOL     OW 3136   6.603   5.556   5.195
  746SOL    HW1 3137   6.596   5.468   5.241
  746SOL    HW2 3138   6.512   5.597   5.187
  747SOL     OW 3139   3.578   5.227   2.429
  747SOL    HW1 3140   3.592   5.144   2.482
  747SOL    HW2 3141   3.497   5.217   2.371
  748SOL     OW 3142   6.209   4.518   3.279
  748SOL    HW1 3143   6.308   4.521   3.293
  748SOL    HW2 3144   6.187   4.549   3.187
  749SOL     OW 3145   4.663   4.421   4.651
  749SOL    HW1 3146   4.614   4.427   4.564
  749SOL    HW2 3147   4.599   4.393   4.723
  750SOL     OW 3148   2.873   2.023   2.738
  750SOL    HW1 3149   2.896   1.926   2.744
  750SOL    HW2 3150   2.840   2.044   2.646
  751SOL     OW 3151   4.119   0.047   0.527
  751SOL    HW1 3152   4.152   6.991   0.579
  751SOL    HW2 3153   4.025   0.067   0.554
  752SOL     OW 3154   2.890   3.288   3.828
  752SOL    HW1 3155   2.850   3.298   3.737
  752SOL    HW2 3156   2.989   3.278   3.820
  753SOL     OW 3157   3.488   3.775   3.583
  753SOL    HW1 3158   3.506   3.869   3.551
  753SOL    HW2 3159   3.455   3.778   3.677
  754SOL     OW 3160   4.738   1.109   5.807
  754SOL    HW1 3161   4.819   1.051   5.790
  754SOL    HW2 3162   4.659   1.051   5.825
  755SOL     OW 3163   4.901   4.223   5.004
  755SOL    HW1 3164   4.966   4.264   5.068
  755SOL    HW2 3165   4.807   4.244   5.033
  756SOL     OW 3166   3.309   5.376   6.199
  756SOL    HW1 3167   3.323   5.278   6.184
  756SOL    HW2 3168   3.311   5.394   6.297
  757SOL     OW 3169   1.076   6.477   1.443
  757SOL    HW1 3170   1.081   6.436   1.352
  757SOL    HW2 3171   1.079   6.577   1.436
  758SOL     OW 3172   3.580   1.325   5.605
  758SOL    HW1 3173   3.510   1.394   5.587
  758SOL    HW2 3174   3.663   1.347   5.554
  759SOL     OW 3175   6.881   2.588   3.795
  759SOL    HW1 3176   6.843   2.680   3.783
  759SOL    HW2 3177   6.814   2.520   3.764
  760SOL     OW 3178   6.972   5.637   4.519
  760SOL    HW1 3179   6.883   5.673   4.547
  760SOL    HW2 3180   7.015   5.701   4.455
  761SOL     OW 3181   5.073   4.458   6.345
  761SOL    HW1 3182   5.147   4.493   6.288
  761SOL    HW2 3183   5.063   4.359   6.330
  762SOL     OW 3184   4.126   5.879   3.419
  762SOL    HW1 3185   4.155   5.851   3.510
  762SOL    HW2 3186   4.035   5.841   3.400
  763SOL     OW 3187   5.569   1.495   0.533
  763SOL    HW1 3188   5.625   1.435   0.476
  763SOL    HW2 3189   5.594   1.484   0.629
  764SOL     OW 3190   5.158   6.501   4.319
  764SOL    HW1 3191   5.229   6.515   4.250
  764SOL    HW2 3192   5.146   6.403   4.336
  765SOL     OW 3193   5.656   6.089   6.763
  765SOL    HW1 3194   5.718   6.149   6.713
  765SOL    HW2 3195   5.634   6.130   6.851
  766SOL     OW 3196   2.617   1.991   3.670
  766SOL    HW1 3197   2.569   2.070   3.632
  766SOL    HW2 3198   2.553   1.914   3.677
  767SOL     OW 3199   6.409   6.621   3.351
  767SOL    HW1 3200   6.323   6.578   3.325
  767SOL    HW2 3201   6.391   6.706   3.401
  768SOL     OW 3202   2.986   5.662   1.737
  768SOL    HW1 3203   2.927   5.586   1.707
  768SOL    HW2 3204   2.929   5.740   1.762
  769SOL     OW 3205   3.690   1.965   5.290
  769SOL    HW1 3206   3.692   2.056   5.334
  769SOL    HW2 3207   3.672   1.896   5.360
  770SOL     OW 3208   0.736   4.624   6.023
  770SOL    HW1 3209   0.641   4.623   6.053
  770SOL    HW2 3210   0.786   4.550   6.068
  771SOL     OW 3211   1.627   4.929   2.588
  771SOL    HW1 3212   1.658   4.848   2.637
  771SOL    HW2 3213   1.689   5.005   2.606
  772SOL     OW 3214   6.264   5.156   0.325
  772SOL    HW1 3215   6.281   5.126   0.231
  772SOL    HW2 3216   6.272   5.078   0.387
  773SOL     OW 3217   1.459   4.939   4.177
  773SOL    HW1 3218   1.475   5.037   4.189
  773SOL    HW2 3219   1.384   4.911   4.237
  774SOL     OW 3220   2.004   2.341   3.488
  774SOL    HW1 3221   2.010   2.440   3.492
  774SOL    HW2 3222   1.910   2.313   3.503
  775SOL     OW 3223   1.128   5.120   2.213
  775SOL    HW1 3224   1.125   5.201   2.271
  775SOL    HW2 3225   1.218   5.111   2.171
  776SOL     OW 3226   2.296   4.789   0.376
  776SOL    HW1 3227   2.209   4.787   0.326
  776SOL    HW2 3228   2.370   4.813   0.313
  777SOL     OW 3229   1.733   3.165   6.391
  777SOL    HW1 3230   1.686   3.077   6.403
  777SOL    HW2 3231   1.832   3.151   6.401
  778SOL     OW 3232   3.508   5.710   6.686
  778SOL    HW1 3233   3.468   5.638   6.742
  778SOL    HW2 3234   3.446   5.788   6.682
  779SOL     OW 3235   5.994   1.993   3.081
  779SOL    HW1 3236   5.910   1.967   3.034
  779SOL    HW2 3237   5.977   2.001   3.179
  780SOL     OW 3238   5.690   1.609   4.937
  780SOL    HW1 3239   5.736   1.637   4.853
  780SOL    HW2 3240   5.758   1.574   5.002
  781SOL     OW 3241   6.847   4.921   6.714
  781SOL    HW1 3242   6.764   4.867   6.730
  781SOL    HW2 3243   6.828   4.992   6.646
  782SOL     OW 3244   2.233   3.874   5.788
  782SOL    HW1 3245   2.243   3.933   5.869
  782SOL    HW2 3246   2.197   3.929   5.712
  783SOL     OW 3247   0.049   5.143   5.952
  783SOL    HW1 3248   0.022   5.133   5.857
  783SOL    HW2 3249   0.034   5.057   6.000
  784SOL     OW 3250   1.550   5.906   5.846
  784SOL    HW1 3251   1.625   5.880   5.786
  784SOL    HW2 3252   1.517   5.997   5.820
  785SOL     OW 3253   0.697   6.890   4.066
  785SOL    HW1 3254   0.626   6.949   4.104
  785SOL    HW2 3255   0.671   6.861   3.974
  786SOL     OW 3256   5.894   1.935   5.040
  786SOL    HW1 3257   5.849   1.894   5.119
  786SOL    HW2 3258   5.984   1.893   5.027
  787SOL     OW 3259   2.239   6.904   0.850
  787SOL    HW1 3260   2.217   6.823   0.904
  787SOL    HW2 3261   2.201   6.893   0.758
  788SOL     OW 3262   2.164   3.245   2.416
  788SOL    HW1 3263   2.159   3.146   2.432
  788SOL    HW2 3264   2.260   3.272   2.408
  789SOL     OW 3265   3.387   5.463   2.419
  789SOL    HW1 3266   3.365   5.383   2.363
  789SOL    HW2 3267   3.416   5.538   2.360
  790SOL     OW 3268   7.020   3.482   2.696
  790SOL    HW1 3269   0.022   3.433   2.780
  790SOL    HW2 3270   6.949   3.431   2.648
  791SOL     OW 3271   3.766   0.785   3.959
  791SOL    HW1 3272   3.732   0.691   3.966
  791SOL    HW2 3273   3.852   0.793   4.010
  792SOL     OW 3274   2.966   0.879   0.484
  792SOL    HW1 3275   2.906   0.937   0.430
  792SOL    HW2 3276   2.953   0.898   0.581
  793SOL     OW 3277   2.261   5.870   4.791
  793SOL    HW1 3278   2.356   5.890   4.764
  793SOL    HW2 3279   2.200   5.893   4.716
  794SOL     OW 3280   3.597   3.329   2.349
  794SOL    HW1 3281   3.643   3.393   2.411
  794SOL    HW2 3282   3.539   3.380   2.285
  795SOL     OW 3283   4.021   6.797   5.976
  795SOL    HW1 3284   3.995   6.857   5.900
  795SOL    HW2 3285   4.013   6.847   6.062
  796SOL     OW 3286   1.065   2.238   6.207
  796SOL    HW1 3287   1.119   2.200   6.282
  796SOL    HW2 3288   1.078   2.337   6.204
  797SOL     OW 3289   3.055   6.567   0.708
  797SOL    HW1 3290   3.074   6.618   0.624
  797SOL    HW2 3291   2.984   6.500   0.691
  798SOL     OW 3292   5.277   4.361   1.706
  798SOL    HW1 3293   5.201   4.319   1.656
  798SOL    HW2 3294   5.303   4.303   1.782
  799SOL     OW 3295   3.572   3.395   4.774
  799SOL    HW1 3296   3.598   3.348   4.857
  799SOL    HW2 3297   3.652   3.440   4.734
  800SOL     OW 3298   5.092   2.811   3.217
  800SOL    HW1 3299   5.030   2.877   3.260
  800SOL    HW2 3300   5.045   2.767   3.140
  801SOL     OW 3301   2.205   4.864   0.124
  801SOL    HW1 3302   2.266   4.835   0.051
  801SOL    HW2 3303   2.164   4.952   0.100
  802SOL     OW 3304   4.006   2.638   5.701
  802SOL    HW1 3305   4.038   2.685   5.619
  802SOL    HW2 3306   4.014   2.699   5.780
  803SOL     OW 3307   3.162   1.976   2.971
  803SOL    HW1 3308   3.147   2.057   2.914
  803SOL    HW2 3309   3.074   1.934   2.994
  804SOL     OW 3310   4.350   0.000   2.925
  804SOL    HW1 3311   4.420   6.973   2.876
  804SOL    HW2 3312   4.267   0.008   2.869
  805SOL     OW 3313   3.380   1.807   3.708
  805SOL    HW1 3314   3.392   1.810   3.609
  805SOL    HW2 3315   3.355   1.714   3.736
  806SOL     OW 3316   4.463   6.515   5.899
  806SOL    HW1 3317   4.373   6.547   5.929
  806SOL    HW2 3318   4.480   6.424   5.935
  807SOL     OW 3319   1.043   6.430   6.323
  807SOL    HW1 3320   0.995   6.348   6.353
  807SOL    HW2 3321   1.139   6.426   6.353
  808SOL     OW 3322   5.300   1.843   5.970
  808SOL    HW1 3323   5.347   1.818   6.055
  808SOL    HW2 3324   5.248   1.765   5.936
  809SOL     OW 3325   2.514   6.141   5.759
  809SOL    HW1 3326   2.610   6.168   5.758
  809SOL    HW2 3327   2.490   6.099   5.671
  810SOL     OW 3328   3.915   3.913   6.369
  810SOL    HW1 3329   3.914   4.003   6.413
  810SOL    HW2 3330   3.994   3.907   6.308
  811SOL     OW 3331   5.490   4.986   5.540
  811SOL    HW1 3332   5.497   5.052   5.466
  811SOL    HW2 3333   5.410   4.928   5.526
  812SOL     OW 3334   1.269   2.235   0.608
  812SOL    HW1 3335   1.171   2.215   0.614
  812SOL    HW2 3336   1.317   2.188   0.683
  813SOL     OW 3337   2.680   1.682   4.879
  813SOL    HW1 3338   2.710   1.627   4.801
  813SOL    HW2 3339   2.748   1.752   4.900
  814SOL     OW 3340   0.499   4.777   1.311
  814SOL    HW1 3341   0.590   4.745   1.338
  814SOL    HW2 3342   0.485   4.758   1.214
  815SOL     OW 3343   4.357   0.814   3.767
  815SOL    HW1 3344   4.273   0.810   3.820
  815SOL    HW2 3345   4.360   0.737   3.703
  816SOL     OW 3346   4.830   3.704   6.373
  816SOL    HW1 3347   4.776   3.711   6.289
  816SOL    HW2 3348   4.893   3.627   6.366
  817SOL     OW 3349   6.894   5.507   0.050
  817SOL    HW1 3350   6.895   5.467   0.142
  817SOL    HW2 3351   6.802   5.536   0.027
  818SOL     OW 3352   6.755   1.246   5.240
  818SOL    HW1 3353   6.686   1.204   5.298
  818SOL    HW2 3354   6.814   1.306   5.295
  819SOL     OW 3355   5.807   3.517   1.800
  819SOL    HW1 3356   5.812   3.611   1.833
  819SOL    HW2 3357   5.795   3.517   1.701
  820SOL     OW 3358   2.311   2.182   5.025
  820SOL    HW1 3359   2.225   2.133   5.014
  820SOL    HW2 3360   2.309   2.235   5.110
  821SOL     OW 3361   5.094   3.546   5.929
  821SOL    HW1 3362   5.159   3.611   5.969
  821SOL    HW2 3363   5.086   3.563   5.831
  822SOL     OW 3364   6.744   4.548   3.454
  822SOL    HW1 3365   6.841   4.542   3.430
  822SOL    HW2 3366   6.715   4.465   3.500
  823SOL     OW 3367   1.742   2.701   4.248
  823SOL    HW1 3368   1.735   2.605   4.277
  823SOL    HW2 3369   1.651   2.735   4.223
  824SOL     OW 3370   5.160   0.519   6.362
  824SOL    HW1 3371   5.115   0.577   6.295
  824SOL    HW2 3372   5.091   0.470   6.415
  825SOL     OW 3373   6.543   5.988   1.319
  825SOL    HW1 3374   6.621   5.926   1.330
  825SOL    HW2 3375   6.505   6.011   1.409
  826SOL     OW 3376   3.485   2.356   0.201
  826SOL    HW1 3377   3.478   2.404   0.113
  826SOL    HW2 3378   3.525   2.418   0.269
  827SOL     OW 3379   3.638   3.263   5.003
  827SOL    HW1 3380   3.567   3.227   5.064
  827SOL    HW2 3381   3.714   3.299   5.058
  828SOL     OW 3382   0.715   6.473   6.237
  828SOL    HW1 3383   0.710   6.440   6.143
  828SOL    HW2 3384   0.780   6.548   6.243
  829SOL     OW 3385   3.710   3.322   1.504
  829SOL    HW1 3386   3.630   3.374   1.476
  829SOL    HW2 3387   3.729   3.340   1.601
  830SOL     OW 3388   0.223   3.133   5.846
  830SOL    HW1 3389   0.230   3.048   5.899
  830SOL    HW2 3390   0.310   3.151   5.799
  831SOL     OW 3391   5.920   1.709   3.089
  831SOL    HW1 3392   5.860   1.640   3.049
  831SOL    HW2 3393   5.940   1.779   3.020
  832SOL     OW 3394   2.968   2.181   4.793
  832SOL    HW1 3395   3.013   2.227   4.870
  832SOL    HW2 3396   3.037   2.152   4.727
  833SOL     OW 3397   3.424   3.366   6.541
  833SOL    HW1 3398   3.351   3.330   6.599
  833SOL    HW2 3399   3.491   3.414   6.597
  834SOL     OW 3400   6.219   3.800   1.354
  834SOL    HW1 3401   6.236   3.851   1.269
  834SOL    HW2 3402   6.159   3.854   1.413
  835SOL     OW 3403   6.425   6.553   5.060
  835SOL    HW1 3404   6.495   6.624   5.047
  835SOL    HW2 3405   6.415   6.534   5.158
  836SOL     OW 3406   6.345   0.132   3.863
  836SOL    HW1 3407   6.408   0.054   3.850
  836SOL    HW2 3408   6.277   0.108   3.933
  837SOL     OW 3409   0.507   0.084   6.488
  837SOL    HW1 3410   0.541   0.162   6.540
  837SOL    HW2 3411   0.577   0.013   6.484
  838SOL     OW 3412   0.883   6.147   3.296
  838SOL    HW1 3413   0.796   6.112   3.331
  838SOL    HW2 3414   0.872   6.242   3.266
  839SOL     OW 3415   1.524   2.173   6.844
  839SOL    HW1 3416   1.449   2.197   6.783
  839SOL    HW2 3417   1.609   2.163   6.791
  840SOL     OW 3418   4.994   5.396   0.586
  840SOL    HW1 3419   5.035   5.314   0.546
  840SOL    HW2 3420   4.970   5.461   0.514
  841SOL     OW 3421   2.857   4.791   6.693
  841SOL    HW1 3422   2.903   4.880   6.700
  841SOL    HW2 3423   2.925   4.718   6.691
  842SOL     OW 3424   4.105   6.509   1.103
  842SOL    HW1 3425   4.110   6.466   1.013
  842SOL    HW2 3426   4.075   6.604   1.093
  843SOL     OW 3427   1.798   0.043   2.124
  843SOL    HW1 3428   1.733   0.078   2.192
  843SOL    HW2 3429   1.882   0.098   2.127
  844SOL     OW 3430   6.634   6.945   1.466
  844SOL    HW1 3431   6.729   6.919   1.449
  844SOL    HW2 3432   6.576   6.863   1.465
  845SOL     OW 3433   4.457   1.324   1.564
  845SOL    HW1 3434   4.510   1.240   1.564
  845SOL    HW2 3435   4.417   1.338   1.473
  846SOL     OW 3436   1.662   0.781   0.830
  846SOL    HW1 3437   1.639   0.863   0.884
  846SOL    HW2 3438   1.690   0.809   0.739
  847SOL     OW 3439   2.779   3.431   1.467
  847SOL    HW1 3440   2.763   3.522   1.507
  847SOL    HW2 3441   2.869   3.398   1.495
  848SOL     OW 3442   6.560   5.869   0.959
  848SOL    HW1 3443   6.514   5.920   0.886
  848SOL    HW2 3444   6.656   5.896   0.963
  849SOL     OW 3445   5.386   3.512   5.944
  849SOL    HW1 3446   5.420   3.418   5.946
  849SOL    HW2 3447   5.351   3.531   5.852
  850SOL     OW 3448   2.566   0.967   4.730
  850SOL    HW1 3449   2.597   1.035   4.797
  850SOL    HW2 3450   2.474   0.936   4.754
  851SOL     OW 3451   4.693   2.795   6.413
  851SOL    HW1 3452   4.618   2.845   6.370
  851SOL    HW2 3453   4.665   2.700   6.427
  852SOL     OW 3454   0.180   5.206   1.079
  852SOL    HW1 3455   0.212   5.289   1.033
  852SOL    HW2 3456   0.082   5.213   1.095
  853SOL     OW 3457   3.720   2.830   0.654
  853SOL    HW1 3458   3.761   2.865   0.739
  853SOL    HW2 3459   3.793   2.813   0.587
  854SOL     OW 3460   6.668   0.763   6.567
  854SOL    HW1 3461   6.682   0.740   6.663
  854SOL    HW2 3462   6.736   0.717   6.511
  855SOL     OW 3463   4.688   2.201   0.028
  855SOL    HW1 3464   4.732   2.201   6.961
  855SOL    HW2 3465   4.638   2.115   0.041
  856SOL     OW 3466   1.702   5.791   1.441
  856SOL    HW1 3467   1.739   5.709   1.486
  856SOL    HW2 3468   1.609   5.773   1.410
  857SOL     OW 3469   0.304   6.382   5.212
  857SOL    HW1 3470   0.371   6.427   5.271
  857SOL    HW2 3471   0.249   6.317   5.265
  858SOL     OW 3472   2.877   4.546   0.447
  858SOL    HW1 3473   2.790   4.584   0.415
  858SOL    HW2 3474   2.867   4.511   0.539
  859SOL     OW 3475   4.992   5.917   5.611
  859SOL    HW1 3476   5.071   5.949   5.664
  859SOL    HW2 3477   4.924   5.990   5.605
  860SOL     OW 3478   4.835   2.955   0.350
  860SOL    HW1 3479   4.903   2.969   0.423
  860SOL    HW2 3480   4.875   2.897   0.279
  861SOL     OW 3481   1.030   5.912   2.680
  861SOL    HW1 3482   1.129   5.921   2.671
  861SOL    HW2 3483   0.994   5.990   2.733
  862SOL     OW 3484   0.566   4.852   4.040
  862SOL    HW1 3485   0.548   4.799   3.957
  862SOL    HW2 3486   0.610   4.794   4.108
  863SOL     OW 3487   5.123   0.467   1.310
  863SOL    HW1 3488   5.133   0.554   1.358
  863SOL    HW2 3489   5.029   0.456   1.279
  864SOL     OW 3490   6.223   4.168   3.685
  864SOL    HW1 3491   6.127   4.140   3.688
  864SOL    HW2 3492   6.255   4.189   3.778
  865SOL     OW 3493   1.754   5.126   4.956
  865SOL    HW1 3494   1.789   5.174   4.875
  865SOL    HW2 3495   1.829   5.075   4.999
  866SOL     OW 3496   3.504   6.685   1.104
  866SOL    HW1 3497   3.508   6.617   1.176
  866SOL    HW2 3498   3.538   6.646   1.018
  867SOL     OW 3499   5.682   3.741   4.960
  867SOL    HW1 3500   5.679   3.689   5.045
  867SOL    HW2 3501   5.718   3.832   4.978
  868SOL     OW 3502   0.532   1.356   2.277
  868SOL    HW1 3503   0.580   1.436   2.242
  868SOL    HW2 3504   0.550   1.278   2.218
  869SOL     OW 3505   0.662   2.912   1.984
  869SOL    HW1 3506   0.735   2.981   1.979
  869SOL    HW2 3507   0.596   2.929   1.911
  870SOL     OW 3508   3.814   4.759   1.705
  870SOL    HW1 3509   3.736   4.719   1.753
  870SOL    HW2 3510   3.782   4.806   1.623
  871SOL     OW 3511   4.723   1.885   3.707
  871SOL    HW1 3512   4.755   1.885   3.802
  871SOL    HW2 3513   4.623   1.881   3.705
  872SOL     OW 3514   1.731   2.676   5.563
  872SOL    HW1 3515   1.679   2.649   5.644
  872SOL    HW2 3516   1.793   2.751   5.587
  873SOL     OW 3517   3.805   0.460   6.565
  873SOL    HW1 3518   3.770   0.541   6.613
  873SOL    HW2 3519   3.868   0.488   6.493
  874SOL     OW 3520   5.828   3.763   2.874
  874SOL    HW1 3521   5.815   3.713   2.960
  874SOL    HW2 3522   5.789   3.710   2.799
  875SOL     OW 3523   5.511   5.154   1.981
  875SOL    HW1 3524   5.460   5.112   1.907
  875SOL    HW2 3525   5.455   5.155   2.064
  876SOL     OW 3526   6.356   1.426   6.339
  876SOL    HW1 3527   6.422   1.417   6.413
  876SOL    HW2 3528   6.339   1.336   6.297
  877SOL     OW 3529   0.945   3.147   6.736
  877SOL    HW1 3530   0.889   3.230   6.729
  877SOL    HW2 3531   0.925   3.087   6.659
  878SOL     OW 3532   4.327   6.288   4.758
  878SOL    HW1 3533   4.425   6.305   4.769
  878SOL    HW2 3534   4.284   6.281   4.848
  879SOL     OW 3535   6.119   0.015   6.279
  879SOL    HW1 3536   6.038   0.073   6.268
  879SOL    HW2 3537   6.092   6.942   6.269
  880SOL     OW 3538   3.654   2.891   3.102
  880SOL    HW1 3539   3.723   2.946   3.056
  880SOL    HW2 3540   3.576   2.877   3.041
  881SOL     OW 3541   4.833   2.066   0.649
  881SOL    HW1 3542   4.834   2.112   0.738
  881SOL    HW2 3543   4.743   2.076   0.607
  882SOL     OW 3544   1.492   2.777   3.438
  882SOL    HW1 3545   1.459   2.702   3.495
  882SOL    HW2 3546   1.558   2.741   3.371
  883SOL     OW 3547   2.585   6.608   2.673
  883SOL    HW1 3548   2.616   6.584   2.581
  883SOL    HW2 3549   2.534   6.530   2.712
  884SOL     OW 3550   2.611   3.470   6.080
  884SOL    HW1 3551   2.624   3.544   6.013
  884SOL    HW2 3552   2.536   3.412   6.050
  885SOL     OW 3553   4.130   3.306   6.431
  885SOL    HW1 3554   4.084   3.295   6.519
  885SOL    HW2 3555   4.193   3.230   6.416
  886SOL     OW 3556   3.714   1.455   5.990
  886SOL    HW1 3557   3.626   1.490   6.023
  886SOL    HW2 3558   3.754   1.520   5.925
  887SOL     OW 3559   3.870   1.003   5.300
  887SOL    HW1 3560   3.784   1.054   5.306
  887SOL    HW2 3561   3.863   0.935   5.227
  888SOL     OW 3562   0.598   6.814   2.100
  888SOL    HW1 3563   0.605   6.886   2.169
  888SOL    HW2 3564   0.635   6.847   2.013
  889SOL     OW 3565   0.477   4.118   1.111
  889SOL    HW1 3566   0.427   4.149   1.192
  889SOL    HW2 3567   0.445   4.027   1.085
  890SOL     OW 3568   2.645   6.127   5.070
  890SOL    HW1 3569   2.556   6.132   5.116
  890SOL    HW2 3570   2.639   6.065   4.992
  891SOL     OW 3571   4.525   4.456   2.410
  891SOL    HW1 3572   4.523   4.472   2.312
  891SOL    HW2 3573   4.619   4.443   2.441
  892SOL     OW 3574   2.363   4.365   1.412
  892SOL    HW1 3575   2.284   4.407   1.458
  892SOL    HW2 3576   2.334   4.281   1.366
  893SOL     OW 3577   1.530   5.253   2.238
  893SOL    HW1 3578   1.582   5.278   2.156
  893SOL    HW2 3579   1.496   5.336   2.283
  894SOL     OW 3580   1.077   4.485   1.105
  894SOL    HW1 3581   1.067   4.477   1.204
  894SOL    HW2 3582   1.060   4.396   1.062
  895SOL     OW 3583   6.742   5.787   4.660
  895SOL    HW1 3584   6.675   5.806   4.732
  895SOL    HW2 3585   6.788   5.872   4.634
  896SOL     OW 3586   6.873   0.777   6.286
  896SOL    HW1 3587   6.939   0.794   6.212
  896SOL    HW2 3588   6.923   0.761   6.371
  897SOL     OW 3589   5.783   1.265   0.570
  897SOL    HW1 3590   5.684   1.275   0.573
  897SOL    HW2 3591   5.814   1.212   0.649
  898SOL     OW 3592   4.015   1.813   3.557
  898SOL    HW1 3593   3.960   1.779   3.481
  898SOL    HW2 3594   4.107   1.773   3.553
  899SOL     OW 3595   6.666   6.850   0.228
  899SOL    HW1 3596   6.676   6.949   0.230
  899SOL    HW2 3597   6.671   6.814   0.321
  900SOL     OW 3598   5.417   5.199   6.130
  900SOL    HW1 3599   5.426   5.176   6.033
  900SOL    HW2 3600   5.321   5.191   6.157
  901SOL     OW 3601   1.203   0.844   3.037
  901SOL    HW1 3602   1.211   0.896   2.952
  901SOL    HW2 3603   1.115   0.798   3.040
  902SOL     OW 3604   6.892   3.223   2.567
  902SOL    HW1 3605   6.972   3.206   2.511
  902SOL    HW2 3606   6.870   3.141   2.620
  903SOL     OW 3607   6.677   1.311   0.473
  903SOL    HW1 3608   6.659   1.280   0.379
  903SOL    HW2 3609   6.713   1.404   0.471
  904SOL     OW 3610   2.836   1.636   3.276
  904SOL    HW1 3611   2.934   1.633   3.262
  904SOL    HW2 3612   2.800   1.544   3.286
  905SOL     OW 3613   5.538   2.169   6.012
  905SOL    HW1 3614   5.607   2.109   6.052
  905SOL    HW2 3615   5.517   2.244   6.075
  906SOL     OW 3616   6.046   3.203   1.071
  906SOL    HW1 3617   6.138   3.227   1.103
  906SOL    HW2 3618   6.052   3.164   0.979
  907SOL     OW 3619   5.637   4.533   0.042
  907SOL    HW1 3620   5.584   4.481   6.999
  907SOL    HW2 3621   5.729   4.551   0.006
  908SOL     OW 3622   0.501   3.710   3.398
  908SOL    HW1 3623   0.416   3.761   3.409
  908SOL    HW2 3624   0.484   3.626   3.348
  909SOL     OW 3625   5.286   4.576   6.216
  909SOL    HW1 3626   5.350   4.635   6.265
  909SOL    HW2 3627   5.336   4.502   6.171
  910SOL     OW 3628   3.212   4.919   0.580
  910SOL    HW1 3629   3.152   4.893   0.504
  910SOL    HW2 3630   3.192   5.012   0.609
  911SOL     OW 3631   1.346   4.517   6.343
  911SOL    HW1 3632   1.372   4.612   6.359
  911SOL    HW2 3633   1.380   4.487   6.254
  912SOL     OW 3634   5.133   1.437   5.505
  912SOL    HW1 3635   5.049   1.461   5.553
  912SOL    HW2 3636   5.115   1.433   5.406
  913SOL     OW 3637   5.587   5.230   3.419
  913SOL    HW1 3638   5.544   5.189   3.499
  913SOL    HW2 3639   5.524   5.225   3.341
  914SOL     OW 3640   2.656   6.596   5.525
  914SOL    HW1 3641   2.622   6.664   5.461
  914SOL    HW2 3642   2.583   6.531   5.546
  915SOL     OW 3643   5.761   5.125   2.060
  915SOL    HW1 3644   5.791   5.201   2.117
  915SOL    HW2 3645   5.669   5.143   2.025
  916SOL     OW 3646   0.774   3.629   3.025
  916SOL    HW1 3647   0.824   3.682   3.094
  916SOL    HW2 3648   0.783   3.531   3.045
  917SOL     OW 3649   0.597   6.776   6.691
  917SOL    HW1 3650   0.654   6.744   6.766
  917SOL    HW2 3651   0.509   6.808   6.726
  918SOL     OW 3652   3.425   5.989   6.220
  918SOL    HW1 3653   3.364   5.916   6.191
  918SOL    HW2 3654   3.512   5.982   6.170
  919SOL     OW 3655   4.465   0.202   5.840
  919SOL    HW1 3656   4.481   0.278   5.777
  919SOL    HW2 3657   4.522   0.214   5.921
  920SOL     OW 3658   3.132   4.595   1.686
  920SOL    HW1 3659   3.060   4.550   1.739
  920SOL    HW2 3660   3.162   4.535   1.612
  921SOL     OW 3661   4.938   5.431   5.454
  921SOL    HW1 3662   5.027   5.391   5.475
  921SOL    HW2 3663   4.884   5.439   5.538
  922SOL     OW 3664   3.485   4.160   2.749
  922SOL    HW1 3665   3.499   4.250   2.709
  922SOL    HW2 3666   3.537   4.152   2.834
  923SOL     OW 3667   2.585   3.914   5.613
  923SOL    HW1 3668   2.591   3.893   5.516
  923SOL    HW2 3669   2.546   3.836   5.662
  924SOL     OW 3670   1.078   2.979   1.049
  924SOL    HW1 3671   1.038   2.900   1.094
  924SOL    HW2 3672   1.137   2.949   0.974
  925SOL     OW 3673   0.714   1.311   6.946
  925SOL    HW1 3674   0.783   1.336   6.878
  925SOL    HW2 3675   0.703   1.386   7.011
  926SOL     OW 3676   2.151   2.393   1.363
  926SOL    HW1 3677   2.238   2.346   1.376
  926SOL    HW2 3678   2.164   2.472   1.303
  927SOL     OW 3679   0.058   3.520   5.214
  927SOL    HW1 3680   0.037   3.605   5.166
  927SOL    HW2 3681   7.021   3.511   5.294
  928SOL     OW 3682   3.130   5.051   6.205
  928SOL    HW1 3683   3.135   5.042   6.304
  928SOL    HW2 3684   3.222   5.060   6.167
  929SOL     OW 3685   1.094   2.099   4.993
  929SOL    HW1 3686   1.183   2.080   5.034
  929SOL    HW2 3687   1.107   2.144   4.905
  930SOL     OW 3688   6.110   5.219   5.544
  930SOL    HW1 3689   6.134   5.291   5.480
  930SOL    HW2 3690   6.083   5.137   5.494
  931SOL     OW 3691   6.016   0.702   3.702
  931SOL    HW1 3692   6.104   0.749   3.699
  931SOL    HW2 3693   6.024   0.621   3.761
  932SOL     OW 3694   4.312   6.783   3.490
  932SOL    HW1 3695   4.327   6.878   3.515
  932SOL    HW2 3696   4.381   6.755   3.423
  933SOL     OW 3697   1.202   5.961   1.792
  933SOL    HW1 3698   1.180   5.876   1.743
  933SOL    HW2 3699   1.216   6.035   1.726
  934SOL     OW 3700   1.934   2.871   0.994
  934SOL    HW1 3701   1.943   2.794   0.930
  934SOL    HW2 3702   1.923   2.836   1.087
  935SOL     OW 3703   5.501   2.860   5.377
  935SOL    HW1 3704   5.457   2.791   5.434
  935SOL    HW2 3705   5.588   2.824   5.342
  936SOL     OW 3706   1.516   1.262   6.252
  936SOL    HW1 3707   1.613   1.282   6.245
  936SOL    HW2 3708   1.472   1.273   6.163
  937SOL     OW 3709   3.036   2.287   6.146
  937SOL    HW1 3710   2.986   2.328   6.222
  937SOL    HW2 3711   3.129   2.324   6.144
  938SOL     OW 3712   4.856   6.449   4.973
  938SOL    HW1 3713   4.763   6.481   4.991
  938SOL    HW2 3714   4.855   6.352   4.950
  939SOL     OW 3715   1.605   0.058   4.547
  939SOL    HW1 3716   1.561   6.995   4.521
  939SOL    HW2 3717   1.703   0.044   4.552
  940SOL     OW 3718   1.700   5.539   0.864
  940SOL    HW1 3719   1.622   5.570   0.810
  940SOL    HW2 3720   1.778   5.601   0.848
  941SOL     OW 3721   4.034   6.782   1.051
  941SOL    HW1 3722   3.973   6.775   0.972
  941SOL    HW2 3723   4.100   6.855   1.035
  942SOL     OW 3724   6.894   5.284   6.763
  942SOL    HW1 3725   6.899   5.377   6.726
  942SOL    HW2 3726   6.896   5.218   6.688
  943SOL     OW 3727   3.495   6.440   1.225
  943SOL    HW1 3728   3.446   6.404   1.146
  943SOL    HW2 3729   3.458   6.401   1.309
  944SOL     OW 3730   6.082   6.111   3.424
  944SOL    HW1 3731   6.137   6.187   3.390
  944SOL    HW2 3732   6.079   6.115   3.524
  945SOL     OW 3733   0.541   5.130   6.699
  945SOL    HW1 3734   0.552   5.171   6.609
  945SOL    HW2 3735   0.466   5.175   6.747
  946SOL     OW 3736   5.635   1.894   3.833
  946SOL    HW1 3737   5.729   1.861   3.820
  946SOL    HW2 3738   5.620   1.913   3.930
  947SOL     OW 3739   3.499   4.054   2.461
  947SOL    HW1 3740   3.411   4.096   2.480
  947SOL    HW2 3741   3.505   3.966   2.509
  948SOL     OW 3742   3.247   1.798   4.003
  948SOL    HW1 3743   3.305   1.839   3.933
  948SOL    HW2 3744   3.286   1.817   4.093
  949SOL     OW 3745   2.221   0.118   5.337
  949SOL    HW1 3746   2.223   0.028   5.293
  949SOL    HW2 3747   2.203   0.108   5.435
  950SOL     OW 3748   0.207   0.090   1.519
  950SOL    HW1 3749   0.167   0.182   1.519
  950SOL    HW2 3750   0.300   0.095   1.554
  951SOL     OW 3751   1.306   0.058   3.063
  951SOL    HW1 3752   1.389   0.053   3.008
  951SOL    HW2 3753   1.324   0.111   3.146
  952SOL     OW 3754   3.165   1.696   2.592
  952SOL    HW1 3755   3.174   1.611   2.644
  952SOL    HW2 3756   3.164   1.676   2.494
  953SOL     OW 3757   1.174   6.266   5.657
  953SOL    HW1 3758   1.204   6.359   5.680
  953SOL    HW2 3759   1.075   6.267   5.643
  954SOL     OW 3760   4.367   6.432   2.599
  954SOL    HW1 3761   4.396   6.343   2.635
  954SOL    HW2 3762   4.311   6.418   2.517
  955SOL     OW 3763   2.995   4.404   1.398
  955SOL    HW1 3764   3.091   4.397   1.425
  955SOL    HW2 3765   2.959   4.493   1.425
  956SOL     OW 3766   3.467   0.287   0.777
  956SOL    HW1 3767   3.498   0.240   0.860
  956SOL    HW2 3768   3.415   0.222   0.720
  957SOL     OW 3769   5.962   6.890   3.016
  957SOL    HW1 3770   5.945   6.962   3.083
  957SOL    HW2 3771   6.061   6.880   3.003
  958SOL     OW 3772   5.554   5.539   1.894
  958SOL    HW1 3773   5.480   5.513   1.833
  958SOL    HW2 3774   5.637   5.555   1.840
  959SOL     OW 3775   4.943   6.690   2.365
  959SOL    HW1 3776   5.021   6.671   2.424
  959SOL    HW2 3777   4.876   6.617   2.373
  960SOL     OW 3778   0.724   6.647   5.966
  960SOL    HW1 3779   0.698   6.551   5.973
  960SOL    HW2 3780   0.702   6.682   5.875
  961SOL     OW 3781   4.053   1.019   3.777
  961SOL    HW1 3782   4.020   0.927   3.757
  961SOL    HW2 3783   4.142   1.033   3.734
  962SOL     OW 3784   0.027   0.464   5.007
  962SOL    HW1 3785   6.980   0.500   4.945
  962SOL    HW2 3786   0.042   0.367   4.987
  963SOL     OW 3787   5.556   2.405   1.387
  963SOL    HW1 3788   5.596   2.497   1.388
  963SOL    HW2 3789   5.607   2.348   1.323
  964SOL     OW 3790   3.730   6.392   5.051
  964SOL    HW1 3791   3.821   6.371   5.015
  964SOL    HW2 3792   3.669   6.315   5.036
  965SOL     OW 3793   4.686   1.849   4.645
  965SOL    HW1 3794   4.764   1.902   4.612
  965SOL    HW2 3795   4.648   1.795   4.570
  966SOL     OW 3796   4.953   0.755   3.107
  966SOL    HW1 3797   4.960   0.854   3.119
  966SOL    HW2 3798   5.045   0.715   3.103
  967SOL     OW 3799   3.960   5.460   5.780
  967SOL    HW1 3800   4.028   5.518   5.825
  967SOL    HW2 3801   3.966   5.473   5.681
  968SOL     OW 3802   4.546   0.344   1.587
  968SOL    HW1 3803   4.514   0.291   1.508
  968SOL    HW2 3804   4.620   0.295   1.632
  969SOL     OW 3805   3.284   3.704   6.783
  969SOL    HW1 3806   3.207   3.760   6.813
  969SOL    HW2 3807   3.327   3.746   6.704
  970SOL     OW 3808   4.436   6.120   5.412
  970SOL    HW1 3809   4.463   6.213   5.391
  970SOL    HW2 3810   4.356   6.095   5.358
  971SOL     OW 3811   4.862   3.172   3.623
  971SOL    HW1 3812   4.959   3.197   3.621
  971SOL    HW2 3813   4.810   3.243   3.669
  972SOL     OW 3814   0.542   1.779   0.889
  972SOL    HW1 3815   0.561   1.717   0.813
  972SOL    HW2 3816   0.604   1.857   0.885
  973SOL     OW 3817   6.835   2.339   4.907
  973SOL    HW1 3818   6.926   2.343   4.865
  973SOL    HW2 3819   6.790   2.428   4.897
  974SOL     OW 3820   1.483   3.439   1.995
  974SOL    HW1 3821   1.532   3.516   1.954
  974SOL    HW2 3822   1.451   3.377   1.924
  975SOL     OW 3823   3.393   0.716   2.263
  975SOL    HW1 3824   3.303   0.694   2.299
  975SOL    HW2 3825   3.436   0.633   2.228
  976SOL     OW 3826   0.332   3.021   4.027
  976SOL    HW1 3827   0.267   2.965   3.976
  976SOL    HW2 3828   0.423   2.978   4.025
  977SOL     OW 3829   6.756   1.589   2.149
  977SOL    HW1 3830   6.665   1.571   2.113
  977SOL    HW2 3831   6.775   1.687   2.144
  978SOL     OW 3832   5.595   1.961   0.616
  978SOL    HW1 3833   5.534   1.994   0.544
  978SOL    HW2 3834   5.644   1.880   0.584
  979SOL     OW 3835   0.253   5.073   6.296
  979SOL    HW1 3836   0.161   5.064   6.256
  979SOL    HW2 3837   0.264   5.005   6.368
  980SOL     OW 3838   4.970   1.651   3.952
  980SOL    HW1 3839   4.982   1.621   3.857
  980SOL    HW2 3840   4.956   1.750   3.954
  981SOL     OW 3841   0.600   6.100   6.029
  981SOL    HW1 3842   0.523   6.067   5.975
  981SOL    HW2 3843   0.571   6.113   6.124
  982SOL     OW 3844   0.034   0.637   6.692
  982SOL    HW1 3845   0.018   0.722   6.742
  982SOL    HW2 3846   0.072   0.569   6.754
  983SOL     OW 3847   6.967   3.863   2.185
  983SOL    HW1 3848   6.929   3.884   2.096
  983SOL    HW2 3849   0.016   3.928   2.207
  984SOL     OW 3850   0.077   3.492   4.089
  984SOL    HW1 3851   0.101   3.556   4.162
  984SOL    HW2 3852   0.152   3.487   4.023
  985SOL     OW 3853   5.615   4.829   5.967
  985SOL    HW1 3854   5.667   4.752   6.003
  985SOL    HW2 3855   5.534   4.795   5.919
  986SOL     OW 3856   3.902   5.631   1.928
  986SOL    HW1 3857   3.802   5.640   1.930
  986SOL    HW2 3858   3.932   5.619   1.833
  987SOL     OW 3859   4.398   4.653   4.438
  987SOL    HW1 3860   4.384   4.641   4.536
  987SOL    HW2 3861   4.477   4.599   4.409
  988SOL     OW 3862   3.157   4.852   2.122
  988SOL    HW1 3863   3.257   4.844   2.113
  988SOL    HW2 3864   3.113   4.808   2.043
  989SOL     OW 3865   0.541   2.237   1.437
  989SOL    HW1 3866   0.458   2.290   1.416
  989SOL    HW2 3867   0.517   2.140   1.446
  990SOL     OW 3868   3.413   7.004   5.157
  990SOL    HW1 3869   3.400   6.910   5.127
  990SOL    HW2 3870   3.462   7.005   5.244
  991SOL     OW 3871   1.400   6.045   4.132
  991SOL    HW1 3872   1.314   6.001   4.107
  991SOL    HW2 3873   1.402   6.059   4.231
  992SOL     OW 3874   6.607   3.558   1.234
  992SOL    HW1 3875   6.650   3.533   1.321
  992SOL    HW2 3876   6.507   3.555   1.244
  993SOL     OW 3877   2.178   5.311   6.999
  993SOL    HW1 3878   2.136   5.251   0.044
  993SOL    HW2 3879   2.244   5.259   6.945
  994SOL     OW 3880   2.974   0.066   1.400
  994SOL    HW1 3881   2.964   0.028   1.309
  994SOL    HW2 3882   2.883   0.086   1.438
  995SOL     OW 3883   5.182   4.061   4.884
  995SOL    HW1 3884   5.136   3.984   4.840
  995SOL    HW2 3885   5.149   4.069   4.978
  996SOL     OW 3886   3.925   6.551   5.433
  996SOL    HW1 3887   3.914   6.647   5.457
  996SOL    HW2 3888   3.842   6.517   5.389
  997SOL     OW 3889   1.258   6.059   3.238
  997SOL    HW1 3890   1.193   6.012   3.298
  997SOL    HW2 3891   1.271   6.152   3.272
  998SOL     OW 3892   4.606   7.006   0.117
  998SOL    HW1 3893   4.583   6.936   0.050
  998SOL    HW2 3894   4.625   6.963   0.205
  999SOL     OW 3895   5.924   3.230   2.195
  999SOL    HW1 3896   5.977   3.152   2.164
  999SOL    HW2 3897   5.924   3.301   2.125
 1000SOL     OW 3898   6.178   1.489   1.891
 1000SOL    HW1 3899   6.231   1.567   1.924
 1000SOL    HW2 3900   6.177   1.418   1.960
 1001SOL     OW 3901   2.397   6.715   3.241
 1001SOL    HW1 3902   2.302   6.746   3.245
 1001SOL    HW2 3903   2.433   6.731   3.150
 1002SOL     OW 3904   4.500   2.438   0.141
 1002SOL    HW1 3905   4.426   2.482   0.091
 1002SOL    HW2 3906   4.462   2.382   0.215
 1003SOL     OW 3907   1.116   1.598   3.901
 1003SOL    HW1 3908   1.141   1.503   3.918
 1003SOL    HW2 3909   1.050   1.628   3.970
 1004SOL     OW 3910   4.525   1.396   4.628
 1004SOL    HW1 3911   4.499   1.335   4.552
 1004SOL    HW2 3912   4.564   1.341   4.702
 1005SOL     OW 3913   0.851   5.798   1.836
 1005SOL    HW1 3914   0.927   5.779   1.775
 1005SOL    HW2 3915   0.781   5.727   1.825
 1006SOL     OW 3916   1.770   4.246   1.532
 1006SOL    HW1 3917   1.717   4.301   1.597
 1006SOL    HW2 3918   1.740   4.151   1.537
 1007SOL     OW 3919   4.852   0.946   6.268
 1007SOL    HW1 3920   4.769   0.891   6.269
 1007SOL    HW2 3921   4.843   1.018   6.199
 1008SOL     OW 3922   0.146   4.273   4.690
 1008SOL    HW1 3923   0.067   4.334   4.684
 1008SOL    HW2 3924   0.230   4.327   4.687
 1009SOL     OW 3925   6.368   6.132   6.508
 1009SOL    HW1 3926   6.399   6.204   6.570
 1009SOL    HW2 3927   6.382   6.160   6.413
 1010SOL     OW 3928   3.345   4.157   0.105
 1010SOL    HW1 3929   3.265   4.098   0.114
 1010SOL    HW2 3930   3.407   4.119   0.037
 1011SOL     OW 3931   6.746   5.342   2.488
 1011SOL    HW1 3932   6.695   5.402   2.427
 1011SOL    HW2 3933   6.834   5.319   2.446
 1012SOL     OW 3934   5.140   6.031   3.322
 1012SOL    HW1 3935   5.139   6.026   3.422
 1012SOL    HW2 3936   5.081   6.106   3.292
 1013SOL     OW 3937   0.819   1.270   6.474
 1013SOL    HW1 3938   0.747   1.275   6.542
 1013SOL    HW2 3939   0.858   1.178   6.473
 1014SOL     OW 3940   0.736   4.677   4.156
 1014SOL    HW1 3941   0.701   4.641   4.243
 1014SOL    HW2 3942   0.811   4.741   4.174
 1015SOL     OW 3943   3.201   6.090   6.844
 1015SOL    HW1 3944   3.251   6.176   6.858
 1015SOL    HW2 3945   3.106   6.102   6.872
 1016SOL     OW 3946   6.936   4.941   0.342
 1016SOL    HW1 3947   6.992   4.860   0.363
 1016SOL    HW2 3948   6.895   4.931   0.252
 1017SOL     OW 3949   1.514   0.565   2.098
 1017SOL    HW1 3950   1.419   0.549   2.071
 1017SOL    HW2 3951   1.516   0.616   2.184
 1018SOL     OW 3952   5.778   5.871   5.716
 1018SOL    HW1 3953   5.814   5.814   5.790
 1018SOL    HW2 3954   5.852   5.924   5.675
 1019SOL     OW 3955   6.698   3.490   1.747
 1019SOL    HW1 3956   6.625   3.551   1.779
 1019SOL    HW2 3957   6.717   3.421   1.818
 1020SOL     OW 3958   5.458   1.240   1.130
 1020SOL    HW1 3959   5.530   1.297   1.170
 1020SOL    HW2 3960   5.481   1.220   1.035
 1021SOL     OW 3961   1.346   6.784   0.520
 1021SOL    HW1 3962   1.323   6.788   0.618
 1021SOL    HW2 3963   1.436   6.741   0.509
 1022SOL     OW 3964   1.912   5.179   6.218
 1022SOL    HW1 3965   1.858   5.157   6.299
 1022SOL    HW2 3966   1.879   5.265   6.178
 1023SOL     OW 3967   0.864   2.062   2.020
 1023SOL    HW1 3968   0.915   2.005   2.084
 1023SOL    HW2 3969   0.831   2.006   1.945
 1024SOL     OW 3970   1.660   2.799   4.554
 1024SOL    HW1 3971   1.672   2.897   4.569
 1024SOL    HW2 3972   1.674   2.778   4.457
 1025SOL     OW 3973   4.582   4.442   0.838
 1025SOL    HW1 3974   4.508   4.488   0.789
 1025SOL    HW2 3975   4.654   4.508   0.858
 1026SOL     OW 3976   3.375   2.678   1.715
 1026SOL    HW1 3977   3.368   2.738   1.635
 1026SOL    HW2 3978   3.466   2.686   1.755
 1027SOL     OW 3979   6.242   0.479   0.313
 1027SOL    HW1 3980   6.259   0.390   0.355
 1027SOL    HW2 3981   6.191   0.468   0.228
 1028SOL     OW 3982   0.763   5.327   3.337
 1028SOL    HW1 3983   0.726   5.348   3.247
 1028SOL    HW2 3984   0.856   5.292   3.328
 1029SOL     OW 3985   1.297   0.353   5.059
 1029SOL    HW1 3986   1.358   0.281   5.026
 1029SOL    HW2 3987   1.222   0.366   4.994
 1030SOL     OW 3988   4.082   3.646   1.178
 1030SOL    HW1 3989   4.027   3.588   1.237
 1030SOL    HW2 3990   4.118   3.723   1.231
 1031SOL     OW 3991   4.338   2.817   0.205
 1031SOL    HW1 3992   4.280   2.884   0.251
 1031SOL    HW2 3993   4.426   2.810   0.253
 1032SOL     OW 3994   1.303   1.070   1.415
 1032SOL    HW1 3995   1.218   1.017   1.417
 1032SOL    HW2 3996   1.323   1.099   1.322
 1033SOL     OW 3997   6.197   0.063   1.741
 1033SOL    HW1 3998   6.228   0.142   1.688
 1033SOL    HW2 3999   6.265   7.013   1.737
 1034SOL     OW 4000   2.155   0.645   5.630
 1034SOL    HW1 4001   2.137   0.620   5.725
 1034SOL    HW2 4002   2.069   0.656   5.581
 1035SOL     OW 4003   1.749   0.033   0.023
 1035SOL    HW1 4004   1.687   6.978   0.029
 1035SOL    HW2 4005   1.704   0.107   6.995
 1036SOL     OW 4006   5.515   1.322   2.558
 1036SOL    HW1 4007   5.458   1.281   2.629
 1036SOL    HW2 4008   5.491   1.284   2.469
 1037SOL     OW 4009   0.835   4.052   2.724
 1037SOL    HW1 4010   0.852   3.956   2.703
 1037SOL    HW2 4011   0.737   4.070   2.726
 1038SOL     OW 4012   1.527   6.704   6.535
 1038SOL    HW1 4013   1.448   6.651   6.566
 1038SOL    HW2 4014   1.594   6.709   6.609
 1039SOL     OW 4015   2.938   3.827   2.810
 1039SOL    HW1 4016   2.987   3.904   2.852
 1039SOL    HW2 4017   2.937   3.750   2.874
 1040SOL     OW 4018   3.536   1.377   2.937
 1040SOL    HW1 4019   3.575   1.322   2.863
 1040SOL    HW2 4020   3.437   1.359   2.943
 1041SOL     OW 4021   6.905   6.925   6.759
 1041SOL    HW1 4022   6.826   6.902   6.817
 1041SOL    HW2 4023   6.937   6.842   6.713
 1042SOL     OW 4024   5.566   3.202   3.694
 1042SOL    HW1 4025   5.521   3.223   3.607
 1042SOL    HW2 4026   5.664   3.219   3.686
 1043SOL     OW 4027   2.280   2.355   3.403
 1043SOL    HW1 4028   2.185   2.379   3.386
 1043SOL    HW2 4029   2.338   2.393   3.332
 1044SOL     OW 4030   5.077   4.480   2.230
 1044SOL    HW1 4031   5.056   4.478   2.327
 1044SOL    HW2 4032   5.174   4.502   2.217
 1045SOL     OW 4033   1.974   0.389   2.215
 1045SOL    HW1 4034   2.009   0.360   2.304
 1045SOL    HW2 4035   2.008   0.327   2.144
 1046SOL     OW 4036   3.825   2.558   0.806
 1046SOL    HW1 4037   3.788   2.592   0.893
 1046SOL    HW2 4038   3.831   2.633   0.741
 1047SOL     OW 4039   3.934   0.666   3.310
 1047SOL    HW1 4040   3.895   0.648   3.400
 1047SOL    HW2 4041   4.034   0.660   3.315
 1048SOL     OW 4042   6.923   6.936   2.380
 1048SOL    HW1 4043   6.931   6.839   2.402
 1048SOL    HW2 4044   6.936   6.990   2.463
 1049SOL     OW 4045   3.134   6.702   0.493
 1049SOL    HW1 4046   3.233   6.702   0.477
 1049SOL    HW2 4047   3.101   6.796   0.495
 1050SOL     OW 4048   2.109   1.679   4.444
 1050SOL    HW1 4049   2.027   1.707   4.493
 1050SOL    HW2 4050   2.084   1.633   4.359
 1051SOL     OW 4051   1.872   2.260   5.594
 1051SOL    HW1 4052   1.780   2.264   5.554
 1051SOL    HW2 4053   1.864   2.241   5.692
 1052SOL     OW 4054   4.814   2.622   6.073
 1052SOL    HW1 4055   4.722   2.641   6.107
 1052SOL    HW2 4056   4.876   2.695   6.101
 1053SOL     OW 4057   4.650   2.739   4.459
 1053SOL    HW1 4058   4.627   2.667   4.393
 1053SOL    HW2 4059   4.747   2.731   4.484
 1054SOL     OW 4060   4.992   5.439   6.495
 1054SOL    HW1 4061   4.928   5.383   6.442
 1054SOL    HW2 4062   5.013   5.392   6.581
 1055SOL     OW 4063   5.448   5.564   6.050
 1055SOL    HW1 4064   5.359   5.547   6.092
 1055SOL    HW2 4065   5.496   5.477   6.037
 1056SOL     OW 4066   3.760   3.443   0.000
 1056SOL    HW1 4067   3.819   3.501   6.968
 1056SOL    HW2 4068   3.741   3.487   0.088
 1057SOL     OW 4069   2.911   3.825   6.604
 1057SOL    HW1 4070   2.862   3.887   6.665
 1057SOL    HW2 4071   2.961   3.758   6.659
 1058SOL     OW 4072   2.694   2.131   1.549
 1058SOL    HW1 4073   2.737   2.122   1.459
 1058SOL    HW2 4074   2.725   2.216   1.592
 1059SOL     OW 4075   2.586   5.958   2.780
 1059SOL    HW1 4076   2.618   5.926   2.690
 1059SOL    HW2 4077   2.635   6.042   2.804
 1060SOL     OW 4078   6.495   6.929   4.993
 1060SOL    HW1 4079   6.401   6.925   4.959
 1060SOL    HW2 4080   6.528   0.001   4.987
 1061SOL     OW 4081   0.124   3.857   6.432
 1061SOL    HW1 4082   0.186   3.863   6.510
 1061SOL    HW2 4083   0.039   3.906   6.454
 1062SOL     OW 4084   4.104   4.816   5.785
 1062SOL    HW1 4085   4.098   4.854   5.693
 1062SOL    HW2 4086   4.090   4.888   5.852
 1063SOL     OW 4087   2.677   6.564   3.920
 1063SOL    HW1 4088   2.629   6.491   3.873
 1063SOL    HW2 4089   2.719   6.626   3.854
 1064SOL     OW 4090   1.062   4.388   0.642
 1064SOL    HW1 4091   1.147   4.406   0.691
 1064SOL    HW2 4092   1.060   4.292   0.613
 1065SOL     OW 4093   6.153   0.929   5.639
 1065SOL    HW1 4094   6.130   0.948   5.544
 1065SOL    HW2 4095   6.229   0.989   5.667
 1066SOL     OW 4096   4.644   5.957   1.260
 1066SOL    HW1 4097   4.598   5.875   1.293
 1066SOL    HW2 4098   4.641   5.958   1.160
 1067SOL     OW 4099   3.815   1.543   0.460
 1067SOL    HW1 4100   3.769   1.502   0.380
 1067SOL    HW2 4101   3.831   1.473   0.529
 1068SOL     OW 4102   6.011   2.926   2.330
 1068SOL    HW1 4103   5.957   2.981   2.394
 1068SOL    HW2 4104   6.083   2.878   2.380
 1069SOL     OW 4105   0.429   1.761   2.573
 1069SOL    HW1 4106   0.501   1.751   2.642
 1069SOL    HW2 4107   0.454   1.836   2.511
 1070SOL     OW 4108   1.247   0.376   2.268
 1070SOL    HW1 4109   1.204   0.295   2.228
 1070SOL    HW2 4110   1.179   0.449   2.276
 1071SOL     OW 4111   0.652   2.932   5.583
 1071SOL    HW1 4112   0.742   2.946   5.623
 1071SOL    HW2 4113   0.612   2.849   5.621
 1072SOL     OW 4114   2.009   1.754   1.777
 1072SOL    HW1 4115   2.006   1.853   1.762
 1072SOL    HW2 4116   1.958   1.708   1.704
 1073SOL     OW 4117   5.006   1.720   2.528
 1073SOL    HW1 4118   5.071   1.750   2.459
 1073SOL    HW2 4119   4.918   1.701   2.485
 1074SOL     OW 4120   3.384   5.956   1.688
 1074SOL    HW1 4121   3.362   5.894   1.763
 1074SOL    HW2 4122   3.475   5.995   1.703
 1075SOL     OW 4123   6.984   3.485   4.907
 1075SOL    HW1 4124   7.016   3.442   4.991
 1075SOL    HW2 4125   6.975   3.584   4.922
 1076SOL     OW 4126   2.364   4.147   5.684
 1076SOL    HW1 4127   2.397   4.238   5.658
 1076SOL    HW2 4128   2.423   4.078   5.642
 1077SOL     OW 4129   6.763   6.756   0.548
 1077SOL    HW1 4130   6.739   6.692   0.475
 1077SOL    HW2 4131   6.863   6.765   0.553
 1078SOL     OW 4132   5.734   6.988   4.202
 1078SOL    HW1 4133   5.800   6.912   4.205
 1078SOL    HW2 4134   5.740   0.010   4.113
 1079SOL     OW 4135   0.887   5.680   1.558
 1079SOL    HW1 4136   0.816   5.610   1.551
 1079SOL    HW2 4137   0.867   5.754   1.493
 1080SOL     OW 4138   4.749   6.023   0.264
 1080SOL    HW1 4139   4.816   5.951   0.246
 1080SOL    HW2 4140   4.723   6.022   0.361
 1081SOL     OW 4141   6.738   6.809   3.266
 1081SOL    HW1 4142   6.690   6.849   3.188
 1081SOL    HW2 4143   6.837   6.822   3.254
 1082SOL     OW 4144   4.588   6.808   6.924
 1082SOL    HW1 4145   4.588   6.876   6.850
 1082SOL    HW2 4146   4.612   6.718   6.887
 1083SOL     OW 4147   6.403   3.848   2.464
 1083SOL    HW1 4148   6.469   3.788   2.509
 1083SOL    HW2 4149   6.446   3.892   2.385
 1084SOL     OW 4150   3.921   0.560   5.478
 1084SOL    HW1 4151   3.852   0.588   5.411
 1084SOL    HW2 4152   3.888   0.480   5.529
 1085SOL     OW 4153   1.757   3.452   4.732
 1085SOL    HW1 4154   1.763   3.551   4.719
 1085SOL    HW2 4155   1.662   3.427   4.754
 1086SOL     OW 4156   5.052   4.100   2.352
 1086SOL    HW1 4157   5.031   4.032   2.422
 1086SOL    HW2 4158   5.035   4.192   2.389
 1087SOL     OW 4159   3.595   0.420   5.814
 1087SOL    HW1 4160   3.616   0.516   5.799
 1087SOL    HW2 4161   3.579   0.405   5.912
 1088SOL     OW 4162   6.030   5.802   4.040
 1088SOL    HW1 4163   6.002   5.829   4.132
 1088SOL    HW2 4164   6.030   5.703   4.033
 1089SOL     OW 4165   5.879   5.200   4.391
 1089SOL    HW1 4166   5.875   5.151   4.304
 1089SOL    HW2 4167   5.966   5.180   4.437
 1090SOL     OW 4168   6.147   2.820   5.266
 1090SOL    HW1 4169   6.099   2.801   5.352
 1090SOL    HW2 4170   6.161   2.734   5.216
 1091SOL     OW 4171   1.855   3.407   3.670
 1091SOL    HW1 4172   1.921   3.476   3.639
 1091SOL    HW2 4173   1.825   3.352   3.593
 1092SOL     OW 4174   1.126   5.988   6.977
 1092SOL    HW1 4175   1.150   6.083   6.956
 1092SOL    HW2 4176   1.029   5.981   6.997
 1093SOL     OW 4177   1.765   0.766   2.761
 1093SOL    HW1 4178   1.865   0.768   2.768
 1093SOL    HW2 4179   1.729   0.697   2.824
 1094SOL     OW 4180   0.321   6.798   3.601
 1094SOL    HW1 4181   0.276   6.712   3.627
 1094SOL    HW2 4182   0.409   6.778   3.557
 1095SOL     OW 4183   6.210   4.509   0.942
 1095SOL    HW1 4184   6.275   4.468   1.005
 1095SOL    HW2 4185   6.183   4.600   0.976
 1096SOL     OW 4186   2.366   6.112   2.495
 1096SOL    HW1 4187   2.303   6.083   2.423
 1096SOL    HW2 4188   2.327   6.089   2.584
 1097SOL     OW 4189   3.386   5.719   4.622
 1097SOL    HW1 4190   3.471   5.765   4.649
 1097SOL    HW2 4191   3.399   5.675   4.533
 1098SOL     OW 4192   6.755   4.158   0.076
 1098SOL    HW1 4193   6.673   4.130   0.127
 1098SOL    HW2 4194   6.767   4.097   7.020
 1099SOL     OW 4195   5.310   0.035   0.082
 1099SOL    HW1 4196   5.234   0.094   0.057
 1099SOL    HW2 4197   5.391   0.059   0.028
 1100SOL     OW 4198   4.812   1.094   4.324
 1100SOL    HW1 4199   4.777   1.156   4.394
 1100SOL    HW2 4200   4.740   1.074   4.258
 1101SOL     OW 4201   4.609   2.727   6.957
 1101SOL    HW1 4202   4.636   2.738   6.862
 1101SOL    HW2 4203   4.564   2.811   6.989
 1102SOL     OW 4204   3.477   1.170   4.552
 1102SOL    HW1 4205   3.402   1.154   4.617
 1102SOL    HW2 4206   3.555   1.208   4.601
 1103SOL     OW 4207   3.418   6.586   0.709
 1103SOL    HW1 4208   3.357   6.512   0.681
 1103SOL    HW2 4209   3.365   6.670   0.719
 1104SOL     OW 4210   6.223   1.294   3.416
 1104SOL    HW1 4211   6.197   1.260   3.325
 1104SOL    HW2 4212   6.210   1.222   3.484
 1105SOL     OW 4213   4.693   0.054   5.553
 1105SOL    HW1 4214   4.755   7.009   5.590
 1105SOL    HW2 4215   4.602   0.043   5.594
 1106SOL     OW 4216   6.084   1.314   2.091
 1106SOL    HW1 4217   6.013   1.285   2.027
 1106SOL    HW2 4218   6.142   1.236   2.114
 1107SOL     OW 4219   1.373   2.387   6.626
 1107SOL    HW1 4220   1.305   2.353   6.691
 1107SOL    HW2 4221   1.380   2.486   6.634
 1108SOL     OW 4222   2.078   1.670   2.708
 1108SOL    HW1 4223   2.161   1.687   2.761
 1108SOL    HW2 4224   2.059   1.749   2.649
 1109SOL     OW 4225   4.826   1.874   5.377
 1109SOL    HW1 4226   4.815   1.865   5.476
 1109SOL    HW2 4227   4.824   1.784   5.335
 1110SOL     OW 4228   1.416   0.475   2.457
 1110SOL    HW1 4229   1.363   0.454   2.375
 1110SOL    HW2 4230   1.353   0.496   2.532
 1111SOL     OW 4231   5.233   3.253   5.823
 1111SOL    HW1 4232   5.201   3.342   5.856
 1111SOL    HW2 4233   5.320   3.230   5.866
 1112SOL     OW 4234   5.778   0.461   2.549
 1112SOL    HW1 4235   5.685   0.498   2.545
 1112SOL    HW2 4236   5.810   0.460   2.644
 1113SOL     OW 4237   0.377   1.459   2.650
 1113SOL    HW1 4238   0.359   1.548   2.691
 1113SOL    HW2 4239   0.330   1.388   2.703
 1114SOL     OW 4240   3.639   3.073   4.538
 1114SOL    HW1 4241   3.635   3.166   4.502
 1114SOL    HW2 4242   3.636   3.007   4.463
 1115SOL     OW 4243   2.162   5.287   6.223
 1115SOL    HW1 4244   2.228   5.248   6.159
 1115SOL    HW2 4245   2.081   5.228   6.228
 1116SOL     OW 4246   4.656   6.954   0.400
 1116SOL    HW1 4247   4.582   6.996   0.452
 1116SOL    HW2 4248   4.730   7.019   0.388
 1117SOL     OW 4249   2.040   2.560   1.579
 1117SOL    HW1 4250   2.086   2.514   1.504
 1117SOL    HW2 4251   2.103   2.572   1.655
 1118SOL     OW 4252   4.455   6.369   6.912
 1118SOL    HW1 4253   4.447   6.275   6.877
 1118SOL    HW2 4254   4.545   6.405   6.889
 1119SOL     OW 4255   2.812   5.972   4.177
 1119SOL    HW1 4256   2.785   6.012   4.265
 1119SOL    HW2 4257   2.767   5.883   4.166
 1120SOL     OW 4258   0.778   3.305   1.729
 1120SOL    HW1 4259   0.831   3.311   1.645
 1120SOL    HW2 4260   0.732   3.393   1.746
 1121SOL     OW 4261   5.543   4.160   5.991
 1121SOL    HW1 4262   5.550   4.101   6.071
 1121SOL    HW2 4263   5.616   4.138   5.927
 1122SOL     OW 4264   5.950   0.504   2.249
 1122SOL    HW1 4265   5.893   0.549   2.318
 1122SOL    HW2 4266   6.026   0.565   2.225
 1123SOL     OW 4267   3.373   1.576   4.687
 1123SOL    HW1 4268   3.322   1.570   4.773
 1123SOL    HW2 4269   3.396   1.671   4.668
 1124SOL     OW 4270   2.490   2.529   3.179
 1124SOL    HW1 4271   2.477   2.591   3.256
 1124SOL    HW2 4272   2.467   2.576   3.094
 1125SOL     OW 4273   0.970   3.274   4.415
 1125SOL    HW1 4274   0.926   3.237   4.497
 1125SOL    HW2 4275   1.008   3.199   4.362
 1126SOL     OW 4276   4.452   4.561   3.748
 1126SOL    HW1 4277   4.415   4.570   3.841
 1126SOL    HW2 4278   4.516   4.636   3.730
 1127SOL     OW 4279   6.020   6.675   1.110
 1127SOL    HW1 4280   6.016   6.577   1.090
 1127SOL    HW2 4281   6.032   6.726   1.025
 1128SOL     OW 4282   3.192   1.819   4.694
 1128SOL    HW1 4283   3.122   1.885   4.666
 1128SOL    HW2 4284   3.279   1.843   4.651
 1129SOL     OW 4285   1.324   1.077   0.043
 1129SOL    HW1 4286   1.360   1.015   0.113
 1129SOL    HW2 4287   1.400   1.114   7.012
 1130SOL     OW 4288   2.160   5.619   1.088
 1130SOL    HW1 4289   2.150   5.540   1.028
 1130SOL    HW2 4290   2.073   5.637   1.134
 1131SOL     OW 4291   1.500   5.450   3.675
 1131SOL    HW1 4292   1.514   5.549   3.670
 1131SOL    HW2 4293   1.423   5.431   3.736
 1132SOL     OW 4294   1.532   2.046   3.159
 1132SOL    HW1 4295   1.623   2.041   3.118
 1132SOL    HW2 4296   1.524   1.977   3.230
 1133SOL     OW 4297   1.570   6.188   6.664
 1133SOL    HW1 4298   1.616   6.171   6.577
 1133SOL    HW2 4299   1.554   6.101   6.710
 1134SOL     OW 4300   3.879   5.944   0.715
 1134SOL    HW1 4301   3.885   5.846   0.698
 1134SOL    HW2 4302   3.899   5.962   0.812
 1135SOL     OW 4303   1.878   6.951   3.183
 1135SOL    HW1 4304   1.913   6.944   3.090
 1135SOL    HW2 4305   1.782   6.921   3.186
 1136SOL     OW 4306   1.574   4.742   2.931
 1136SOL    HW1 4307   1.546   4.650   2.906
 1136SOL    HW2 4308   1.674   4.746   2.938
 1137SOL     OW 4309   1.135   5.373   4.230
 1137SOL    HW1 4310   1.226   5.334   4.249
 1137SOL    HW2 4311   1.094   5.406   4.315
 1138SOL     OW 4312   2.479   4.455   4.088
 1138SOL    HW1 4313   2.520   4.544   4.069
 1138SOL    HW2 4314   2.489   4.433   4.185
 1139SOL     OW 4315   3.562   5.516   4.830
 1139SOL    HW1 4316   3.620   5.434   4.825
 1139SOL    HW2 4317   3.483   5.503   4.770
 1140SOL     OW 4318   2.338   2.659   1.061
 1140SOL    HW1 4319   2.303   2.730   1.001
 1140SOL    HW2 4320   2.332   2.690   1.156
 1141SOL     OW 4321   6.179   4.718   5.746
 1141SOL    HW1 4322   6.134   4.631   5.726
 1141SOL    HW2 4323   6.110   4.787   5.766
 1142SOL     OW 4324   0.378   5.662   2.730
 1142SOL    HW1 4325   0.399   5.726   2.804
 1142SOL    HW2 4326   0.279   5.646   2.727
 1143SOL     OW 4327   6.943   4.673   1.694
 1143SOL    HW1 4328   0.018   4.653   1.689
 1143SOL    HW2 4329   6.907   4.645   1.783
 1144SOL     OW 4330   5.051   4.953   6.937
 1144SOL    HW1 4331   5.132   5.006   6.912
 1144SOL    HW2 4332   5.076   4.883   7.004
 1145SOL     OW 4333   5.864   0.085   0.836
 1145SOL    HW1 4334   5.866   0.068   0.935
 1145SOL    HW2 4335   5.773   0.065   0.801
 1146SOL     OW 4336   1.699   0.385   1.414
 1146SOL    HW1 4337   1.689   0.466   1.356
 1146SOL    HW2 4338   1.796   0.367   1.431
 1147SOL     OW 4339   1.237   6.240   0.448
 1147SOL    HW1 4340   1.148   6.203   0.420
 1147SOL    HW2 4341   1.306   6.168   0.445
 1148SOL     OW 4342   3.538   5.842   2.032
 1148SOL    HW1 4343   3.450   5.830   1.986
 1148SOL    HW2 4344   3.572   5.935   2.014
 1149SOL     OW 4345   5.858   1.791   1.468
 1149SOL    HW1 4346   5.931   1.811   1.402
 1149SOL    HW2 4347   5.898   1.759   1.554
 1150SOL     OW 4348   1.626   1.866   0.966
 1150SOL    HW1 4349   1.638   1.888   1.063
 1150SOL    HW2 4350   1.551   1.920   0.928
 1151SOL     OW 4351   5.738   5.535   4.619
 1151SOL    HW1 4352   5.835   5.533   4.596
 1151SOL    HW2 4353   5.715   5.625   4.655
 1152SOL     OW 4354   3.130   6.137   5.740
 1152SOL    HW1 4355   3.113   6.062   5.804
 1152SOL    HW2 4356   3.139   6.223   5.791
 1153SOL     OW 4357   5.681   6.917   1.065
 1153SOL    HW1 4358   5.599   6.919   1.123
 1153SOL    HW2 4359   5.737   6.998   1.086
 1154SOL     OW 4360   1.975   3.201   0.946
 1154SOL    HW1 4361   1.947   3.291   0.979
 1154SOL    HW2 4362   1.923   3.130   0.994
 1155SOL     OW 4363   3.797   5.657   4.312
 1155SOL    HW1 4364   3.894   5.680   4.307
 1155SOL    HW2 4365   3.747   5.711   4.244
 1156SOL     OW 4366   2.695   0.810   1.273
 1156SOL    HW1 4367   2.648   0.876   1.331
 1156SOL    HW2 4368   2.653   0.720   1.284
 1157SOL     OW 4369   2.047   2.055   0.731
 1157SOL    HW1 4370   2.061   2.154   0.737
 1157SOL    HW2 4371   1.986   2.025   0.804
 1158SOL     OW 4372   5.644   4.373   4.158
 1158SOL    HW1 4373   5.652   4.467   4.194
 1158SOL    HW2 4374   5.722   4.319   4.189
 1159SOL     OW 4375   5.327   4.568   0.672
 1159SOL    HW1 4376   5.315   4.648   0.731
 1159SOL    HW2 4377   5.313   4.485   0.725
 1160SOL     OW 4378   4.292   1.812   1.195
 1160SOL    HW1 4379   4.335   1.890   1.151
 1160SOL    HW2 4380   4.195   1.808   1.170
 1161SOL     OW 4381   0.623   4.951   0.788
 1161SOL    HW1 4382   0.586   4.861   0.766
 1161SOL    HW2 4383   0.560   5.022   0.756
 1162SOL     OW 4384   2.104   2.794   4.595
 1162SOL    HW1 4385   2.171   2.760   4.661
 1162SOL    HW2 4386   2.096   2.893   4.604
 1163SOL     OW 4387   4.881   1.527   2.076
 1163SOL    HW1 4388   4.948   1.572   2.016
 1163SOL    HW2 4389   4.789   1.539   2.038
 1164SOL     OW 4390   4.141   1.983   5.729
 1164SOL    HW1 4391   4.130   2.006   5.825
 1164SOL    HW2 4392   4.207   1.908   5.719
 1165SOL     OW 4393   4.104   0.326   2.772
 1165SOL    HW1 4394   4.009   0.355   2.760
 1165SOL    HW2 4395   4.136   0.353   2.863
 1166SOL     OW 4396   3.671   4.038   6.625
 1166SOL    HW1 4397   3.744   4.073   6.566
 1166SOL    HW2 4398   3.707   4.023   6.717
 1167SOL     OW 4399   5.442   3.934   3.441
 1167SOL    HW1 4400   5.445   4.001   3.367
 1167SOL    HW2 4401   5.358   3.880   3.434
 1168SOL     OW 4402   0.498   7.001   0.617
 1168SOL    HW1 4403   0.555   0.060   0.619
 1168SOL    HW2 4404   0.554   6.921   0.596
 1169SOL     OW 4405   5.149   2.348   5.367
 1169SOL    HW1 4406   5.183   2.324   5.457
 1169SOL    HW2 4407   5.068   2.293   5.347
 1170SOL     OW 4408   5.045   4.501   2.768
 1170SOL    HW1 4409   4.994   4.551   2.698
 1170SOL    HW2 4410   4.988   4.490   2.850
 1171SOL     OW 4411   0.082   6.231   0.650
 1171SOL    HW1 4412   0.154   6.225   0.580
 1171SOL    HW2 4413   0.005   6.172   0.624
 1172SOL     OW 4414   5.756   3.390   6.836
 1172SOL    HW1 4415   5.776   3.470   6.892
 1172SOL    HW2 4416   5.840   3.337   6.822
 1173SOL     OW 4417   4.694   2.525   1.631
 1173SOL    HW1 4418   4.638   2.602   1.664
 1173SOL    HW2 4419   4.634   2.447   1.611
 1174SOL     OW 4420   2.539   5.196   0.452
 1174SOL    HW1 4421   2.465   5.184   0.386
 1174SOL    HW2 4422   2.616   5.138   0.425
 1175SOL     OW 4423   3.217   4.103   3.630
 1175SOL    HW1 4424   3.198   4.068   3.722
 1175SOL    HW2 4425   3.134   4.141   3.590
 1176SOL     OW 4426   5.425   3.532   0.336
 1176SOL    HW1 4427   5.438   3.612   0.394
 1176SOL    HW2 4428   5.509   3.478   0.335
 1177SOL     OW 4429   0.981   1.250   4.632
 1177SOL    HW1 4430   0.961   1.293   4.720
 1177SOL    HW2 4431   0.896   1.214   4.592
 1178SOL     OW 4432   4.210   6.412   0.008
 1178SOL    HW1 4433   4.175   6.407   0.101
 1178SOL    HW2 4434   4.310   6.407   0.008
 1179SOL     OW 4435   0.379   5.816   0.452
 1179SOL    HW1 4436   0.363   5.767   0.367
 1179SOL    HW2 4437   0.457   5.776   0.500
 1180SOL     OW 4438   3.441   6.439   0.334
 1180SOL    HW1 4439   3.416   6.410   0.241
 1180SOL    HW2 4440   3.517   6.383   0.367
 1181SOL     OW 4441   6.175   6.287   6.282
 1181SOL    HW1 4442   6.111   6.238   6.342
 1181SOL    HW2 4443   6.126   6.319   6.201
 1182SOL     OW 4444   4.968   3.777   4.430
 1182SOL    HW1 4445   4.969   3.703   4.498
 1182SOL    HW2 4446   5.057   3.822   4.429
 1183SOL     OW 4447   2.090   4.389   0.259
 1183SOL    HW1 4448   2.049   4.471   0.299
 1183SOL    HW2 4449   2.072   4.310   0.318
 1184SOL     OW 4450   0.433   1.407   5.231
 1184SOL    HW1 4451   0.472   1.331   5.180
 1184SOL    HW2 4452   0.346   1.379   5.272
 1185SOL     OW 4453   6.606   1.790   6.333
 1185SOL    HW1 4454   6.517   1.754   6.362
 1185SOL    HW2 4455   6.594   1.881   6.294
 1186SOL     OW 4456   4.923   6.656   4.381
 1186SOL    HW1 4457   4.923   6.755   4.369
 1186SOL    HW2 4458   5.004   6.617   4.338
 1187SOL     OW 4459   6.103   2.406   6.883
 1187SOL    HW1 4460   6.162   2.484   6.861
 1187SOL    HW2 4461   6.036   2.433   6.953
 1188SOL     OW 4462   4.279   1.932   6.576
 1188SOL    HW1 4463   4.335   1.912   6.495
 1188SOL    HW2 4464   4.201   1.988   6.549
 1189SOL     OW 4465   6.151   3.911   3.806
 1189SOL    HW1 4466   6.124   3.845   3.876
 1189SOL    HW2 4467   6.248   3.931   3.815
 1190SOL     OW 4468   2.909   0.626   3.533
 1190SOL    HW1 4469   2.927   0.528   3.537
 1190SOL    HW2 4470   2.856   0.653   3.614
 1191SOL     OW 4471   3.345   6.920   2.994
 1191SOL    HW1 4472   3.293   6.834   2.993
 1191SOL    HW2 4473   3.392   6.931   2.906
 1192SOL     OW 4474   5.831   5.535   3.828
 1192SOL    HW1 4475   5.766   5.609   3.843
 1192SOL    HW2 4476   5.793   5.470   3.762
 1193SOL     OW 4477   6.485   6.194   4.711
 1193SOL    HW1 4478   6.443   6.279   4.741
 1193SOL    HW2 4479   6.512   6.139   4.790
 1194SOL     OW 4480   3.722   0.420   0.946
 1194SOL    HW1 4481   3.741   0.353   1.018
 1194SOL    HW2 4482   3.704   0.372   0.860
 1195SOL     OW 4483   5.107   2.833   2.823
 1195SOL    HW1 4484   5.123   2.794   2.732
 1195SOL    HW2 4485   5.119   2.932   2.820
 1196SOL     OW 4486   0.228   6.630   5.061
 1196SOL    HW1 4487   0.230   6.535   5.030
 1196SOL    HW2 4488   0.321   6.663   5.075
 1197SOL     OW 4489   2.647   6.582   6.454
 1197SOL    HW1 4490   2.572   6.648   6.464
 1197SOL    HW2 4491   2.681   6.556   6.544
 1198SOL     OW 4492   1.494   2.636   0.343
 1198SOL    HW1 4493   1.429   2.712   0.339
 1198SOL    HW2 4494   1.474   2.571   0.270
 1199SOL     OW 4495   5.864   4.404   2.850
 1199SOL    HW1 4496   5.814   4.328   2.892
 1199SOL    HW2 4497   5.921   4.370   2.776
 1200SOL     OW 4498   3.076   4.000   2.274
 1200SOL    HW1 4499   3.114   3.986   2.183
 1200SOL    HW2 4500   3.049   3.912   2.314
 1201SOL     OW 4501   1.833   2.365   5.198
 1201SOL    HW1 4502   1.780   2.345   5.116
 1201SOL    HW2 4503   1.774   2.408   5.266
 1202SOL     OW 4504   0.988   6.215   5.147
 1202SOL    HW1 4505   1.079   6.255   5.145
 1202SOL    HW2 4506   0.995   6.115   5.144
 1203SOL     OW 4507   4.339   5.617   5.104
 1203SOL    HW1 4508   4.263   5.647   5.162
 1203SOL    HW2 4509   4.422   5.608   5.159
 1204SOL     OW 4510   2.123   0.331   2.435
 1204SOL    HW1 4511   2.160   0.396   2.501
 1204SOL    HW2 4512   2.145   0.238   2.463
 1205SOL     OW 4513   5.767   3.479   2.294
 1205SOL    HW1 4514   5.726   3.464   2.204
 1205SOL    HW2 4515   5.769   3.577   2.313
 1206SOL     OW 4516   2.898   3.425   4.353
 1206SOL    HW1 4517   2.900   3.511   4.404
 1206SOL    HW2 4518   2.804   3.389   4.351
 1207SOL     OW 4519   0.705   5.808   3.254
 1207SOL    HW1 4520   0.634   5.738   3.252
 1207SOL    HW2 4521   0.720   5.838   3.349
 1208SOL     OW 4522   3.463   2.970   6.744
 1208SOL    HW1 4523   3.531   2.897   6.733
 1208SOL    HW2 4524   3.498   3.054   6.703
 1209SOL     OW 4525   4.050   6.497   5.666
 1209SOL    HW1 4526   4.110   6.571   5.694
 1209SOL    HW2 4527   3.991   6.528   5.591
 1210SOL     OW 4528   2.909   1.023   2.787
 1210SOL    HW1 4529   2.842   1.050   2.856
 1210SOL    HW2 4530   3.000   1.056   2.813
 1211SOL     OW 4531   0.944   2.827   0.813
 1211SOL    HW1 4532   1.027   2.873   0.782
 1211SOL    HW2 4533   0.968   2.756   0.879
 1212SOL     OW 4534   0.696   6.817   0.511
 1212SOL    HW1 4535   0.673   6.729   0.552
 1212SOL    HW2 4536   0.657   6.821   0.419
 1213SOL     OW 4537   5.883   2.837   1.922
 1213SOL    HW1 4538   5.973   2.805   1.892
 1213SOL    HW2 4539   5.872   2.818   2.020
 1214SOL     OW 4540   0.334   2.525   2.261
 1214SOL    HW1 4541   0.309   2.518   2.358
 1214SOL    HW2 4542   0.252   2.540   2.207
 1215SOL     OW 4543   2.044   5.760   2.972
 1215SOL    HW1 4544   2.127   5.761   2.917
 1215SOL    HW2 4545   2.039   5.843   3.028
 1216SOL     OW 4546   4.471   0.011   1.596
 1216SOL    HW1 4547   4.479   0.044   1.502
 1216SOL    HW2 4548   4.559   0.019   1.642
 1217SOL     OW 4549   2.598   4.180   0.141
 1217SOL    HW1 4550   2.564   4.274   0.147
 1217SOL    HW2 4551   2.615   4.145   0.233
 1218SOL     OW 4552   2.592   5.047   4.193
 1218SOL    HW1 4553   2.514   4.988   4.170
 1218SOL    HW2 4554   2.602   5.050   4.293
 1219SOL     OW 4555   3.582   5.238   1.844
 1219SOL    HW1 4556   3.588   5.140   1.826
 1219SOL    HW2 4557   3.630   5.289   1.772
 1220SOL     OW 4558   0.549   4.800   2.143
 1220SOL    HW1 4559   0.461   4.757   2.123
 1220SOL    HW2 4560   0.599   4.746   2.210
 1221SOL     OW 4561   4.877   4.200   6.862
 1221SOL    HW1 4562   4.848   4.289   6.828
 1221SOL    HW2 4563   4.862   4.195   6.960
 1222SOL     OW 4564   0.020   1.326   6.710
 1222SOL    HW1 4565   0.040   1.364   6.620
 1222SOL    HW2 4566   0.004   1.228   6.702
 1223SOL     OW 4567   3.985   5.869   1.254
 1223SOL    HW1 4568   4.068   5.813   1.247
 1223SOL    HW2 4569   4.010   5.960   1.288
 1224SOL     OW 4570   3.170   1.178   1.359
 1224SOL    HW1 4571   3.178   1.256   1.421
 1224SOL    HW2 4572   3.084   1.131   1.376
 1225SOL     OW 4573   3.560   4.353   5.940
 1225SOL    HW1 4574   3.496   4.336   6.015
 1225SOL    HW2 4575   3.509   4.376   5.857
 1226SOL     OW 4576   2.057   5.363   0.578
 1226SOL    HW1 4577   2.102   5.436   0.631
 1226SOL    HW2 4578   1.960   5.357   0.606
 1227SOL     OW 4579   1.356   4.241   5.701
 1227SOL    HW1 4580   1.324   4.147   5.718
 1227SOL    HW2 4581   1.454   4.246   5.719
 1228SOL     OW 4582   3.783   2.449   0.001
 1228SOL    HW1 4583   3.827   2.538   7.012
 1228SOL    HW2 4584   3.841   2.389   0.056
 1229SOL     OW 4585   2.779   3.928   0.020
 1229SOL    HW1 4586   2.793   4.021   0.053
 1229SOL    HW2 4587   2.699   3.889   0.067
 1230SOL     OW 4588   4.202   0.212   3.801
 1230SOL    HW1 4589   4.209   0.303   3.759
 1230SOL    HW2 4590   4.226   0.218   3.898
 1231SOL     OW 4591   0.716   3.301   3.515
 1231SOL    HW1 4592   0.680   3.340   3.430
 1231SOL    HW2 4593   0.679   3.209   3.528
 1232SOL     OW 4594   1.724   2.456   2.465
 1232SOL    HW1 4595   1.699   2.392   2.539
 1232SOL    HW2 4596   1.802   2.511   2.494
 1233SOL     OW 4597   0.745   2.070   4.312
 1233SOL    HW1 4598   0.671   2.053   4.377
 1233SOL    HW2 4599   0.833   2.068   4.359
 1234SOL     OW 4600   6.512   4.713   4.499
 1234SOL    HW1 4601   6.417   4.736   4.521
 1234SOL    HW2 4602   6.515   4.628   4.447
 1235SOL     OW 4603   6.626   5.111   3.230
 1235SOL    HW1 4604   6.554   5.067   3.176
 1235SOL    HW2 4605   6.708   5.053   3.230
 1236SOL     OW 4606   5.580   0.561   6.794
 1236SOL    HW1 4607   5.555   0.656   6.772
 1236SOL    HW2 4608   5.594   0.510   6.710
 1237SOL     OW 4609   2.041   4.633   6.613
 1237SOL    HW1 4610   2.104   4.659   6.687
 1237SOL    HW2 4611   1.953   4.678   6.627
 1238SOL     OW 4612   1.998   1.338   1.161
 1238SOL    HW1 4613   2.096   1.357   1.171
 1238SOL    HW2 4614   1.969   1.360   1.068
 1239SOL     OW 4615   0.903   0.067   6.039
 1239SOL    HW1 4616   0.818   0.051   5.988
 1239SOL    HW2 4617   0.919   0.166   6.045
 1240SOL     OW 4618   5.907   5.090   0.926
 1240SOL    HW1 4619   5.834   5.151   0.956
 1240SOL    HW2 4620   5.947   5.126   0.841
 1241SOL     OW 4621   0.540   1.910   4.062
 1241SOL    HW1 4622   0.497   1.999   4.046
 1241SOL    HW2 4623   0.639   1.919   4.050
 1242SOL     OW 4624   1.714   2.439   6.746
 1242SOL    HW1 4625   1.714   2.524   6.693
 1242SOL    HW2 4626   1.741   2.363   6.686
 1243SOL     OW 4627   3.621   4.752   5.281
 1243SOL    HW1 4628   3.549   4.723   5.344
 1243SOL    HW2 4629   3.703   4.697   5.296
 1244SOL     OW 4630   0.846   1.431   3.381
 1244SOL    HW1 4631   0.908   1.507   3.364
 1244SOL    HW2 4632   0.753   1.465   3.392
 1245SOL     OW 4633   3.410   2.886   5.090
 1245SOL    HW1 4634   3.417   2.868   4.992
 1245SOL    HW2 4635   3.326   2.844   5.125
 1246SOL     OW 4636   1.558   6.315   1.867
 1246SOL    HW1 4637   1.631   6.288   1.930
 1246SOL    HW2 4638   1.528   6.408   1.889
 1247SOL     OW 4639   0.828   6.255   6.350
 1247SOL    HW1 4640   0.769   6.335   6.356
 1247SOL    HW2 4641   0.783   6.177   6.393
 1248SOL     OW 4642   2.168   6.988   4.028
 1248SOL    HW1 4643   2.237   0.026   4.069
 1248SOL    HW2 4644   2.090   0.019   3.996
 1249SOL     OW 4645   6.399   2.891   3.642
 1249SOL    HW1 4646   6.332   2.960   3.613
 1249SOL    HW2 4647   6.352   2.815   3.687
 1250SOL     OW 4648   6.898   3.318   4.708
 1250SOL    HW1 4649   6.942   3.389   4.764
 1250SOL    HW2 4650   6.911   3.340   4.611
 1251SOL     OW 4651   3.212   0.859   6.403
 1251SOL    HW1 4652   3.275   0.783   6.416
 1251SOL    HW2 4653   3.128   0.842   6.455
 1252SOL     OW 4654   3.805   3.885   0.323
 1252SOL    HW1 4655   3.726   3.945   0.315
 1252SOL    HW2 4656   3.795   3.808   0.259
 1253SOL     OW 4657   4.687   1.655   2.992
 1253SOL    HW1 4658   4.609   1.705   3.028
 1253SOL    HW2 4659   4.655   1.577   2.937
 1254SOL     OW 4660   5.693   0.941   3.589
 1254SOL    HW1 4661   5.616   1.005   3.578
 1254SOL    HW2 4662   5.751   0.972   3.665
 1255SOL     OW 4663   5.722   0.707   1.936
 1255SOL    HW1 4664   5.693   0.611   1.933
 1255SOL    HW2 4665   5.722   0.744   1.843
 1256SOL     OW 4666   5.238   3.250   3.286
 1256SOL    HW1 4667   5.214   3.215   3.195
 1256SOL    HW2 4668   5.226   3.177   3.354
 1257SOL     OW 4669   6.126   1.382   4.083
 1257SOL    HW1 4670   6.122   1.396   4.182
 1257SOL    HW2 4671   6.033   1.378   4.046
 1258SOL     OW 4672   7.011   5.018   4.031
 1258SOL    HW1 4673   6.962   5.040   4.116
 1258SOL    HW2 4674   6.997   4.921   4.010
 1259SOL     OW 4675   5.310   2.049   4.906
 1259SOL    HW1 4676   5.402   2.035   4.870
 1259SOL    HW2 4677   5.267   1.960   4.922
 1260SOL     OW 4678   0.517   1.475   4.490
 1260SOL    HW1 4679   0.575   1.442   4.415
 1260SOL    HW2 4680   0.550   1.565   4.521
 1261SOL     OW 4681   0.099   3.267   1.362
 1261SOL    HW1 4682   0.052   3.280   1.449
 1261SOL    HW2 4683   0.043   3.208   1.303
 1262SOL     OW 4684   5.146   6.368   2.362
 1262SOL    HW1 4685   5.086   6.318   2.301
 1262SOL    HW2 4686   5.107   6.369   2.454
 1263SOL     OW 4687   1.127   1.912   3.095
 1263SOL    HW1 4688   1.083   1.872   3.014
 1263SOL    HW2 4689   1.220   1.941   3.070
 1264SOL     OW 4690   1.111   3.074   5.459
 1264SOL    HW1 4691   1.172   3.153   5.450
 1264SOL    HW2 4692   1.164   2.994   5.488
 1265SOL     OW 4693   6.683   0.683   6.085
 1265SOL    HW1 4694   6.722   0.735   6.009
 1265SOL    HW2 4695   6.702   0.731   6.171
 1266SOL     OW 4696   3.826   1.858   5.694
 1266SOL    HW1 4697   3.749   1.830   5.637
 1266SOL    HW2 4698   3.907   1.874   5.637
 1267SOL     OW 4699   3.049   1.238   2.262
 1267SOL    HW1 4700   3.073   1.246   2.165
 1267SOL    HW2 4701   3.133   1.232   2.316
 1268SOL     OW 4702   4.254   2.267   5.340
 1268SOL    HW1 4703   4.255   2.192   5.406
 1268SOL    HW2 4704   4.176   2.326   5.358
 1269SOL     OW 4705   5.483   1.776   3.085
 1269SOL    HW1 4706   5.560   1.768   3.148
 1269SOL    HW2 4707   5.407   1.720   3.117
 1270SOL     OW 4708   5.981   5.480   3.505
 1270SOL    HW1 4709   5.970   5.487   3.604
 1270SOL    HW2 4710   6.001   5.385   3.481
 1271SOL     OW 4711   1.608   0.294   2.109
 1271SOL    HW1 4712   1.587   0.241   2.027
 1271SOL    HW2 4713   1.578   0.388   2.097
 1272SOL     OW 4714   6.458   2.001   0.335
 1272SOL    HW1 4715   6.556   1.997   0.352
 1272SOL    HW2 4716   6.441   1.983   0.238
 1273SOL     OW 4717   2.112   4.259   5.492
 1273SOL    HW1 4718   2.132   4.350   5.528
 1273SOL    HW2 4719   2.195   4.218   5.455
 1274SOL     OW 4720   6.947   4.411   4.598
 1274SOL    HW1 4721   6.877   4.340   4.611
 1274SOL    HW2 4722   6.903   4.500   4.593
 1275SOL     OW 4723   1.526   1.418   2.952
 1275SOL    HW1 4724   1.448   1.390   3.007
 1275SOL    HW2 4725   1.506   1.505   2.908
 1276SOL     OW 4726   5.755   4.267   3.898
 1276SOL    HW1 4727   5.778   4.335   3.827
 1276SOL    HW2 4728   5.727   4.314   3.981
 1277SOL     OW 4729   1.473   6.390   6.159
 1277SOL    HW1 4730   1.473   6.469   6.221
 1277SOL    HW2 4731   1.467   6.306   6.212
 1278SOL     OW 4732   0.329   6.525   2.783
 1278SOL    HW1 4733   0.317   6.623   2.800
 1278SOL    HW2 4734   0.357   6.510   2.688
 1279SOL     OW 4735   3.089   2.806   0.662
 1279SOL    HW1 4736   3.175   2.808   0.611
 1279SOL    HW2 4737   3.094   2.871   0.738
 1280SOL     OW 4738   2.991   2.223   3.161
 1280SOL    HW1 4739   3.006   2.262   3.071
 1280SOL    HW2 4740   2.926   2.279   3.212
 1281SOL     OW 4741   5.525   5.762   5.632
 1281SOL    HW1 4742   5.442   5.770   5.686
 1281SOL    HW2 4743   5.601   5.806   5.680
 1282SOL     OW 4744   1.042   2.378   0.857
 1282SOL    HW1 4745   1.052   2.313   0.932
 1282SOL    HW2 4746   1.115   2.446   0.862
 1283SOL     OW 4747   1.747   0.587   4.386
 1283SOL    HW1 4748   1.659   0.544   4.365
 1283SOL    HW2 4749   1.819   0.518   4.385
 1284SOL     OW 4750   3.866   2.246   1.734
 1284SOL    HW1 4751   3.777   2.256   1.778
 1284SOL    HW2 4752   3.894   2.334   1.695
 1285SOL     OW 4753   3.905   1.411   4.586
 1285SOL    HW1 4754   3.853   1.400   4.501
 1285SOL    HW2 4755   3.849   1.461   4.653
 1286SOL     OW 4756   5.150   1.057   2.400
 1286SOL    HW1 4757   5.119   0.999   2.476
 1286SOL    HW2 4758   5.128   1.012   2.313
 1287SOL     OW 4759   5.311   5.060   6.872
 1287SOL    HW1 4760   5.404   5.052   6.909
 1287SOL    HW2 4761   5.309   5.021   6.780
 1288SOL     OW 4762   4.777   4.634   6.114
 1288SOL    HW1 4763   4.739   4.549   6.078
 1288SOL    HW2 4764   4.754   4.643   6.210
 1289SOL     OW 4765   1.297   6.854   0.786
 1289SOL    HW1 4766   1.211   6.903   0.791
 1289SOL    HW2 4767   1.285   6.760   0.819
 1290SOL     OW 4768   1.344   6.535   4.113
 1290SOL    HW1 4769   1.307   6.624   4.140
 1290SOL    HW2 4770   1.413   6.506   4.179
 1291SOL     OW 4771   5.384   5.577   3.392
 1291SOL    HW1 4772   5.445   5.591   3.470
 1291SOL    HW2 4773   5.414   5.635   3.316
 1292SOL     OW 4774   0.034   6.719   2.914
 1292SOL    HW1 4775   0.112   6.749   2.860
 1292SOL    HW2 4776   0.058   6.722   3.011
 1293SOL     OW 4777   4.994   6.977   0.904
 1293SOL    HW1 4778   4.912   7.004   0.955
 1293SOL    HW2 4779   5.033   6.895   0.947
 1294SOL     OW 4780   2.156   4.499   5.588
 1294SOL    HW1 4781   2.107   4.584   5.603
 1294SOL    HW2 4782   2.254   4.513   5.604
 1295SOL     OW 4783   0.070   4.725   0.234
 1295SOL    HW1 4784   0.156   4.776   0.235
 1295SOL    HW2 4785   0.073   4.651   0.300
 1296SOL     OW 4786   3.898   1.020   5.994
 1296SOL    HW1 4787   3.818   0.960   6.000
 1296SOL    HW2 4788   3.940   1.029   6.084
 1297SOL     OW 4789   6.149   6.770   0.073
 1297SOL    HW1 4790   6.135   6.741   0.168
 1297SOL    HW2 4791   6.247   6.772   0.054
 1298SOL     OW 4792   5.141   0.355   3.395
 1298SOL    HW1 4793   5.090   0.307   3.324
 1298SOL    HW2 4794   5.231   0.381   3.361
 1299SOL     OW 4795   0.964   4.849   4.841
 1299SOL    HW1 4796   1.023   4.928   4.859
 1299SOL    HW2 4797   0.870   4.880   4.825
 1300SOL     OW 4798   1.484   5.463   0.029
 1300SOL    HW1 4799   1.529   5.543   7.013
 1300SOL    HW2 4800   1.397   5.448   7.005
 1301SOL     OW 4801   6.433   1.636   6.765
 1301SOL    HW1 4802   6.510   1.695   6.790
 1301SOL    HW2 4803   6.349   1.690   6.763
 1302SOL     OW 4804   6.613   6.949   4.631
 1302SOL    HW1 4805   6.665   6.963   4.716
 1302SOL    HW2 4806   6.668   6.895   4.568
 1303SOL     OW 4807   2.877   6.686   1.558
 1303SOL    HW1 4808   2.815   6.734   1.496
 1303SOL    HW2 4809   2.878   6.589   1.536
 1304SOL     OW 4810   7.014   0.595   0.275
 1304SOL    HW1 4811   0.067   0.654   0.303
 1304SOL    HW2 4812   0.024   0.526   0.212
 1305SOL     OW 4813   3.964   4.009   5.957
 1305SOL    HW1 4814   3.955   3.915   5.922
 1305SOL    HW2 4815   3.896   4.067   5.913
 1306SOL     OW 4816   2.326   6.286   4.158
 1306SOL    HW1 4817   2.415   6.241   4.170
 1306SOL    HW2 4818   2.254   6.228   4.195
 1307SOL     OW 4819   1.941   3.705   3.624
 1307SOL    HW1 4820   1.970   3.800   3.638
 1307SOL    HW2 4821   1.841   3.699   3.634
 1308SOL     OW 4822   0.800   3.695   5.681
 1308SOL    HW1 4823   0.764   3.698   5.775
 1308SOL    HW2 4824   0.900   3.694   5.685
 1309SOL     OW 4825   5.967   3.841   0.153
 1309SOL    HW1 4826   5.955   3.773   0.225
 1309SOL    HW2 4827   6.031   3.912   0.183
 1310SOL     OW 4828   2.132   2.869   3.492
 1310SOL    HW1 4829   2.073   2.904   3.419
 1310SOL    HW2 4830   2.160   2.945   3.551
 1311SOL     OW 4831   6.019   5.181   0.691
 1311SOL    HW1 4832   5.932   5.177   0.641
 1311SOL    HW2 4833   6.051   5.275   0.695
 1312SOL     OW 4834   2.433   1.533   6.504
 1312SOL    HW1 4835   2.339   1.557   6.477
 1312SOL    HW2 4836   2.444   1.548   6.603
 1313SOL     OW 4837   4.991   4.905   3.137
 1313SOL    HW1 4838   4.932   4.962   3.081
 1313SOL    HW2 4839   5.068   4.959   3.171
 1314SOL     OW 4840   2.598   1.676   3.663
 1314SOL    HW1 4841   2.696   1.674   3.684
 1314SOL    HW2 4842   2.552   1.736   3.728
 1315SOL     OW 4843   5.499   0.754   3.566
 1315SOL    HW1 4844   5.581   0.796   3.604
 1315SOL    HW2 4845   5.519   0.659   3.540
 1316SOL     OW 4846   5.356   0.442   6.175
 1316SOL    HW1 4847   5.281   0.477   6.231
 1316SOL    HW2 4848   5.318   0.379   6.106
 1317SOL     OW 4849   4.079   3.187   4.068
 1317SOL    HW1 4850   4.102   3.283   4.051
 1317SOL    HW2 4851   4.163   3.133   4.070
 1318SOL     OW 4852   1.843   1.267   6.607
 1318SOL    HW1 4853   1.806   1.199   6.669
 1318SOL    HW2 4854   1.924   1.230   6.561
 1319SOL     OW 4855   6.704   1.875   0.605
 1319SOL    HW1 4856   6.675   1.857   0.699
 1319SOL    HW2 4857   6.713   1.974   0.592
 1320SOL     OW 4858   2.531   2.857   5.923
 1320SOL    HW1 4859   2.570   2.931   5.978
 1320SOL    HW2 4860   2.519   2.888   5.829
 1321SOL     OW 4861   0.114   2.884   1.421
 1321SOL    HW1 4862   0.091   2.959   1.482
 1321SOL    HW2 4863   0.204   2.848   1.444
 1322SOL     OW 4864   2.438   2.941   0.389
 1322SOL    HW1 4865   2.354   2.887   0.389
 1322SOL    HW2 4866   2.497   2.911   0.464
 1323SOL     OW 4867   4.617   0.350   1.138
 1323SOL    HW1 4868   4.576   0.267   1.101
 1323SOL    HW2 4869   4.576   0.430   1.094
 1324SOL     OW 4870   2.399   3.770   6.301
 1324SOL    HW1 4871   2.424   3.772   6.204
 1324SOL    HW2 4872   2.459   3.831   6.353
 1325SOL     OW 4873   4.268   5.360   4.207
 1325SOL    HW1 4874   4.178   5.321   4.226
 1325SOL    HW2 4875   4.329   5.344   4.285
 1326SOL     OW 4876   4.111   1.272   4.977
 1326SOL    HW1 4877   4.118   1.198   4.909
 1326SOL    HW2 4878   4.089   1.357   4.930
 1327SOL     OW 4879   5.229   5.812   1.966
 1327SOL    HW1 4880   5.276   5.778   2.047
 1327SOL    HW2 4881   5.138   5.772   1.960
 1328SOL     OW 4882   1.369   2.106   5.505
 1328SOL    HW1 4883   1.314   2.024   5.517
 1328SOL    HW2 4884   1.330   2.161   5.431
 1329SOL     OW 4885   1.250   3.168   4.269
 1329SOL    HW1 4886   1.290   3.221   4.345
 1329SOL    HW2 4887   1.227   3.076   4.301
 1330SOL     OW 4888   6.458   3.301   2.389
 1330SOL    HW1 4889   6.523   3.289   2.314
 1330SOL    HW2 4890   6.504   3.279   2.476
 1331SOL     OW 4891   3.643   1.711   2.548
 1331SOL    HW1 4892   3.729   1.686   2.594
 1331SOL    HW2 4893   3.619   1.805   2.570
 1332SOL     OW 4894   2.222   6.121   6.606
 1332SOL    HW1 4895   2.193   6.045   6.664
 1332SOL    HW2 4896   2.305   6.095   6.556
 1333SOL     OW 4897   3.685   3.495   2.541
 1333SOL    HW1 4898   3.714   3.569   2.481
 1333SOL    HW2 4899   3.663   3.533   2.631
 1334SOL     OW 4900   0.094   4.068   1.316
 1334SOL    HW1 4901   0.137   4.159   1.317
 1334SOL    HW2 4902   0.095   4.030   1.408
 1335SOL     OW 4903   0.148   3.452   2.934
 1335SOL    HW1 4904   0.238   3.454   2.977
 1335SOL    HW2 4905   0.095   3.374   2.968
 1336SOL     OW 4906   2.420   6.376   5.956
 1336SOL    HW1 4907   2.394   6.457   5.905
 1336SOL    HW2 4908   2.464   6.311   5.895
 1337SOL     OW 4909   0.351   6.905   1.777
 1337SOL    HW1 4910   0.441   6.930   1.812
 1337SOL    HW2 4911   0.357   6.820   1.724
 1338SOL     OW 4912   0.289   4.124   4.995
 1338SOL    HW1 4913   0.192   4.132   5.019
 1338SOL    HW2 4914   0.335   4.211   5.013
 1339SOL     OW 4915   5.299   1.238   0.109
 1339SOL    HW1 4916   5.249   1.300   0.049
 1339SOL    HW2 4917   5.365   1.186   0.056
 1340SOL     OW 4918   2.587   2.583   0.931
 1340SOL    HW1 4919   2.643   2.659   0.965
 1340SOL    HW2 4920   2.495   2.590   0.970
 1341SOL     OW 4921   5.951   6.156   6.414
 1341SOL    HW1 4922   5.960   6.193   6.506
 1341SOL    HW2 4923   5.872   6.095   6.409
 1342SOL     OW 4924   1.827   5.931   1.662
 1342SOL    HW1 4925   1.914   5.882   1.659
 1342SOL    HW2 4926   1.758   5.882   1.609
 1343SOL     OW 4927   5.052   5.896   2.864
 1343SOL    HW1 4928   5.072   5.952   2.784
 1343SOL    HW2 4929   4.964   5.923   2.903
 1344SOL     OW 4930   1.272   0.816   3.609
 1344SOL    HW1 4931   1.307   0.725   3.633
 1344SOL    HW2 4932   1.342   0.866   3.558
 1345SOL     OW 4933   1.236   6.730   5.443
 1345SOL    HW1 4934   1.222   6.781   5.528
 1345SOL    HW2 4935   1.330   6.694   5.440
 1346SOL     OW 4936   2.949   5.880   3.848
 1346SOL    HW1 4937   2.952   5.780   3.847
 1346SOL    HW2 4938   2.933   5.913   3.941
 1347SOL     OW 4939   0.749   1.086   6.217
 1347SOL    HW1 4940   0.676   1.128   6.271
 1347SOL    HW2 4941   0.821   1.053   6.278
 1348SOL     OW 4942   1.481   6.721   4.660
 1348SOL    HW1 4943   1.450   6.772   4.740
 1348SOL    HW2 4944   1.576   6.691   4.675
 1349SOL     OW 4945   5.182   3.520   4.045
 1349SOL    HW1 4946   5.232   3.477   3.971
 1349SOL    HW2 4947   5.185   3.620   4.036
 1350SOL     OW 4948   5.285   4.616   6.699
 1350SOL    HW1 4949   5.215   4.545   6.693
 1350SOL    HW2 4950   5.290   4.650   6.793
 1351SOL     OW 4951   6.678   3.229   6.872
 1351SOL    HW1 4952   6.711   3.184   6.955
 1351SOL    HW2 4953   6.592   3.186   6.843
 1352SOL     OW 4954   6.897   1.028   3.347
 1352SOL    HW1 4955   6.895   1.091   3.424
 1352SOL    HW2 4956   6.835   1.062   3.275
 1353SOL     OW 4957   6.972   2.935   6.360
 1353SOL    HW1 4958   6.962   3.020   6.412
 1353SOL    HW2 4959   0.041   2.930   6.322
 1354SOL     OW 4960   4.866   4.645   2.639
 1354SOL    HW1 4961   4.767   4.634   2.645
 1354SOL    HW2 4962   4.891   4.737   2.669
 1355SOL     OW 4963   3.776   3.480   4.559
 1355SOL    HW1 4964   3.816   3.509   4.647
 1355SOL    HW2 4965   3.846   3.485   4.488
 1356SOL     OW 4966   3.016   3.537   6.757
 1356SOL    HW1 4967   3.001   3.450   6.710
 1356SOL    HW2 4968   3.114   3.555   6.764
 1357SOL     OW 4969   0.378   3.190   5.379
 1357SOL    HW1 4970   0.342   3.270   5.427
 1357SOL    HW2 4971   0.476   3.204   5.361
 1358SOL     OW 4972   2.218   6.642   6.513
 1358SOL    HW1 4973   2.124   6.649   6.480
 1358SOL    HW2 4974   2.237   6.547   6.538
 1359SOL     OW 4975   5.929   5.192   0.289
 1359SOL    HW1 4976   5.890   5.283   0.305
 1359SOL    HW2 4977   6.029   5.197   0.295
 1360SOL     OW 4978   2.249   1.513   5.821
 1360SOL    HW1 4979   2.330   1.504   5.880
 1360SOL    HW2 4980   2.268   1.471   5.732
 1361SOL     OW 4981   6.202   4.929   4.837
 1361SOL    HW1 4982   6.282   4.885   4.878
 1361SOL    HW2 4983   6.231   5.008   4.784
 1362SOL     OW 4984   3.115   4.026   3.905
 1362SOL    HW1 4985   3.094   4.000   3.999
 1362SOL    HW2 4986   3.039   4.000   3.846
 1363SOL     OW 4987   0.132   6.726   3.844
 1363SOL    HW1 4988   0.126   6.812   3.793
 1363SOL    HW2 4989   0.145   6.650   3.780
 1364SOL     OW 4990   3.782   4.544   0.098
 1364SOL    HW1 4991   3.687   4.539   0.130
 1364SOL    HW2 4992   3.784   4.575   0.003
 1365SOL     OW 4993   5.275   2.169   5.963
 1365SOL    HW1 4994   5.258   2.082   5.915
 1365SOL    HW2 4995   5.371   2.173   5.991
 1366SOL     OW 4996   1.848   0.734   4.941
 1366SOL    HW1 4997   1.786   0.788   4.884
 1366SOL    HW2 4998   1.800   0.705   5.024
 1367SOL     OW 4999   2.172   1.683   2.037
 1367SOL    HW1 5000   2.126   1.731   1.962
 1367SOL    HW2 5001   2.233   1.613   2.000
 1368SOL     OW 5002   6.509   0.952   3.412
 1368SOL    HW1 5003   6.441   0.881   3.391
 1368SOL    HW2 5004   6.593   0.909   3.444
 1369SOL     OW 5005   0.053   0.135   2.888
 1369SOL    HW1 5006   0.138   0.086   2.908
 1369SOL    HW2 5007   7.006   0.109   2.955
 1370SOL     OW 5008   0.882   1.038   2.985
 1370SOL    HW1 5009   0.854   1.133   2.996
 1370SOL    HW2 5010   0.805   0.984   2.952
 1371SOL     OW 5011   2.714   0.358   5.592
 1371SOL    HW1 5012   2.765   0.417   5.655
 1371SOL    HW2 5013   2.669   0.285   5.645
 1372SOL     OW 5014   2.822   1.913   1.371
 1372SOL    HW1 5015   2.846   1.817   1.361
 1372SOL    HW2 5016   2.735   1.931   1.326
 1373SOL     OW 5017   1.638   5.435   6.276
 1373SOL    HW1 5018   1.652   5.375   6.197
 1373SOL    HW2 5019   1.721   5.437   6.331
 1374SOL     OW 5020   5.751   3.473   4.708
 1374SOL    HW1 5021   5.715   3.435   4.793
 1374SOL    HW2 5022   5.740   3.573   4.709
 1375SOL     OW 5023   1.250   4.441   4.194
 1375SOL    HW1 5024   1.162   4.487   4.183
 1375SOL    HW2 5025   1.308   4.494   4.256
 1376SOL     OW 5026   4.996   0.486   2.240
 1376SOL    HW1 5027   4.988   0.532   2.151
 1376SOL    HW2 5028   5.089   0.453   2.252
 1377SOL     OW 5029   6.998   4.132   5.024
 1377SOL    HW1 5030   6.990   4.111   4.926
 1377SOL    HW2 5031   6.927   4.198   5.049
 1378SOL     OW 5032   1.770   1.612   0.207
 1378SOL    HW1 5033   1.703   1.659   0.264
 1378SOL    HW2 5034   1.813   1.677   0.145
 1379SOL     OW 5035   4.447   5.196   2.031
 1379SOL    HW1 5036   4.457   5.294   2.013
 1379SOL    HW2 5037   4.372   5.159   1.976
 1380SOL     OW 5038   6.316   5.449   2.861
 1380SOL    HW1 5039   6.275   5.538   2.841
 1380SOL    HW2 5040   6.326   5.438   2.959
 1381SOL     OW 5041   4.363   6.665   2.769
 1381SOL    HW1 5042   4.377   6.576   2.727
 1381SOL    HW2 5043   4.267   6.677   2.792
 1382SOL     OW 5044   0.339   4.101   0.731
 1382SOL    HW1 5045   0.390   4.089   0.645
 1382SOL    HW2 5046   0.241   4.108   0.711
 1383SOL     OW 5047   3.380   6.854   0.698
 1383SOL    HW1 5048   3.285   6.847   0.728
 1383SOL    HW2 5049   3.389   6.931   0.635
 1384SOL     OW 5050   1.198   1.262   2.165
 1384SOL    HW1 5051   1.241   1.215   2.242
 1384SOL    HW2 5052   1.099   1.265   2.180
 1385SOL     OW 5053   4.929   3.465   4.114
 1385SOL    HW1 5054   4.918   3.440   4.211
 1385SOL    HW2 5055   5.026   3.471   4.092
 1386SOL     OW 5056   2.642   2.412   2.920
 1386SOL    HW1 5057   2.603   2.457   3.000
 1386SOL    HW2 5058   2.596   2.445   2.838
 1387SOL     OW 5059   3.265   0.712   4.109
 1387SOL    HW1 5060   3.354   0.745   4.079
 1387SOL    HW2 5061   3.216   0.672   4.032
 1388SOL     OW 5062   4.899   2.403   3.844
 1388SOL    HW1 5063   4.854   2.323   3.885
 1388SOL    HW2 5064   4.956   2.448   3.913
 1389SOL     OW 5065   6.689   0.716   4.593
 1389SOL    HW1 5066   6.630   0.679   4.665
 1389SOL    HW2 5067   6.692   0.816   4.601
 1390SOL     OW 5068   5.510   2.120   2.389
 1390SOL    HW1 5069   5.474   2.189   2.327
 1390SOL    HW2 5070   5.610   2.124   2.389
 1391SOL     OW 5071   6.041   0.954   5.380
 1391SOL    HW1 5072   5.994   0.866   5.390
 1391SOL    HW2 5073   6.116   0.944   5.314
 1392SOL     OW 5074   3.294   6.856   4.762
 1392SOL    HW1 5075   3.321   6.817   4.850
 1392SOL    HW2 5076   3.210   6.811   4.731
 1393SOL     OW 5077   5.127   6.592   6.825
 1393SOL    HW1 5078   5.143   6.691   6.834
 1393SOL    HW2 5079   5.204   6.550   6.779
 1394SOL     OW 5080   4.097   1.067   4.759
 1394SOL    HW1 5081   4.022   1.051   4.695
 1394SOL    HW2 5082   4.183   1.039   4.717
 1395SOL     OW 5083   0.817   4.937   2.543
 1395SOL    HW1 5084   0.863   5.000   2.605
 1395SOL    HW2 5085   0.885   4.883   2.493
 1396SOL     OW 5086   1.419   1.657   3.113
 1396SOL    HW1 5087   1.429   1.720   3.191
 1396SOL    HW2 5088   1.448   1.566   3.140
 1397SOL     OW 5089   2.440   4.515   5.696
 1397SOL    HW1 5090   2.513   4.542   5.759
 1397SOL    HW2 5091   2.478   4.498   5.605
 1398SOL     OW 5092   3.310   6.986   6.207
 1398SOL    HW1 5093   3.282   6.945   6.294
 1398SOL    HW2 5094   3.369   6.922   6.157
 1399SOL     OW 5095   3.633   6.860   0.188
 1399SOL    HW1 5096   3.622   6.844   0.286
 1399SOL    HW2 5097   3.712   6.808   0.155
 1400SOL     OW 5098   0.524   1.899   5.649
 1400SOL    HW1 5099   0.508   1.942   5.560
 1400SOL    HW2 5100   0.485   1.807   5.650
 1401SOL     OW 5101   4.512   6.743   2.353
 1401SOL    HW1 5102   4.555   6.834   2.358
 1401SOL    HW2 5103   4.415   6.751   2.374
 1402SOL     OW 5104   5.083   3.995   2.088
 1402SOL    HW1 5105   4.996   3.967   2.047
 1402SOL    HW2 5106   5.072   4.001   2.187
 1403SOL     OW 5107   3.161   2.600   6.590
 1403SOL    HW1 5108   3.191   2.580   6.683
 1403SOL    HW2 5109   3.235   2.644   6.540
 1404SOL     OW 5110   4.056   6.011   6.521
 1404SOL    HW1 5111   4.113   5.931   6.503
 1404SOL    HW2 5112   3.962   5.993   6.489
 1405SOL     OW 5113   0.916   4.253   6.566
 1405SOL    HW1 5114   0.859   4.278   6.488
 1405SOL    HW2 5115   1.010   4.240   6.535
 1406SOL     OW 5116   1.758   2.376   0.102
 1406SOL    HW1 5117   1.736   2.419   0.190
 1406SOL    HW2 5118   1.684   2.314   0.076
 1407SOL     OW 5119   6.779   2.686   1.294
 1407SOL    HW1 5120   6.718   2.763   1.316
 1407SOL    HW2 5121   6.752   2.606   1.348
 1408SOL     OW 5122   5.647   6.152   1.365
 1408SOL    HW1 5123   5.578   6.093   1.323
 1408SOL    HW2 5124   5.700   6.101   1.432
 1409SOL     OW 5125   5.910   1.945   5.789
 1409SOL    HW1 5126   5.813   1.922   5.796
 1409SOL    HW2 5127   5.922   2.018   5.722
 1410SOL     OW 5128   3.512   0.768   0.673
 1410SOL    HW1 5129   3.519   0.684   0.620
 1410SOL    HW2 5130   3.567   0.761   0.756
 1411SOL     OW 5131   3.210   0.258   0.074
 1411SOL    HW1 5132   3.275   0.314   0.024
 1411SOL    HW2 5133   3.190   0.300   0.162
 1412SOL     OW 5134   1.934   1.539   6.275
 1412SOL    HW1 5135   1.866   1.598   6.231
 1412SOL    HW2 5136   2.026   1.574   6.255
 1413SOL     OW 5137   2.098   1.437   4.960
 1413SOL    HW1 5138   2.074   1.432   4.863
 1413SOL    HW2 5139   2.081   1.348   5.003
 1414SOL     OW 5140   0.169   5.458   2.666
 1414SOL    HW1 5141   0.223   5.428   2.745
 1414SOL    HW2 5142   0.077   5.418   2.672
 1415SOL     OW 5143   3.373   1.846   5.192
 1415SOL    HW1 5144   3.333   1.897   5.116
 1415SOL    HW2 5145   3.339   1.884   5.279
 1416SOL     OW 5146   4.119   0.373   5.313
 1416SOL    HW1 5147   4.063   0.446   5.352
 1416SOL    HW2 5148   4.214   0.404   5.306
 1417SOL     OW 5149   3.540   4.096   4.208
 1417SOL    HW1 5150   3.452   4.140   4.226
 1417SOL    HW2 5151   3.531   4.032   4.132
 1418SOL     OW 5152   3.454   3.925   5.158
 1418SOL    HW1 5153   3.441   3.865   5.079
 1418SOL    HW2 5154   3.434   4.020   5.132
 1419SOL     OW 5155   0.592   5.252   1.819
 1419SOL    HW1 5156   0.606   5.175   1.881
 1419SOL    HW2 5157   0.526   5.316   1.860
 1420SOL     OW 5158   2.370   6.822   3.620
 1420SOL    HW1 5159   2.386   6.724   3.610
 1420SOL    HW2 5160   2.338   6.840   3.713
 1421SOL     OW 5161   1.547   5.435   0.484
 1421SOL    HW1 5162   1.605   5.361   0.515
 1421SOL    HW2 5163   1.573   5.520   0.530
 1422SOL     OW 5164   1.418   3.700   0.212
 1422SOL    HW1 5165   1.411   3.749   0.126
 1422SOL    HW2 5166   1.511   3.707   0.247
 1423SOL     OW 5167   5.092   1.126   4.927
 1423SOL    HW1 5168   5.041   1.070   4.992
 1423SOL    HW2 5169   5.175   1.078   4.899
 1424SOL     OW 5170   6.105   4.201   1.865
 1424SOL    HW1 5171   6.178   4.133   1.857
 1424SOL    HW2 5172   6.023   4.158   1.902
 1425SOL     OW 5173   6.149   6.563   3.253
 1425SOL    HW1 5174   6.177   6.609   3.168
 1425SOL    HW2 5175   6.049   6.566   3.261
 1426SOL     OW 5176   3.943   0.588   0.956
 1426SOL    HW1 5177   3.992   0.515   1.004
 1426SOL    HW2 5178   3.849   0.559   0.940
 1427SOL     OW 5179   1.653   1.110   3.724
 1427SOL    HW1 5180   1.676   1.017   3.753
 1427SOL    HW2 5181   1.717   1.141   3.654
 1428SOL     OW 5182   2.181   3.994   3.921
 1428SOL    HW1 5183   2.233   3.914   3.953
 1428SOL    HW2 5184   2.191   4.068   3.987
 1429SOL     OW 5185   5.991   0.529   1.513
 1429SOL    HW1 5186   6.050   0.569   1.443
 1429SOL    HW2 5187   5.947   0.448   1.476
 1430SOL     OW 5188   2.205   4.078   4.300
 1430SOL    HW1 5189   2.233   4.152   4.239
 1430SOL    HW2 5190   2.135   4.022   4.256
 1431SOL     OW 5191   3.622   1.705   0.621
 1431SOL    HW1 5192   3.662   1.625   0.576
 1431SOL    HW2 5193   3.685   1.740   0.690
 1432SOL     OW 5194   3.019   0.154   2.521
 1432SOL    HW1 5195   3.038   0.090   2.446
 1432SOL    HW2 5196   2.928   0.193   2.510
 1433SOL     OW 5197   3.663   1.602   3.646
 1433SOL    HW1 5198   3.658   1.531   3.576
 1433SOL    HW2 5199   3.653   1.692   3.604
 1434SOL     OW 5200   6.084   4.010   1.115
 1434SOL    HW1 5201   6.163   3.960   1.078
 1434SOL    HW2 5202   6.045   4.068   1.044
 1435SOL     OW 5203   0.079   6.757   4.294
 1435SOL    HW1 5204   0.015   6.681   4.311
 1435SOL    HW2 5205   0.065   6.828   4.363
 1436SOL     OW 5206   5.821   0.406   0.139
 1436SOL    HW1 5207   5.895   0.340   0.125
 1436SOL    HW2 5208   5.860   0.498   0.148
 1437SOL     OW 5209   4.140   0.796   0.290
 1437SOL    HW1 5210   4.226   0.763   0.250
 1437SOL    HW2 5211   4.154   0.887   0.330
 1438SOL     OW 5212   2.977   6.913   3.704
 1438SOL    HW1 5213   3.049   6.891   3.638
 1438SOL    HW2 5214   2.997   7.000   3.748
 1439SOL     OW 5215   6.752   5.202   4.740
 1439SOL    HW1 5216   6.766   5.282   4.799
 1439SOL    HW2 5217   6.685   5.141   4.783
 1440SOL     OW 5218   3.389   2.934   2.374
 1440SOL    HW1 5219   3.454   2.979   2.312
 1440SOL    HW2 5220   3.333   3.004   2.420
 1441SOL     OW 5221   0.440   2.159   6.413
 1441SOL    HW1 5222   0.478   2.218   6.484
 1441SOL    HW2 5223   0.365   2.207   6.368
 1442SOL     OW 5224   5.591   6.224   6.999
 1442SOL    HW1 5225   5.627   6.308   0.016
 1442SOL    HW2 5226   5.491   6.229   6.995
 1443SOL     OW 5227   1.902   3.058   4.324
 1443SOL    HW1 5228   1.930   3.054   4.420
 1443SOL    HW2 5229   1.968   3.008   4.268
 1444SOL     OW 5230   4.588   6.645   4.766
 1444SOL    HW1 5231   4.647   6.597   4.702
 1444SOL    HW2 5232   4.500   6.664   4.723
 1445SOL     OW 5233   6.720   2.266   0.317
 1445SOL    HW1 5234   6.731   2.168   0.334
 1445SOL    HW2 5235   6.631   2.283   0.276
 1446SOL     OW 5236   3.024   5.854   2.548
 1446SOL    HW1 5237   2.951   5.839   2.482
 1446SOL    HW2 5238   2.984   5.875   2.638
 1447SOL     OW 5239   6.548   0.909   4.874
 1447SOL    HW1 5240   6.479   0.981   4.863
 1447SOL    HW2 5241   6.520   0.827   4.825
 1448SOL     OW 5242   5.312   1.324   0.441
 1448SOL    HW1 5243   5.339   1.416   0.411
 1448SOL    HW2 5244   5.213   1.318   0.444
 1449SOL     OW 5245   4.936   5.807   0.263
 1449SOL    HW1 5246   4.934   5.790   0.362
 1449SOL    HW2 5247   4.921   5.722   0.214
 1450SOL     OW 5248   5.687   1.220   3.977
 1450SOL    HW1 5249   5.612   1.284   3.967
 1450SOL    HW2 5250   5.674   1.166   4.060
 1451SOL     OW 5251   0.196   6.778   2.462
 1451SOL    HW1 5252   0.143   6.838   2.402
 1451SOL    HW2 5253   0.257   6.722   2.407
 1452SOL     OW 5254   1.795   0.267   6.120
 1452SOL    HW1 5255   1.808   0.197   6.190
 1452SOL    HW2 5256   1.732   0.337   6.155
 1453SOL     OW 5257   5.855   4.538   3.996
 1453SOL    HW1 5258   5.936   4.480   4.004
 1453SOL    HW2 5259   5.835   4.580   4.085
 1454SOL     OW 5260   5.713   4.328   1.530
 1454SOL    HW1 5261   5.645   4.319   1.457
 1454SOL    HW2 5262   5.668   4.354   1.615
 1455SOL     OW 5263   1.956   1.786   2.174
 1455SOL    HW1 5264   2.045   1.751   2.144
 1455SOL    HW2 5265   1.915   1.722   2.239
 1456SOL     OW 5266   5.291   5.058   4.820
 1456SOL    HW1 5267   5.326   5.134   4.876
 1456SOL    HW2 5268   5.235   4.998   4.877
 1457SOL     OW 5269   2.045   1.509   4.261
 1457SOL    HW1 5270   2.104   1.490   4.183
 1457SOL    HW2 5271   1.951   1.480   4.241
 1458SOL     OW 5272   6.643   5.452   0.312
 1458SOL    HW1 5273   6.561   5.492   0.273
 1458SOL    HW2 5274   6.619   5.367   0.361
 1459SOL     OW 5275   3.183   6.805   1.539
 1459SOL    HW1 5276   3.105   6.767   1.589
 1459SOL    HW2 5277   3.189   6.763   1.449
 1460SOL     OW 5278   0.594   1.554   6.548
 1460SOL    HW1 5279   0.560   1.463   6.570
 1460SOL    HW2 5280   0.692   1.560   6.569
 1461SOL     OW 5281   5.039   4.066   2.722
 1461SOL    HW1 5282   4.957   4.093   2.774
 1461SOL    HW2 5283   5.012   4.008   2.645
 1462SOL     OW 5284   5.826   0.407   5.385
 1462SOL    HW1 5285   5.802   0.325   5.333
 1462SOL    HW2 5286   5.919   0.398   5.420
 1463SOL     OW 5287   1.185   2.356   5.537
 1463SOL    HW1 5288   1.165   2.282   5.601
 1463SOL    HW2 5289   1.101   2.382   5.489
 1464SOL     OW 5290   0.803   0.695   1.065
 1464SOL    HW1 5291   0.768   0.647   0.985
 1464SOL    HW2 5292   0.898   0.722   1.050
 1465SOL     OW 5293   2.135   1.066   3.756
 1465SOL    HW1 5294   2.072   0.988   3.755
 1465SOL    HW2 5295   2.087   1.148   3.723
 1466SOL     OW 5296   5.750   5.816   4.671
 1466SOL    HW1 5297   5.728   5.866   4.587
 1466SOL    HW2 5298   5.704   5.858   4.749
 1467SOL     OW 5299   0.629   4.517   4.355
 1467SOL    HW1 5300   0.703   4.502   4.421
 1467SOL    HW2 5301   0.578   4.433   4.342
 1468SOL     OW 5302   4.622   7.001   2.357
 1468SOL    HW1 5303   4.634   0.046   2.285
 1468SOL    HW2 5304   4.576   0.020   2.435
 1469SOL     OW 5305   6.569   0.294   2.482
 1469SOL    HW1 5306   6.627   0.258   2.408
 1469SOL    HW2 5307   6.475   0.264   2.466
 1470SOL     OW 5308   6.995   0.331   2.079
 1470SOL    HW1 5309   0.048   0.330   2.014
 1470SOL    HW2 5310   7.004   0.254   2.142
 1471SOL     OW 5311   6.375   0.944   1.158
 1471SOL    HW1 5312   6.430   0.966   1.239
 1471SOL    HW2 5313   6.367   0.845   1.150
 1472SOL     OW 5314   4.496   5.178   4.693
 1472SOL    HW1 5315   4.440   5.112   4.743
 1472SOL    HW2 5316   4.455   5.194   4.603
 1473SOL     OW 5317   0.427   3.280   4.105
 1473SOL    HW1 5318   0.513   3.297   4.154
 1473SOL    HW2 5319   0.411   3.181   4.098
 1474SOL     OW 5320   4.891   6.124   2.509
 1474SOL    HW1 5321   4.985   6.114   2.544
 1474SOL    HW2 5322   4.867   6.221   2.507
 1475SOL     OW 5323   6.365   0.007   3.206
 1475SOL    HW1 5324   6.332   6.978   3.284
 1475SOL    HW2 5325   6.312   7.006   3.124
 1476SOL     OW 5326   0.951   2.258   0.632
 1476SOL    HW1 5327   0.948   2.159   0.651
 1476SOL    HW2 5328   0.994   2.305   0.709
 1477SOL     OW 5329   2.408   6.501   4.539
 1477SOL    HW1 5330   2.368   6.572   4.597
 1477SOL    HW2 5331   2.395   6.411   4.582
 1478SOL     OW 5332   0.224   4.489   1.214
 1478SOL    HW1 5333   0.255   4.564   1.273
 1478SOL    HW2 5334   0.162   4.526   1.144
 1479SOL     OW 5335   0.988   4.762   6.985
 1479SOL    HW1 5336   0.923   4.839   6.980
 1479SOL    HW2 5337   0.939   4.677   6.965
 1480SOL     OW 5338   3.566   0.808   6.906
 1480SOL    HW1 5339   3.496   0.803   6.835
 1480SOL    HW2 5340   3.526   0.779   6.993
 1481SOL     OW 5341   0.258   3.061   0.867
 1481SOL    HW1 5342   0.228   3.145   0.913
 1481SOL    HW2 5343   0.355   3.067   0.845
 1482SOL     OW 5344   5.886   0.707   5.627
 1482SOL    HW1 5345   5.951   0.704   5.702
 1482SOL    HW2 5346   5.806   0.761   5.654
 1483SOL     OW 5347   0.226   2.712   1.187
 1483SOL    HW1 5348   0.235   2.812   1.177
 1483SOL    HW2 5349   0.146   2.692   1.243
 1484SOL     OW 5350   5.892   0.021   3.269
 1484SOL    HW1 5351   5.840   6.974   3.319
 1484SOL    HW2 5352   5.917   0.095   3.331
 1485SOL     OW 5353   5.573   3.568   4.333
 1485SOL    HW1 5354   5.516   3.565   4.415
 1485SOL    HW2 5355   5.643   3.638   4.343
 1486SOL     OW 5356   4.942   2.766   1.702
 1486SOL    HW1 5357   4.912   2.683   1.655
 1486SOL    HW2 5358   5.041   2.779   1.688
 1487SOL     OW 5359   0.972   6.937   5.779
 1487SOL    HW1 5360   0.933   6.964   5.691
 1487SOL    HW2 5361   0.961   7.011   5.845
 1488SOL     OW 5362   4.736   2.208   3.996
 1488SOL    HW1 5363   4.739   2.275   4.070
 1488SOL    HW2 5364   4.646   2.212   3.952
 1489SOL     OW 5365   3.535   5.109   5.047
 1489SOL    HW1 5366   3.598   5.103   5.124
 1489SOL    HW2 5367   3.575   5.165   4.975
 1490SOL     OW 5368   2.987   3.045   0.502
 1490SOL    HW1 5369   3.073   3.062   0.550
 1490SOL    HW2 5370   2.910   3.063   0.564
 1491SOL     OW 5371   1.468   1.842   3.996
 1491SOL    HW1 5372   1.388   1.878   4.044
 1491SOL    HW2 5373   1.442   1.765   3.938
 1492SOL     OW 5374   6.851   1.962   1.496
 1492SOL    HW1 5375   6.849   2.062   1.504
 1492SOL    HW2 5376   6.764   1.924   1.526
 1493SOL     OW 5377   6.724   3.021   5.243
 1493SOL    HW1 5378   6.812   3.063   5.220
 1493SOL    HW2 5379   6.717   2.932   5.199
 1494SOL     OW 5380   5.404   1.656   3.876
 1494SOL    HW1 5381   5.479   1.718   3.901
 1494SOL    HW2 5382   5.321   1.710   3.862
 1495SOL     OW 5383   1.677   3.689   1.471
 1495SOL    HW1 5384   1.629   3.602   1.485
 1495SOL    HW2 5385   1.768   3.671   1.432
 1496SOL     OW 5386   0.247   0.414   2.445
 1496SOL    HW1 5387   0.210   0.322   2.460
 1496SOL    HW2 5388   0.173   0.481   2.453
 1497SOL     OW 5389   5.362   4.518   5.844
 1497SOL    HW1 5390   5.344   4.614   5.822
 1497SOL    HW2 5391   5.443   4.486   5.796
 1498SOL     OW 5392   3.358   5.523   6.809
 1498SOL    HW1 5393   3.318   5.431   6.810
 1498SOL    HW2 5394   3.303   5.582   6.749
 1499SOL     OW 5395   1.827   4.338   4.221
 1499SOL    HW1 5396   1.742   4.301   4.182
 1499SOL    HW2 5397   1.812   4.431   4.252
 1500SOL     OW 5398   4.090   5.923   5.522
 1500SOL    HW1 5399   4.172   5.955   5.568
 1500SOL    HW2 5400   4.093   5.948   5.426
 1501SOL     OW 5401   3.731   0.868   1.306
 1501SOL    HW1 5402   3.776   0.866   1.217
 1501SOL    HW2 5403   3.645   0.918   1.299
 1502SOL     OW 5404   0.110   0.504   6.919
 1502SOL    HW1 5405   0.034   0.484   6.981
 1502SOL    HW2 5406   0.180   0.433   6.930
 1503SOL     OW 5407   3.591   3.653   5.051
 1503SOL    HW1 5408   3.491   3.652   5.045
 1503SOL    HW2 5409   3.619   3.602   5.133
 1504SOL     OW 5410   3.393   0.329   3.546
 1504SOL    HW1 5411   3.316   0.266   3.560
 1504SOL    HW2 5412   3.424   0.324   3.452
 1505SOL     OW 5413   5.686   6.617   2.974
 1505SOL    HW1 5414   5.735   6.546   3.025
 1505SOL    HW2 5415   5.588   6.597   2.974
 1506SOL     OW 5416   6.874   6.924   4.210
 1506SOL    HW1 5417   6.943   6.865   4.169
 1506SOL    HW2 5418   6.910   7.017   4.218
 1507SOL     OW 5419   2.025   1.891   6.585
 1507SOL    HW1 5420   1.952   1.863   6.646
 1507SOL    HW2 5421   1.996   1.970   6.532
 1508SOL     OW 5422   4.465   6.494   0.747
 1508SOL    HW1 5423   4.468   6.499   0.647
 1508SOL    HW2 5424   4.533   6.556   0.786
 1509SOL     OW 5425   5.311   1.886   6.724
 1509SOL    HW1 5426   5.387   1.855   6.667
 1509SOL    HW2 5427   5.289   1.981   6.702
 1510SOL     OW 5428   6.830   1.853   2.121
 1510SOL    HW1 5429   6.858   1.912   2.196
 1510SOL    HW2 5430   6.739   1.879   2.090
 1511SOL     OW 5431   0.322   2.443   0.446
 1511SOL    HW1 5432   0.370   2.526   0.474
 1511SOL    HW2 5433   0.248   2.424   0.510
 1512SOL     OW 5434   0.220   0.487   2.800
 1512SOL    HW1 5435   0.128   0.450   2.813
 1512SOL    HW2 5436   0.276   0.420   2.751
 1513SOL     OW 5437   2.425   0.592   2.675
 1513SOL    HW1 5438   2.430   0.540   2.761
 1513SOL    HW2 5439   2.420   0.689   2.696
 1514SOL     OW 5440   4.892   0.506   6.054
 1514SOL    HW1 5441   4.940   0.592   6.070
 1514SOL    HW2 5442   4.842   0.511   5.967
 1515SOL     OW 5443   5.596   5.111   5.864
 1515SOL    HW1 5444   5.576   5.101   5.766
 1515SOL    HW2 5445   5.614   5.021   5.904
 1516SOL     OW 5446   5.969   1.919   2.440
 1516SOL    HW1 5447   6.000   1.884   2.352
 1516SOL    HW2 5448   6.031   1.888   2.512
 1517SOL     OW 5449   3.273   5.158   1.638
 1517SOL    HW1 5450   3.267   5.164   1.738
 1517SOL    HW2 5451   3.181   5.162   1.599
 1518SOL     OW 5452   1.181   4.788   0.863
 1518SOL    HW1 5453   1.087   4.765   0.836
 1518SOL    HW2 5454   1.207   4.733   0.942
 1519SOL     OW 5455   0.706   4.389   1.045
 1519SOL    HW1 5456   0.612   4.383   1.009
 1519SOL    HW2 5457   0.742   4.297   1.059
 1520SOL     OW 5458   1.612   3.924   2.993
 1520SOL    HW1 5459   1.558   4.009   3.002
 1520SOL    HW2 5460   1.702   3.938   3.035
 1521SOL     OW 5461   2.055   5.848   5.595
 1521SOL    HW1 5462   2.019   5.844   5.688
 1521SOL    HW2 5463   2.031   5.937   5.554
 1522SOL     OW 5464   1.697   2.017   5.731
 1522SOL    HW1 5465   1.749   1.964   5.664
 1522SOL    HW2 5466   1.750   2.098   5.757
 1523SOL     OW 5467   5.579   0.935   1.574
 1523SOL    HW1 5468   5.552   0.915   1.480
 1523SOL    HW2 5469   5.540   1.023   1.602
 1524SOL     OW 5470   0.845   1.787   0.834
 1524SOL    HW1 5471   0.835   1.731   0.753
 1524SOL    HW2 5472   0.866   1.729   0.913
 1525SOL     OW 5473   5.012   1.561   4.824
 1525SOL    HW1 5474   4.994   1.465   4.845
 1525SOL    HW2 5475   4.988   1.618   4.903
 1526SOL     OW 5476   5.423   2.606   0.664
 1526SOL    HW1 5477   5.338   2.565   0.630
 1526SOL    HW2 5478   5.410   2.636   0.758
 1527SOL     OW 5479   2.148   0.297   5.040
 1527SOL    HW1 5480   2.239   0.311   5.002
 1527SOL    HW2 5481   2.149   0.218   5.101
 1528SOL     OW 5482   4.823   5.878   3.009
 1528SOL    HW1 5483   4.817   5.977   3.020
 1528SOL    HW2 5484   4.893   5.841   3.070
 1529SOL     OW 5485   1.493   6.670   5.444
 1529SOL    HW1 5486   1.551   6.749   5.426
 1529SOL    HW2 5487   1.520   6.627   5.530
 1530SOL     OW 5488   3.603   6.798   1.687
 1530SOL    HW1 5489   3.624   6.763   1.595
 1530SOL    HW2 5490   3.511   6.836   1.689
 1531SOL     OW 5491   5.533   1.402   6.790
 1531SOL    HW1 5492   5.513   1.312   6.751
 1531SOL    HW2 5493   5.614   1.440   6.745
 1532SOL     OW 5494   3.039   1.017   5.142
 1532SOL    HW1 5495   3.107   1.010   5.214
 1532SOL    HW2 5496   3.057   1.097   5.085
 1533SOL     OW 5497   4.361   3.019   0.974
 1533SOL    HW1 5498   4.377   3.053   0.881
 1533SOL    HW2 5499   4.382   3.092   1.039
 1534SOL     OW 5500   6.459   0.390   0.641
 1534SOL    HW1 5501   6.559   0.396   0.651
 1534SOL    HW2 5502   6.424   0.318   0.702
 1535SOL     OW 5503   4.604   4.466   4.386
 1535SOL    HW1 5504   4.637   4.372   4.379
 1535SOL    HW2 5505   4.675   4.529   4.354
 1536SOL     OW 5506   2.848   6.414   3.210
 1536SOL    HW1 5507   2.887   6.388   3.121
 1536SOL    HW2 5508   2.753   6.381   3.215
 1537SOL     OW 5509   1.668   5.778   4.593
 1537SOL    HW1 5510   1.584   5.737   4.628
 1537SOL    HW2 5511   1.682   5.749   4.498
 1538SOL     OW 5512   3.341   6.128   0.114
 1538SOL    HW1 5513   3.351   6.223   0.085
 1538SOL    HW2 5514   3.321   6.125   0.212
 1539SOL     OW 5515   2.346   6.753   2.046
 1539SOL    HW1 5516   2.334   6.683   2.116
 1539SOL    HW2 5517   2.304   6.724   1.961
 1540SOL     OW 5518   6.415   0.629   5.903
 1540SOL    HW1 5519   6.383   0.639   5.997
 1540SOL    HW2 5520   6.515   0.634   5.901
 1541SOL     OW 5521   5.266   1.822   2.092
 1541SOL    HW1 5522   5.282   1.726   2.070
 1541SOL    HW2 5523   5.168   1.842   2.084
 1542SOL     OW 5524   6.796   5.134   1.367
 1542SOL    HW1 5525   6.867   5.069   1.394
 1542SOL    HW2 5526   6.706   5.095   1.385
 1543SOL     OW 5527   3.211   3.043   2.630
 1543SOL    HW1 5528   3.154   3.125   2.621
 1543SOL    HW2 5529   3.171   2.981   2.698
 1544SOL     OW 5530   3.273   3.382   1.533
 1544SOL    HW1 5531   3.348   3.441   1.504
 1544SOL    HW2 5532   3.306   3.319   1.603
 1545SOL     OW 5533   0.659   6.351   5.992
 1545SOL    HW1 5534   0.632   6.255   5.999
 1545SOL    HW2 5535   0.605   6.397   5.921
 1546SOL     OW 5536   0.383   6.573   0.716
 1546SOL    HW1 5537   0.383   6.633   0.796
 1546SOL    HW2 5538   0.359   6.480   0.743
 1547SOL     OW 5539   2.876   6.364   0.559
 1547SOL    HW1 5540   2.794   6.401   0.516
 1547SOL    HW2 5541   2.851   6.289   0.620
 1548SOL     OW 5542   6.348   4.252   3.019
 1548SOL    HW1 5543   6.304   4.162   3.016
 1548SOL    HW2 5544   6.279   4.323   3.029
 1549SOL     OW 5545   5.999   1.988   1.032
 1549SOL    HW1 5546   6.025   2.082   1.053
 1549SOL    HW2 5547   5.918   1.988   0.974
 1550SOL     OW 5548   2.515   5.095   2.193
 1550SOL    HW1 5549   2.600   5.083   2.244
 1550SOL    HW2 5550   2.530   5.069   2.098
 1551SOL     OW 5551   1.213   2.151   1.574
 1551SOL    HW1 5552   1.205   2.085   1.649
 1551SOL    HW2 5553   1.200   2.104   1.487
 1552SOL     OW 5554   1.774   6.309   2.274
 1552SOL    HW1 5555   1.786   6.407   2.289
 1552SOL    HW2 5556   1.677   6.288   2.261
 1553SOL     OW 5557   5.842   1.899   5.451
 1553SOL    HW1 5558   5.809   1.848   5.530
 1553SOL    HW2 5559   5.846   1.997   5.473
 1554SOL     OW 5560   2.796   3.168   0.187
 1554SOL    HW1 5561   2.780   3.078   0.145
 1554SOL    HW2 5562   2.721   3.229   0.163
 1555SOL     OW 5563   4.508   1.591   0.905
 1555SOL    HW1 5564   4.596   1.572   0.861
 1555SOL    HW2 5565   4.489   1.520   0.973
 1556SOL     OW 5566   2.508   2.166   0.534
 1556SOL    HW1 5567   2.453   2.096   0.489
 1556SOL    HW2 5568   2.603   2.157   0.505
 1557SOL     OW 5569   2.611   2.406   1.259
 1557SOL    HW1 5570   2.658   2.338   1.203
 1557SOL    HW2 5571   2.657   2.494   1.251
 1558SOL     OW 5572   5.052   2.632   0.365
 1558SOL    HW1 5573   5.046   2.732   0.365
 1558SOL    HW2 5574   5.023   2.597   0.276
 1559SOL     OW 5575   2.094   6.087   4.277
 1559SOL    HW1 5576   1.999   6.070   4.303
 1559SOL    HW2 5577   2.146   6.002   4.284
 1560SOL     OW 5578   4.716   3.450   1.348
 1560SOL    HW1 5579   4.703   3.358   1.386
 1560SOL    HW2 5580   4.701   3.448   1.249
 1561SOL     OW 5581   6.147   6.409   1.140
 1561SOL    HW1 5582   6.093   6.336   1.180
 1561SOL    HW2 5583   6.220   6.435   1.203
 1562SOL     OW 5584   2.854   0.072   3.054
 1562SOL    HW1 5585   2.829   0.152   3.108
 1562SOL    HW2 5586   2.954   0.060   3.057
 1563SOL     OW 5587   2.402   4.325   3.438
 1563SOL    HW1 5588   2.394   4.344   3.340
 1563SOL    HW2 5589   2.368   4.233   3.457
 1564SOL     OW 5590   2.153   1.839   3.045
 1564SOL    HW1 5591   2.133   1.760   3.103
 1564SOL    HW2 5592   2.191   1.913   3.102
 1565SOL     OW 5593   5.367   1.572   5.487
 1565SOL    HW1 5594   5.390   1.541   5.394
 1565SOL    HW2 5595   5.279   1.532   5.514
 1566SOL     OW 5596   1.161   3.444   3.802
 1566SOL    HW1 5597   1.145   3.347   3.785
 1566SOL    HW2 5598   1.207   3.485   3.724
 1567SOL     OW 5599   5.823   0.914   4.442
 1567SOL    HW1 5600   5.828   1.010   4.471
 1567SOL    HW2 5601   5.788   0.858   4.517
 1568SOL     OW 5602   1.859   4.836   0.958
 1568SOL    HW1 5603   1.814   4.747   0.955
 1568SOL    HW2 5604   1.894   4.853   1.050
 1569SOL     OW 5605   2.005   1.151   2.274
 1569SOL    HW1 5606   1.974   1.163   2.369
 1569SOL    HW2 5607   2.041   1.238   2.240
 1570SOL     OW 5608   2.810   5.808   6.251
 1570SOL    HW1 5609   2.884   5.875   6.259
 1570SOL    HW2 5610   2.722   5.854   6.258
 1571SOL     OW 5611   1.398   1.266   4.048
 1571SOL    HW1 5612   1.324   1.276   3.982
 1571SOL    HW2 5613   1.431   1.172   4.048
 1572SOL     OW 5614   2.475   5.248   3.777
 1572SOL    HW1 5615   2.423   5.278   3.857
 1572SOL    HW2 5616   2.570   5.277   3.785
 1573SOL     OW 5617   5.459   5.902   6.871
 1573SOL    HW1 5618   5.364   5.875   6.858
 1573SOL    HW2 5619   5.466   6.002   6.867
 1574SOL     OW 5620   0.450   2.586   3.244
 1574SOL    HW1 5621   0.476   2.517   3.311
 1574SOL    HW2 5622   0.514   2.663   3.248
 1575SOL     OW 5623   6.763   2.085   6.976
 1575SOL    HW1 5624   6.852   2.069   7.018
 1575SOL    HW2 5625   6.757   2.034   6.890
 1576SOL     OW 5626   0.731   6.079   2.707
 1576SOL    HW1 5627   0.645   6.106   2.665
 1576SOL    HW2 5628   0.724   6.088   2.807
 1577SOL     OW 5629   4.550   5.995   4.025
 1577SOL    HW1 5630   4.529   5.944   3.942
 1577SOL    HW2 5631   4.606   6.075   4.002
 1578SOL     OW 5632   5.523   1.845   1.919
 1578SOL    HW1 5633   5.595   1.897   1.962
 1578SOL    HW2 5634   5.436   1.862   1.966
 1579SOL     OW 5635   1.752   3.831   2.605
 1579SOL    HW1 5636   1.835   3.827   2.550
 1579SOL    HW2 5637   1.770   3.793   2.696
 1580SOL     OW 5638   3.340   3.317   4.652
 1580SOL    HW1 5639   3.429   3.348   4.686
 1580SOL    HW2 5640   3.354   3.246   4.583
 1581SOL     OW 5641   5.279   3.783   5.214
 1581SOL    HW1 5642   5.342   3.750   5.285
 1581SOL    HW2 5643   5.208   3.839   5.257
 1582SOL     OW 5644   3.994   6.118   4.060
 1582SOL    HW1 5645   3.972   6.208   4.097
 1582SOL    HW2 5646   4.044   6.065   4.128
 1583SOL     OW 5647   0.721   5.416   4.798
 1583SOL    HW1 5648   0.628   5.446   4.777
 1583SOL    HW2 5649   0.748   5.452   4.887
 1584SOL     OW 5650   0.394   4.491   0.152
 1584SOL    HW1 5651   0.488   4.496   0.119
 1584SOL    HW2 5652   0.332   4.513   0.076
 1585SOL     OW 5653   4.171   6.771   4.049
 1585SOL    HW1 5654   4.076   6.797   4.034
 1585SOL    HW2 5655   4.192   6.688   3.998
 1586SOL     OW 5656   2.791   5.879   3.623
 1586SOL    HW1 5657   2.784   5.970   3.582
 1586SOL    HW2 5658   2.835   5.885   3.713
 1587SOL     OW 5659   4.275   0.215   6.817
 1587SOL    HW1 5660   4.311   0.179   6.903
 1587SOL    HW2 5661   4.175   0.210   6.818
 1588SOL     OW 5662   6.316   1.506   3.920
 1588SOL    HW1 5663   6.264   1.435   3.968
 1588SOL    HW2 5664   6.308   1.592   3.970
 1589SOL     OW 5665   0.209   1.089   3.892
 1589SOL    HW1 5666   0.134   1.149   3.865
 1589SOL    HW2 5667   0.203   1.072   3.991
 1590SOL     OW 5668   5.724   0.103   3.638
 1590SOL    HW1 5669   5.698   0.077   3.545
 1590SOL    HW2 5670   5.704   0.200   3.652
 1591SOL     OW 5671   0.259   5.008   0.709
 1591SOL    HW1 5672   0.176   5.057   0.682
 1591SOL    HW2 5673   0.338   5.053   0.667
 1592SOL     OW 5674   6.774   4.210   4.619
 1592SOL    HW1 5675   6.770   4.115   4.588
 1592SOL    HW2 5676   6.681   4.246   4.629
 1593SOL     OW 5677   4.026   5.288   1.347
 1593SOL    HW1 5678   4.024   5.270   1.249
 1593SOL    HW2 5679   4.029   5.201   1.397
 1594SOL     OW 5680   5.202   0.671   3.234
 1594SOL    HW1 5681   5.285   0.719   3.260
 1594SOL    HW2 5682   5.132   0.683   3.305
 1595SOL     OW 5683   6.859   3.868   0.479
 1595SOL    HW1 5684   6.782   3.933   0.485
 1595SOL    HW2 5685   6.943   3.919   0.462
 1596SOL     OW 5686   5.339   4.411   4.416
 1596SOL    HW1 5687   5.434   4.399   4.444
 1596SOL    HW2 5688   5.279   4.360   4.478
 1597SOL     OW 5689   4.434   6.825   1.208
 1597SOL    HW1 5690   4.417   6.731   1.180
 1597SOL    HW2 5691   4.407   6.837   1.304
 1598SOL     OW 5692   0.846   5.706   6.049
 1598SOL    HW1 5693   0.854   5.803   6.027
 1598SOL    HW2 5694   0.759   5.690   6.096
 1599SOL     OW 5695   5.069   5.035   4.080
 1599SOL    HW1 5696   4.987   5.088   4.103
 1599SOL    HW2 5697   5.089   4.972   4.156
 1600SOL     OW 5698   5.251   1.262   1.518
 1600SOL    HW1 5699   5.201   1.322   1.456
 1600SOL    HW2 5700   5.349   1.264   1.495
 1601SOL     OW 5701   6.044   0.519   5.182
 1601SOL    HW1 5702   5.986   0.539   5.103
 1601SOL    HW2 5703   6.061   0.420   5.187
 1602SOL     OW 5704   3.611   5.860   3.615
 1602SOL    HW1 5705   3.641   5.925   3.544
 1602SOL    HW2 5706   3.690   5.830   3.668
 1603SOL     OW 5707   3.371   5.651   1.299
 1603SOL    HW1 5708   3.323   5.565   1.277
 1603SOL    HW2 5709   3.356   5.717   1.226
 1604SOL     OW 5710   4.346   5.394   1.756
 1604SOL    HW1 5711   4.302   5.476   1.719
 1604SOL    HW2 5712   4.395   5.416   1.839
 1605SOL     OW 5713   4.026   4.895   0.309
 1605SOL    HW1 5714   4.041   4.976   0.251
 1605SOL    HW2 5715   4.055   4.916   0.402
 1606SOL     OW 5716   4.826   5.851   4.795
 1606SOL    HW1 5717   4.895   5.918   4.766
 1606SOL    HW2 5718   4.790   5.877   4.885
 1607SOL     OW 5719   4.681   4.240   4.075
 1607SOL    HW1 5720   4.687   4.231   4.174
 1607SOL    HW2 5721   4.737   4.169   4.032
 1608SOL     OW 5722   6.314   3.083   3.077
 1608SOL    HW1 5723   6.398   3.044   3.040
 1608SOL    HW2 5724   6.274   3.146   3.011
 1609SOL     OW 5725   1.379   0.194   0.811
 1609SOL    HW1 5726   1.430   0.111   0.787
 1609SOL    HW2 5727   1.351   0.241   0.727
 1610SOL     OW 5728   5.607   5.412   1.204
 1610SOL    HW1 5729   5.516   5.388   1.170
 1610SOL    HW2 5730   5.620   5.370   1.294
 1611SOL     OW 5731   0.285   4.713   6.624
 1611SOL    HW1 5732   0.206   4.712   6.685
 1611SOL    HW2 5733   0.368   4.692   6.676
 1612SOL     OW 5734   5.309   0.797   2.321
 1612SOL    HW1 5735   5.226   0.840   2.286
 1612SOL    HW2 5736   5.360   0.756   2.245
 1613SOL     OW 5737   0.130   6.289   2.721
 1613SOL    HW1 5738   0.050   6.293   2.781
 1613SOL    HW2 5739   0.193   6.363   2.746
 1614SOL     OW 5740   6.305   0.955   6.088
 1614SOL    HW1 5741   6.225   0.896   6.071
 1614SOL    HW2 5742   6.341   0.987   6.001
 1615SOL     OW 5743   6.391   2.860   5.841
 1615SOL    HW1 5744   6.365   2.845   5.746
 1615SOL    HW2 5745   6.349   2.790   5.898
 1616SOL     OW 5746   1.328   1.470   3.372
 1616SOL    HW1 5747   1.291   1.559   3.397
 1616SOL    HW2 5748   1.313   1.405   3.447
 1617SOL     OW 5749   0.100   6.114   4.291
 1617SOL    HW1 5750   0.124   6.139   4.385
 1617SOL    HW2 5751   0.178   6.071   4.246
 1618SOL     OW 5752   3.076   5.246   2.930
 1618SOL    HW1 5753   3.105   5.243   3.026
 1618SOL    HW2 5754   2.978   5.263   2.926
 1619SOL     OW 5755   0.871   3.730   6.150
 1619SOL    HW1 5756   0.862   3.636   6.181
 1619SOL    HW2 5757   0.865   3.733   6.050
 1620SOL     OW 5758   2.516   6.858   4.601
 1620SOL    HW1 5759   2.512   6.811   4.689
 1620SOL    HW2 5760   2.440   6.924   4.595
 1621SOL     OW 5761   5.697   4.815   0.729
 1621SOL    HW1 5762   5.709   4.743   0.798
 1621SOL    HW2 5763   5.669   4.774   0.643
 1622SOL     OW 5764   6.567   3.071   3.373
 1622SOL    HW1 5765   6.502   3.115   3.311
 1622SOL    HW2 5766   6.566   2.972   3.358
 1623SOL     OW 5767   0.584   2.406   3.926
 1623SOL    HW1 5768   0.642   2.368   3.999
 1623SOL    HW2 5769   0.560   2.333   3.862
 1624SOL     OW 5770   4.664   3.125   0.507
 1624SOL    HW1 5771   4.576   3.077   0.510
 1624SOL    HW2 5772   4.735   3.062   0.475
 1625SOL     OW 5773   1.050   6.331   0.115
 1625SOL    HW1 5774   1.100   6.282   0.044
 1625SOL    HW2 5775   0.990   6.400   0.072
 1626SOL     OW 5776   2.618   1.715   1.805
 1626SOL    HW1 5777   2.605   1.774   1.726
 1626SOL    HW2 5778   2.704   1.738   1.850
 1627SOL     OW 5779   4.463   0.849   5.377
 1627SOL    HW1 5780   4.403   0.864   5.298
 1627SOL    HW2 5781   4.554   0.822   5.345
 1628SOL     OW 5782   5.703   5.703   0.930
 1628SOL    HW1 5783   5.606   5.706   0.954
 1628SOL    HW2 5784   5.743   5.793   0.942
 1629SOL     OW 5785   1.822   6.352   2.769
 1629SOL    HW1 5786   1.748   6.419   2.761
 1629SOL    HW2 5787   1.876   6.351   2.685
 1630SOL     OW 5788   0.456   5.077   6.109
 1630SOL    HW1 5789   0.510   4.995   6.130
 1630SOL    HW2 5790   0.398   5.099   6.187
 1631SOL     OW 5791   5.282   4.261   6.939
 1631SOL    HW1 5792   5.224   4.285   7.016
 1631SOL    HW2 5793   5.225   4.231   6.862
 1632SOL     OW 5794   6.119   5.644   2.308
 1632SOL    HW1 5795   6.178   5.633   2.388
 1632SOL    HW2 5796   6.034   5.593   2.322
 1633SOL     OW 5797   6.810   3.779   4.763
 1633SOL    HW1 5798   6.776   3.699   4.812
 1633SOL    HW2 5799   6.866   3.835   4.824
 1634SOL     OW 5800   1.293   4.041   5.972
 1634SOL    HW1 5801   1.224   4.043   5.900
 1634SOL    HW2 5802   1.358   3.967   5.953
 1635SOL     OW 5803   2.389   1.233   3.826
 1635SOL    HW1 5804   2.388   1.318   3.773
 1635SOL    HW2 5805   2.309   1.178   3.802
 1636SOL     OW 5806   6.977   6.218   1.869
 1636SOL    HW1 5807   0.019   6.179   1.935
 1636SOL    HW2 5808   7.012   6.304   1.834
 1637SOL     OW 5809   1.200   1.269   1.585
 1637SOL    HW1 5810   1.255   1.277   1.668
 1637SOL    HW2 5811   1.236   1.194   1.529
 1638SOL     OW 5812   5.600   2.004   3.531
 1638SOL    HW1 5813   5.639   1.947   3.604
 1638SOL    HW2 5814   5.518   1.961   3.495
 1639SOL     OW 5815   5.139   2.048   0.975
 1639SOL    HW1 5816   5.061   1.987   0.967
 1639SOL    HW2 5817   5.213   2.002   1.025
 1640SOL     OW 5818   6.053   1.244   6.797
 1640SOL    HW1 5819   6.019   1.268   6.707
 1640SOL    HW2 5820   6.099   1.155   6.793
 1641SOL     OW 5821   5.813   1.465   2.291
 1641SOL    HW1 5822   5.852   1.377   2.260
 1641SOL    HW2 5823   5.827   1.474   2.390
 1642SOL     OW 5824   6.985   3.359   6.671
 1642SOL    HW1 5825   6.892   3.388   6.692
 1642SOL    HW2 5826   0.007   3.431   6.617
 1643SOL     OW 5827   2.050   5.396   4.637
 1643SOL    HW1 5828   2.037   5.308   4.591
 1643SOL    HW2 5829   2.146   5.421   4.634
 1644SOL     OW 5830   5.929   1.581   1.048
 1644SOL    HW1 5831   5.945   1.485   1.026
 1644SOL    HW2 5832   5.976   1.638   0.980
 1645SOL     OW 5833   2.488   0.908   3.969
 1645SOL    HW1 5834   2.561   0.902   4.037
 1645SOL    HW2 5835   2.413   0.962   4.005
 1646SOL     OW 5836   6.886   5.441   1.872
 1646SOL    HW1 5837   6.857   5.510   1.805
 1646SOL    HW2 5838   6.888   5.482   1.963
 1647SOL     OW 5839   6.577   3.631   5.376
 1647SOL    HW1 5840   6.494   3.663   5.422
 1647SOL    HW2 5841   6.557   3.546   5.328
 1648SOL     OW 5842   5.872   5.983   2.227
 1648SOL    HW1 5843   5.944   6.006   2.162
 1648SOL    HW2 5844   5.790   5.956   2.177
 1649SOL     OW 5845   3.922   0.914   3.171
 1649SOL    HW1 5846   3.928   0.819   3.202
 1649SOL    HW2 5847   3.863   0.966   3.232
 1650SOL     OW 5848   2.705   2.374   4.925
 1650SOL    HW1 5849   2.681   2.302   4.860
 1650SOL    HW2 5850   2.685   2.463   4.885
 1651SOL     OW 5851   1.598   2.320   3.732
 1651SOL    HW1 5852   1.596   2.253   3.807
 1651SOL    HW2 5853   1.526   2.387   3.746
 1652SOL     OW 5854   0.175   4.367   1.535
 1652SOL    HW1 5855   0.253   4.377   1.473
 1652SOL    HW2 5856   0.176   4.441   1.602
 1653SOL     OW 5857   5.864   4.109   1.945
 1653SOL    HW1 5858   5.800   4.058   1.888
 1653SOL    HW2 5859   5.863   4.071   2.038
 1654SOL     OW 5860   6.708   3.104   1.969
 1654SOL    HW1 5861   6.664   3.159   2.039
 1654SOL    HW2 5862   6.766   3.162   1.911
 1655SOL     OW 5863   6.755   0.537   5.596
 1655SOL    HW1 5864   6.854   0.552   5.585
 1655SOL    HW2 5865   6.736   0.514   5.691
 1656SOL     OW 5866   1.725   4.388   2.967
 1656SOL    HW1 5867   1.819   4.373   2.998
 1656SOL    HW2 5868   1.662   4.339   3.027
 1657SOL     OW 5869   0.735   1.481   6.251
 1657SOL    HW1 5870   0.786   1.400   6.281
 1657SOL    HW2 5871   0.646   1.483   6.297
 1658SOL     OW 5872   5.001   0.287   5.544
 1658SOL    HW1 5873   4.939   0.334   5.481
 1658SOL    HW2 5874   4.953   0.270   5.630
 1659SOL     OW 5875   2.953   0.879   6.571
 1659SOL    HW1 5876   2.853   0.882   6.574
 1659SOL    HW2 5877   2.989   0.971   6.582
 1660SOL     OW 5878   2.404   1.250   1.523
 1660SOL    HW1 5879   2.460   1.328   1.551
 1660SOL    HW2 5880   2.359   1.272   1.437
 1661SOL     OW 5881   4.668   5.003   3.163
 1661SOL    HW1 5882   4.591   5.038   3.110
 1661SOL    HW2 5883   4.635   4.937   3.231
 1662SOL     OW 5884   0.435   1.802   3.718
 1662SOL    HW1 5885   0.398   1.716   3.684
 1662SOL    HW2 5886   0.529   1.787   3.751
 1663SOL     OW 5887   6.606   3.827   1.295
 1663SOL    HW1 5888   6.620   3.901   1.229
 1663SOL    HW2 5889   6.624   3.739   1.251
 1664SOL     OW 5890   1.426   1.462   6.425
 1664SOL    HW1 5891   1.476   1.447   6.511
 1664SOL    HW2 5892   1.400   1.374   6.386
 1665SOL     OW 5893   1.672   3.749   0.301
 1665SOL    HW1 5894   1.766   3.720   0.281
 1665SOL    HW2 5895   1.672   3.845   0.329
 1666SOL     OW 5896   5.589   6.283   5.630
 1666SOL    HW1 5897   5.555   6.205   5.684
 1666SOL    HW2 5898   5.576   6.367   5.683
 1667SOL     OW 5899   6.662   5.284   0.837
 1667SOL    HW1 5900   6.644   5.326   0.926
 1667SOL    HW2 5901   6.598   5.321   0.770
 1668SOL     OW 5902   6.804   2.859   1.992
 1668SOL    HW1 5903   6.761   2.948   1.983
 1668SOL    HW2 5904   6.892   2.859   1.945
 1669SOL     OW 5905   6.262   2.544   5.608
 1669SOL    HW1 5906   6.213   2.606   5.670
 1669SOL    HW2 5907   6.358   2.572   5.602
 1670SOL     OW 5908   2.847   4.288   5.380
 1670SOL    HW1 5909   2.883   4.350   5.309
 1670SOL    HW2 5910   2.861   4.193   5.351
 1671SOL     OW 5911   5.849   2.357   0.500
 1671SOL    HW1 5912   5.815   2.271   0.460
 1671SOL    HW2 5913   5.784   2.390   0.568
 1672SOL     OW 5914   0.782   1.655   1.311
 1672SOL    HW1 5915   0.691   1.649   1.269
 1672SOL    HW2 5916   0.796   1.748   1.346
 1673SOL     OW 5917   0.918   0.546   6.295
 1673SOL    HW1 5918   0.823   0.554   6.325
 1673SOL    HW2 5919   0.929   0.589   6.206
 1674SOL     OW 5920   4.746   2.798   3.371
 1674SOL    HW1 5921   4.798   2.728   3.322
 1674SOL    HW2 5922   4.796   2.884   3.369
 1675SOL     OW 5923   5.103   0.896   2.187
 1675SOL    HW1 5924   5.107   0.922   2.090
 1675SOL    HW2 5925   5.008   0.878   2.213
 1676SOL     OW 5926   1.506   2.113   3.953
 1676SOL    HW1 5927   1.446   2.127   3.874
 1676SOL    HW2 5928   1.511   2.016   3.975
 1677SOL     OW 5929   2.926   3.902   1.398
 1677SOL    HW1 5930   2.974   3.981   1.360
 1677SOL    HW2 5931   2.968   3.875   1.484
 1678SOL     OW 5932   6.724   0.351   0.664
 1678SOL    HW1 5933   6.750   0.396   0.579
 1678SOL    HW2 5934   6.785   0.381   0.738
 1679SOL     OW 5935   6.165   1.969   6.991
 1679SOL    HW1 5936   6.186   2.026   0.048
 1679SOL    HW2 5937   6.146   2.028   6.913
 1680SOL     OW 5938   5.373   1.918   3.339
 1680SOL    HW1 5939   5.448   1.968   3.296
 1680SOL    HW2 5940   5.370   1.825   3.301
 1681SOL     OW 5941   4.235   6.327   3.775
 1681SOL    HW1 5942   4.311   6.374   3.732
 1681SOL    HW2 5943   4.185   6.390   3.834
 1682SOL     OW 5944   4.390   1.782   5.334
 1682SOL    HW1 5945   4.458   1.783   5.261
 1682SOL    HW2 5946   4.381   1.874   5.372
 1683SOL     OW 5947   1.180   3.921   3.525
 1683SOL    HW1 5948   1.151   3.841   3.473
 1683SOL    HW2 5949   1.237   3.892   3.602
 1684SOL     OW 5950   3.607   5.889   0.896
 1684SOL    HW1 5951   3.522   5.850   0.932
 1684SOL    HW2 5952   3.619   5.862   0.800
 1685SOL     OW 5953   0.205   2.082   5.731
 1685SOL    HW1 5954   0.271   2.024   5.778
 1685SOL    HW2 5955   0.151   2.027   5.666
 1686SOL     OW 5956   3.280   5.872   1.462
 1686SOL    HW1 5957   3.330   5.912   1.539
 1686SOL    HW2 5958   3.330   5.793   1.426
 1687SOL     OW 5959   4.592   4.037   0.167
 1687SOL    HW1 5960   4.498   4.031   0.200
 1687SOL    HW2 5961   4.655   4.011   0.241
 1688SOL     OW 5962   3.145   0.421   3.010
 1688SOL    HW1 5963   3.047   0.417   2.992
 1688SOL    HW2 5964   3.171   0.348   3.073
 1689SOL     OW 5965   4.222   0.869   1.910
 1689SOL    HW1 5966   4.280   0.947   1.884
 1689SOL    HW2 5967   4.127   0.899   1.917
 1690SOL     OW 5968   0.219   4.415   4.169
 1690SOL    HW1 5969   0.254   4.460   4.087
 1690SOL    HW2 5970   0.230   4.316   4.161
 1691SOL     OW 5971   4.399   3.214   5.311
 1691SOL    HW1 5972   4.484   3.265   5.297
 1691SOL    HW2 5973   4.419   3.116   5.319
 1692SOL     OW 5974   5.480   5.228   2.942
 1692SOL    HW1 5975   5.494   5.185   2.853
 1692SOL    HW2 5976   5.564   5.275   2.970
 1693SOL     OW 5977   5.933   0.699   5.907
 1693SOL    HW1 5978   5.980   0.748   5.980
 1693SOL    HW2 5979   5.902   0.610   5.940
 1694SOL     OW 5980   4.284   1.105   6.686
 1694SOL    HW1 5981   4.329   1.121   6.598
 1694SOL    HW2 5982   4.282   1.007   6.704
 1695SOL     OW 5983   4.969   0.623   5.226
 1695SOL    HW1 5984   4.945   0.628   5.129
 1695SOL    HW2 5985   4.952   0.530   5.259
 1696SOL     OW 5986   5.388   6.932   0.794
 1696SOL    HW1 5987   5.391   6.875   0.876
 1696SOL    HW2 5988   5.410   6.877   0.714
 1697SOL     OW 5989   3.964   3.867   1.832
 1697SOL    HW1 5990   3.989   3.948   1.779
 1697SOL    HW2 5991   3.890   3.818   1.785
 1698SOL     OW 5992   4.840   1.835   1.322
 1698SOL    HW1 5993   4.794   1.914   1.281
 1698SOL    HW2 5994   4.799   1.815   1.411
 1699SOL     OW 5995   1.927   0.712   0.932
 1699SOL    HW1 5996   1.836   0.755   0.929
 1699SOL    HW2 5997   1.916   0.614   0.950
 1700SOL     OW 5998   5.983   3.140   3.103
 1700SOL    HW1 5999   6.028   3.076   3.040
 1700SOL    HW2 6000   5.921   3.090   3.163
 1701SOL     OW 6001   1.235   5.486   5.554
 1701SOL    HW1 6002   1.287   5.401   5.550
 1701SOL    HW2 6003   1.292   5.562   5.522
 1702SOL     OW 6004   2.142   2.689   6.923
 1702SOL    HW1 6005   2.079   2.612   6.919
 1702SOL    HW2 6006   2.231   2.661   6.886
 1703SOL     OW 6007   1.340   1.882   1.866
 1703SOL    HW1 6008   1.439   1.881   1.875
 1703SOL    HW2 6009   1.311   1.810   1.802
 1704SOL     OW 6010   2.801   3.147   6.901
 1704SOL    HW1 6011   2.861   3.209   6.950
 1704SOL    HW2 6012   2.836   3.133   6.808
 1705SOL     OW 6013   5.614   3.051   1.202
 1705SOL    HW1 6014   5.714   3.051   1.191
 1705SOL    HW2 6015   5.591   3.026   1.295
 1706SOL     OW 6016   6.152   0.371   5.747
 1706SOL    HW1 6017   6.154   0.471   5.747
 1706SOL    HW2 6018   6.239   0.337   5.784
 1707SOL     OW 6019   2.897   1.450   2.346
 1707SOL    HW1 6020   2.962   1.377   2.327
 1707SOL    HW2 6021   2.807   1.425   2.310
 1708SOL     OW 6022   2.719   4.923   1.653
 1708SOL    HW1 6023   2.715   4.823   1.645
 1708SOL    HW2 6024   2.744   4.948   1.746
 1709SOL     OW 6025   5.691   4.875   2.692
 1709SOL    HW1 6026   5.787   4.848   2.689
 1709SOL    HW2 6027   5.663   4.906   2.601
 1710SOL     OW 6028   4.881   2.842   1.996
 1710SOL    HW1 6029   4.836   2.930   1.980
 1710SOL    HW2 6030   4.936   2.818   1.916
 1711SOL     OW 6031   4.039   5.144   0.170
 1711SOL    HW1 6032   3.980   5.214   0.211
 1711SOL    HW2 6033   4.044   5.158   0.071
 1712SOL     OW 6034   0.158   2.513   2.508
 1712SOL    HW1 6035   0.124   2.423   2.481
 1712SOL    HW2 6036   0.083   2.565   2.550
 1713SOL     OW 6037   2.956   1.361   2.609
 1713SOL    HW1 6038   2.931   1.429   2.540
 1713SOL    HW2 6039   2.914   1.273   2.587
 1714SOL     OW 6040   3.252   4.893   0.880
 1714SOL    HW1 6041   3.232   4.812   0.934
 1714SOL    HW2 6042   3.224   4.878   0.786
 1715SOL     OW 6043   1.369   5.986   0.436
 1715SOL    HW1 6044   1.442   5.985   0.368
 1715SOL    HW2 6045   1.336   5.893   0.451
 1716SOL     OW 6046   5.242   1.495   2.602
 1716SOL    HW1 6047   5.334   1.507   2.564
 1716SOL    HW2 6048   5.194   1.583   2.601
 1717SOL     OW 6049   3.672   6.526   4.064
 1717SOL    HW1 6050   3.660   6.581   3.982
 1717SOL    HW2 6051   3.723   6.578   4.132
 1718SOL     OW 6052   1.543   4.022   2.023
 1718SOL    HW1 6053   1.638   3.992   2.036
 1718SOL    HW2 6054   1.536   4.072   1.937
 1719SOL     OW 6055   1.501   4.934   3.473
 1719SOL    HW1 6056   1.537   5.007   3.414
 1719SOL    HW2 6057   1.548   4.848   3.452
 1720SOL     OW 6058   1.354   2.881   5.779
 1720SOL    HW1 6059   1.451   2.889   5.801
 1720SOL    HW2 6060   1.343   2.859   5.682
 1721SOL     OW 6061   1.919   2.504   6.928
 1721SOL    HW1 6062   1.864   2.460   6.999
 1721SOL    HW2 6063   1.859   2.540   6.857
 1722SOL     OW 6064   3.736   2.152   2.829
 1722SOL    HW1 6065   3.797   2.128   2.753
 1722SOL    HW2 6066   3.641   2.144   2.799
 1723SOL     OW 6067   6.774   5.425   1.074
 1723SOL    HW1 6068   6.821   5.478   1.145
 1723SOL    HW2 6069   6.681   5.404   1.105
 1724SOL     OW 6070   6.445   4.003   1.664
 1724SOL    HW1 6071   6.425   4.088   1.616
 1724SOL    HW2 6072   6.473   3.933   1.598
 1725SOL     OW 6073   1.722   6.617   4.726
 1725SOL    HW1 6074   1.770   6.670   4.796
 1725SOL    HW2 6075   1.788   6.581   4.660
 1726SOL     OW 6076   5.541   4.803   3.507
 1726SOL    HW1 6077   5.610   4.765   3.568
 1726SOL    HW2 6078   5.508   4.890   3.544
 1727SOL     OW 6079   2.894   3.791   3.373
 1727SOL    HW1 6080   2.945   3.840   3.302
 1727SOL    HW2 6081   2.842   3.856   3.428
 1728SOL     OW 6082   5.310   2.181   4.679
 1728SOL    HW1 6083   5.272   2.139   4.762
 1728SOL    HW2 6084   5.410   2.173   4.681
 1729SOL     OW 6085   1.380   3.306   3.305
 1729SOL    HW1 6086   1.374   3.309   3.206
 1729SOL    HW2 6087   1.306   3.248   3.341
 1730SOL     OW 6088   2.690   0.705   4.578
 1730SOL    HW1 6089   2.674   0.742   4.669
 1730SOL    HW2 6090   2.785   0.722   4.552
 1731SOL     OW 6091   6.179   4.820   3.470
 1731SOL    HW1 6092   6.206   4.758   3.396
 1731SOL    HW2 6093   6.233   4.800   3.552
 1732SOL     OW 6094   3.984   3.326   5.006
 1732SOL    HW1 6095   4.032   3.414   5.000
 1732SOL    HW2 6096   4.028   3.259   4.946
 1733SOL     OW 6097   1.434   1.950   6.957
 1733SOL    HW1 6098   1.360   1.907   6.906
 1733SOL    HW2 6099   1.480   2.017   6.898
 1734SOL     OW 6100   0.945   4.285   2.564
 1734SOL    HW1 6101   0.999   4.210   2.603
 1734SOL    HW2 6102   0.995   4.326   2.488
 1735SOL     OW 6103   3.452   5.475   5.966
 1735SOL    HW1 6104   3.448   5.443   6.061
 1735SOL    HW2 6105   3.534   5.440   5.922
 1736SOL     OW 6106   4.515   1.900   5.114
 1736SOL    HW1 6107   4.534   1.915   5.017
 1736SOL    HW2 6108   4.592   1.934   5.168
 1737SOL     OW 6109   2.245   0.593   0.185
 1737SOL    HW1 6110   2.310   0.632   0.250
 1737SOL    HW2 6111   2.196   0.666   0.139
 1738SOL     OW 6112   1.292   4.060   2.114
 1738SOL    HW1 6113   1.389   4.050   2.091
 1738SOL    HW2 6114   1.283   4.121   2.193
 1739SOL     OW 6115   4.646   5.845   2.766
 1739SOL    HW1 6116   4.698   5.921   2.805
 1739SOL    HW2 6117   4.691   5.759   2.788
 1740SOL     OW 6118   6.856   2.132   4.620
 1740SOL    HW1 6119   6.917   2.210   4.611
 1740SOL    HW2 6120   6.770   2.161   4.661
 1741SOL     OW 6121   1.249   2.867   4.355
 1741SOL    HW1 6122   1.241   2.917   4.441
 1741SOL    HW2 6123   1.202   2.780   4.362
 1742SOL     OW 6124   5.857   0.168   6.572
 1742SOL    HW1 6125   5.943   0.207   6.606
 1742SOL    HW2 6126   5.860   0.164   6.473
 1743SOL     OW 6127   0.603   1.574   2.108
 1743SOL    HW1 6128   0.556   1.536   2.029
 1743SOL    HW2 6129   0.590   1.673   2.110
 1744SOL     OW 6130   3.045   1.892   5.108
 1744SOL    HW1 6131   3.131   1.937   5.083
 1744SOL    HW2 6132   3.004   1.941   5.185
 1745SOL     OW 6133   6.180   6.969   0.946
 1745SOL    HW1 6134   6.128   6.980   1.031
 1745SOL    HW2 6135   6.153   0.018   0.882
 1746SOL     OW 6136   2.321   5.288   2.404
 1746SOL    HW1 6137   2.419   5.290   2.427
 1746SOL    HW2 6138   2.277   5.213   2.454
 1747SOL     OW 6139   2.711   6.807   1.739
 1747SOL    HW1 6140   2.800   6.787   1.699
 1747SOL    HW2 6141   2.715   6.894   1.787
 1748SOL     OW 6142   6.781   1.421   3.788
 1748SOL    HW1 6143   6.693   1.395   3.829
 1748SOL    HW2 6144   6.788   1.521   3.787
 1749SOL     OW 6145   6.662   5.818   2.290
 1749SOL    HW1 6146   6.748   5.865   2.308
 1749SOL    HW2 6147   6.669   5.766   2.205
 1750SOL     OW 6148   2.515   1.648   1.006
 1750SOL    HW1 6149   2.527   1.597   0.920
 1750SOL    HW2 6150   2.424   1.690   1.007
 1751SOL     OW 6151   6.544   4.328   4.659
 1751SOL    HW1 6152   6.498   4.373   4.583
 1751SOL    HW2 6153   6.478   4.275   4.712
 1752SOL     OW 6154   5.872   0.458   2.816
 1752SOL    HW1 6155   5.882   0.396   2.893
 1752SOL    HW2 6156   5.922   0.543   2.834
 1753SOL     OW 6157   6.835   1.400   1.050
 1753SOL    HW1 6158   6.751   1.425   1.099
 1753SOL    HW2 6159   6.841   1.453   0.966
 1754SOL     OW 6160   1.817   4.555   3.695
 1754SOL    HW1 6161   1.868   4.538   3.611
 1754SOL    HW2 6162   1.736   4.497   3.698
 1755SOL     OW 6163   5.512   6.662   5.324
 1755SOL    HW1 6164   5.567   6.689   5.402
 1755SOL    HW2 6165   5.416   6.685   5.341
 1756SOL     OW 6166   4.706   5.276   1.100
 1756SOL    HW1 6167   4.622   5.331   1.108
 1756SOL    HW2 6168   4.700   5.197   1.162
 1757SOL     OW 6169   3.070   5.032   5.221
 1757SOL    HW1 6170   3.046   5.078   5.306
 1757SOL    HW2 6171   2.991   4.981   5.187
 1758SOL     OW 6172   0.376   6.442   4.200
 1758SOL    HW1 6173   0.330   6.428   4.288
 1758SOL    HW2 6174   0.453   6.505   4.212
 1759SOL     OW 6175   2.017   5.250   5.885
 1759SOL    HW1 6176   2.107   5.240   5.928
 1759SOL    HW2 6177   1.977   5.337   5.912
 1760SOL     OW 6178   5.846   1.286   4.323
 1760SOL    HW1 6179   5.769   1.229   4.294
 1760SOL    HW2 6180   5.815   1.380   4.335
 1761SOL     OW 6181   5.006   2.630   4.168
 1761SOL    HW1 6182   5.078   2.585   4.114
 1761SOL    HW2 6183   4.997   2.725   4.139
 1762SOL     OW 6184   1.050   1.484   5.280
 1762SOL    HW1 6185   0.998   1.563   5.249
 1762SOL    HW2 6186   1.148   1.505   5.278
 1763SOL     OW 6187   1.451   5.291   3.996
 1763SOL    HW1 6188   1.523   5.253   3.938
 1763SOL    HW2 6189   1.384   5.339   3.939
 1764SOL     OW 6190   0.341   5.167   3.437
 1764SOL    HW1 6191   0.436   5.136   3.427
 1764SOL    HW2 6192   0.288   5.095   3.482
 1765SOL     OW 6193   5.396   3.987   2.338
 1765SOL    HW1 6194   5.426   4.012   2.245
 1765SOL    HW2 6195   5.296   3.984   2.341
 1766SOL     OW 6196   3.918   4.880   3.134
 1766SOL    HW1 6197   3.818   4.881   3.129
 1766SOL    HW2 6198   3.956   4.932   3.057
 1767SOL     OW 6199   1.921   4.016   1.748
 1767SOL    HW1 6200   1.959   3.923   1.751
 1767SOL    HW2 6201   1.992   4.080   1.719
 1768SOL     OW 6202   3.471   5.251   2.898
 1768SOL    HW1 6203   3.416   5.296   2.827
 1768SOL    HW2 6204   3.444   5.155   2.905
 1769SOL     OW 6205   5.148   0.359   0.694
 1769SOL    HW1 6206   5.195   0.436   0.737
 1769SOL    HW2 6207   5.161   0.277   0.749
 1770SOL     OW 6208   2.143   4.008   0.161
 1770SOL    HW1 6209   2.144   4.033   0.257
 1770SOL    HW2 6210   2.078   3.934   0.146
 1771SOL     OW 6211   1.635   3.172   6.084
 1771SOL    HW1 6212   1.702   3.099   6.090
 1771SOL    HW2 6213   1.665   3.249   6.140
 1772SOL     OW 6214   2.639   5.203   1.882
 1772SOL    HW1 6215   2.590   5.124   1.920
 1772SOL    HW2 6216   2.635   5.201   1.783
 1773SOL     OW 6217   2.104   6.082   4.913
 1773SOL    HW1 6218   2.042   6.004   4.901
 1773SOL    HW2 6219   2.181   6.055   4.971
 1774SOL     OW 6220   5.856   4.938   1.696
 1774SOL    HW1 6221   5.875   4.991   1.614
 1774SOL    HW2 6222   5.912   4.854   1.694
 1775SOL     OW 6223   1.953   6.683   1.168
 1775SOL    HW1 6224   1.941   6.586   1.185
 1775SOL    HW2 6225   1.899   6.736   1.234
 1776SOL     OW 6226   4.720   3.123   5.789
 1776SOL    HW1 6227   4.706   3.213   5.748
 1776SOL    HW2 6228   4.752   3.133   5.883
 1777SOL     OW 6229   4.806   4.573   6.395
 1777SOL    HW1 6230   4.884   4.512   6.383
 1777SOL    HW2 6231   4.725   4.519   6.420
 1778SOL     OW 6232   6.607   0.343   2.970
 1778SOL    HW1 6233   6.635   0.437   2.953
 1778SOL    HW2 6234   6.594   0.296   2.882
 1779SOL     OW 6235   0.039   6.808   4.731
 1779SOL    HW1 6236   0.137   6.792   4.731
 1779SOL    HW2 6237   7.015   6.729   4.771
 1780SOL     OW 6238   2.671   6.889   4.887
 1780SOL    HW1 6239   2.596   6.832   4.921
 1780SOL    HW2 6240   2.756   6.837   4.888
 1781SOL     OW 6241   3.831   1.310   5.459
 1781SOL    HW1 6242   3.856   1.406   5.448
 1781SOL    HW2 6243   3.909   1.260   5.497
 1782SOL     OW 6244   5.559   0.360   2.823
 1782SOL    HW1 6245   5.491   0.431   2.802
 1782SOL    HW2 6246   5.651   0.397   2.813
 1783SOL     OW 6247   1.556   3.411   0.186
 1783SOL    HW1 6248   1.477   3.391   0.128
 1783SOL    HW2 6249   1.525   3.430   0.279
 1784SOL     OW 6250   2.030   6.118   1.268
 1784SOL    HW1 6251   2.045   6.022   1.292
 1784SOL    HW2 6252   2.064   6.177   1.342
 1785SOL     OW 6253   2.334   4.969   5.089
 1785SOL    HW1 6254   2.336   5.069   5.089
 1785SOL    HW2 6255   2.246   4.938   5.124
 1786SOL     OW 6256   0.555   5.539   2.571
 1786SOL    HW1 6257   0.492   5.588   2.631
 1786SOL    HW2 6258   0.635   5.597   2.553
 1787SOL     OW 6259   2.690   2.241   6.290
 1787SOL    HW1 6260   2.615   2.285   6.241
 1787SOL    HW2 6261   2.656   2.161   6.340
 1788SOL     OW 6262   3.659   4.211   0.645
 1788SOL    HW1 6263   3.621   4.302   0.661
 1788SOL    HW2 6264   3.756   4.211   0.667
 1789SOL     OW 6265   6.218   2.840   3.292
 1789SOL    HW1 6266   6.265   2.922   3.259
 1789SOL    HW2 6267   6.132   2.865   3.336
 1790SOL     OW 6268   2.499   2.619   4.591
 1790SOL    HW1 6269   2.505   2.703   4.536
 1790SOL    HW2 6270   2.551   2.546   4.547
 1791SOL     OW 6271   6.028   0.454   3.529
 1791SOL    HW1 6272   5.982   0.533   3.569
 1791SOL    HW2 6273   6.057   0.477   3.436
 1792SOL     OW 6274   0.085   3.417   6.035
 1792SOL    HW1 6275   0.053   3.449   5.945
 1792SOL    HW2 6276   0.006   3.406   6.096
 1793SOL     OW 6277   0.388   1.886   4.797
 1793SOL    HW1 6278   0.364   1.853   4.705
 1793SOL    HW2 6279   0.408   1.984   4.792
 1794SOL     OW 6280   6.998   2.098   6.423
 1794SOL    HW1 6281   6.912   2.048   6.430
 1794SOL    HW2 6282   6.987   2.190   6.461
 1795SOL     OW 6283   6.252   4.189   0.748
 1795SOL    HW1 6284   6.186   4.117   0.730
 1795SOL    HW2 6285   6.219   4.247   0.823
 1796SOL     OW 6286   6.245   0.071   6.834
 1796SOL    HW1 6287   6.179   0.056   6.908
 1796SOL    HW2 6288   6.310   7.018   6.830
 1797SOL     OW 6289   3.102   5.958   6.010
 1797SOL    HW1 6290   3.171   5.937   6.079
 1797SOL    HW2 6291   3.070   5.873   5.969
 1798SOL     OW 6292   2.526   4.141   6.887
 1798SOL    HW1 6293   2.494   4.234   6.873
 1798SOL    HW2 6294   2.562   4.131   6.980
 1799SOL     OW 6295   4.191   1.806   1.594
 1799SOL    HW1 6296   4.132   1.844   1.666
 1799SOL    HW2 6297   4.276   1.772   1.635
 1800SOL     OW 6298   5.672   2.429   5.838
 1800SOL    HW1 6299   5.645   2.333   5.831
 1800SOL    HW2 6300   5.691   2.452   5.933
 1801SOL     OW 6301   0.584   1.827   2.019
 1801SOL    HW1 6302   0.652   1.811   1.948
 1801SOL    HW2 6303   0.531   1.909   1.996
 1802SOL     OW 6304   6.310   4.519   4.713
 1802SOL    HW1 6305   6.310   4.565   4.802
 1802SOL    HW2 6306   6.284   4.584   4.641
 1803SOL     OW 6307   6.220   6.700   4.030
 1803SOL    HW1 6308   6.158   6.774   4.003
 1803SOL    HW2 6309   6.303   6.740   4.070
 1804SOL     OW 6310   1.397   3.097   6.509
 1804SOL    HW1 6311   1.327   3.165   6.528
 1804SOL    HW2 6312   1.390   3.066   6.414
 1805SOL     OW 6313   6.410   5.196   5.932
 1805SOL    HW1 6314   6.342   5.165   5.866
 1805SOL    HW2 6315   6.487   5.131   5.933
 1806SOL     OW 6316   0.449   1.223   2.014
 1806SOL    HW1 6317   0.475   1.184   1.925
 1806SOL    HW2 6318   0.415   1.316   2.000
 1807SOL     OW 6319   6.283   2.723   2.383
 1807SOL    HW1 6320   6.268   2.769   2.471
 1807SOL    HW2 6321   6.295   2.625   2.399
 1808SOL     OW 6322   6.666   0.670   0.304
 1808SOL    HW1 6323   6.703   0.653   0.213
 1808SOL    HW2 6324   6.570   0.696   0.296
 1809SOL     OW 6325   4.027   0.341   4.620
 1809SOL    HW1 6326   4.003   0.245   4.635
 1809SOL    HW2 6327   4.126   0.352   4.632
 1810SOL     OW 6328   1.390   1.007   4.674
 1810SOL    HW1 6329   1.406   0.994   4.771
 1810SOL    HW2 6330   1.396   1.105   4.652
 1811SOL     OW 6331   3.364   5.407   1.630
 1811SOL    HW1 6332   3.350   5.310   1.610
 1811SOL    HW2 6333   3.459   5.422   1.655
 1812SOL     OW 6334   3.991   1.035   6.898
 1812SOL    HW1 6335   3.999   1.132   6.873
 1812SOL    HW2 6336   3.894   1.012   6.911
 1813SOL     OW 6337   6.002   3.740   1.660
 1813SOL    HW1 6338   5.940   3.665   1.638
 1813SOL    HW2 6339   5.962   3.826   1.629
 1814SOL     OW 6340   6.602   5.707   1.177
 1814SOL    HW1 6341   6.593   5.764   1.096
 1814SOL    HW2 6342   6.698   5.677   1.186
 1815SOL     OW 6343   6.531   5.349   1.174
 1815SOL    HW1 6344   6.534   5.379   1.270
 1815SOL    HW2 6345   6.438   5.356   1.140
 1816SOL     OW 6346   3.748   5.023   4.447
 1816SOL    HW1 6347   3.831   4.979   4.482
 1816SOL    HW2 6348   3.670   4.994   4.501
 1817SOL     OW 6349   6.321   2.705   4.203
 1817SOL    HW1 6350   6.395   2.707   4.270
 1817SOL    HW2 6351   6.233   2.702   4.252
 1818SOL     OW 6352   1.948   2.169   0.144
 1818SOL    HW1 6353   1.892   2.239   0.099
 1818SOL    HW2 6354   1.963   2.194   0.239
 1819SOL     OW 6355   0.587   3.226   0.549
 1819SOL    HW1 6356   0.657   3.155   0.546
 1819SOL    HW2 6357   0.536   3.227   0.463
 1820SOL     OW 6358   3.537   6.486   4.806
 1820SOL    HW1 6359   3.573   6.579   4.806
 1820SOL    HW2 6360   3.560   6.442   4.893
 1821SOL     OW 6361   4.352   1.170   2.781
 1821SOL    HW1 6362   4.325   1.074   2.789
 1821SOL    HW2 6363   4.443   1.182   2.823
 1822SOL     OW 6364   2.214   4.517   4.933
 1822SOL    HW1 6365   2.294   4.577   4.933
 1822SOL    HW2 6366   2.155   4.540   4.856
 1823SOL     OW 6367   4.394   0.010   4.573
 1823SOL    HW1 6368   4.441   6.978   4.643
 1823SOL    HW2 6369   4.365   6.973   4.499
 1824SOL     OW 6370   4.522   2.791   1.726
 1824SOL    HW1 6371   4.540   2.871   1.784
 1824SOL    HW2 6372   4.461   2.817   1.652
 1825SOL     OW 6373   1.396   3.488   0.410
 1825SOL    HW1 6374   1.344   3.414   0.366
 1825SOL    HW2 6375   1.386   3.572   0.357
 1826SOL     OW 6376   4.055   3.347   6.695
 1826SOL    HW1 6377   3.972   3.291   6.698
 1826SOL    HW2 6378   4.038   3.434   6.743
 1827SOL     OW 6379   5.248   4.771   0.833
 1827SOL    HW1 6380   5.329   4.828   0.814
 1827SOL    HW2 6381   5.167   4.830   0.837
 1828SOL     OW 6382   2.857   5.409   4.904
 1828SOL    HW1 6383   2.765   5.370   4.907
 1828SOL    HW2 6384   2.906   5.386   4.989
 1829SOL     OW 6385   2.150   6.330   2.392
 1829SOL    HW1 6386   2.191   6.407   2.441
 1829SOL    HW2 6387   2.099   6.273   2.457
 1830SOL     OW 6388   4.387   1.120   6.952
 1830SOL    HW1 6389   4.337   1.075   6.878
 1830SOL    HW2 6390   4.443   1.195   6.914
 1831SOL     OW 6391   3.807   4.346   6.643
 1831SOL    HW1 6392   3.875   4.355   6.715
 1831SOL    HW2 6393   3.723   4.394   6.670
 1832SOL     OW 6394   2.292   2.488   5.566
 1832SOL    HW1 6395   2.291   2.560   5.636
 1832SOL    HW2 6396   2.209   2.493   5.511
 1833SOL     OW 6397   5.685   1.774   0.219
 1833SOL    HW1 6398   5.736   1.737   0.141
 1833SOL    HW2 6399   5.587   1.760   0.205
 1834SOL     OW 6400   1.792   3.517   6.702
 1834SOL    HW1 6401   1.775   3.616   6.697
 1834SOL    HW2 6402   1.777   3.486   6.796
 1835SOL     OW 6403   6.371   0.329   6.902
 1835SOL    HW1 6404   6.345   0.235   6.925
 1835SOL    HW2 6405   6.372   0.340   6.803
 1836SOL     OW 6406   6.153   1.333   4.859
 1836SOL    HW1 6407   6.128   1.410   4.800
 1836SOL    HW2 6408   6.142   1.248   4.809
 1837SOL     OW 6409   1.198   1.832   1.157
 1837SOL    HW1 6410   1.102   1.803   1.154
 1837SOL    HW2 6411   1.253   1.760   1.200
 1838SOL     OW 6412   5.112   0.223   0.315
 1838SOL    HW1 6413   5.211   0.233   0.323
 1838SOL    HW2 6414   5.070   0.313   0.304
 1839SOL     OW 6415   0.189   2.207   6.580
 1839SOL    HW1 6416   0.231   2.170   6.663
 1839SOL    HW2 6417   0.122   2.142   6.544
 1840SOL     OW 6418   2.403   6.821   5.573
 1840SOL    HW1 6419   2.456   6.814   5.488
 1840SOL    HW2 6420   2.416   6.912   5.612
 1841SOL     OW 6421   2.727   0.015   1.900
 1841SOL    HW1 6422   2.653   7.018   1.964
 1841SOL    HW2 6423   2.708   0.100   1.851
 1842SOL     OW 6424   0.393   4.801   1.833
 1842SOL    HW1 6425   0.389   4.895   1.801
 1842SOL    HW2 6426   0.453   4.748   1.773
 1843SOL     OW 6427   3.932   0.975   6.640
 1843SOL    HW1 6428   3.882   1.052   6.600
 1843SOL    HW2 6429   3.973   1.004   6.727
 1844SOL     OW 6430   5.379   3.532   1.372
 1844SOL    HW1 6431   5.294   3.479   1.377
 1844SOL    HW2 6432   5.411   3.535   1.278
 1845SOL     OW 6433   0.552   2.660   4.843
 1845SOL    HW1 6434   0.470   2.682   4.897
 1845SOL    HW2 6435   0.603   2.745   4.825
 1846SOL     OW 6436   3.710   1.394   2.279
 1846SOL    HW1 6437   3.791   1.449   2.299
 1846SOL    HW2 6438   3.695   1.391   2.181
 1847SOL     OW 6439   3.004   5.785   6.823
 1847SOL    HW1 6440   3.067   5.862   6.821
 1847SOL    HW2 6441   3.036   5.718   6.892
 1848SOL     OW 6442   3.307   6.013   4.400
 1848SOL    HW1 6443   3.344   6.031   4.491
 1848SOL    HW2 6444   3.366   5.950   4.351
 1849SOL     OW 6445   4.788   2.772   2.230
 1849SOL    HW1 6446   4.831   2.776   2.140
 1849SOL    HW2 6447   4.737   2.687   2.239
 1850SOL     OW 6448   4.809   1.042   0.517
 1850SOL    HW1 6449   4.741   0.980   0.479
 1850SOL    HW2 6450   4.863   1.083   0.443
 1851SOL     OW 6451   1.364   5.121   3.759
 1851SOL    HW1 6452   1.294   5.166   3.703
 1851SOL    HW2 6453   1.331   5.030   3.786
 1852SOL     OW 6454   0.089   0.147   4.265
 1852SOL    HW1 6455   0.002   0.188   4.294
 1852SOL    HW2 6456   0.109   0.174   4.171
 1853SOL     OW 6457   1.343   1.998   5.049
 1853SOL    HW1 6458   1.343   1.909   5.095
 1853SOL    HW2 6459   1.333   1.985   4.950
 1854SOL     OW 6460   1.105   6.931   3.994
 1854SOL    HW1 6461   1.153   6.860   3.943
 1854SOL    HW2 6462   1.111   6.912   4.092
 1855SOL     OW 6463   6.396   1.484   5.314
 1855SOL    HW1 6464   6.444   1.532   5.387
 1855SOL    HW2 6465   6.435   1.393   5.301
 1856SOL     OW 6466   4.574   3.688   7.016
 1856SOL    HW1 6467   4.612   3.661   0.081
 1856SOL    HW2 6468   4.576   3.788   7.008
 1857SOL     OW 6469   4.663   0.402   6.763
 1857SOL    HW1 6470   4.637   0.307   6.742
 1857SOL    HW2 6471   4.737   0.403   6.830
 1858SOL     OW 6472   4.511   2.075   4.495
 1858SOL    HW1 6473   4.448   1.998   4.503
 1858SOL    HW2 6474   4.487   2.145   4.563
 1859SOL     OW 6475   6.192   6.235   3.099
 1859SOL    HW1 6476   6.193   6.298   3.177
 1859SOL    HW2 6477   6.119   6.167   3.113
 1860SOL     OW 6478   2.428   0.614   0.685
 1860SOL    HW1 6479   2.382   0.627   0.597
 1860SOL    HW2 6480   2.450   0.703   0.725
 1861SOL     OW 6481   6.551   6.833   5.560
 1861SOL    HW1 6482   6.542   6.771   5.638
 1861SOL    HW2 6483   6.647   6.859   5.549
 1862SOL     OW 6484   4.084   4.913   4.801
 1862SOL    HW1 6485   4.109   4.839   4.864
 1862SOL    HW2 6486   4.150   4.987   4.809
 1863SOL     OW 6487   0.097   1.080   0.992
 1863SOL    HW1 6488   0.153   1.054   0.914
 1863SOL    HW2 6489   0.141   1.156   1.041
 1864SOL     OW 6490   2.460   5.733   2.293
 1864SOL    HW1 6491   2.525   5.658   2.302
 1864SOL    HW2 6492   2.451   5.759   2.197
 1865SOL     OW 6493   6.142   2.504   6.196
 1865SOL    HW1 6494   6.228   2.476   6.238
 1865SOL    HW2 6495   6.111   2.590   6.239
 1866SOL     OW 6496   6.859   4.351   5.089
 1866SOL    HW1 6497   6.877   4.449   5.086
 1866SOL    HW2 6498   6.850   4.321   5.185
 1867SOL     OW 6499   1.557   0.331   0.506
 1867SOL    HW1 6500   1.649   0.362   0.531
 1867SOL    HW2 6501   1.541   0.350   0.410
 1868SOL     OW 6502   6.105   3.795   6.093
 1868SOL    HW1 6503   6.084   3.793   5.996
 1868SOL    HW2 6504   6.168   3.721   6.116
 1869SOL     OW 6505   4.980   0.904   5.056
 1869SOL    HW1 6506   5.046   0.902   5.131
 1869SOL    HW2 6507   4.887   0.901   5.094
 1870SOL     OW 6508   5.951   1.331   5.650
 1870SOL    HW1 6509   5.896   1.290   5.577
 1870SOL    HW2 6510   5.891   1.371   5.718
 1871SOL     OW 6511   2.767   4.743   6.957
 1871SOL    HW1 6512   2.798   4.743   6.862
 1871SOL    HW2 6513   2.699   4.671   6.970
 1872SOL     OW 6514   2.308   3.588   6.728
 1872SOL    HW1 6515   2.257   3.671   6.704
 1872SOL    HW2 6516   2.318   3.531   6.647
 1873SOL     OW 6517   6.096   1.080   1.893
 1873SOL    HW1 6518   6.021   1.045   1.836
 1873SOL    HW2 6519   6.180   1.031   1.871
 1874SOL     OW 6520   2.438   5.183   6.874
 1874SOL    HW1 6521   2.454   5.183   6.775
 1874SOL    HW2 6522   2.474   5.098   6.913
 1875SOL     OW 6523   1.110   5.928   2.291
 1875SOL    HW1 6524   1.111   6.008   2.351
 1875SOL    HW2 6525   1.104   5.958   2.195
 1876SOL     OW 6526   0.789   4.975   5.427
 1876SOL    HW1 6527   0.805   4.951   5.331
 1876SOL    HW2 6528   0.790   4.892   5.483
 1877SOL     OW 6529   0.252   0.804   3.580
 1877SOL    HW1 6530   0.274   0.860   3.500
 1877SOL    HW2 6531   0.153   0.795   3.588
 1878SOL     OW 6532   5.720   3.960   4.298
 1878SOL    HW1 6533   5.699   3.876   4.347
 1878SOL    HW2 6534   5.809   3.951   4.253
 1879SOL     OW 6535   3.968   6.298   4.985
 1879SOL    HW1 6536   3.967   6.214   4.929
 1879SOL    HW2 6537   4.013   6.371   4.934
 1880SOL     OW 6538   1.984   3.921   4.278
 1880SOL    HW1 6539   1.986   3.822   4.260
 1880SOL    HW2 6540   1.893   3.957   4.260
 1881SOL     OW 6541   2.999   2.209   2.886
 1881SOL    HW1 6542   2.953   2.134   2.838
 1881SOL    HW2 6543   3.018   2.283   2.822
 1882SOL     OW 6544   4.340   0.051   7.022
 1882SOL    HW1 6545   4.396   0.037   0.081
 1882SOL    HW2 6546   4.304   6.986   6.992
 1883SOL     OW 6547   2.081   3.652   3.185
 1883SOL    HW1 6548   2.132   3.566   3.185
 1883SOL    HW2 6549   1.984   3.632   3.197
 1884SOL     OW 6550   4.747   0.811   0.357
 1884SOL    HW1 6551   4.764   0.840   0.263
 1884SOL    HW2 6552   4.816   0.744   0.385
 1885SOL     OW 6553   0.191   1.667   1.172
 1885SOL    HW1 6554   0.181   1.754   1.123
 1885SOL    HW2 6555   0.101   1.631   1.195
 1886SOL     OW 6556   3.764   3.051   4.822
 1886SOL    HW1 6557   3.708   3.048   4.739
 1886SOL    HW2 6558   3.733   3.125   4.881
 1887SOL     OW 6559   0.554   5.735   5.765
 1887SOL    HW1 6560   0.618   5.676   5.717
 1887SOL    HW2 6561   0.547   5.705   5.861
 1888SOL     OW 6562   2.098   1.691   5.720
 1888SOL    HW1 6563   2.171   1.639   5.764
 1888SOL    HW2 6564   2.026   1.628   5.688
 1889SOL     OW 6565   3.735   3.898   6.968
 1889SOL    HW1 6566   3.659   3.834   6.967
 1889SOL    HW2 6567   3.702   3.989   6.989
 1890SOL     OW 6568   6.165   6.756   6.516
 1890SOL    HW1 6569   6.095   6.827   6.526
 1890SOL    HW2 6570   6.186   6.743   6.419
 1891SOL     OW 6571   5.016   3.440   6.998
 1891SOL    HW1 6572   5.083   3.428   6.925
 1891SOL    HW2 6573   5.014   3.358   0.033
 1892SOL     OW 6574   3.683   1.068   3.373
 1892SOL    HW1 6575   3.671   1.094   3.278
 1892SOL    HW2 6576   3.594   1.048   3.414
 1893SOL     OW 6577   2.801   2.415   6.880
 1893SOL    HW1 6578   2.802   2.513   6.901
 1893SOL    HW2 6579   2.788   2.363   6.964
 1894SOL     OW 6580   5.285   3.082   1.223
 1894SOL    HW1 6581   5.243   3.006   1.273
 1894SOL    HW2 6582   5.324   3.147   1.288
 1895SOL     OW 6583   4.295   5.801   3.192
 1895SOL    HW1 6584   4.251   5.836   3.275
 1895SOL    HW2 6585   4.392   5.784   3.209
 1896SOL     OW 6586   0.106   1.555   4.462
 1896SOL    HW1 6587   0.019   1.600   4.442
 1896SOL    HW2 6588   0.089   1.463   4.497
 1897SOL     OW 6589   5.256   5.185   3.509
 1897SOL    HW1 6590   5.157   5.183   3.523
 1897SOL    HW2 6591   5.282   5.271   3.466
 1898SOL     OW 6592   4.953   6.045   0.604
 1898SOL    HW1 6593   4.960   6.062   0.702
 1898SOL    HW2 6594   4.928   6.129   0.557
 1899SOL     OW 6595   1.714   3.257   4.318
 1899SOL    HW1 6596   1.785   3.188   4.308
 1899SOL    HW2 6597   1.666   3.269   4.231
 1900SOL     OW 6598   2.599   5.824   1.363
 1900SOL    HW1 6599   2.692   5.840   1.329
 1900SOL    HW2 6600   2.539   5.899   1.333
 1901SOL     OW 6601   0.367   1.623   6.438
 1901SOL    HW1 6602   0.464   1.614   6.457
 1901SOL    HW2 6603   0.343   1.720   6.430
 1902SOL     OW 6604   1.506   2.504   4.793
 1902SOL    HW1 6605   1.537   2.485   4.699
 1902SOL    HW2 6606   1.418   2.550   4.790
 1903SOL     OW 6607   6.968   6.441   3.966
 1903SOL    HW1 6608   6.963   6.522   3.908
 1903SOL    HW2 6609   0.038   6.402   3.961
 1904SOL     OW 6610   0.743   0.733   3.998
 1904SOL    HW1 6611   0.711   0.818   4.040
 1904SOL    HW2 6612   0.724   0.656   4.059
 1905SOL     OW 6613   5.650   2.836   6.188
 1905SOL    HW1 6614   5.678   2.753   6.235
 1905SOL    HW2 6615   5.646   2.911   6.254
 1906SOL     OW 6616   2.331   5.725   5.688
 1906SOL    HW1 6617   2.405   5.735   5.621
 1906SOL    HW2 6618   2.244   5.749   5.644
 1907SOL     OW 6619   4.408   6.892   3.184
 1907SOL    HW1 6620   4.415   6.938   3.095
 1907SOL    HW2 6621   4.315   6.861   3.198
 1908SOL     OW 6622   5.495   4.308   1.030
 1908SOL    HW1 6623   5.467   4.403   1.046
 1908SOL    HW2 6624   5.572   4.307   0.967
 1909SOL     OW 6625   4.926   5.415   4.031
 1909SOL    HW1 6626   4.898   5.450   3.941
 1909SOL    HW2 6627   4.979   5.331   4.018
 1910SOL     OW 6628   5.639   3.564   4.055
 1910SOL    HW1 6629   5.619   3.563   4.153
 1910SOL    HW2 6630   5.565   3.519   4.005
 1911SOL     OW 6631   0.827   2.438   5.591
 1911SOL    HW1 6632   0.799   2.417   5.685
 1911SOL    HW2 6633   0.858   2.353   5.547
 1912SOL     OW 6634   3.679   0.469   2.155
 1912SOL    HW1 6635   3.648   0.413   2.231
 1912SOL    HW2 6636   3.740   0.541   2.189
 1913SOL     OW 6637   2.974   4.170   6.737
 1913SOL    HW1 6638   2.923   4.085   6.748
 1913SOL    HW2 6639   2.915   4.240   6.697
 1914SOL     OW 6640   4.285   1.480   5.182
 1914SOL    HW1 6641   4.224   1.553   5.214
 1914SOL    HW2 6642   4.246   1.391   5.208
 1915SOL     OW 6643   2.763   6.526   5.255
 1915SOL    HW1 6644   2.774   6.590   5.331
 1915SOL    HW2 6645   2.675   6.542   5.210
 1916SOL     OW 6646   3.765   6.538   3.108
 1916SOL    HW1 6647   3.855   6.537   3.153
 1916SOL    HW2 6648   3.748   6.448   3.068
 1917SOL     OW 6649   3.890   3.890   3.073
 1917SOL    HW1 6650   3.869   3.937   3.160
 1917SOL    HW2 6651   3.910   3.794   3.091
 1918SOL     OW 6652   0.936   6.646   6.438
 1918SOL    HW1 6653   0.994   6.723   6.411
 1918SOL    HW2 6654   0.966   6.563   6.392
 1919SOL     OW 6655   5.495   0.760   2.085
 1919SOL    HW1 6656   5.421   0.784   2.022
 1919SOL    HW2 6657   5.583   0.782   2.044
 1920SOL     OW 6658   6.072   6.724   4.452
 1920SOL    HW1 6659   5.990   6.672   4.478
 1920SOL    HW2 6660   6.153   6.676   4.485
 1921SOL     OW 6661   2.410   6.406   6.911
 1921SOL    HW1 6662   2.504   6.417   6.944
 1921SOL    HW2 6663   2.347   6.409   6.988
 1922SOL     OW 6664   3.546   4.848   6.857
 1922SOL    HW1 6665   3.528   4.893   6.769
 1922SOL    HW2 6666   3.460   4.825   6.902
 1923SOL     OW 6667   1.447   3.149   1.331
 1923SOL    HW1 6668   1.383   3.110   1.398
 1923SOL    HW2 6669   1.529   3.181   1.378
 1924SOL     OW 6670   0.811   4.208   1.669
 1924SOL    HW1 6671   0.880   4.194   1.741
 1924SOL    HW2 6672   0.777   4.119   1.638
 1925SOL     OW 6673   3.423   4.695   0.379
 1925SOL    HW1 6674   3.488   4.745   0.437
 1925SOL    HW2 6675   3.338   4.679   0.431
 1926SOL     OW 6676   0.044   0.266   3.172
 1926SOL    HW1 6677   0.076   0.243   3.264
 1926SOL    HW2 6678   6.986   0.324   3.178
 1927SOL     OW 6679   5.271   3.402   1.778
 1927SOL    HW1 6680   5.184   3.421   1.732
 1927SOL    HW2 6681   5.279   3.459   1.860
 1928SOL     OW 6682   0.430   5.473   4.780
 1928SOL    HW1 6683   0.397   5.379   4.765
 1928SOL    HW2 6684   0.379   5.515   4.855
 1929SOL     OW 6685   1.639   4.716   3.437
 1929SOL    HW1 6686   1.731   4.709   3.477
 1929SOL    HW2 6687   1.607   4.626   3.410
 1930SOL     OW 6688   6.437   5.992   6.063
 1930SOL    HW1 6689   6.365   5.925   6.043
 1930SOL    HW2 6690   6.458   6.043   5.980
 1931SOL     OW 6691   2.194   2.467   3.044
 1931SOL    HW1 6692   2.244   2.542   3.085
 1931SOL    HW2 6693   2.254   2.415   2.983
 1932SOL     OW 6694   5.938   3.333   1.945
 1932SOL    HW1 6695   5.887   3.394   1.884
 1932SOL    HW2 6696   5.892   3.244   1.947
 1933SOL     OW 6697   2.109   5.135   0.442
 1933SOL    HW1 6698   2.108   5.221   0.492
 1933SOL    HW2 6699   2.156   5.065   0.496
 1934SOL     OW 6700   0.060   6.315   3.053
 1934SOL    HW1 6701   7.017   6.369   3.106
 1934SOL    HW2 6702   0.011   6.251   2.995
 1935SOL     OW 6703   1.036   1.656   2.063
 1935SOL    HW1 6704   1.079   1.739   2.100
 1935SOL    HW2 6705   0.985   1.610   2.135
 1936SOL     OW 6706   0.391   6.015   5.049
 1936SOL    HW1 6707   0.475   6.040   5.096
 1936SOL    HW2 6708   0.413   5.965   4.965
 1937SOL     OW 6709   4.432   1.882   3.464
 1937SOL    HW1 6710   4.357   1.817   3.456
 1937SOL    HW2 6711   4.436   1.917   3.558
 1938SOL     OW 6712   4.617   7.001   3.716
 1938SOL    HW1 6713   4.586   7.020   3.809
 1938SOL    HW2 6714   4.542   7.013   3.652
 1939SOL     OW 6715   2.650   0.862   4.162
 1939SOL    HW1 6716   2.733   0.895   4.208
 1939SOL    HW2 6717   2.582   0.837   4.231
 1940SOL     OW 6718   6.670   0.324   6.959
 1940SOL    HW1 6719   6.724   0.333   0.020
 1940SOL    HW2 6720   6.579   0.360   6.974
 1941SOL     OW 6721   4.495   5.002   2.712
 1941SOL    HW1 6722   4.421   4.948   2.672
 1941SOL    HW2 6723   4.581   4.981   2.665
 1942SOL     OW 6724   0.275   3.552   2.695
 1942SOL    HW1 6725   0.336   3.506   2.761
 1942SOL    HW2 6726   0.180   3.532   2.719
 1943SOL     OW 6727   3.463   5.377   3.423
 1943SOL    HW1 6728   3.450   5.378   3.324
 1943SOL    HW2 6729   3.527   5.449   3.449
 1944SOL     OW 6730   6.565   6.366   1.642
 1944SOL    HW1 6731   6.583   6.450   1.592
 1944SOL    HW2 6732   6.468   6.359   1.663
 1945SOL     OW 6733   3.014   5.126   2.282
 1945SOL    HW1 6734   3.005   5.073   2.198
 1945SOL    HW2 6735   2.994   5.222   2.263
 1946SOL     OW 6736   1.313   6.558   6.614
 1946SOL    HW1 6737   1.242   6.627   6.619
 1946SOL    HW2 6738   1.335   6.526   6.706
 1947SOL     OW 6739   4.349   1.430   3.626
 1947SOL    HW1 6740   4.272   1.413   3.689
 1947SOL    HW2 6741   4.421   1.480   3.675
 1948SOL     OW 6742   6.401   2.892   5.131
 1948SOL    HW1 6743   6.430   2.961   5.197
 1948SOL    HW2 6744   6.308   2.863   5.154
 1949SOL     OW 6745   4.626   3.391   6.977
 1949SOL    HW1 6746   4.668   3.436   0.033
 1949SOL    HW2 6747   4.542   3.438   6.952
 1950SOL     OW 6748   2.190   4.951   0.900
 1950SOL    HW1 6749   2.107   4.999   0.927
 1950SOL    HW2 6750   2.259   4.961   0.972
 1951SOL     OW 6751   5.676   3.085   6.308
 1951SOL    HW1 6752   5.629   3.116   6.391
 1951SOL    HW2 6753   5.765   3.048   6.332
 1952SOL     OW 6754   2.910   3.520   3.291
 1952SOL    HW1 6755   2.923   3.619   3.297
 1952SOL    HW2 6756   2.843   3.500   3.219
 1953SOL     OW 6757   0.536   1.989   4.502
 1953SOL    HW1 6758   0.505   1.894   4.507
 1953SOL    HW2 6759   0.458   2.049   4.482
 1954SOL     OW 6760   2.012   2.350   4.196
 1954SOL    HW1 6761   1.969   2.430   4.154
 1954SOL    HW2 6762   2.108   2.371   4.217
 1955SOL     OW 6763   6.345   5.741   2.897
 1955SOL    HW1 6764   6.294   5.794   2.829
 1955SOL    HW2 6765   6.295   5.740   2.983
 1956SOL     OW 6766   3.729   6.010   3.423
 1956SOL    HW1 6767   3.784   5.943   3.372
 1956SOL    HW2 6768   3.788   6.081   3.460
 1957SOL     OW 6769   2.399   5.815   5.944
 1957SOL    HW1 6770   2.390   5.776   5.852
 1957SOL    HW2 6771   2.316   5.795   5.996
 1958SOL     OW 6772   4.342   3.464   6.021
 1958SOL    HW1 6773   4.366   3.547   5.971
 1958SOL    HW2 6774   4.297   3.400   5.959
 1959SOL     OW 6775   3.095   0.241   0.948
 1959SOL    HW1 6776   3.064   0.255   1.042
 1959SOL    HW2 6777   3.019   0.255   0.885
 1960SOL     OW 6778   4.754   5.300   3.061
 1960SOL    HW1 6779   4.747   5.200   3.058
 1960SOL    HW2 6780   4.665   5.340   3.040
 1961SOL     OW 6781   5.822   4.536   5.049
 1961SOL    HW1 6782   5.849   4.556   4.955
 1961SOL    HW2 6783   5.725   4.555   5.061
 1962SOL     OW 6784   0.792   6.624   4.062
 1962SOL    HW1 6785   0.798   6.724   4.056
 1962SOL    HW2 6786   0.884   6.584   4.057
 1963SOL     OW 6787   2.490   1.269   3.422
 1963SOL    HW1 6788   2.559   1.210   3.464
 1963SOL    HW2 6789   2.461   1.338   3.489
 1964SOL     OW 6790   6.511   2.591   2.156
 1964SOL    HW1 6791   6.441   2.525   2.131
 1964SOL    HW2 6792   6.562   2.558   2.235
 1965SOL     OW 6793   1.787   0.009   3.436
 1965SOL    HW1 6794   1.833   7.010   3.350
 1965SOL    HW2 6795   1.840   6.994   3.512
 1966SOL     OW 6796   6.641   6.425   0.172
 1966SOL    HW1 6797   6.739   6.437   0.188
 1966SOL    HW2 6798   6.624   6.420   0.073
 1967SOL     OW 6799   6.476   2.402   4.614
 1967SOL    HW1 6800   6.509   2.330   4.675
 1967SOL    HW2 6801   6.554   2.440   4.563
 1968SOL     OW 6802   4.469   5.665   4.263
 1968SOL    HW1 6803   4.406   5.588   4.254
 1968SOL    HW2 6804   4.539   5.658   4.192
 1969SOL     OW 6805   6.137   0.783   1.725
 1969SOL    HW1 6806   6.082   0.707   1.760
 1969SOL    HW2 6807   6.206   0.808   1.792
 1970SOL     OW 6808   2.346   1.805   4.979
 1970SOL    HW1 6809   2.431   1.826   4.931
 1970SOL    HW2 6810   2.270   1.807   4.915
 1971SOL     OW 6811   0.322   1.419   6.245
 1971SOL    HW1 6812   0.320   1.480   6.325
 1971SOL    HW2 6813   0.309   1.473   6.162
 1972SOL     OW 6814   1.118   6.780   3.653
 1972SOL    HW1 6815   1.143   6.761   3.748
 1972SOL    HW2 6816   1.063   6.864   3.649
 1973SOL     OW 6817   3.420   3.048   0.128
 1973SOL    HW1 6818   3.412   2.950   0.110
 1973SOL    HW2 6819   3.366   3.099   0.061
 1974SOL     OW 6820   6.015   6.083   4.445
 1974SOL    HW1 6821   6.040   6.099   4.350
 1974SOL    HW2 6822   5.986   5.988   4.455
 1975SOL     OW 6823   2.380   6.909   3.898
 1975SOL    HW1 6824   2.448   6.981   3.886
 1975SOL    HW2 6825   2.301   6.945   3.949
 1976SOL     OW 6826   6.261   4.650   6.111
 1976SOL    HW1 6827   6.316   4.685   6.187
 1976SOL    HW2 6828   6.292   4.690   6.025
 1977SOL     OW 6829   3.246   2.030   5.026
 1977SOL    HW1 6830   3.190   2.113   5.024
 1977SOL    HW2 6831   3.342   2.053   5.010
 1978SOL     OW 6832   0.208   2.597   4.904
 1978SOL    HW1 6833   0.134   2.574   4.841
 1978SOL    HW2 6834   0.212   2.530   4.978
 1979SOL     OW 6835   0.038   4.250   2.649
 1979SOL    HW1 6836   7.013   4.175   2.695
 1979SOL    HW2 6837   0.019   4.247   2.551
 1980SOL     OW 6838   2.460   0.605   2.976
 1980SOL    HW1 6839   2.532   0.550   3.018
 1980SOL    HW2 6840   2.486   0.701   2.978
 1981SOL     OW 6841   5.627   3.166   2.209
 1981SOL    HW1 6842   5.546   3.221   2.230
 1981SOL    HW2 6843   5.705   3.227   2.192
 1982SOL     OW 6844   0.076   6.644   5.369
 1982SOL    HW1 6845   0.159   6.629   5.315
 1982SOL    HW2 6846   0.019   6.561   5.366
 1983SOL     OW 6847   1.018   5.033   1.529
 1983SOL    HW1 6848   0.926   5.068   1.513
 1983SOL    HW2 6849   1.017   4.933   1.529
 1984SOL     OW 6850   4.240   0.727   5.750
 1984SOL    HW1 6851   4.197   0.768   5.669
 1984SOL    HW2 6852   4.252   0.629   5.735
 1985SOL     OW 6853   1.054   5.577   1.846
 1985SOL    HW1 6854   0.973   5.525   1.819
 1985SOL    HW2 6855   1.084   5.546   1.936
 1986SOL     OW 6856   6.281   2.335   0.734
 1986SOL    HW1 6857   6.241   2.424   0.755
 1986SOL    HW2 6858   6.349   2.345   0.661
 1987SOL     OW 6859   2.257   3.380   0.152
 1987SOL    HW1 6860   2.176   3.327   0.128
 1987SOL    HW2 6861   2.292   3.350   0.240
 1988SOL     OW 6862   4.991   2.660   1.204
 1988SOL    HW1 6863   4.910   2.618   1.163
 1988SOL    HW2 6864   4.962   2.724   1.275
 1989SOL     OW 6865   2.745   2.362   3.259
 1989SOL    HW1 6866   2.694   2.279   3.240
 1989SOL    HW2 6867   2.699   2.440   3.216
 1990SOL     OW 6868   1.128   0.082   2.833
 1990SOL    HW1 6869   1.190   0.080   2.911
 1990SOL    HW2 6870   1.033   0.084   2.866
 1991SOL     OW 6871   4.951   5.654   2.770
 1991SOL    HW1 6872   5.003   5.739   2.778
 1991SOL    HW2 6873   5.006   5.578   2.801
 1992SOL     OW 6874   2.126   5.652   5.152
 1992SOL    HW1 6875   2.208   5.606   5.186
 1992SOL    HW2 6876   2.112   5.630   5.056
 1993SOL     OW 6877   3.350   3.154   4.095
 1993SOL    HW1 6878   3.353   3.066   4.049
 1993SOL    HW2 6879   3.355   3.141   4.194
 1994SOL     OW 6880   6.484   1.898   1.311
 1994SOL    HW1 6881   6.396   1.894   1.358
 1994SOL    HW2 6882   6.490   1.983   1.259
 1995SOL     OW 6883   4.213   2.633   1.630
 1995SOL    HW1 6884   4.261   2.549   1.657
 1995SOL    HW2 6885   4.116   2.613   1.616
 1996SOL     OW 6886   2.206   5.180   5.615
 1996SOL    HW1 6887   2.274   5.205   5.683
 1996SOL    HW2 6888   2.223   5.087   5.583
 1997SOL     OW 6889   5.421   6.047   4.540
 1997SOL    HW1 6890   5.374   6.094   4.615
 1997SOL    HW2 6891   5.510   6.014   4.572
 1998SOL     OW 6892   3.430   4.924   4.851
 1998SOL    HW1 6893   3.479   4.975   4.922
 1998SOL    HW2 6894   3.377   4.851   4.894
 1999SOL     OW 6895   3.364   1.723   2.008
 1999SOL    HW1 6896   3.351   1.670   1.924
 1999SOL    HW2 6897   3.408   1.666   2.077
 2000SOL     OW 6898   2.544   1.488   5.425
 2000SOL    HW1 6899   2.594   1.574   5.416
 2000SOL    HW2 6900   2.451   1.500   5.391
 2001SOL     OW 6901   2.111   2.970   0.016
 2001SOL    HW1 6902   2.104   3.069   0.006
 2001SOL    HW2 6903   2.207   2.944   0.027
 2002SOL     OW 6904   1.687   4.825   4.915
 2002SOL    HW1 6905   1.592   4.854   4.918
 2002SOL    HW2 6906   1.741   4.882   4.978
 2003SOL     OW 6907   6.415   3.659   3.342
 2003SOL    HW1 6908   6.326   3.678   3.383
 2003SOL    HW2 6909   6.418   3.695   3.249
 2004SOL     OW 6910   3.175   0.108   6.741
 2004SOL    HW1 6911   3.138   0.067   6.658
 2004SOL    HW2 6912   3.132   0.066   6.821
 2005SOL     OW 6913   2.570   6.793   5.366
 2005SOL    HW1 6914   2.507   6.816   5.291
 2005SOL    HW2 6915   2.661   6.831   5.346
 2006SOL     OW 6916   4.679   0.067   2.936
 2006SOL    HW1 6917   4.613   7.015   2.934
 2006SOL    HW2 6918   4.753   0.044   3.000
 2007SOL     OW 6919   0.087   5.365   6.989
 2007SOL    HW1 6920   0.002   5.408   7.021
 2007SOL    HW2 6921   0.068   5.311   6.907
 2008SOL     OW 6922   0.387   6.032   5.862
 2008SOL    HW1 6923   0.389   5.939   5.826
 2008SOL    HW2 6924   0.346   6.032   5.953
 2009SOL     OW 6925   1.259   0.521   6.834
 2009SOL    HW1 6926   1.266   0.617   6.807
 2009SOL    HW2 6927   1.166   0.502   6.867
 2010SOL     OW 6928   2.537   1.025   1.079
 2010SOL    HW1 6929   2.534   0.959   1.004
 2010SOL    HW2 6930   2.474   0.996   1.151
 2011SOL     OW 6931   6.616   1.671   4.607
 2011SOL    HW1 6932   6.710   1.705   4.607
 2011SOL    HW2 6933   6.603   1.610   4.686
 2012SOL     OW 6934   6.806   3.716   1.930
 2012SOL    HW1 6935   6.823   3.815   1.933
 2012SOL    HW2 6936   6.784   3.690   1.836
 2013SOL     OW 6937   3.708   2.535   1.683
 2013SOL    HW1 6938   3.680   2.460   1.743
 2013SOL    HW2 6939   3.658   2.618   1.708
 2014SOL     OW 6940   3.244   5.221   3.509
 2014SOL    HW1 6941   3.194   5.301   3.540
 2014SOL    HW2 6942   3.335   5.248   3.477
 2015SOL     OW 6943   2.642   5.173   0.121
 2015SOL    HW1 6944   2.662   5.271   0.117
 2015SOL    HW2 6945   2.707   5.128   0.182
 2016SOL     OW 6946   6.737   5.535   4.863
 2016SOL    HW1 6947   6.716   5.530   4.765
 2016SOL    HW2 6948   6.652   5.550   4.914
 2017SOL     OW 6949   1.431   5.012   1.517
 2017SOL    HW1 6950   1.390   4.944   1.578
 2017SOL    HW2 6951   1.434   4.976   1.424
 2018SOL     OW 6952   0.248   4.432   5.229
 2018SOL    HW1 6953   0.207   4.353   5.183
 2018SOL    HW2 6954   0.257   4.413   5.326
 2019SOL     OW 6955   4.978   0.400   2.566
 2019SOL    HW1 6956   4.939   0.423   2.477
 2019SOL    HW2 6957   5.078   0.394   2.558
 2020SOL     OW 6958   2.450   5.153   3.169
 2020SOL    HW1 6959   2.540   5.121   3.199
 2020SOL    HW2 6960   2.383   5.135   3.242
 2021SOL     OW 6961   1.971   6.013   2.137
 2021SOL    HW1 6962   1.911   6.025   2.215
 2021SOL    HW2 6963   1.930   5.949   2.072
 2022SOL     OW 6964   3.823   5.451   1.452
 2022SOL    HW1 6965   3.821   5.513   1.373
 2022SOL    HW2 6966   3.898   5.386   1.441
 2023SOL     OW 6967   6.808   2.493   6.045
 2023SOL    HW1 6968   6.883   2.427   6.039
 2023SOL    HW2 6969   6.841   2.583   6.014
 2024SOL     OW 6970   5.058   0.023   3.662
 2024SOL    HW1 6971   5.142   0.019   3.608
 2024SOL    HW2 6972   5.007   0.105   3.638
 2025SOL     OW 6973   6.027   0.981   1.506
 2025SOL    HW1 6974   5.980   0.968   1.593
 2025SOL    HW2 6975   6.126   0.981   1.521
 2026SOL     OW 6976   2.130   2.108   4.742
 2026SOL    HW1 6977   2.208   2.047   4.731
 2026SOL    HW2 6978   2.097   2.103   4.837
 2027SOL     OW 6979   6.351   0.014   2.321
 2027SOL    HW1 6980   6.447   7.011   2.321
 2027SOL    HW2 6981   6.333   0.077   2.245
 2028SOL     OW 6982   3.765   4.171   5.844
 2028SOL    HW1 6983   3.752   4.125   5.756
 2028SOL    HW2 6984   3.682   4.223   5.866
 2029SOL     OW 6985   2.167   0.330   0.160
 2029SOL    HW1 6986   2.189   0.425   0.178
 2029SOL    HW2 6987   2.251   0.279   0.142
 2030SOL     OW 6988   2.086   2.994   2.469
 2030SOL    HW1 6989   2.072   2.993   2.370
 2030SOL    HW2 6990   2.127   2.907   2.497
 2031SOL     OW 6991   5.757   6.867   2.398
 2031SOL    HW1 6992   5.823   6.868   2.473
 2031SOL    HW2 6993   5.796   6.915   2.319
 2032SOL     OW 6994   4.280   6.137   2.378
 2032SOL    HW1 6995   4.255   6.233   2.375
 2032SOL    HW2 6996   4.373   6.127   2.414
 2033SOL     OW 6997   0.050   4.751   6.786
 2033SOL    HW1 6998   0.007   4.831   6.744
 2033SOL    HW2 6999   0.002   4.728   6.871
 2034SOL     OW 7000   2.288   5.490   4.227
 2034SOL    HW1 7001   2.247   5.405   4.195
 2034SOL    HW2 7002   2.234   5.567   4.196
 2035SOL     OW 7003   0.588   1.514   3.320
 2035SOL    HW1 7004   0.548   1.482   3.234
 2035SOL    HW2 7005   0.605   1.612   3.315
 2036SOL     OW 7006   0.868   4.647   1.035
 2036SOL    HW1 7007   0.784   4.592   1.038
 2036SOL    HW2 7008   0.948   4.586   1.042
 2037SOL     OW 7009   0.627   2.898   6.346
 2037SOL    HW1 7010   0.583   2.813   6.373
 2037SOL    HW2 7011   0.580   2.937   6.267
 2038SOL     OW 7012   1.634   7.013   4.841
 2038SOL    HW1 7013   1.650   6.975   4.750
 2038SOL    HW2 7014   1.714   6.996   4.898
 2039SOL     OW 7015   1.179   5.546   2.116
 2039SOL    HW1 7016   1.233   5.630   2.125
 2039SOL    HW2 7017   1.105   5.546   2.184
 2040SOL     OW 7018   4.028   3.125   4.806
 2040SOL    HW1 7019   4.085   3.044   4.794
 2040SOL    HW2 7020   3.932   3.101   4.792
 2041SOL     OW 7021   5.181   3.083   6.908
 2041SOL    HW1 7022   5.258   3.023   6.888
 2041SOL    HW2 7023   5.113   3.076   6.836
 2042SOL     OW 7024   3.160   6.510   0.252
 2042SOL    HW1 7025   3.229   6.514   0.324
 2042SOL    HW2 7026   3.089   6.579   0.271
 2043SOL     OW 7027   5.094   5.553   2.506
 2043SOL    HW1 7028   5.027   5.555   2.580
 2043SOL    HW2 7029   5.078   5.472   2.449
 2044SOL     OW 7030   6.717   0.619   2.202
 2044SOL    HW1 7031   6.642   0.559   2.174
 2044SOL    HW2 7032   6.784   0.567   2.254
 2045SOL     OW 7033   3.483   6.965   5.718
 2045SOL    HW1 7034   3.474   0.041   5.722
 2045SOL    HW2 7035   3.413   6.928   5.657
 2046SOL     OW 7036   5.858   0.443   5.982
 2046SOL    HW1 7037   5.872   0.397   5.894
 2046SOL    HW2 7038   5.768   0.419   6.018
 2047SOL     OW 7039   5.016   3.176   0.095
 2047SOL    HW1 7040   5.051   3.160   0.187
 2047SOL    HW2 7041   5.072   3.127   0.029
 2048SOL     OW 7042   4.530   6.377   5.423
 2048SOL    HW1 7043   4.615   6.422   5.398
 2048SOL    HW2 7044   4.498   6.412   5.512
 2049SOL     OW 7045   5.396   5.675   6.578
 2049SOL    HW1 7046   5.420   5.587   6.536
 2049SOL    HW2 7047   5.467   5.701   6.643
 2050SOL     OW 7048   5.647   1.322   3.332
 2050SOL    HW1 7049   5.615   1.345   3.423
 2050SOL    HW2 7050   5.745   1.303   3.335
 2051SOL     OW 7051   3.143   5.784   1.185
 2051SOL    HW1 7052   3.126   5.752   1.278
 2051SOL    HW2 7053   3.091   5.868   1.169
 2052SOL     OW 7054   1.477   2.507   0.962
 2052SOL    HW1 7055   1.530   2.591   0.952
 2052SOL    HW2 7056   1.524   2.444   1.024
 2053SOL     OW 7057   4.489   0.676   0.423
 2053SOL    HW1 7058   4.585   0.702   0.429
 2053SOL    HW2 7059   4.449   0.716   0.341
 2054SOL     OW 7060   0.705   3.172   1.215
 2054SOL    HW1 7061   0.632   3.234   1.245
 2054SOL    HW2 7062   0.777   3.169   1.285
 2055SOL     OW 7063   6.563   0.862   3.714
 2055SOL    HW1 7064   6.611   0.946   3.739
 2055SOL    HW2 7065   6.602   0.826   3.629
 2056SOL     OW 7066   0.239   6.409   2.300
 2056SOL    HW1 7067   0.177   6.477   2.259
 2056SOL    HW2 7068   0.204   6.317   2.283
 2057SOL     OW 7069   4.916   3.150   4.205
 2057SOL    HW1 7070   5.002   3.099   4.199
 2057SOL    HW2 7071   4.851   3.113   4.139
 2058SOL     OW 7072   0.930   1.386   0.962
 2058SOL    HW1 7073   0.959   1.310   1.021
 2058SOL    HW2 7074   0.934   1.357   0.866
 2059SOL     OW 7075   1.583   0.719   0.044
 2059SOL    HW1 7076   1.614   0.802   0.089
 2059SOL    HW2 7077   1.639   0.641   0.075
 2060SOL     OW 7078   0.578   4.748   3.424
 2060SOL    HW1 7079   0.664   4.770   3.379
 2060SOL    HW2 7080   0.537   4.667   3.381
 2061SOL     OW 7081   1.520   0.328   0.235
 2061SOL    HW1 7082   1.470   0.324   0.148
 2061SOL    HW2 7083   1.616   0.304   0.219
 2062SOL     OW 7084   3.715   0.171   4.041
 2062SOL    HW1 7085   3.736   0.181   4.139
 2062SOL    HW2 7086   3.627   0.125   4.030
 2063SOL     OW 7087   2.530   2.906   1.281
 2063SOL    HW1 7088   2.478   2.960   1.215
 2063SOL    HW2 7089   2.555   2.964   1.359
 2064SOL     OW 7090   0.991   2.001   0.734
 2064SOL    HW1 7091   0.961   1.967   0.645
 2064SOL    HW2 7092   0.954   1.942   0.806
 2065SOL     OW 7093   0.262   2.978   3.031
 2065SOL    HW1 7094   0.199   2.990   3.108
 2065SOL    HW2 7095   0.241   3.045   2.960
 2066SOL     OW 7096   0.807   6.429   3.276
 2066SOL    HW1 7097   0.781   6.499   3.342
 2066SOL    HW2 7098   0.768   6.450   3.187
 2067SOL     OW 7099   0.034   0.626   0.607
 2067SOL    HW1 7100   6.972   0.582   0.577
 2067SOL    HW2 7101   0.104   0.615   0.537
 2068SOL     OW 7102   2.252   2.547   5.079
 2068SOL    HW1 7103   2.329   2.546   5.015
 2068SOL    HW2 7104   2.178   2.603   5.041
 2069SOL     OW 7105   1.591   2.244   1.835
 2069SOL    HW1 7106   1.573   2.157   1.880
 2069SOL    HW2 7107   1.662   2.233   1.766
 2070SOL     OW 7108   0.292   1.830   2.150
 2070SOL    HW1 7109   0.273   1.732   2.155
 2070SOL    HW2 7110   0.379   1.849   2.197
 2071SOL     OW 7111   2.549   5.800   5.536
 2071SOL    HW1 7112   2.546   5.700   5.532
 2071SOL    HW2 7113   2.633   5.829   5.582
 2072SOL     OW 7114   5.485   4.559   2.432
 2072SOL    HW1 7115   5.545   4.637   2.455
 2072SOL    HW2 7116   5.474   4.500   2.512
 2073SOL     OW 7117   3.153   6.388   5.012
 2073SOL    HW1 7118   3.216   6.360   4.940
 2073SOL    HW2 7119   3.153   6.321   5.086
 2074SOL     OW 7120   5.374   1.825   2.845
 2074SOL    HW1 7121   5.390   1.821   2.943
 2074SOL    HW2 7122   5.451   1.872   2.800
 2075SOL     OW 7123   3.634   3.193   6.672
 2075SOL    HW1 7124   3.598   3.255   6.602
 2075SOL    HW2 7125   3.606   3.226   6.762
 2076SOL     OW 7126   5.103   6.493   0.403
 2076SOL    HW1 7127   5.134   6.411   0.356
 2076SOL    HW2 7128   5.100   6.569   0.338
 2077SOL     OW 7129   4.234   0.608   4.929
 2077SOL    HW1 7130   4.222   0.514   4.960
 2077SOL    HW2 7131   4.146   0.655   4.931
 2078SOL     OW 7132   4.227   6.073   3.657
 2078SOL    HW1 7133   4.230   6.172   3.670
 2078SOL    HW2 7134   4.146   6.036   3.702
 2079SOL     OW 7135   5.423   0.326   4.171
 2079SOL    HW1 7136   5.337   0.293   4.133
 2079SOL    HW2 7137   5.431   0.297   4.267
 2080SOL     OW 7138   2.888   1.971   3.078
 2080SOL    HW1 7139   2.946   2.052   3.084
 2080SOL    HW2 7140   2.831   1.965   3.160
 2081SOL     OW 7141   1.496   5.736   3.628
 2081SOL    HW1 7142   1.584   5.718   3.583
 2081SOL    HW2 7143   1.431   5.770   3.561
 2082SOL     OW 7144   5.013   0.851   2.542
 2082SOL    HW1 7145   4.942   0.888   2.602
 2082SOL    HW2 7146   5.047   0.765   2.580
 2083SOL     OW 7147   3.873   4.660   5.673
 2083SOL    HW1 7148   3.932   4.700   5.743
 2083SOL    HW2 7149   3.787   4.631   5.714
 2084SOL     OW 7150   0.238   2.424   2.860
 2084SOL    HW1 7151   0.158   2.371   2.831
 2084SOL    HW2 7152   0.321   2.378   2.828
 2085SOL     OW 7153   5.727   6.677   0.426
 2085SOL    HW1 7154   5.643   6.652   0.378
 2085SOL    HW2 7155   5.711   6.671   0.525
 2086SOL     OW 7156   3.803   5.585   6.798
 2086SOL    HW1 7157   3.895   5.573   6.760
 2086SOL    HW2 7158   3.787   5.683   6.814
 2087SOL     OW 7159   5.947   6.025   2.914
 2087SOL    HW1 7160   5.975   6.118   2.889
 2087SOL    HW2 7161   5.954   6.013   3.013
 2088SOL     OW 7162   2.135   6.375   1.205
 2088SOL    HW1 7163   2.112   6.370   1.302
 2088SOL    HW2 7164   2.053   6.358   1.151
 2089SOL     OW 7165   2.676   0.919   6.537
 2089SOL    HW1 7166   2.624   0.834   6.529
 2089SOL    HW2 7167   2.719   0.939   6.448
 2090SOL     OW 7168   3.117   3.803   3.547
 2090SOL    HW1 7169   3.026   3.769   3.524
 2090SOL    HW2 7170   3.168   3.731   3.595
 2091SOL     OW 7171   2.477   4.258   1.791
 2091SOL    HW1 7172   2.424   4.197   1.732
 2091SOL    HW2 7173   2.575   4.238   1.780
 2092SOL     OW 7174   6.128   0.358   0.635
 2092SOL    HW1 7175   6.211   0.401   0.599
 2092SOL    HW2 7176   6.053   0.372   0.571
 2093SOL     OW 7177   1.804   1.368   1.592
 2093SOL    HW1 7178   1.773   1.434   1.523
 2093SOL    HW2 7179   1.897   1.392   1.621
 2094SOL     OW 7180   0.042   0.599   2.453
 2094SOL    HW1 7181   0.073   0.684   2.409
 2094SOL    HW2 7182   0.008   0.619   2.545
 2095SOL     OW 7183   5.998   4.368   5.205
 2095SOL    HW1 7184   5.994   4.413   5.294
 2095SOL    HW2 7185   5.942   4.418   5.140
 2096SOL     OW 7186   4.610   4.320   3.783
 2096SOL    HW1 7187   4.609   4.282   3.875
 2096SOL    HW2 7188   4.549   4.399   3.778
 2097SOL     OW 7189   6.311   3.426   5.588
 2097SOL    HW1 7190   6.212   3.433   5.600
 2097SOL    HW2 7191   6.356   3.429   5.678
 2098SOL     OW 7192   4.125   0.762   4.633
 2098SOL    HW1 7193   4.140   0.782   4.537
 2098SOL    HW2 7194   4.188   0.817   4.689
 2099SOL     OW 7195   2.362   1.880   3.705
 2099SOL    HW1 7196   2.343   1.868   3.803
 2099SOL    HW2 7197   2.278   1.906   3.658
 2100SOL     OW 7198   4.703   4.761   5.904
 2100SOL    HW1 7199   4.736   4.730   5.993
 2100SOL    HW2 7200   4.611   4.798   5.913
 2101SOL     OW 7201   5.567   6.874   1.684
 2101SOL    HW1 7202   5.580   6.868   1.585
 2101SOL    HW2 7203   5.507   6.801   1.715
 2102SOL     OW 7204   6.918   5.202   1.134
 2102SOL    HW1 7205   6.873   5.288   1.110
 2102SOL    HW2 7206   6.887   5.173   1.225
 2103SOL     OW 7207   3.254   3.954   6.619
 2103SOL    HW1 7208   3.270   4.049   6.646
 2103SOL    HW2 7209   3.177   3.951   6.554
 2104SOL     OW 7210   1.129   4.992   6.320
 2104SOL    HW1 7211   1.202   4.993   6.252
 2104SOL    HW2 7212   1.169   4.987   6.412
 2105SOL     OW 7213   6.030   6.059   2.634
 2105SOL    HW1 7214   5.948   6.038   2.580
 2105SOL    HW2 7215   6.002   6.086   2.726
 2106SOL     OW 7216   5.733   6.367   6.005
 2106SOL    HW1 7217   5.745   6.398   6.099
 2106SOL    HW2 7218   5.637   6.345   5.988
 2107SOL     OW 7219   2.742   5.041   0.352
 2107SOL    HW1 7220   2.826   5.034   0.406
 2107SOL    HW2 7221   2.730   4.958   0.298
 2108SOL     OW 7222   5.556   4.650   6.593
 2108SOL    HW1 7223   5.466   4.635   6.632
 2108SOL    HW2 7224   5.577   4.578   6.527
 2109SOL     OW 7225   5.243   5.690   2.682
 2109SOL    HW1 7226   5.332   5.648   2.663
 2109SOL    HW2 7227   5.178   5.666   2.610
 2110SOL     OW 7228   1.200   4.817   5.431
 2110SOL    HW1 7229   1.237   4.858   5.514
 2110SOL    HW2 7230   1.145   4.737   5.456
 2111SOL     OW 7231   1.759   2.175   6.666
 2111SOL    HW1 7232   1.831   2.172   6.597
 2111SOL    HW2 7233   1.798   2.150   6.755
 2112SOL     OW 7234   5.157   3.820   0.650
 2112SOL    HW1 7235   5.106   3.905   0.663
 2112SOL    HW2 7236   5.094   3.743   0.650
 2113SOL     OW 7237   6.859   1.130   3.606
 2113SOL    HW1 7238   6.938   1.142   3.666
 2113SOL    HW2 7239   6.776   1.118   3.660
 2114SOL     OW 7240   1.432   3.085   6.915
 2114SOL    HW1 7241   1.441   3.005   6.855
 2114SOL    HW2 7242   1.351   3.137   6.889
 2115SOL     OW 7243   4.076   5.263   2.025
 2115SOL    HW1 7244   4.072   5.239   1.927
 2115SOL    HW2 7245   4.078   5.362   2.034
 2116SOL     OW 7246   0.392   4.033   4.125
 2116SOL    HW1 7247   0.404   3.943   4.081
 2116SOL    HW2 7248   0.326   4.086   4.072
 2117SOL     OW 7249   6.288   5.839   5.607
 2117SOL    HW1 7250   6.261   5.927   5.647
 2117SOL    HW2 7251   6.305   5.851   5.509
 2118SOL     OW 7252   0.076   2.979   2.447
 2118SOL    HW1 7253   0.156   2.948   2.499
 2118SOL    HW2 7254   0.009   2.905   2.443
 2119SOL     OW 7255   4.061   6.411   0.240
 2119SOL    HW1 7256   4.066   6.311   0.236
 2119SOL    HW2 7257   4.124   6.444   0.310
 2120SOL     OW 7258   6.182   4.028   2.352
 2120SOL    HW1 7259   6.203   4.000   2.258
 2120SOL    HW2 7260   6.232   3.968   2.415
 2121SOL     OW 7261   0.782   3.855   4.925
 2121SOL    HW1 7262   0.759   3.952   4.936
 2121SOL    HW2 7263   0.856   3.831   4.989
 2122SOL     OW 7264   3.867   4.964   5.062
 2122SOL    HW1 7265   3.924   5.042   5.034
 2122SOL    HW2 7266   3.875   4.891   4.994
 2123SOL     OW 7267   3.864   5.808   3.276
 2123SOL    HW1 7268   3.857   5.865   3.194
 2123SOL    HW2 7269   3.895   5.717   3.251
 2124SOL     OW 7270   2.351   2.400   1.824
 2124SOL    HW1 7271   2.335   2.301   1.833
 2124SOL    HW2 7272   2.417   2.416   1.751
 2125SOL     OW 7273   4.712   6.011   0.011
 2125SOL    HW1 7274   4.711   6.020   0.110
 2125SOL    HW2 7275   4.671   5.924   7.007
 2126SOL     OW 7276   2.974   2.201   0.899
 2126SOL    HW1 7277   2.897   2.257   0.868
 2126SOL    HW2 7278   2.981   2.119   0.842
 2127SOL     OW 7279   5.708   2.503   4.294
 2127SOL    HW1 7280   5.678   2.596   4.271
 2127SOL    HW2 7281   5.672   2.478   4.384
 2128SOL     OW 7282   0.699   3.688   4.298
 2128SOL    HW1 7283   0.697   3.780   4.258
 2128SOL    HW2 7284   0.720   3.621   4.227
 2129SOL     OW 7285   4.449   2.196   5.037
 2129SOL    HW1 7286   4.376   2.178   4.971
 2129SOL    HW2 7287   4.448   2.127   5.108
 2130SOL     OW 7288   5.184   6.733   3.354
 2130SOL    HW1 7289   5.103   6.770   3.400
 2130SOL    HW2 7290   5.173   6.634   3.343
 2131SOL     OW 7291   4.942   1.569   6.887
 2131SOL    HW1 7292   4.991   1.655   6.899
 2131SOL    HW2 7293   4.965   1.529   6.798
 2132SOL     OW 7294   1.160   3.631   1.270
 2132SOL    HW1 7295   1.099   3.552   1.265
 2132SOL    HW2 7296   1.250   3.603   1.303
 2133SOL     OW 7297   2.582   3.971   6.406
 2133SOL    HW1 7298   2.592   3.920   6.491
 2133SOL    HW2 7299   2.547   4.062   6.426
 2134SOL     OW 7300   0.170   6.776   0.132
 2134SOL    HW1 7301   0.234   6.781   0.209
 2134SOL    HW2 7302   0.200   6.705   0.069
 2135SOL     OW 7303   6.624   5.409   5.621
 2135SOL    HW1 7304   6.526   5.413   5.601
 2135SOL    HW2 7305   6.645   5.325   5.670
 2136SOL     OW 7306   1.834   5.187   0.022
 2136SOL    HW1 7307   1.828   5.284   7.019
 2136SOL    HW2 7308   1.864   5.134   6.966
 2137SOL     OW 7309   1.332   6.783   3.464
 2137SOL    HW1 7310   1.410   6.845   3.471
 2137SOL    HW2 7311   1.250   6.829   3.498
 2138SOL     OW 7312   5.029   1.937   2.001
 2138SOL    HW1 7313   5.049   1.877   1.923
 2138SOL    HW2 7314   4.962   2.006   1.974
 2139SOL     OW 7315   2.731   5.916   5.710
 2139SOL    HW1 7316   2.787   5.998   5.696
 2139SOL    HW2 7317   2.710   5.906   5.807
 2140SOL     OW 7318   2.437   1.894   3.156
 2140SOL    HW1 7319   2.500   1.886   3.079
 2140SOL    HW2 7320   2.462   1.827   3.227
 2141SOL     OW 7321   6.620   3.314   2.641
 2141SOL    HW1 7322   6.644   3.403   2.681
 2141SOL    HW2 7323   6.701   3.276   2.595
 2142SOL     OW 7324   1.784   1.616   1.947
 2142SOL    HW1 7325   1.850   1.688   1.965
 2142SOL    HW2 7326   1.695   1.657   1.925
 2143SOL     OW 7327   6.414   5.750   5.833
 2143SOL    HW1 7328   6.389   5.761   5.737
 2143SOL    HW2 7329   6.510   5.724   5.840
 2144SOL     OW 7330   6.019   4.151   2.786
 2144SOL    HW1 7331   6.076   4.104   2.853
 2144SOL    HW2 7332   5.984   4.085   2.719
 2145SOL     OW 7333   3.324   1.447   3.287
 2145SOL    HW1 7334   3.403   1.496   3.250
 2145SOL    HW2 7335   3.241   1.499   3.268
 2146SOL     OW 7336   2.057   1.527   6.644
 2146SOL    HW1 7337   2.113   1.556   6.567
 2146SOL    HW2 7338   2.016   1.438   6.624
 2147SOL     OW 7339   6.497   0.264   5.596
 2147SOL    HW1 7340   6.591   0.235   5.579
 2147SOL    HW2 7341   6.486   0.288   5.692
 2148SOL     OW 7342   1.611   2.633   5.085
 2148SOL    HW1 7343   1.677   2.559   5.073
 2148SOL    HW2 7344   1.617   2.669   5.179
 2149SOL     OW 7345   0.557   6.724   0.163
 2149SOL    HW1 7346   0.480   6.764   0.211
 2149SOL    HW2 7347   0.566   6.628   0.188
 2150SOL     OW 7348   2.054   2.695   0.427
 2150SOL    HW1 7349   2.122   2.636   0.470
 2150SOL    HW2 7350   2.097   2.780   0.398
 2151SOL     OW 7351   1.100   5.517   6.393
 2151SOL    HW1 7352   1.163   5.534   6.469
 2151SOL    HW2 7353   1.141   5.452   6.329
 2152SOL     OW 7354   5.286   6.386   3.855
 2152SOL    HW1 7355   5.307   6.310   3.793
 2152SOL    HW2 7356   5.252   6.463   3.802
 2153SOL     OW 7357   4.736   6.957   4.118
 2153SOL    HW1 7358   4.659   7.022   4.119
 2153SOL    HW2 7359   4.798   6.980   4.044
 2154SOL     OW 7360   2.692   6.572   2.396
 2154SOL    HW1 7361   2.615   6.520   2.361
 2154SOL    HW2 7362   2.696   6.661   2.351
 2155SOL     OW 7363   4.941   0.579   0.616
 2155SOL    HW1 7364   4.976   0.487   0.598
 2155SOL    HW2 7365   4.922   0.589   0.714
 2156SOL     OW 7366   6.094   1.745   4.517
 2156SOL    HW1 7367   6.160   1.820   4.526
 2156SOL    HW2 7368   6.001   1.783   4.517
 2157SOL     OW 7369   4.698   6.068   3.380
 2157SOL    HW1 7370   4.624   6.130   3.352
 2157SOL    HW2 7371   4.670   6.018   3.462
 2158SOL     OW 7372   2.960   7.011   0.537
 2158SOL    HW1 7373   2.938   7.014   0.635
 2158SOL    HW2 7374   3.043   0.042   0.521
 2159SOL     OW 7375   0.568   2.006   5.371
 2159SOL    HW1 7376   0.480   2.014   5.323
 2159SOL    HW2 7377   0.610   1.917   5.350
 2160SOL     OW 7378   5.416   6.660   6.938
 2160SOL    HW1 7379   5.397   6.661   6.840
 2160SOL    HW2 7380   5.487   6.728   6.959
 2161SOL     OW 7381   1.158   3.771   0.724
 2161SOL    HW1 7382   1.152   3.707   0.648
 2161SOL    HW2 7383   1.254   3.782   0.751
 2162SOL     OW 7384   2.087   6.844   0.074
 2162SOL    HW1 7385   2.141   6.906   0.017
 2162SOL    HW2 7386   2.112   6.857   0.170
 2163SOL     OW 7387   0.730   2.969   4.491
 2163SOL    HW1 7388   0.764   3.056   4.527
 2163SOL    HW2 7389   0.798   2.897   4.508
 2164SOL     OW 7390   2.166   4.345   1.887
 2164SOL    HW1 7391   2.176   4.303   1.977
 2164SOL    HW2 7392   2.256   4.363   1.849
 2165SOL     OW 7393   6.266   2.002   5.768
 2165SOL    HW1 7394   6.340   2.065   5.745
 2165SOL    HW2 7395   6.207   1.991   5.688
 2166SOL     OW 7396   6.943   2.301   1.868
 2166SOL    HW1 7397   6.964   2.212   1.907
 2166SOL    HW2 7398   6.878   2.350   1.927
 2167SOL     OW 7399   1.550   2.335   2.697
 2167SOL    HW1 7400   1.470   2.370   2.746
 2167SOL    HW2 7401   1.632   2.353   2.750
 2168SOL     OW 7402   1.409   2.561   3.590
 2168SOL    HW1 7403   1.324   2.519   3.557
 2168SOL    HW2 7404   1.398   2.584   3.687
 2169SOL     OW 7405   6.850   6.799   1.155
 2169SOL    HW1 7406   6.871   6.805   1.253
 2169SOL    HW2 7407   6.772   6.739   1.141
 2170SOL     OW 7408   1.778   2.660   6.170
 2170SOL    HW1 7409   1.809   2.584   6.228
 2170SOL    HW2 7410   1.853   2.725   6.158
 2171SOL     OW 7411   6.776   6.237   1.466
 2171SOL    HW1 7412   6.823   6.311   1.417
 2171SOL    HW2 7413   6.719   6.276   1.538
 2172SOL     OW 7414   2.394   2.542   4.844
 2172SOL    HW1 7415   2.425   2.579   4.756
 2172SOL    HW2 7416   2.363   2.448   4.832
 2173SOL     OW 7417   4.216   0.668   5.231
 2173SOL    HW1 7418   4.253   0.641   5.142
 2173SOL    HW2 7419   4.222   0.768   5.241
 2174SOL     OW 7420   5.228   0.179   6.293
 2174SOL    HW1 7421   5.307   0.198   6.235
 2174SOL    HW2 7422   5.149   0.231   6.260
 2175SOL     OW 7423   3.361   2.926   5.827
 2175SOL    HW1 7424   3.423   2.848   5.822
 2175SOL    HW2 7425   3.322   2.931   5.919
 2176SOL     OW 7426   6.477   1.511   2.936
 2176SOL    HW1 7427   6.446   1.604   2.914
 2176SOL    HW2 7428   6.405   1.463   2.985
 2177SOL     OW 7429   0.582   0.938   5.094
 2177SOL    HW1 7430   0.604   0.890   5.178
 2177SOL    HW2 7431   0.486   0.964   5.094
 2178SOL     OW 7432   1.635   3.194   2.712
 2178SOL    HW1 7433   1.593   3.111   2.749
 2178SOL    HW2 7434   1.728   3.174   2.682
 2179SOL     OW 7435   1.762   4.003   7.000
 2179SOL    HW1 7436   1.790   3.969   6.911
 2179SOL    HW2 7437   1.682   4.063   6.989
 2180SOL     OW 7438   0.251   5.201   2.833
 2180SOL    HW1 7439   0.321   5.207   2.762
 2180SOL    HW2 7440   0.284   5.143   2.907
 2181SOL     OW 7441   4.317   4.614   3.527
 2181SOL    HW1 7442   4.340   4.578   3.618
 2181SOL    HW2 7443   4.247   4.684   3.536
 2182SOL     OW 7444   0.275   6.763   1.307
 2182SOL    HW1 7445   0.234   6.685   1.354
 2182SOL    HW2 7446   0.212   6.841   1.309
 2183SOL     OW 7447   3.683   3.050   6.958
 2183SOL    HW1 7448   3.645   2.982   6.894
 2183SOL    HW2 7449   3.639   3.138   6.942
 2184SOL     OW 7450   6.421   2.042   6.874
 2184SOL    HW1 7451   6.321   2.044   6.868
 2184SOL    HW2 7452   6.460   2.064   6.785
 2185SOL     OW 7453   0.334   0.980   6.280
 2185SOL    HW1 7454   0.348   0.884   6.253
 2185SOL    HW2 7455   0.322   1.036   6.199
 2186SOL     OW 7456   6.595   6.269   5.575
 2186SOL    HW1 7457   6.678   6.295   5.624
 2186SOL    HW2 7458   6.542   6.205   5.630
 2187SOL     OW 7459   5.920   4.037   1.628
 2187SOL    HW1 7460   5.921   4.088   1.714
 2187SOL    HW2 7461   5.918   4.101   1.551
 2188SOL     OW 7462   3.009   1.536   1.429
 2188SOL    HW1 7463   3.058   1.456   1.464
 2188SOL    HW2 7464   3.074   1.596   1.381
 2189SOL     OW 7465   2.224   0.975   2.308
 2189SOL    HW1 7466   2.223   0.901   2.241
 2189SOL    HW2 7467   2.135   1.021   2.309
 2190SOL     OW 7468   6.749   4.999   1.728
 2190SOL    HW1 7469   6.715   4.924   1.785
 2190SOL    HW2 7470   6.844   4.981   1.701
 2191SOL     OW 7471   3.425   7.012   6.863
 2191SOL    HW1 7472   3.327   0.011   6.862
 2191SOL    HW2 7473   3.436   6.915   6.885
 2192SOL     OW 7474   4.864   2.386   1.797
 2192SOL    HW1 7475   4.944   2.446   1.800
 2192SOL    HW2 7476   4.783   2.440   1.774
 2193SOL     OW 7477   1.624   0.391   5.468
 2193SOL    HW1 7478   1.669   0.411   5.381
 2193SOL    HW2 7479   1.656   0.456   5.537
 2194SOL     OW 7480   0.907   4.346   5.873
 2194SOL    HW1 7481   0.983   4.411   5.866
 2194SOL    HW2 7482   0.902   4.311   5.966
 2195SOL     OW 7483   0.249   4.359   5.508
 2195SOL    HW1 7484   0.172   4.295   5.518
 2195SOL    HW2 7485   0.335   4.309   5.520
 2196SOL     OW 7486   4.247   1.501   6.773
 2196SOL    HW1 7487   4.196   1.436   6.828
 2196SOL    HW2 7488   4.340   1.466   6.757
 2197SOL     OW 7489   4.174   5.300   6.468
 2197SOL    HW1 7490   4.098   5.348   6.512
 2197SOL    HW2 7491   4.187   5.211   6.512
 2198SOL     OW 7492   1.355   0.977   6.018
 2198SOL    HW1 7493   1.415   1.004   5.942
 2198SOL    HW2 7494   1.394   1.008   6.104
 2199SOL     OW 7495   4.242   6.614   3.781
 2199SOL    HW1 7496   4.316   6.620   3.849
 2199SOL    HW2 7497   4.279   6.628   3.690
 2200SOL     OW 7498   2.345   1.954   4.715
 2200SOL    HW1 7499   2.425   2.012   4.729
 2200SOL    HW2 7500   2.344   1.921   4.620
 2201SOL     OW 7501   6.151   3.228   4.672
 2201SOL    HW1 7502   6.196   3.161   4.613
 2201SOL    HW2 7503   6.057   3.241   4.642
 2202SOL     OW 7504   4.289   0.259   4.655
 2202SOL    HW1 7505   4.347   0.274   4.736
 2202SOL    HW2 7506   4.304   0.166   4.621
 2203SOL     OW 7507   2.349   6.189   1.101
 2203SOL    HW1 7508   2.282   6.262   1.117
 2203SOL    HW2 7509   2.361   6.177   1.002
 2204SOL     OW 7510   4.968   2.919   0.778
 2204SOL    HW1 7511   5.009   2.839   0.823
 2204SOL    HW2 7512   4.970   2.996   0.841
 2205SOL     OW 7513   5.138   5.762   1.092
 2205SOL    HW1 7514   5.212   5.801   1.037
 2205SOL    HW2 7515   5.170   5.678   1.136
 2206SOL     OW 7516   3.632   3.100   5.412
 2206SOL    HW1 7517   3.632   3.004   5.441
 2206SOL    HW2 7518   3.694   3.112   5.335
 2207SOL     OW 7519   4.448   4.909   1.395
 2207SOL    HW1 7520   4.492   4.844   1.457
 2207SOL    HW2 7521   4.375   4.864   1.345
 2208SOL     OW 7522   6.620   6.614   3.008
 2208SOL    HW1 7523   6.634   6.705   3.046
 2208SOL    HW2 7524   6.621   6.619   2.908
 2209SOL     OW 7525   2.657   5.659   3.920
 2209SOL    HW1 7526   2.618   5.746   3.891
 2209SOL    HW2 7527   2.694   5.669   4.013
 2210SOL     OW 7528   5.304   6.566   2.293
 2210SOL    HW1 7529   5.274   6.619   2.214
 2210SOL    HW2 7530   5.243   6.487   2.305
 2211SOL     OW 7531   1.729   0.602   1.621
 2211SOL    HW1 7532   1.646   0.650   1.591
 2211SOL    HW2 7533   1.771   0.651   1.696
 2212SOL     OW 7534   3.143   6.214   6.385
 2212SOL    HW1 7535   3.066   6.229   6.447
 2212SOL    HW2 7536   3.144   6.285   6.314
 2213SOL     OW 7537   3.031   1.635   4.440
 2213SOL    HW1 7538   2.997   1.702   4.375
 2213SOL    HW2 7539   2.980   1.641   4.525
 2214SOL     OW 7540   4.347   4.810   6.691
 2214SOL    HW1 7541   4.333   4.725   6.742
 2214SOL    HW2 7542   4.413   4.867   6.738
 2215SOL     OW 7543   6.334   5.335   6.341
 2215SOL    HW1 7544   6.365   5.254   6.291
 2215SOL    HW2 7545   6.412   5.392   6.365
 2216SOL     OW 7546   0.131   6.433   0.084
 2216SOL    HW1 7547   0.192   6.497   0.037
 2216SOL    HW2 7548   0.153   6.339   0.057
 2217SOL     OW 7549   3.962   1.343   3.547
 2217SOL    HW1 7550   3.885   1.284   3.573
 2217SOL    HW2 7551   4.020   1.360   3.626
 2218SOL     OW 7552   6.162   5.655   5.793
 2218SOL    HW1 7553   6.229   5.651   5.867
 2218SOL    HW2 7554   6.188   5.727   5.728
 2219SOL     OW 7555   5.385   2.017   0.422
 2219SOL    HW1 7556   5.401   2.111   0.452
 2219SOL    HW2 7557   5.358   2.017   0.325
 2220SOL     OW 7558   6.661   6.566   4.241
 2220SOL    HW1 7559   6.681   6.471   4.263
 2220SOL    HW2 7560   6.744   6.612   4.211
 2221SOL     OW 7561   4.965   0.346   4.088
 2221SOL    HW1 7562   4.980   0.417   4.019
 2221SOL    HW2 7563   4.960   0.387   4.179
 2222SOL     OW 7564   3.498   0.859   4.068
 2222SOL    HW1 7565   3.490   0.955   4.095
 2222SOL    HW2 7566   3.559   0.852   3.989
 2223SOL     OW 7567   0.876   6.968   5.502
 2223SOL    HW1 7568   0.928   6.917   5.434
 2223SOL    HW2 7569   0.879   0.043   5.479
 2224SOL     OW 7570   5.454   4.460   6.904
 2224SOL    HW1 7571   5.389   4.386   6.917
 2224SOL    HW2 7572   5.412   4.547   6.930
 2225SOL     OW 7573   6.280   0.626   0.579
 2225SOL    HW1 7574   6.359   0.567   0.597
 2225SOL    HW2 7575   6.229   0.590   0.501
 2226SOL     OW 7576   2.918   3.404   6.980
 2226SOL    HW1 7577   2.940   3.459   0.038
 2226SOL    HW2 7578   2.945   3.453   6.897
 2227SOL     OW 7579   4.553   1.595   1.556
 2227SOL    HW1 7580   4.540   1.496   1.545
 2227SOL    HW2 7581   4.499   1.627   1.634
 2228SOL     OW 7582   5.045   6.677   6.489
 2228SOL    HW1 7583   5.034   6.606   6.559
 2228SOL    HW2 7584   4.973   6.667   6.420
 2229SOL     OW 7585   3.605   2.906   4.305
 2229SOL    HW1 7586   3.641   2.989   4.263
 2229SOL    HW2 7587   3.584   2.839   4.234
 2230SOL     OW 7588   6.682   1.277   6.279
 2230SOL    HW1 7589   6.635   1.317   6.200
 2230SOL    HW2 7590   6.731   1.195   6.250
 2231SOL     OW 7591   1.229   0.043   6.004
 2231SOL    HW1 7592   1.193   6.978   5.971
 2231SOL    HW2 7593   1.326   0.031   6.029
 2232SOL     OW 7594   1.655   0.889   6.585
 2232SOL    HW1 7595   1.753   0.888   6.602
 2232SOL    HW2 7596   1.607   0.859   6.667
 2233SOL     OW 7597   2.874   5.873   1.157
 2233SOL    HW1 7598   2.869   5.848   1.060
 2233SOL    HW2 7599   2.882   5.790   1.212
 2234SOL     OW 7600   5.087   1.866   1.686
 2234SOL    HW1 7601   5.179   1.830   1.677
 2234SOL    HW2 7602   5.073   1.938   1.617
 2235SOL     OW 7603   1.002   2.092   3.550
 2235SOL    HW1 7604   0.952   2.082   3.635
 2235SOL    HW2 7605   1.095   2.123   3.570
 2236SOL     OW 7606   2.591   4.575   5.181
 2236SOL    HW1 7607   2.545   4.496   5.142
 2236SOL    HW2 7608   2.678   4.589   5.134
 2237SOL     OW 7609   6.141   6.753   6.238
 2237SOL    HW1 7610   6.061   6.693   6.233
 2237SOL    HW2 7611   6.199   6.738   6.158
 2238SOL     OW 7612   5.217   3.972   1.616
 2238SOL    HW1 7613   5.223   3.887   1.564
 2238SOL    HW2 7614   5.202   3.951   1.713
 2239SOL     OW 7615   3.668   0.311   3.083
 2239SOL    HW1 7616   3.615   0.329   3.000
 2239SOL    HW2 7617   3.751   0.366   3.081
 2240SOL     OW 7618   5.106   5.380   2.783
 2240SOL    HW1 7619   5.105   5.445   2.859
 2240SOL    HW2 7620   5.125   5.288   2.818
 2241SOL     OW 7621   0.964   1.941   3.325
 2241SOL    HW1 7622   1.035   1.940   3.255
 2241SOL    HW2 7623   0.994   1.996   3.403
 2242SOL     OW 7624   5.194   2.239   4.233
 2242SOL    HW1 7625   5.199   2.266   4.329
 2242SOL    HW2 7626   5.224   2.315   4.175
 2243SOL     OW 7627   2.680   0.696   0.113
 2243SOL    HW1 7628   2.770   0.655   0.128
 2243SOL    HW2 7629   2.687   0.765   0.041
 2244SOL     OW 7630   2.280   1.759   0.991
 2244SOL    HW1 7631   2.304   1.854   1.009
 2244SOL    HW2 7632   2.180   1.748   0.997
 2245SOL     OW 7633   6.903   1.168   0.524
 2245SOL    HW1 7634   6.944   1.154   0.434
 2245SOL    HW2 7635   6.817   1.218   0.514
 2246SOL     OW 7636   5.581   1.168   5.566
 2246SOL    HW1 7637   5.489   1.204   5.550
 2246SOL    HW2 7638   5.644   1.203   5.497
 2247SOL     OW 7639   3.728   3.442   1.781
 2247SOL    HW1 7640   3.785   3.392   1.847
 2247SOL    HW2 7641   3.655   3.489   1.831
 2248SOL     OW 7642   5.532   3.257   4.640
 2248SOL    HW1 7643   5.589   3.339   4.639
 2248SOL    HW2 7644   5.483   3.251   4.727
 2249SOL     OW 7645   2.408   6.227   3.422
 2249SOL    HW1 7646   2.442   6.312   3.380
 2249SOL    HW2 7647   2.365   6.170   3.351
 2250SOL     OW 7648   4.289   6.071   6.005
 2250SOL    HW1 7649   4.270   6.138   5.933
 2250SOL    HW2 7650   4.220   6.078   6.077
 2251SOL     OW 7651   3.755   6.662   4.613
 2251SOL    HW1 7652   3.793   6.744   4.571
 2251SOL    HW2 7653   3.794   6.581   4.570
 2252SOL     OW 7654   3.659   1.213   2.468
 2252SOL    HW1 7655   3.674   1.290   2.406
 2252SOL    HW2 7656   3.680   1.127   2.421
 2253SOL     OW 7657   1.467   2.879   1.762
 2253SOL    HW1 7658   1.397   2.868   1.691
 2253SOL    HW2 7659   1.548   2.920   1.721
 2254SOL     OW 7660   3.158   2.961   2.954
 2254SOL    HW1 7661   3.157   2.948   3.053
 2254SOL    HW2 7662   3.099   3.038   2.930
 2255SOL     OW 7663   1.530   2.017   6.225
 2255SOL    HW1 7664   1.540   2.008   6.324
 2255SOL    HW2 7665   1.452   2.077   6.205
 2256SOL     OW 7666   4.984   0.189   1.199
 2256SOL    HW1 7667   4.953   0.280   1.229
 2256SOL    HW2 7668   4.915   0.149   1.139
 2257SOL     OW 7669   0.259   0.560   6.484
 2257SOL    HW1 7670   0.184   0.582   6.545
 2257SOL    HW2 7671   0.346   0.575   6.531
 2258SOL     OW 7672   2.507   0.286   3.241
 2258SOL    HW1 7673   2.484   0.191   3.219
 2258SOL    HW2 7674   2.463   0.311   3.327
 2259SOL     OW 7675   6.065   0.285   5.488
 2259SOL    HW1 7676   6.149   0.322   5.448
 2259SOL    HW2 7677   6.062   0.308   5.586
 2260SOL     OW 7678   1.262   3.926   1.358
 2260SOL    HW1 7679   1.208   3.845   1.336
 2260SOL    HW2 7680   1.205   4.008   1.347
 2261SOL     OW 7681   4.754   4.435   6.701
 2261SOL    HW1 7682   4.814   4.515   6.696
 2261SOL    HW2 7683   4.688   4.438   6.626
 2262SOL     OW 7684   6.222   0.375   3.745
 2262SOL    HW1 7685   6.254   0.286   3.777
 2262SOL    HW2 7686   6.210   0.373   3.646
 2263SOL     OW 7687   2.497   4.385   6.771
 2263SOL    HW1 7688   2.423   4.415   6.711
 2263SOL    HW2 7689   2.585   4.408   6.730
 2264SOL     OW 7690   2.104   0.729   6.625
 2264SOL    HW1 7691   2.076   0.825   6.629
 2264SOL    HW2 7692   2.096   0.688   6.716
 2265SOL     OW 7693   0.511   6.388   3.554
 2265SOL    HW1 7694   0.564   6.466   3.522
 2265SOL    HW2 7695   0.519   6.380   3.653
 2266SOL     OW 7696   4.699   4.027   6.760
 2266SOL    HW1 7697   4.776   4.090   6.771
 2266SOL    HW2 7698   4.635   4.039   6.836
 2267SOL     OW 7699   5.640   3.063   4.853
 2267SOL    HW1 7700   5.707   3.110   4.796
 2267SOL    HW2 7701   5.668   3.067   4.949
 2268SOL     OW 7702   0.721   5.887   4.972
 2268SOL    HW1 7703   0.691   5.925   5.060
 2268SOL    HW2 7704   0.766   5.799   4.988
 2269SOL     OW 7705   2.079   2.312   5.364
 2269SOL    HW1 7706   2.028   2.280   5.444
 2269SOL    HW2 7707   2.017   2.355   5.299
 2270SOL     OW 7708   4.507   1.504   6.163
 2270SOL    HW1 7709   4.602   1.475   6.168
 2270SOL    HW2 7710   4.485   1.561   6.243
 2271SOL     OW 7711   4.103   5.657   5.263
 2271SOL    HW1 7712   4.032   5.622   5.201
 2271SOL    HW2 7713   4.087   5.622   5.355
 2272SOL     OW 7714   6.092   0.712   6.431
 2272SOL    HW1 7715   6.117   0.616   6.437
 2272SOL    HW2 7716   6.135   0.763   6.505
 2273SOL     OW 7717   1.457   2.177   4.258
 2273SOL    HW1 7718   1.442   2.169   4.159
 2273SOL    HW2 7719   1.550   2.150   4.280
 2274SOL     OW 7720   1.496   1.194   6.879
 2274SOL    HW1 7721   1.547   1.159   6.800
 2274SOL    HW2 7722   1.503   1.293   6.881
 2275SOL     OW 7723   5.664   3.368   3.193
 2275SOL    HW1 7724   5.704   3.402   3.278
 2275SOL    HW2 7725   5.678   3.269   3.188
 2276SOL     OW 7726   1.929   1.940   1.481
 2276SOL    HW1 7727   1.897   2.007   1.548
 2276SOL    HW2 7728   1.908   1.848   1.513
 2277SOL     OW 7729   3.748   2.990   3.343
 2277SOL    HW1 7730   3.844   3.012   3.327
 2277SOL    HW2 7731   3.717   2.926   3.273
 2278SOL     OW 7732   6.738   3.388   3.803
 2278SOL    HW1 7733   6.687   3.418   3.884
 2278SOL    HW2 7734   6.750   3.289   3.807
 2279SOL     OW 7735   0.697   5.274   5.810
 2279SOL    HW1 7736   0.658   5.344   5.870
 2279SOL    HW2 7737   0.784   5.242   5.848
 2280SOL     OW 7738   4.794   2.577   5.766
 2280SOL    HW1 7739   4.852   2.524   5.704
 2280SOL    HW2 7740   4.852   2.622   5.835
 2281SOL     OW 7741   5.197   6.898   2.317
 2281SOL    HW1 7742   5.284   6.941   2.344
 2281SOL    HW2 7743   5.184   6.815   2.371
 2282SOL     OW 7744   3.349   5.098   6.090
 2282SOL    HW1 7745   3.370   5.130   5.997
 2282SOL    HW2 7746   3.412   5.025   6.115
 2283SOL     OW 7747   6.990   1.097   5.115
 2283SOL    HW1 7748   6.894   1.123   5.131
 2283SOL    HW2 7749   0.011   1.077   5.203
 2284SOL     OW 7750   1.327   3.637   6.255
 2284SOL    HW1 7751   1.392   3.709   6.281
 2284SOL    HW2 7752   1.371   3.548   6.261
 2285SOL     OW 7753   1.345   5.295   6.617
 2285SOL    HW1 7754   1.364   5.331   6.526
 2285SOL    HW2 7755   1.367   5.198   6.620
 2286SOL     OW 7756   4.762   4.325   2.412
 2286SOL    HW1 7757   4.682   4.292   2.462
 2286SOL    HW2 7758   4.837   4.343   2.476
 2287SOL     OW 7759   1.740   1.195   4.052
 2287SOL    HW1 7760   1.661   1.134   4.060
 2287SOL    HW2 7761   1.801   1.179   4.129
 2288SOL     OW 7762   6.252   5.044   3.043
 2288SOL    HW1 7763   6.330   4.984   3.062
 2288SOL    HW2 7764   6.219   5.084   3.129
 2289SOL     OW 7765   0.273   4.926   0.261
 2289SOL    HW1 7766   0.219   5.008   0.242
 2289SOL    HW2 7767   0.356   4.928   0.205
 2290SOL     OW 7768   0.855   5.321   6.892
 2290SOL    HW1 7769   0.881   5.292   6.800
 2290SOL    HW2 7770   0.937   5.341   6.946
 2291SOL     OW 7771   1.882   1.725   6.726
 2291SOL    HW1 7772   1.835   1.719   6.638
 2291SOL    HW2 7773   1.964   1.668   6.724
 2292SOL     OW 7774   2.224   0.862   4.475
 2292SOL    HW1 7775   2.245   0.945   4.528
 2292SOL    HW2 7776   2.170   0.800   4.531
 2293SOL     OW 7777   5.068   4.221   3.190
 2293SOL    HW1 7778   5.038   4.224   3.285
 2293SOL    HW2 7779   5.122   4.303   3.170
 2294SOL     OW 7780   3.952   6.821   6.973
 2294SOL    HW1 7781   3.882   6.851   6.909
 2294SOL    HW2 7782   3.954   6.721   6.974
 2295SOL     OW 7783   1.058   0.775   1.926
 2295SOL    HW1 7784   1.021   0.818   2.009
 2295SOL    HW2 7785   1.021   0.683   1.918
 2296SOL     OW 7786   2.764   6.406   0.102
 2296SOL    HW1 7787   2.734   6.486   0.155
 2296SOL    HW2 7788   2.854   6.377   0.134
 2297SOL     OW 7789   4.142   6.129   6.220
 2297SOL    HW1 7790   4.184   6.116   6.309
 2297SOL    HW2 7791   4.043   6.113   6.226
 2298SOL     OW 7792   4.485   3.043   6.621
 2298SOL    HW1 7793   4.577   3.081   6.614
 2298SOL    HW2 7794   4.444   3.071   6.708
 2299SOL     OW 7795   4.498   0.196   1.376
 2299SOL    HW1 7796   4.564   0.135   1.332
 2299SOL    HW2 7797   4.437   0.235   1.307
 2300SOL     OW 7798   0.995   5.203   0.967
 2300SOL    HW1 7799   1.078   5.259   0.962
 2300SOL    HW2 7800   1.018   5.112   1.000
 2301SOL     OW 7801   3.390   3.182   1.703
 2301SOL    HW1 7802   3.395   3.118   1.779
 2301SOL    HW2 7803   3.432   3.142   1.622
 2302SOL     OW 7804   2.727   5.339   2.667
 2302SOL    HW1 7805   2.750   5.295   2.754
 2302SOL    HW2 7806   2.788   5.417   2.653
 2303SOL     OW 7807   0.344   3.699   6.344
 2303SOL    HW1 7808   0.362   3.714   6.247
 2303SOL    HW2 7809   0.266   3.755   6.372
 2304SOL     OW 7810   1.841   1.100   4.587
 2304SOL    HW1 7811   1.865   1.102   4.490
 2304SOL    HW2 7812   1.916   1.059   4.639
 2305SOL     OW 7813   4.260   5.009   1.852
 2305SOL    HW1 7814   4.214   5.081   1.799
 2305SOL    HW2 7815   4.339   4.976   1.801
 2306SOL     OW 7816   0.298   4.250   0.241
 2306SOL    HW1 7817   0.356   4.331   0.233
 2306SOL    HW2 7818   0.212   4.266   0.192
 2307SOL     OW 7819   0.107   0.755   3.040
 2307SOL    HW1 7820   0.181   0.740   2.975
 2307SOL    HW2 7821   0.135   0.822   3.109
 2308SOL     OW 7822   1.179   0.071   0.094
 2308SOL    HW1 7823   1.089   0.044   0.127
 2308SOL    HW2 7824   1.240   0.085   0.171
 2309SOL     OW 7825   2.071   5.097   6.541
 2309SOL    HW1 7826   2.126   5.082   6.623
 2309SOL    HW2 7827   2.100   5.034   6.469
 2310SOL     OW 7828   5.247   1.431   3.034
 2310SOL    HW1 7829   5.218   1.501   2.968
 2310SOL    HW2 7830   5.285   1.353   2.985
 2311SOL     OW 7831   2.614   0.024   2.888
 2311SOL    HW1 7832   2.698   0.052   2.935
 2311SOL    HW2 7833   2.625   6.955   2.851
 2312SOL     OW 7834   2.302   1.265   2.541
 2312SOL    HW1 7835   2.346   1.190   2.490
 2312SOL    HW2 7836   2.352   1.350   2.524
 2313SOL     OW 7837   4.766   4.771   1.657
 2313SOL    HW1 7838   4.793   4.709   1.730
 2313SOL    HW2 7839   4.839   4.777   1.589
 2314SOL     OW 7840   6.584   5.859   3.301
 2314SOL    HW1 7841   6.589   5.845   3.203
 2314SOL    HW2 7842   6.627   5.782   3.349
 2315SOL     OW 7843   4.914   6.435   5.251
 2315SOL    HW1 7844   4.915   6.447   5.152
 2315SOL    HW2 7845   4.980   6.365   5.278
 2316SOL     OW 7846   3.815   2.004   5.938
 2316SOL    HW1 7847   3.828   1.958   5.850
 2316SOL    HW2 7848   3.738   1.961   5.986
 2317SOL     OW 7849   0.057   4.959   2.460
 2317SOL    HW1 7850   0.153   4.932   2.469
 2317SOL    HW2 7851   0.034   5.023   2.534
 2318SOL     OW 7852   1.322   4.732   3.876
 2318SOL    HW1 7853   1.323   4.633   3.888
 2318SOL    HW2 7854   1.228   4.765   3.884
 2319SOL     OW 7855   2.503   5.728   2.919
 2319SOL    HW1 7856   2.489   5.777   3.005
 2319SOL    HW2 7857   2.570   5.777   2.863
 2320SOL     OW 7858   0.961   1.724   5.187
 2320SOL    HW1 7859   0.964   1.777   5.102
 2320SOL    HW2 7860   1.024   1.764   5.253
 2321SOL     OW 7861   1.936   5.080   5.314
 2321SOL    HW1 7862   1.944   5.045   5.221
 2321SOL    HW2 7863   1.925   5.004   5.378
 2322SOL     OW 7864   2.005   3.775   1.718
 2322SOL    HW1 7865   2.094   3.737   1.744
 2322SOL    HW2 7866   1.933   3.710   1.741
 2323SOL     OW 7867   2.665   5.816   0.356
 2323SOL    HW1 7868   2.635   5.727   0.390
 2323SOL    HW2 7869   2.713   5.804   0.268
 2324SOL     OW 7870   6.423   4.920   2.681
 2324SOL    HW1 7871   6.507   4.940   2.631
 2324SOL    HW2 7872   6.394   5.002   2.731
 2325SOL     OW 7873   6.594   4.419   2.979
 2325SOL    HW1 7874   6.571   4.356   3.053
 2325SOL    HW2 7875   6.550   4.508   2.996
 2326SOL     OW 7876   2.098   0.057   0.345
 2326SOL    HW1 7877   2.193   0.086   0.362
 2326SOL    HW2 7878   2.045   0.136   0.314
 2327SOL     OW 7879   6.321   6.135   2.029
 2327SOL    HW1 7880   6.318   6.235   2.025
 2327SOL    HW2 7881   6.246   6.101   2.085
 2328SOL     OW 7882   2.081   3.524   2.469
 2328SOL    HW1 7883   1.992   3.523   2.515
 2328SOL    HW2 7884   2.116   3.431   2.461
 2329SOL     OW 7885   0.568   4.851   2.568
 2329SOL    HW1 7886   0.652   4.894   2.533
 2329SOL    HW2 7887   0.576   4.752   2.560
 2330SOL     OW 7888   6.071   2.955   1.446
 2330SOL    HW1 7889   6.152   2.998   1.486
 2330SOL    HW2 7890   6.054   2.867   1.489
 2331SOL     OW 7891   5.017   5.632   1.437
 2331SOL    HW1 7892   5.006   5.533   1.435
 2331SOL    HW2 7893   5.115   5.655   1.440
 2332SOL     OW 7894   6.264   0.092   6.037
 2332SOL    HW1 7895   6.213   0.059   6.116
 2332SOL    HW2 7896   6.207   0.087   5.955
 2333SOL     OW 7897   1.420   4.434   2.561
 2333SOL    HW1 7898   1.368   4.446   2.476
 2333SOL    HW2 7899   1.505   4.386   2.542
 2334SOL     OW 7900   3.495   1.405   6.269
 2334SOL    HW1 7901   3.469   1.318   6.227
 2334SOL    HW2 7902   3.483   1.479   6.203
 2335SOL     OW 7903   6.629   1.122   3.755
 2335SOL    HW1 7904   6.562   1.136   3.681
 2335SOL    HW2 7905   6.619   1.195   3.823
 2336SOL     OW 7906   1.943   1.797   3.509
 2336SOL    HW1 7907   1.928   1.699   3.500
 2336SOL    HW2 7908   2.004   1.828   3.435
 2337SOL     OW 7909   3.971   0.958   1.890
 2337SOL    HW1 7910   3.946   1.055   1.880
 2337SOL    HW2 7911   3.888   0.903   1.887
 2338SOL     OW 7912   6.822   3.859   3.542
 2338SOL    HW1 7913   6.899   3.832   3.600
 2338SOL    HW2 7914   6.829   3.956   3.519
 2339SOL     OW 7915   3.436   2.885   2.944
 2339SOL    HW1 7916   3.469   2.866   2.851
 2339SOL    HW2 7917   3.341   2.914   2.940
 2340SOL     OW 7918   1.996   3.643   6.944
 2340SOL    HW1 7919   2.061   3.613   6.876
 2340SOL    HW2 7920   1.925   3.574   6.956
 2341SOL     OW 7921   2.827   4.886   4.162
 2341SOL    HW1 7922   2.776   4.805   4.191
 2341SOL    HW2 7923   2.769   4.967   4.174
 2342SOL     OW 7924   3.785   1.036   4.615
 2342SOL    HW1 7925   3.751   1.011   4.525
 2342SOL    HW2 7926   3.799   0.954   4.670
 2343SOL     OW 7927   7.019   6.985   0.955
 2343SOL    HW1 7928   0.022   6.897   0.914
 2343SOL    HW2 7929   6.995   6.971   1.051
 2344SOL     OW 7930   6.040   4.705   0.025
 2344SOL    HW1 7931   6.035   4.670   0.119
 2344SOL    HW2 7932   6.136   4.715   7.021
 2345SOL     OW 7933   3.696   6.253   4.691
 2345SOL    HW1 7934   3.632   6.272   4.765
 2345SOL    HW2 7935   3.646   6.237   4.606
 2346SOL     OW 7936   5.037   3.480   0.260
 2346SOL    HW1 7937   4.978   3.403   0.284
 2346SOL    HW2 7938   5.118   3.480   0.319
 2347SOL     OW 7939   1.533   0.964   1.494
 2347SOL    HW1 7940   1.454   1.013   1.456
 2347SOL    HW2 7941   1.611   1.025   1.501
 2348SOL     OW 7942   0.095   5.620   2.456
 2348SOL    HW1 7943   0.011   5.659   2.494
 2348SOL    HW2 7944   0.147   5.575   2.529
 2349SOL     OW 7945   0.771   4.416   4.907
 2349SOL    HW1 7946   0.857   4.444   4.951
 2349SOL    HW2 7947   0.718   4.497   4.884
 2350SOL     OW 7948   5.475   4.003   0.415
 2350SOL    HW1 7949   5.405   4.059   0.460
 2350SOL    HW2 7950   5.503   4.046   0.330
 2351SOL     OW 7951   2.293   6.199   1.605
 2351SOL    HW1 7952   2.346   6.258   1.544
 2351SOL    HW2 7953   2.208   6.245   1.631
 2352SOL     OW 7954   6.814   2.677   3.219
 2352SOL    HW1 7955   6.840   2.593   3.171
 2352SOL    HW2 7956   6.729   2.712   3.181
 2353SOL     OW 7957   3.115   5.820   4.153
 2353SOL    HW1 7958   3.109   5.720   4.159
 2353SOL    HW2 7959   3.028   5.860   4.183
 2354SOL     OW 7960   2.470   2.624   3.493
 2354SOL    HW1 7961   2.520   2.540   3.515
 2354SOL    HW2 7962   2.385   2.628   3.546
 2355SOL     OW 7963   2.309   5.456   4.595
 2355SOL    HW1 7964   2.359   5.396   4.532
 2355SOL    HW2 7965   2.324   5.551   4.568
 2356SOL     OW 7966   6.860   2.733   0.016
 2356SOL    HW1 7967   6.820   2.646   7.013
 2356SOL    HW2 7968   6.954   2.738   7.004
 2357SOL     OW 7969   2.173   6.766   2.650
 2357SOL    HW1 7970   2.166   6.667   2.635
 2357SOL    HW2 7971   2.261   6.799   2.619
 2358SOL     OW 7972   4.576   5.470   6.040
 2358SOL    HW1 7973   4.655   5.531   6.029
 2358SOL    HW2 7974   4.496   5.522   6.069
 2359SOL     OW 7975   1.936   0.108   5.207
 2359SOL    HW1 7976   1.882   0.100   5.291
 2359SOL    HW2 7977   1.951   0.205   5.187
 2360SOL     OW 7978   6.572   3.700   0.214
 2360SOL    HW1 7979   6.593   3.692   0.311
 2360SOL    HW2 7980   6.632   3.768   0.172
 2361SOL     OW 7981   3.803   1.243   0.407
 2361SOL    HW1 7982   3.736   1.284   0.344
 2361SOL    HW2 7983   3.793   1.284   0.497
 2362SOL     OW 7984   2.642   5.563   3.300
 2362SOL    HW1 7985   2.640   5.491   3.231
 2362SOL    HW2 7986   2.674   5.526   3.387
 2363SOL     OW 7987   4.102   0.734   3.942
 2363SOL    HW1 7988   4.161   0.685   4.005
 2363SOL    HW2 7989   4.104   0.689   3.852
 2364SOL     OW 7990   1.371   2.740   1.297
 2364SOL    HW1 7991   1.316   2.664   1.261
 2364SOL    HW2 7992   1.464   2.735   1.260
 2365SOL     OW 7993   4.914   1.879   0.335
 2365SOL    HW1 7994   4.922   1.887   0.235
 2365SOL    HW2 7995   4.974   1.946   0.378
 2366SOL     OW 7996   4.694   5.372   0.698
 2366SOL    HW1 7997   4.693   5.470   0.680
 2366SOL    HW2 7998   4.716   5.356   0.794
 2367SOL     OW 7999   2.043   3.618   6.080
 2367SOL    HW1 8000   2.140   3.627   6.057
 2367SOL    HW2 8001   2.009   3.530   6.045
 2368SOL     OW 8002   5.909   6.153   1.750
 2368SOL    HW1 8003   5.873   6.194   1.667
 2368SOL    HW2 8004   5.931   6.225   1.816
 2369SOL     OW 8005   2.351   1.578   3.230
 2369SOL    HW1 8006   2.413   1.524   3.174
 2369SOL    HW2 8007   2.402   1.625   3.302
 2370SOL     OW 8008   6.077   2.781   6.258
 2370SOL    HW1 8009   6.091   2.868   6.304
 2370SOL    HW2 8010   6.029   2.796   6.171
 2371SOL     OW 8011   1.842   5.898   1.936
 2371SOL    HW1 8012   1.787   5.823   1.973
 2371SOL    HW2 8013   1.818   5.912   1.840
 2372SOL     OW 8014   6.309   2.667   2.952
 2372SOL    HW1 8015   6.323   2.672   3.051
 2372SOL    HW2 8016   6.382   2.716   2.906
 2373SOL     OW 8017   2.375   3.518   6.467
 2373SOL    HW1 8018   2.461   3.476   6.439
 2373SOL    HW2 8019   2.376   3.615   6.443
 2374SOL     OW 8020   5.511   2.645   4.778
 2374SOL    HW1 8021   5.519   2.560   4.830
 2374SOL    HW2 8022   5.491   2.721   4.841
 2375SOL     OW 8023   1.291   6.775   5.921
 2375SOL    HW1 8024   1.280   6.833   5.840
 2375SOL    HW2 8025   1.331   6.688   5.894
 2376SOL     OW 8026   0.205   2.471   3.991
 2376SOL    HW1 8027   0.248   2.424   4.068
 2376SOL    HW2 8028   0.251   2.559   3.977
 2377SOL     OW 8029   3.337   2.916   3.965
 2377SOL    HW1 8030   3.422   2.913   3.912
 2377SOL    HW2 8031   3.321   2.827   4.007
 2378SOL     OW 8032   5.206   2.078   0.709
 2378SOL    HW1 8033   5.173   2.091   0.802
 2378SOL    HW2 8034   5.300   2.112   0.702
 2379SOL     OW 8035   6.736   6.714   6.119
 2379SOL    HW1 8036   6.660   6.709   6.184
 2379SOL    HW2 8037   6.821   6.732   6.169
 2380SOL     OW 8038   6.357   2.085   2.696
 2380SOL    HW1 8039   6.333   2.087   2.599
 2380SOL    HW2 8040   6.306   2.156   2.745
 2381SOL     OW 8041   2.004   6.210   2.589
 2381SOL    HW1 8042   1.997   6.113   2.564
 2381SOL    HW2 8043   2.042   6.217   2.682
 2382SOL     OW 8044   1.659   3.062   5.701
 2382SOL    HW1 8045   1.626   3.007   5.778
 2382SOL    HW2 8046   1.759   3.063   5.700
 2383SOL     OW 8047   5.805   5.574   1.787
 2383SOL    HW1 8048   5.870   5.650   1.789
 2383SOL    HW2 8049   5.836   5.501   1.849
 2384SOL     OW 8050   4.151   1.208   1.548
 2384SOL    HW1 8051   4.206   1.248   1.476
 2384SOL    HW2 8052   4.057   1.197   1.517
 2385SOL     OW 8053   1.450   2.426   0.159
 2385SOL    HW1 8054   1.454   2.327   0.171
 2385SOL    HW2 8055   1.466   2.448   0.062
 2386SOL     OW 8056   4.281   4.865   3.734
 2386SOL    HW1 8057   4.285   4.936   3.663
 2386SOL    HW2 8058   4.374   4.831   3.752
 2387SOL     OW 8059   1.183   1.438   2.816
 2387SOL    HW1 8060   1.186   1.492   2.900
 2387SOL    HW2 8061   1.246   1.360   2.823
 2388SOL     OW 8062   0.181   1.657   4.031
 2388SOL    HW1 8063   0.215   1.606   3.952
 2388SOL    HW2 8064   0.243   1.646   4.108
 2389SOL     OW 8065   3.610   6.395   2.322
 2389SOL    HW1 8066   3.704   6.428   2.327
 2389SOL    HW2 8067   3.576   6.374   2.414
 2390SOL     OW 8068   3.140   4.735   1.328
 2390SOL    HW1 8069   3.228   4.762   1.367
 2390SOL    HW2 8070   3.073   4.723   1.401
 2391SOL     OW 8071   4.364   5.343   4.485
 2391SOL    HW1 8072   4.338   5.398   4.565
 2391SOL    HW2 8073   4.458   5.364   4.459
 2392SOL     OW 8074   4.079   1.272   6.764
 2392SOL    HW1 8075   4.060   1.345   6.698
 2392SOL    HW2 8076   4.140   1.205   6.722
 2393SOL     OW 8077   3.649   5.041   5.309
 2393SOL    HW1 8078   3.739   5.048   5.267
 2393SOL    HW2 8079   3.629   4.945   5.328
 2394SOL     OW 8080   0.149   4.961   5.673
 2394SOL    HW1 8081   0.214   4.993   5.742
 2394SOL    HW2 8082   0.138   4.861   5.681
 2395SOL     OW 8083   4.355   6.360   6.622
 2395SOL    HW1 8084   4.406   6.338   6.539
 2395SOL    HW2 8085   4.416   6.353   6.702
 2396SOL     OW 8086   2.840   5.650   1.320
 2396SOL    HW1 8087   2.779   5.637   1.398
 2396SOL    HW2 8088   2.933   5.663   1.354
 2397SOL     OW 8089   0.563   3.327   4.471
 2397SOL    HW1 8090   0.616   3.325   4.557
 2397SOL    HW2 8091   0.529   3.420   4.456
 2398SOL     OW 8092   4.841   3.648   5.358
 2398SOL    HW1 8093   4.878   3.568   5.404
 2398SOL    HW2 8094   4.795   3.620   5.274
 2399SOL     OW 8095   4.627   2.291   1.457
 2399SOL    HW1 8096   4.582   2.210   1.493
 2399SOL    HW2 8097   4.726   2.276   1.453
 2400SOL     OW 8098   1.816   5.101   0.364
 2400SOL    HW1 8099   1.889   5.110   0.432
 2400SOL    HW2 8100   1.824   5.014   0.317
 2401SOL     OW 8101   6.306   6.049   6.745
 2401SOL    HW1 8102   6.306   6.038   6.645
 2401SOL    HW2 8103   6.372   6.119   6.770
 2402SOL     OW 8104   6.663   6.982   4.008
 2402SOL    HW1 8105   6.697   6.926   3.933
 2402SOL    HW2 8106   6.714   6.961   4.091
 2403SOL     OW 8107   1.321   1.106   3.749
 2403SOL    HW1 8108   1.378   1.088   3.829
 2403SOL    HW2 8109   1.326   1.028   3.686
 2404SOL     OW 8110   1.338   0.196   6.633
 2404SOL    HW1 8111   1.289   0.165   6.715
 2404SOL    HW2 8112   1.372   0.117   6.582
 2405SOL     OW 8113   2.929   4.687   1.477
 2405SOL    HW1 8114   2.860   4.705   1.407
 2405SOL    HW2 8115   2.885   4.649   1.559
 2406SOL     OW 8116   5.098   1.112   1.126
 2406SOL    HW1 8117   5.119   1.168   1.206
 2406SOL    HW2 8118   5.006   1.075   1.135
 2407SOL     OW 8119   5.218   6.624   3.700
 2407SOL    HW1 8120   5.257   6.715   3.687
 2407SOL    HW2 8121   5.144   6.610   3.635
 2408SOL     OW 8122   4.225   4.694   2.187
 2408SOL    HW1 8123   4.142   4.649   2.220
 2408SOL    HW2 8124   4.303   4.663   2.243
 2409SOL     OW 8125   1.309   4.431   0.765
 2409SOL    HW1 8126   1.311   4.429   0.865
 2409SOL    HW2 8127   1.391   4.386   0.729
 2410SOL     OW 8128   4.116   3.304   2.953
 2410SOL    HW1 8129   4.171   3.302   3.036
 2410SOL    HW2 8130   4.133   3.389   2.903
 2411SOL     OW 8131   3.685   0.350   4.862
 2411SOL    HW1 8132   3.634   0.325   4.780
 2411SOL    HW2 8133   3.669   0.447   4.883
 2412SOL     OW 8134   4.228   3.862   1.253
 2412SOL    HW1 8135   4.327   3.865   1.239
 2412SOL    HW2 8136   4.198   3.949   1.294
 2413SOL     OW 8137   3.887   0.456   3.115
 2413SOL    HW1 8138   3.970   0.401   3.121
 2413SOL    HW2 8139   3.890   0.529   3.183
 2414SOL     OW 8140   5.298   3.241   4.497
 2414SOL    HW1 8141   5.393   3.255   4.526
 2414SOL    HW2 8142   5.285   3.280   4.406
 2415SOL     OW 8143   4.178   0.446   3.539
 2415SOL    HW1 8144   4.104   0.466   3.603
 2415SOL    HW2 8145   4.194   0.525   3.480
 2416SOL     OW 8146   5.707   1.755   6.402
 2416SOL    HW1 8147   5.637   1.805   6.454
 2416SOL    HW2 8148   5.678   1.747   6.307
 2417SOL     OW 8149   3.398   4.214   5.117
 2417SOL    HW1 8150   3.409   4.255   5.207
 2417SOL    HW2 8151   3.487   4.205   5.073
 2418SOL     OW 8152   3.093   3.282   2.565
 2418SOL    HW1 8153   3.184   3.322   2.549
 2418SOL    HW2 8154   3.023   3.347   2.537
 2419SOL     OW 8155   6.767   0.473   3.609
 2419SOL    HW1 8156   6.797   0.470   3.704
 2419SOL    HW2 8157   6.837   0.432   3.550
 2420SOL     OW 8158   2.169   6.946   1.980
 2420SOL    HW1 8159   2.197   6.981   1.891
 2420SOL    HW2 8160   2.226   6.867   2.004
 2421SOL     OW 8161   3.940   2.192   3.064
 2421SOL    HW1 8162   3.952   2.093   3.052
 2421SOL    HW2 8163   3.850   2.218   3.029
 2422SOL     OW 8164   5.585   1.498   1.264
 2422SOL    HW1 8165   5.499   1.492   1.317
 2422SOL    HW2 8166   5.568   1.548   1.179
 2423SOL     OW 8167   1.500   4.931   2.346
 2423SOL    HW1 8168   1.452   5.019   2.352
 2423SOL    HW2 8169   1.537   4.907   2.436
 2424SOL     OW 8170   6.745   0.065   0.306
 2424SOL    HW1 8171   6.694   0.140   0.264
 2424SOL    HW2 8172   6.746   0.077   0.405
 2425SOL     OW 8173   6.881   0.119   4.474
 2425SOL    HW1 8174   6.892   0.150   4.569
 2425SOL    HW2 8175   6.793   0.072   4.464
 2426SOL     OW 8176   1.899   5.348   4.258
 2426SOL    HW1 8177   1.852   5.352   4.170
 2426SOL    HW2 8178   1.859   5.415   4.321
 2427SOL     OW 8179   6.606   0.792   5.595
 2427SOL    HW1 8180   6.655   0.704   5.592
 2427SOL    HW2 8181   6.608   0.834   5.504
 2428SOL     OW 8182   5.732   1.735   0.495
 2428SOL    HW1 8183   5.733   1.753   0.397
 2428SOL    HW2 8184   5.691   1.646   0.513
 2429SOL     OW 8185   4.666   4.899   2.527
 2429SOL    HW1 8186   4.662   4.901   2.427
 2429SOL    HW2 8187   4.761   4.885   2.556
 2430SOL     OW 8188   4.727   0.132   2.673
 2430SOL    HW1 8189   4.734   0.107   2.770
 2430SOL    HW2 8190   4.633   0.158   2.652
 2431SOL     OW 8191   4.216   6.692   2.460
 2431SOL    HW1 8192   4.118   6.687   2.442
 2431SOL    HW2 8193   4.233   6.682   2.558
 2432SOL     OW 8194   2.350   5.816   2.034
 2432SOL    HW1 8195   2.358   5.812   1.935
 2432SOL    HW2 8196   2.269   5.764   2.063
 2433SOL     OW 8197   5.265   6.561   0.614
 2433SOL    HW1 8198   5.228   6.532   0.526
 2433SOL    HW2 8199   5.194   6.608   0.666
 2434SOL     OW 8200   3.303   3.275   4.967
 2434SOL    HW1 8201   3.391   3.318   4.947
 2434SOL    HW2 8202   3.285   3.203   4.900
 2435SOL     OW 8203   5.762   5.882   6.062
 2435SOL    HW1 8204   5.784   5.809   5.997
 2435SOL    HW2 8205   5.724   5.841   6.145
 2436SOL     OW 8206   3.072   4.396   1.012
 2436SOL    HW1 8207   3.116   4.484   0.994
 2436SOL    HW2 8208   3.003   4.406   1.083
 2437SOL     OW 8209   0.006   0.808   6.064
 2437SOL    HW1 8210   0.089   0.856   6.036
 2437SOL    HW2 8211   7.003   0.741   5.994
 2438SOL     OW 8212   3.584   3.651   0.620
 2438SOL    HW1 8213   3.493   3.634   0.657
 2438SOL    HW2 8214   3.618   3.739   0.654
 2439SOL     OW 8215   5.983   4.249   6.457
 2439SOL    HW1 8216   5.907   4.307   6.427
 2439SOL    HW2 8217   6.056   4.307   6.493
 2440SOL     OW 8218   5.892   5.116   6.173
 2440SOL    HW1 8219   5.804   5.077   6.146
 2440SOL    HW2 8220   5.965   5.052   6.151
 2441SOL     OW 8221   6.593   2.369   0.736
 2441SOL    HW1 8222   6.554   2.388   0.826
 2441SOL    HW2 8223   6.633   2.453   0.699
 2442SOL     OW 8224   6.566   1.918   4.503
 2442SOL    HW1 8225   6.588   1.828   4.539
 2442SOL    HW2 8226   6.488   1.911   4.440
 2443SOL     OW 8227   2.826   4.813   5.956
 2443SOL    HW1 8228   2.844   4.770   5.867
 2443SOL    HW2 8229   2.739   4.862   5.952
 2444SOL     OW 8230   3.421   2.638   6.255
 2444SOL    HW1 8231   3.506   2.690   6.245
 2444SOL    HW2 8232   3.347   2.700   6.281
 2445SOL     OW 8233   1.147   0.179   0.957
 2445SOL    HW1 8234   1.233   0.186   0.907
 2445SOL    HW2 8235   1.140   0.253   1.023
 2446SOL     OW 8236   4.925   2.793   6.563
 2446SOL    HW1 8237   4.964   2.701   6.569
 2446SOL    HW2 8238   4.850   2.793   6.497
 2447SOL     OW 8239   1.135   3.769   6.525
 2447SOL    HW1 8240   1.096   3.678   6.541
 2447SOL    HW2 8241   1.211   3.761   6.460
 2448SOL     OW 8242   6.804   0.884   4.882
 2448SOL    HW1 8243   6.833   0.893   4.977
 2448SOL    HW2 8244   6.708   0.912   4.874
 2449SOL     OW 8245   6.750   3.073   5.590
 2449SOL    HW1 8246   6.734   3.068   5.688
 2449SOL    HW2 8247   6.744   2.981   5.550
 2450SOL     OW 8248   2.595   3.239   1.354
 2450SOL    HW1 8249   2.516   3.298   1.375
 2450SOL    HW2 8250   2.678   3.281   1.391
 2451SOL     OW 8251   1.879   6.123   3.701
 2451SOL    HW1 8252   1.945   6.073   3.756
 2451SOL    HW2 8253   1.794   6.071   3.693
 2452SOL     OW 8254   2.345   1.539   4.235
 2452SOL    HW1 8255   2.324   1.462   4.175
 2452SOL    HW2 8256   2.388   1.612   4.182
 2453SOL     OW 8257   0.207   4.273   0.944
 2453SOL    HW1 8258   0.287   4.233   0.898
 2453SOL    HW2 8259   0.164   4.204   1.002
 2454SOL     OW 8260   0.941   6.673   1.885
 2454SOL    HW1 8261   0.915   6.767   1.862
 2454SOL    HW2 8262   1.017   6.644   1.827
 2455SOL     OW 8263   5.704   3.762   1.341
 2455SOL    HW1 8264   5.650   3.812   1.409
 2455SOL    HW2 8265   5.789   3.811   1.324
 2456SOL     OW 8266   2.467   6.736   1.591
 2456SOL    HW1 8267   2.479   6.639   1.572
 2456SOL    HW2 8268   2.547   6.771   1.639
 2457SOL     OW 8269   5.270   5.581   0.834
 2457SOL    HW1 8270   5.293   5.582   0.932
 2457SOL    HW2 8271   5.175   5.553   0.823
 2458SOL     OW 8272   0.578   6.294   1.365
 2458SOL    HW1 8273   0.557   6.342   1.279
 2458SOL    HW2 8274   0.522   6.212   1.372
 2459SOL     OW 8275   1.549   1.707   6.997
 2459SOL    HW1 8276   1.645   1.716   6.973
 2459SOL    HW2 8277   1.505   1.797   6.991
 2460SOL     OW 8278   2.109   4.718   0.777
 2460SOL    HW1 8279   2.152   4.800   0.816
 2460SOL    HW2 8280   2.155   4.636   0.813
 2461SOL     OW 8281   4.397   1.362   3.355
 2461SOL    HW1 8282   4.361   1.370   3.448
 2461SOL    HW2 8283   4.496   1.375   3.356
 2462SOL     OW 8284   3.074   4.567   6.162
 2462SOL    HW1 8285   3.157   4.553   6.107
 2462SOL    HW2 8286   3.051   4.664   6.163
 2463SOL     OW 8287   1.075   3.408   5.390
 2463SOL    HW1 8288   1.169   3.385   5.366
 2463SOL    HW2 8289   1.052   3.366   5.478
 2464SOL     OW 8290   0.988   3.635   0.917
 2464SOL    HW1 8291   1.014   3.684   0.834
 2464SOL    HW2 8292   0.899   3.592   0.904
 2465SOL     OW 8293   6.004   3.947   3.146
 2465SOL    HW1 8294   5.967   4.037   3.168
 2465SOL    HW2 8295   5.950   3.907   3.071
 2466SOL     OW 8296   4.414   1.710   1.764
 2466SOL    HW1 8297   4.428   1.802   1.800
 2466SOL    HW2 8298   4.347   1.662   1.820
 2467SOL     OW 8299   1.210   1.248   4.269
 2467SOL    HW1 8300   1.148   1.214   4.199
 2467SOL    HW2 8301   1.293   1.285   4.226
 2468SOL     OW 8302   6.080   5.185   6.364
 2468SOL    HW1 8303   6.156   5.245   6.340
 2468SOL    HW2 8304   6.021   5.173   6.284
 2469SOL     OW 8305   2.680   2.143   5.976
 2469SOL    HW1 8306   2.713   2.236   5.965
 2469SOL    HW2 8307   2.584   2.145   6.002
 2470SOL     OW 8308   5.089   2.945   1.381
 2470SOL    HW1 8309   5.129   2.906   1.463
 2470SOL    HW2 8310   5.007   2.894   1.356
 2471SOL     OW 8311   0.090   1.014   3.173
 2471SOL    HW1 8312   0.009   1.025   3.230
 2471SOL    HW2 8313   0.082   1.071   3.091
 2472SOL     OW 8314   6.380   1.053   4.187
 2472SOL    HW1 8315   6.317   1.014   4.120
 2472SOL    HW2 8316   6.356   1.149   4.202
 2473SOL     OW 8317   0.850   5.562   5.003
 2473SOL    HW1 8318   0.910   5.499   5.052
 2473SOL    HW2 8319   0.758   5.558   5.042
 2474SOL     OW 8320   5.690   6.929   4.666
 2474SOL    HW1 8321   5.594   6.920   4.693
 2474SOL    HW2 8322   5.743   6.965   4.743
 2475SOL     OW 8323   3.622   3.001   6.383
 2475SOL    HW1 8324   3.544   2.963   6.333
 2475SOL    HW2 8325   3.635   3.097   6.359
 2476SOL     OW 8326   0.749   1.174   3.726
 2476SOL    HW1 8327   0.672   1.168   3.663
 2476SOL    HW2 8328   0.760   1.087   3.774
 2477SOL     OW 8329   4.529   4.486   2.127
 2477SOL    HW1 8330   4.534   4.399   2.078
 2477SOL    HW2 8331   4.444   4.533   2.102
 2478SOL     OW 8332   6.994   0.382   2.812
 2478SOL    HW1 8333   7.014   0.293   2.853
 2478SOL    HW2 8334   6.900   0.384   2.779
 2479SOL     OW 8335   1.294   3.074   0.578
 2479SOL    HW1 8336   1.310   2.982   0.542
 2479SOL    HW2 8337   1.198   3.083   0.605
 2480SOL     OW 8338   6.564   4.751   1.068
 2480SOL    HW1 8339   6.524   4.826   1.121
 2480SOL    HW2 8340   6.616   4.691   1.129
 2481SOL     OW 8341   4.117   4.746   2.624
 2481SOL    HW1 8342   4.077   4.706   2.542
 2481SOL    HW2 8343   4.191   4.808   2.598
 2482SOL     OW 8344   3.979   2.177   4.695
 2482SOL    HW1 8345   3.887   2.208   4.670
 2482SOL    HW2 8346   4.040   2.189   4.617
 2483SOL     OW 8347   0.793   3.424   0.004
 2483SOL    HW1 8348   0.804   3.403   0.101
 2483SOL    HW2 8349   0.707   3.473   7.013
 2484SOL     OW 8350   3.613   4.251   5.516
 2484SOL    HW1 8351   3.695   4.294   5.553
 2484SOL    HW2 8352   3.637   4.160   5.482
 2485SOL     OW 8353   0.659   4.462   0.025
 2485SOL    HW1 8354   0.676   4.441   6.952
 2485SOL    HW2 8355   0.733   4.519   0.060
 2486SOL     OW 8356   0.678   5.271   3.959
 2486SOL    HW1 8357   0.696   5.186   4.009
 2486SOL    HW2 8358   0.590   5.264   3.911
 2487SOL     OW 8359   2.455   1.278   0.985
 2487SOL    HW1 8360   2.471   1.257   0.888
 2487SOL    HW2 8361   2.496   1.206   1.041
 2488SOL     OW 8362   2.660   5.430   0.157
 2488SOL    HW1 8363   2.572   5.435   0.109
 2488SOL    HW2 8364   2.667   5.506   0.221
 2489SOL     OW 8365   6.338   5.813   4.662
 2489SOL    HW1 8366   6.344   5.880   4.588
 2489SOL    HW2 8367   6.293   5.730   4.628
 2490SOL     OW 8368   5.936   2.493   1.283
 2490SOL    HW1 8369   6.012   2.520   1.223
 2490SOL    HW2 8370   5.850   2.528   1.245
 2491SOL     OW 8371   6.614   4.318   2.726
 2491SOL    HW1 8372   6.598   4.350   2.819
 2491SOL    HW2 8373   6.574   4.382   2.661
 2492SOL     OW 8374   3.672   1.999   0.039
 2492SOL    HW1 8375   3.680   2.037   6.970
 2492SOL    HW2 8376   3.634   1.907   0.034
 2493SOL     OW 8377   6.745   0.828   5.841
 2493SOL    HW1 8378   6.705   0.815   5.750
 2493SOL    HW2 8379   6.718   0.918   5.876
 2494SOL     OW 8380   5.301   5.530   0.361
 2494SOL    HW1 8381   5.347   5.495   0.278
 2494SOL    HW2 8382   5.266   5.453   0.414
 2495SOL     OW 8383   6.922   1.185   2.228
 2495SOL    HW1 8384   6.979   1.142   2.298
 2495SOL    HW2 8385   6.979   1.243   2.170
 2496SOL     OW 8386   1.908   4.891   0.671
 2496SOL    HW1 8387   1.928   4.812   0.729
 2496SOL    HW2 8388   1.888   4.970   0.728
 2497SOL     OW 8389   5.925   1.272   6.555
 2497SOL    HW1 8390   5.919   1.235   6.462
 2497SOL    HW2 8391   5.985   1.352   6.554
 2498SOL     OW 8392   1.379   3.239   4.520
 2498SOL    HW1 8393   1.401   3.336   4.533
 2498SOL    HW2 8394   1.339   3.203   4.604
 2499SOL     OW 8395   5.107   0.445   6.756
 2499SOL    HW1 8396   5.189   0.477   6.803
 2499SOL    HW2 8397   5.029   0.448   6.818
 2500SOL     OW 8398   5.475   3.237   5.969
 2500SOL    HW1 8399   5.554   3.271   6.019
 2500SOL    HW2 8400   5.504   3.160   5.911
 2501SOL     OW 8401   6.243   4.798   1.024
 2501SOL    HW1 8402   6.191   4.875   1.060
 2501SOL    HW2 8403   6.332   4.794   1.068
 2502SOL     OW 8404   1.275   6.641   2.962
 2502SOL    HW1 8405   1.243   6.559   3.009
 2502SOL    HW2 8406   1.308   6.708   3.029
 2503SOL     OW 8407   5.761   5.959   3.266
 2503SOL    HW1 8408   5.855   5.977   3.240
 2503SOL    HW2 8409   5.699   6.009   3.205
 2504SOL     OW 8410   2.706   5.012   2.919
 2504SOL    HW1 8411   2.749   4.922   2.927
 2504SOL    HW2 8412   2.607   5.001   2.913
 2505SOL     OW 8413   4.830   3.977   4.550
 2505SOL    HW1 8414   4.858   3.892   4.504
 2505SOL    HW2 8415   4.853   3.971   4.647
 2506SOL     OW 8416   1.342   1.461   0.093
 2506SOL    HW1 8417   1.423   1.513   0.064
 2506SOL    HW2 8418   1.273   1.463   0.020
 2507SOL     OW 8419   0.061   5.908   0.580
 2507SOL    HW1 8420   0.029   5.869   0.493
 2507SOL    HW2 8421   0.160   5.895   0.587
 2508SOL     OW 8422   1.774   1.514   1.332
 2508SOL    HW1 8423   1.693   1.539   1.280
 2508SOL    HW2 8424   1.821   1.437   1.288
 2509SOL     OW 8425   6.091   0.111   4.039
 2509SOL    HW1 8426   6.011   0.171   4.046
 2509SOL    HW2 8427   6.062   0.019   4.012
 2510SOL     OW 8428   3.494   6.078   2.971
 2510SOL    HW1 8429   3.485   6.167   3.017
 2510SOL    HW2 8430   3.483   6.090   2.873
 2511SOL     OW 8431   0.734   5.121   4.179
 2511SOL    HW1 8432   0.833   5.122   4.193
 2511SOL    HW2 8433   0.689   5.082   4.259
 2512SOL     OW 8434   5.864   2.998   4.515
 2512SOL    HW1 8435   5.859   3.098   4.513
 2512SOL    HW2 8436   5.855   2.966   4.609
 2513SOL     OW 8437   0.676   4.936   1.719
 2513SOL    HW1 8438   0.611   4.979   1.656
 2513SOL    HW2 8439   0.655   4.964   1.812
 2514SOL     OW 8440   6.735   2.104   4.357
 2514SOL    HW1 8441   6.700   2.033   4.417
 2514SOL    HW2 8442   6.806   2.156   4.404
 2515SOL     OW 8443   0.688   4.808   6.466
 2515SOL    HW1 8444   0.766   4.819   6.404
 2515SOL    HW2 8445   0.627   4.736   6.431
 2516SOL     OW 8446   4.390   6.885   4.838
 2516SOL    HW1 8447   4.344   6.969   4.868
 2516SOL    HW2 8448   4.483   6.883   4.876
 2517SOL     OW 8449   2.801   5.736   0.111
 2517SOL    HW1 8450   2.746   5.756   0.030
 2517SOL    HW2 8451   2.890   5.701   0.083
 2518SOL     OW 8452   2.049   1.755   0.074
 2518SOL    HW1 8453   2.063   1.800   0.162
 2518SOL    HW2 8454   2.069   1.658   0.082
 2519SOL     OW 8455   6.148   4.316   4.647
 2519SOL    HW1 8456   6.104   4.343   4.561
 2519SOL    HW2 8457   6.204   4.392   4.680
 2520SOL     OW 8458   4.211   5.714   1.234
 2520SOL    HW1 8459   4.282   5.709   1.305
 2520SOL    HW2 8460   4.240   5.779   1.163
 2521SOL     OW 8461   5.683   6.740   5.521
 2521SOL    HW1 8462   5.757   6.758   5.457
 2521SOL    HW2 8463   5.720   6.733   5.614
 2522SOL     OW 8464   3.439   5.159   5.408
 2522SOL    HW1 8465   3.494   5.138   5.328
 2522SOL    HW2 8466   3.418   5.257   5.410
 2523SOL     OW 8467   0.919   2.035   6.998
 2523SOL    HW1 8468   0.948   2.044   6.902
 2523SOL    HW2 8469   1.000   2.032   0.033
 2524SOL     OW 8470   1.856   0.171   4.281
 2524SOL    HW1 8471   1.901   0.096   4.233
 2524SOL    HW2 8472   1.792   0.217   4.219
 2525SOL     OW 8473   2.799   4.753   2.464
 2525SOL    HW1 8474   2.775   4.730   2.370
 2525SOL    HW2 8475   2.820   4.851   2.470
 2526SOL     OW 8476   1.818   3.192   4.710
 2526SOL    HW1 8477   1.754   3.142   4.651
 2526SOL    HW2 8478   1.784   3.285   4.724
 2527SOL     OW 8479   6.653   0.222   3.887
 2527SOL    HW1 8480   6.718   0.147   3.898
 2527SOL    HW2 8481   6.559   0.186   3.892
 2528SOL     OW 8482   5.278   4.775   2.027
 2528SOL    HW1 8483   5.370   4.816   2.031
 2528SOL    HW2 8484   5.270   4.706   2.099
 2529SOL     OW 8485   4.977   5.179   4.763
 2529SOL    HW1 8486   5.063   5.207   4.719
 2529SOL    HW2 8487   4.976   5.212   4.858
 2530SOL     OW 8488   1.249   6.319   3.354
 2530SOL    HW1 8489   1.327   6.382   3.353
 2530SOL    HW2 8490   1.220   6.303   3.448
 2531SOL     OW 8491   5.438   2.625   6.178
 2531SOL    HW1 8492   5.341   2.619   6.201
 2531SOL    HW2 8493   5.452   2.695   6.108
 2532SOL     OW 8494   0.181   5.641   6.733
 2532SOL    HW1 8495   0.213   5.624   6.826
 2532SOL    HW2 8496   0.243   5.704   6.688
 2533SOL     OW 8497   5.098   0.680   4.230
 2533SOL    HW1 8498   5.157   0.629   4.292
 2533SOL    HW2 8499   5.150   0.704   4.147
 2534SOL     OW 8500   6.761   1.597   2.510
 2534SOL    HW1 8501   6.763   1.564   2.416
 2534SOL    HW2 8502   6.678   1.563   2.555
 2535SOL     OW 8503   2.973   1.469   1.887
 2535SOL    HW1 8504   2.916   1.516   1.954
 2535SOL    HW2 8505   3.016   1.536   1.827
 2536SOL     OW 8506   0.705   6.931   3.240
 2536SOL    HW1 8507   0.682   0.003   3.259
 2536SOL    HW2 8508   0.676   6.908   3.147
 2537SOL     OW 8509   2.261   6.060   2.143
 2537SOL    HW1 8510   2.286   5.964   2.126
 2537SOL    HW2 8511   2.163   6.067   2.158
 2538SOL     OW 8512   6.600   5.310   5.331
 2538SOL    HW1 8513   6.578   5.329   5.426
 2538SOL    HW2 8514   6.626   5.214   5.321
 2539SOL     OW 8515   0.952   0.099   5.156
 2539SOL    HW1 8516   1.027   0.047   5.198
 2539SOL    HW2 8517   0.885   0.122   5.227
 2540SOL     OW 8518   5.567   2.823   1.692
 2540SOL    HW1 8519   5.573   2.848   1.788
 2540SOL    HW2 8520   5.622   2.742   1.674
 2541SOL     OW 8521   1.928   0.830   0.329
 2541SOL    HW1 8522   1.830   0.832   0.350
 2541SOL    HW2 8523   1.956   0.919   0.292
 2542SOL     OW 8524   4.027   1.861   2.923
 2542SOL    HW1 8525   3.963   1.785   2.926
 2542SOL    HW2 8526   4.076   1.867   3.010
 2543SOL     OW 8527   5.803   6.499   5.172
 2543SOL    HW1 8528   5.888   6.463   5.210
 2543SOL    HW2 8529   5.725   6.470   5.228
 2544SOL     OW 8530   0.243   0.344   0.329
 2544SOL    HW1 8531   0.276   0.414   0.392
 2544SOL    HW2 8532   0.160   0.302   0.365
 2545SOL     OW 8533   0.639   1.531   0.083
 2545SOL    HW1 8534   0.552   1.537   0.132
 2545SOL    HW2 8535   0.674   1.623   0.066
 2546SOL     OW 8536   6.001   3.231   3.408
 2546SOL    HW1 8537   6.062   3.297   3.364
 2546SOL    HW2 8538   5.943   3.188   3.338
 2547SOL     OW 8539   6.013   3.739   0.922
 2547SOL    HW1 8540   5.933   3.717   0.978
 2547SOL    HW2 8541   5.991   3.726   0.825
 2548SOL     OW 8542   6.301   0.370   5.391
 2548SOL    HW1 8543   6.346   0.291   5.432
 2548SOL    HW2 8544   6.354   0.453   5.409
 2549SOL     OW 8545   2.752   4.459   6.661
 2549SOL    HW1 8546   2.774   4.385   6.598
 2549SOL    HW2 8547   2.835   4.512   6.680
 2550SOL     OW 8548   3.906   0.847   1.094
 2550SOL    HW1 8549   4.001   0.877   1.097
 2550SOL    HW2 8550   3.901   0.755   1.056
 2551SOL     OW 8551   2.769   4.605   1.238
 2551SOL    HW1 8552   2.805   4.515   1.215
 2551SOL    HW2 8553   2.787   4.669   1.163
 2552SOL     OW 8554   3.087   5.650   1.418
 2552SOL    HW1 8555   3.100   5.702   1.503
 2552SOL    HW2 8556   3.127   5.559   1.429
 2553SOL     OW 8557   4.286   2.190   1.412
 2553SOL    HW1 8558   4.320   2.238   1.332
 2553SOL    HW2 8559   4.361   2.175   1.477
 2554SOL     OW 8560   1.398   6.253   0.741
 2554SOL    HW1 8561   1.341   6.180   0.704
 2554SOL    HW2 8562   1.439   6.305   0.666
 2555SOL     OW 8563   0.729   5.971   4.412
 2555SOL    HW1 8564   0.678   5.918   4.479
 2555SOL    HW2 8565   0.718   5.930   4.322
 2556SOL     OW 8566   5.515   0.874   0.817
 2556SOL    HW1 8567   5.480   0.967   0.818
 2556SOL    HW2 8568   5.605   0.872   0.774
 2557SOL     OW 8569   2.838   1.308   0.159
 2557SOL    HW1 8570   2.740   1.287   0.149
 2557SOL    HW2 8571   2.871   1.354   0.077
 2558SOL     OW 8572   6.065   2.709   1.565
 2558SOL    HW1 8573   6.132   2.637   1.548
 2558SOL    HW2 8574   5.975   2.667   1.576
 2559SOL     OW 8575   6.789   6.050   3.231
 2559SOL    HW1 8576   6.704   5.998   3.235
 2559SOL    HW2 8577   6.786   6.124   3.298
 2560SOL     OW 8578   4.227   2.912   1.590
 2560SOL    HW1 8579   4.206   2.814   1.590
 2560SOL    HW2 8580   4.154   2.961   1.636
 2561SOL     OW 8581   3.730   0.729   4.438
 2561SOL    HW1 8582   3.668   0.703   4.512
 2561SOL    HW2 8583   3.809   0.668   4.439
 2562SOL     OW 8584   1.743   6.499   5.110
 2562SOL    HW1 8585   1.678   6.498   5.034
 2562SOL    HW2 8586   1.708   6.443   5.185
 2563SOL     OW 8587   4.710   2.485   7.007
 2563SOL    HW1 8588   4.665   2.434   0.057
 2563SOL    HW2 8589   4.652   2.561   6.979
 2564SOL     OW 8590   1.751   1.131   1.478
 2564SOL    HW1 8591   1.808   1.124   1.396
 2564SOL    HW2 8592   1.767   1.218   1.523
 2565SOL     OW 8593   6.745   0.096   1.060
 2565SOL    HW1 8594   6.678   0.167   1.079
 2565SOL    HW2 8595   6.704   0.006   1.078
 2566SOL     OW 8596   2.998   1.599   0.866
 2566SOL    HW1 8597   2.943   1.608   0.783
 2566SOL    HW2 8598   2.997   1.686   0.916
 2567SOL     OW 8599   2.156   0.804   5.937
 2567SOL    HW1 8600   2.244   0.757   5.925
 2567SOL    HW2 8601   2.166   0.900   5.910
 2568SOL     OW 8602   3.095   6.364   6.965
 2568SOL    HW1 8603   3.063   6.317   0.025
 2568SOL    HW2 8604   3.017   6.399   6.914
 2569SOL     OW 8605   2.772   6.330   6.791
 2569SOL    HW1 8606   2.711   6.309   6.868
 2569SOL    HW2 8607   2.757   6.425   6.762
 2570SOL     OW 8608   6.819   0.147   3.330
 2570SOL    HW1 8609   6.749   0.162   3.399
 2570SOL    HW2 8610   6.827   0.228   3.272
 2571SOL     OW 8611   3.258   3.622   2.378
 2571SOL    HW1 8612   3.329   3.688   2.402
 2571SOL    HW2 8613   3.185   3.669   2.329
 2572SOL     OW 8614   3.307   6.558   2.553
 2572SOL    HW1 8615   3.238   6.492   2.523
 2572SOL    HW2 8616   3.398   6.521   2.537
 2573SOL     OW 8617   6.129   0.456   2.574
 2573SOL    HW1 8618   6.064   0.449   2.498
 2573SOL    HW2 8619   6.145   0.552   2.596
 2574SOL     OW 8620   0.792   4.453   2.094
 2574SOL    HW1 8621   0.812   4.472   1.997
 2574SOL    HW2 8622   0.802   4.355   2.111
 2575SOL     OW 8623   4.450   3.612   5.328
 2575SOL    HW1 8624   4.486   3.703   5.350
 2575SOL    HW2 8625   4.524   3.555   5.291
 2576SOL     OW 8626   0.482   0.550   3.077
 2576SOL    HW1 8627   0.401   0.562   3.135
 2576SOL    HW2 8628   0.459   0.489   3.001
 2577SOL     OW 8629   1.640   4.626   0.640
 2577SOL    HW1 8630   1.700   4.681   0.581
 2577SOL    HW2 8631   1.606   4.547   0.588
 2578SOL     OW 8632   4.908   1.321   4.898
 2578SOL    HW1 8633   4.982   1.254   4.896
 2578SOL    HW2 8634   4.852   1.306   4.979
 2579SOL     OW 8635   0.289   1.881   6.337
 2579SOL    HW1 8636   0.213   1.873   6.401
 2579SOL    HW2 8637   0.332   1.970   6.346
 2580SOL     OW 8638   1.645   2.469   5.388
 2580SOL    HW1 8639   1.689   2.544   5.438
 2580SOL    HW2 8640   1.547   2.488   5.381
 2581SOL     OW 8641   4.238   6.599   4.306
 2581SOL    HW1 8642   4.157   6.643   4.268
 2581SOL    HW2 8643   4.226   6.500   4.304
 2582SOL     OW 8644   6.674   4.820   2.951
 2582SOL    HW1 8645   6.722   4.733   2.939
 2582SOL    HW2 8646   6.721   4.892   2.899
 2583SOL     OW 8647   2.844   0.862   6.933
 2583SOL    HW1 8648   2.866   0.949   6.889
 2583SOL    HW2 8649   2.883   0.787   6.881
 2584SOL     OW 8650   3.698   0.220   3.334
 2584SOL    HW1 8651   3.676   0.272   3.251
 2584SOL    HW2 8652   3.786   0.174   3.323
 2585SOL     OW 8653   3.756   0.876   2.971
 2585SOL    HW1 8654   3.820   0.878   3.048
 2585SOL    HW2 8655   3.738   0.781   2.945
 2586SOL     OW 8656   1.198   2.071   4.264
 2586SOL    HW1 8657   1.280   2.125   4.283
 2586SOL    HW2 8658   1.118   2.119   4.298
 2587SOL     OW 8659   6.637   4.315   3.551
 2587SOL    HW1 8660   6.612   4.270   3.637
 2587SOL    HW2 8661   6.557   4.319   3.492
 2588SOL     OW 8662   3.222   0.315   2.539
 2588SOL    HW1 8663   3.215   0.400   2.486
 2588SOL    HW2 8664   3.140   0.260   2.523
 2589SOL     OW 8665   4.736   6.705   2.086
 2589SOL    HW1 8666   4.831   6.689   2.110
 2589SOL    HW2 8667   4.680   6.706   2.169
 2590SOL     OW 8668   4.633   6.250   3.622
 2590SOL    HW1 8669   4.728   6.240   3.592
 2590SOL    HW2 8670   4.597   6.162   3.651
 2591SOL     OW 8671   5.663   0.637   1.350
 2591SOL    HW1 8672   5.760   0.651   1.366
 2591SOL    HW2 8673   5.648   0.616   1.253
 2592SOL     OW 8674   2.524   5.111   1.605
 2592SOL    HW1 8675   2.593   5.039   1.602
 2592SOL    HW2 8676   2.440   5.076   1.646
 2593SOL     OW 8677   2.355   0.161   4.119
 2593SOL    HW1 8678   2.374   0.249   4.077
 2593SOL    HW2 8679   2.390   0.160   4.213
 2594SOL     OW 8680   2.176   5.802   6.114
 2594SOL    HW1 8681   2.189   5.703   6.120
 2594SOL    HW2 8682   2.124   5.834   6.193
 2595SOL     OW 8683   6.983   3.093   5.198
 2595SOL    HW1 8684   7.010   3.114   5.292
 2595SOL    HW2 8685   0.017   3.146   5.134
 2596SOL     OW 8686   4.495   1.732   0.632
 2596SOL    HW1 8687   4.423   1.753   0.567
 2596SOL    HW2 8688   4.455   1.705   0.720
 2597SOL     OW 8689   2.564   2.057   6.461
 2597SOL    HW1 8690   2.471   2.066   6.496
 2597SOL    HW2 8691   2.612   1.986   6.512
 2598SOL     OW 8692   6.460   1.161   3.101
 2598SOL    HW1 8693   6.466   1.241   3.161
 2598SOL    HW2 8694   6.392   1.179   3.030
 2599SOL     OW 8695   4.862   5.710   5.770
 2599SOL    HW1 8696   4.917   5.771   5.712
 2599SOL    HW2 8697   4.784   5.760   5.806
 2600SOL     OW 8698   0.325   2.914   4.699
 2600SOL    HW1 8699   0.381   2.961   4.630
 2600SOL    HW2 8700   0.383   2.888   4.777
 2601SOL     OW 8701   4.342   4.355   5.406
 2601SOL    HW1 8702   4.328   4.417   5.329
 2601SOL    HW2 8703   4.336   4.406   5.492
 2602SOL     OW 8704   6.001   6.715   0.335
 2602SOL    HW1 8705   6.047   6.787   0.387
 2602SOL    HW2 8706   5.919   6.686   0.384
 2603SOL     OW 8707   1.814   1.840   6.959
 2603SOL    HW1 8708   1.901   1.830   7.007
 2603SOL    HW2 8709   1.824   1.808   6.865
 2604SOL     OW 8710   5.891   1.441   0.779
 2604SOL    HW1 8711   5.977   1.392   0.766
 2604SOL    HW2 8712   5.904   1.537   0.755
 2605SOL     OW 8713   5.621   2.557   5.440
 2605SOL    HW1 8714   5.533   2.512   5.453
 2605SOL    HW2 8715   5.646   2.554   5.343
 2606SOL     OW 8716   6.173   4.378   1.650
 2606SOL    HW1 8717   6.160   4.335   1.740
 2606SOL    HW2 8718   6.235   4.322   1.595
 2607SOL     OW 8719   0.565   0.932   3.378
 2607SOL    HW1 8720   0.595   0.967   3.289
 2607SOL    HW2 8721   0.614   0.847   3.399
 2608SOL     OW 8722   4.434   0.511   0.037
 2608SOL    HW1 8723   4.371   0.518   6.983
 2608SOL    HW2 8724   4.459   0.415   0.050
 2609SOL     OW 8725   1.049   4.158   3.475
 2609SOL    HW1 8726   1.100   4.243   3.460
 2609SOL    HW2 8727   1.112   4.080   3.472
 2610SOL     OW 8728   5.597   5.429   4.416
 2610SOL    HW1 8729   5.659   5.421   4.338
 2610SOL    HW2 8730   5.650   5.437   4.501
 2611SOL     OW 8731   2.659   6.534   1.889
 2611SOL    HW1 8732   2.588   6.494   1.831
 2611SOL    HW2 8733   2.692   6.619   1.848
 2612SOL     OW 8734   0.901   6.645   4.373
 2612SOL    HW1 8735   0.869   6.550   4.374
 2612SOL    HW2 8736   0.983   6.653   4.429
 2613SOL     OW 8737   4.085   2.036   6.870
 2613SOL    HW1 8738   4.040   2.111   6.821
 2613SOL    HW2 8739   4.031   1.953   6.861
 2614SOL     OW 8740   6.390   6.661   6.662
 2614SOL    HW1 8741   6.453   6.594   6.623
 2614SOL    HW2 8742   6.311   6.672   6.602
 2615SOL     OW 8743   0.322   4.251   1.305
 2615SOL    HW1 8744   0.285   4.327   1.251
 2615SOL    HW2 8745   0.393   4.286   1.366
 2616SOL     OW 8746   3.685   3.851   1.726
 2616SOL    HW1 8747   3.606   3.871   1.668
 2616SOL    HW2 8748   3.690   3.919   1.800
 2617SOL     OW 8749   2.775   6.859   1.362
 2617SOL    HW1 8750   2.748   6.946   1.404
 2617SOL    HW2 8751   2.735   6.853   1.270
 2618SOL     OW 8752   1.314   5.841   0.109
 2618SOL    HW1 8753   1.253   5.862   0.033
 2618SOL    HW2 8754   1.362   5.923   0.138
 2619SOL     OW 8755   6.280   1.060   2.183
 2619SOL    HW1 8756   6.204   1.006   2.217
 2619SOL    HW2 8757   6.338   1.003   2.124
 2620SOL     OW 8758   1.922   5.789   3.766
 2620SOL    HW1 8759   2.019   5.762   3.764
 2620SOL    HW2 8760   1.878   5.747   3.845
 2621SOL     OW 8761   1.699   5.679   4.346
 2621SOL    HW1 8762   1.792   5.667   4.312
 2621SOL    HW2 8763   1.635   5.681   4.268
 2622SOL     OW 8764   2.405   2.792   4.247
 2622SOL    HW1 8765   2.396   2.814   4.150
 2622SOL    HW2 8766   2.317   2.757   4.281
 2623SOL     OW 8767   3.024   0.057   5.483
 2623SOL    HW1 8768   3.103   0.092   5.431
 2623SOL    HW2 8769   3.033   0.083   5.579
 2624SOL     OW 8770   4.843   2.365   4.659
 2624SOL    HW1 8771   4.907   2.333   4.728
 2624SOL    HW2 8772   4.756   2.388   4.702
 2625SOL     OW 8773   2.429   0.017   5.732
 2625SOL    HW1 8774   2.390   0.108   5.747
 2625SOL    HW2 8775   2.468   7.006   5.818
 2626SOL     OW 8776   2.642   6.772   3.374
 2626SOL    HW1 8777   2.557   6.719   3.377
 2626SOL    HW2 8778   2.620   6.870   3.378
 2627SOL     OW 8779   1.148   0.382   4.842
 2627SOL    HW1 8780   1.220   0.401   4.776
 2627SOL    HW2 8781   1.064   0.356   4.794
 2628SOL     OW 8782   5.071   5.261   6.938
 2628SOL    HW1 8783   5.001   5.210   6.987
 2628SOL    HW2 8784   5.152   5.270   6.995
 2629SOL     OW 8785   2.869   3.658   1.847
 2629SOL    HW1 8786   2.888   3.722   1.921
 2629SOL    HW2 8787   2.954   3.617   1.816
 2630SOL     OW 8788   3.683   1.793   2.211
 2630SOL    HW1 8789   3.589   1.758   2.211
 2630SOL    HW2 8790   3.738   1.742   2.276
 2631SOL     OW 8791   3.299   6.850   4.278
 2631SOL    HW1 8792   3.339   6.917   4.340
 2631SOL    HW2 8793   3.367   6.780   4.256
 2632SOL     OW 8794   4.760   1.434   0.997
 2632SOL    HW1 8795   4.801   1.474   0.915
 2632SOL    HW2 8796   4.786   1.488   1.077
 2633SOL     OW 8797   0.467   2.163   0.173
 2633SOL    HW1 8798   0.442   2.075   0.213
 2633SOL    HW2 8799   0.560   2.187   0.201
 2634SOL     OW 8800   2.239   4.955   0.623
 2634SOL    HW1 8801   2.275   4.866   0.596
 2634SOL    HW2 8802   2.231   4.959   0.723
 2635SOL     OW 8803   6.832   4.119   3.521
 2635SOL    HW1 8804   6.928   4.142   3.509
 2635SOL    HW2 8805   6.777   4.203   3.522
 2636SOL     OW 8806   5.674   4.792   5.643
 2636SOL    HW1 8807   5.695   4.815   5.738
 2636SOL    HW2 8808   5.607   4.858   5.607
 2637SOL     OW 8809   5.403   5.152   2.240
 2637SOL    HW1 8810   5.383   5.084   2.309
 2637SOL    HW2 8811   5.494   5.191   2.256
 2638SOL     OW 8812   4.756   5.647   0.708
 2638SOL    HW1 8813   4.830   5.618   0.769
 2638SOL    HW2 8814   4.789   5.723   0.652
 2639SOL     OW 8815   6.864   0.872   0.330
 2639SOL    HW1 8816   6.962   0.873   0.315
 2639SOL    HW2 8817   6.830   0.778   0.323
 2640SOL     OW 8818   6.743   6.154   0.672
 2640SOL    HW1 8819   6.750   6.182   0.576
 2640SOL    HW2 8820   6.764   6.056   0.680
 2641SOL     OW 8821   0.031   5.786   1.144
 2641SOL    HW1 8822   0.112   5.800   1.202
 2641SOL    HW2 8823   0.060   5.773   1.049
 2642SOL     OW 8824   6.718   0.234   4.193
 2642SOL    HW1 8825   6.672   0.172   4.257
 2642SOL    HW2 8826   6.657   0.253   4.116
 2643SOL     OW 8827   1.787   0.563   2.023
 2643SOL    HW1 8828   1.695   0.536   2.052
 2643SOL    HW2 8829   1.854   0.529   2.088
 2644SOL     OW 8830   5.815   6.273   4.906
 2644SOL    HW1 8831   5.869   6.326   4.840
 2644SOL    HW2 8832   5.797   6.329   4.987
 2645SOL     OW 8833   5.431   6.015   6.535
 2645SOL    HW1 8834   5.353   6.015   6.597
 2645SOL    HW2 8835   5.515   6.031   6.587
 2646SOL     OW 8836   5.489   5.210   5.354
 2646SOL    HW1 8837   5.543   5.202   5.270
 2646SOL    HW2 8838   5.510   5.297   5.399
 2647SOL     OW 8839   3.293   4.462   0.576
 2647SOL    HW1 8840   3.391   4.458   0.594
 2647SOL    HW2 8841   3.249   4.380   0.614
 2648SOL     OW 8842   4.551   1.593   3.744
 2648SOL    HW1 8843   4.615   1.630   3.677
 2648SOL    HW2 8844   4.598   1.584   3.832
 2649SOL     OW 8845   2.952   3.947   5.038
 2649SOL    HW1 8846   2.924   3.880   4.970
 2649SOL    HW2 8847   3.035   3.994   5.007
 2650SOL     OW 8848   0.242   6.875   2.031
 2650SOL    HW1 8849   0.317   6.842   2.089
 2650SOL    HW2 8850   0.277   6.898   1.941
 2651SOL     OW 8851   1.520   0.015   2.603
 2651SOL    HW1 8852   1.572   0.016   2.517
 2651SOL    HW2 8853   1.457   6.961   2.602
 2652SOL     OW 8854   3.225   2.828   1.987
 2652SOL    HW1 8855   3.183   2.784   1.908
 2652SOL    HW2 8856   3.248   2.758   2.055
 2653SOL     OW 8857   6.063   6.930   1.218
 2653SOL    HW1 8858   6.124   6.916   1.296
 2653SOL    HW2 8859   6.026   6.842   1.188
 2654SOL     OW 8860   6.770   3.238   5.892
 2654SOL    HW1 8861   6.854   3.187   5.871
 2654SOL    HW2 8862   6.785   3.335   5.875
 2655SOL     OW 8863   5.438   4.744   4.030
 2655SOL    HW1 8864   5.409   4.649   4.045
 2655SOL    HW2 8865   5.373   4.790   3.970
 2656SOL     OW 8866   5.897   3.206   5.110
 2656SOL    HW1 8867   5.982   3.160   5.135
 2656SOL    HW2 8868   5.918   3.287   5.054
 2657SOL     OW 8869   4.026   1.879   5.493
 2657SOL    HW1 8870   4.095   1.906   5.560
 2657SOL    HW2 8871   4.010   1.955   5.430
 2658SOL     OW 8872   6.780   4.197   5.331
 2658SOL    HW1 8873   6.860   4.167   5.384
 2658SOL    HW2 8874   6.725   4.258   5.387
 2659SOL     OW 8875   6.519   1.234   3.503
 2659SOL    HW1 8876   6.535   1.147   3.457
 2659SOL    HW2 8877   6.431   1.271   3.473
 2660SOL     OW 8878   1.189   1.911   3.716
 2660SOL    HW1 8879   1.100   1.867   3.704
 2660SOL    HW2 8880   1.261   1.844   3.702
 2661SOL     OW 8881   3.584   6.708   3.538
 2661SOL    HW1 8882   3.533   6.668   3.462
 2661SOL    HW2 8883   3.662   6.759   3.504
 2662SOL     OW 8884   3.741   1.256   4.004
 2662SOL    HW1 8885   3.822   1.284   4.057
 2662SOL    HW2 8886   3.764   1.176   3.948
 2663SOL     OW 8887   0.755   4.035   3.054
 2663SOL    HW1 8888   0.774   4.088   3.137
 2663SOL    HW2 8889   0.834   4.041   2.993
 2664SOL     OW 8890   4.688   4.296   1.756
 2664SOL    HW1 8891   4.621   4.288   1.830
 2664SOL    HW2 8892   4.768   4.240   1.777
 2665SOL     OW 8893   4.144   0.917   5.307
 2665SOL    HW1 8894   4.128   0.969   5.224
 2665SOL    HW2 8895   4.079   0.944   5.377
 2666SOL     OW 8896   5.002   6.217   1.855
 2666SOL    HW1 8897   4.928   6.269   1.897
 2666SOL    HW2 8898   5.072   6.197   1.924
 2667SOL     OW 8899   1.745   4.700   2.688
 2667SOL    HW1 8900   1.755   4.713   2.787
 2667SOL    HW2 8901   1.819   4.747   2.641
 2668SOL     OW 8902   6.718   2.714   5.219
 2668SOL    HW1 8903   6.735   2.626   5.263
 2668SOL    HW2 8904   6.803   2.748   5.178
 2669SOL     OW 8905   3.725   5.920   4.859
 2669SOL    HW1 8906   3.675   5.883   4.781
 2669SOL    HW2 8907   3.747   5.846   4.923
 2670SOL     OW 8908   1.929   6.590   4.242
 2670SOL    HW1 8909   1.977   6.637   4.168
 2670SOL    HW2 8910   1.985   6.514   4.275
 2671SOL     OW 8911   3.048   3.771   6.966
 2671SOL    HW1 8912   3.087   3.825   0.017
 2671SOL    HW2 8913   2.958   3.808   6.941
 2672SOL     OW 8914   0.757   4.418   0.744
 2672SOL    HW1 8915   0.746   4.409   0.843
 2672SOL    HW2 8916   0.852   4.442   0.723
 2673SOL     OW 8917   3.867   1.628   3.037
 2673SOL    HW1 8918   3.849   1.647   3.133
 2673SOL    HW2 8919   3.870   1.529   3.023
 2674SOL     OW 8920   4.838   6.188   4.916
 2674SOL    HW1 8921   4.899   6.145   4.849
 2674SOL    HW2 8922   4.747   6.199   4.876
 2675SOL     OW 8923   0.280   5.295   5.948
 2675SOL    HW1 8924   0.211   5.229   5.977
 2675SOL    HW2 8925   0.278   5.304   5.848
 2676SOL     OW 8926   4.715   0.099   1.655
 2676SOL    HW1 8927   4.784   0.088   1.583
 2676SOL    HW2 8928   4.760   0.117   1.742
 2677SOL     OW 8929   2.355   4.569   2.119
 2677SOL    HW1 8930   2.445   4.575   2.076
 2677SOL    HW2 8931   2.350   4.485   2.173
 2678SOL     OW 8932   0.882   6.489   6.980
 2678SOL    HW1 8933   0.859   6.443   6.894
 2678SOL    HW2 8934   0.832   6.576   6.985
 2679SOL     OW 8935   1.991   5.119   1.263
 2679SOL    HW1 8936   1.912   5.169   1.298
 2679SOL    HW2 8937   1.998   5.134   1.164
 2680SOL     OW 8938   6.566   2.458   0.980
 2680SOL    HW1 8939   6.598   2.404   1.058
 2680SOL    HW2 8940   6.635   2.525   0.954
 2681SOL     OW 8941   1.804   2.177   1.655
 2681SOL    HW1 8942   1.870   2.116   1.699
 2681SOL    HW2 8943   1.842   2.208   1.567
 2682SOL     OW 8944   0.365   2.770   3.802
 2682SOL    HW1 8945   0.325   2.693   3.752
 2682SOL    HW2 8946   0.344   2.855   3.754
 2683SOL     OW 8947   1.740   6.806   0.676
 2683SOL    HW1 8948   1.774   6.767   0.761
 2683SOL    HW2 8949   1.811   6.801   0.606
 2684SOL     OW 8950   2.852   4.770   2.942
 2684SOL    HW1 8951   2.784   4.702   2.916
 2684SOL    HW2 8952   2.934   4.759   2.885
 2685SOL     OW 8953   5.217   4.283   5.864
 2685SOL    HW1 8954   5.236   4.381   5.872
 2685SOL    HW2 8955   5.221   4.241   5.955
 2686SOL     OW 8956   1.484   3.574   4.592
 2686SOL    HW1 8957   1.452   3.668   4.584
 2686SOL    HW2 8958   1.469   3.542   4.686
 2687SOL     OW 8959   4.475   5.075   3.004
 2687SOL    HW1 8960   4.392   5.021   2.992
 2687SOL    HW2 8961   4.529   5.071   2.920
 2688SOL     OW 8962   3.126   4.401   5.308
 2688SOL    HW1 8963   3.039   4.438   5.273
 2688SOL    HW2 8964   3.140   4.309   5.271
 2689SOL     OW 8965   5.961   1.714   3.979
 2689SOL    HW1 8966   5.954   1.783   4.051
 2689SOL    HW2 8967   5.932   1.753   3.892
 2690SOL     OW 8968   3.501   4.151   3.221
 2690SOL    HW1 8969   3.411   4.147   3.178
 2690SOL    HW2 8970   3.494   4.125   3.317
 2691SOL     OW 8971   0.839   5.904   1.098
 2691SOL    HW1 8972   0.918   5.950   1.058
 2691SOL    HW2 8973   0.795   5.847   1.028
 2692SOL     OW 8974   6.967   4.243   4.099
 2692SOL    HW1 8975   6.956   4.190   4.183
 2692SOL    HW2 8976   6.979   4.339   4.122
 2693SOL     OW 8977   2.156   3.669   2.728
 2693SOL    HW1 8978   2.160   3.644   2.632
 2693SOL    HW2 8979   2.170   3.768   2.738
 2694SOL     OW 8980   1.734   1.457   2.592
 2694SOL    HW1 8981   1.667   1.515   2.546
 2694SOL    HW2 8982   1.725   1.363   2.560
 2695SOL     OW 8983   3.980   2.181   1.975
 2695SOL    HW1 8984   3.942   2.173   1.883
 2695SOL    HW2 8985   3.908   2.168   2.042
 2696SOL     OW 8986   3.104   3.590   6.317
 2696SOL    HW1 8987   3.199   3.564   6.337
 2696SOL    HW2 8988   3.082   3.568   6.223
 2697SOL     OW 8989   2.380   0.790   4.920
 2697SOL    HW1 8990   2.457   0.743   4.962
 2697SOL    HW2 8991   2.296   0.737   4.935
 2698SOL     OW 8992   1.711   1.409   0.066
 2698SOL    HW1 8993   1.649   1.447   7.020
 2698SOL    HW2 8994   1.731   1.479   0.134
 2699SOL     OW 8995   1.565   4.837   3.775
 2699SOL    HW1 8996   1.476   4.827   3.818
 2699SOL    HW2 8997   1.560   4.907   3.704
 2700SOL     OW 8998   1.995   4.322   3.040
 2700SOL    HW1 8999   2.054   4.387   3.089
 2700SOL    HW2 9000   2.000   4.233   3.084
 2701SOL     OW 9001   1.916   0.732   5.469
 2701SOL    HW1 9002   1.849   0.805   5.480
 2701SOL    HW2 9003   1.982   0.757   5.398
 2702SOL     OW 9004   5.837   6.203   2.418
 2702SOL    HW1 9005   5.751   6.244   2.387
 2702SOL    HW2 9006   5.846   6.111   2.380
 2703SOL     OW 9007   2.011   2.658   2.544
 2703SOL    HW1 9008   2.103   2.696   2.531
 2703SOL    HW2 9009   1.952   2.690   2.470
 2704SOL     OW 9010   0.554   6.476   0.257
 2704SOL    HW1 9011   0.631   6.444   0.312
 2704SOL    HW2 9012   0.520   6.401   0.200
 2705SOL     OW 9013   0.504   3.019   2.702
 2705SOL    HW1 9014   0.536   3.112   2.688
 2705SOL    HW2 9015   0.448   2.991   2.625
 2706SOL     OW 9016   6.616   2.202   3.438
 2706SOL    HW1 9017   6.556   2.272   3.478
 2706SOL    HW2 9018   6.589   2.187   3.343
 2707SOL     OW 9019   3.660   0.825   0.257
 2707SOL    HW1 9020   3.669   0.862   0.350
 2707SOL    HW2 9021   3.643   0.900   0.193
 2708SOL     OW 9022   1.632   4.737   6.582
 2708SOL    HW1 9023   1.636   4.638   6.574
 2708SOL    HW2 9024   1.630   4.778   6.491
 2709SOL     OW 9025   4.017   0.154   2.064
 2709SOL    HW1 9026   3.932   0.199   2.038
 2709SOL    HW2 9027   4.052   0.195   2.149
 2710SOL     OW 9028   5.701   3.870   3.369
 2710SOL    HW1 9029   5.613   3.900   3.404
 2710SOL    HW2 9030   5.770   3.940   3.386
 2711SOL     OW 9031   0.528   6.514   1.528
 2711SOL    HW1 9032   0.564   6.450   1.460
 2711SOL    HW2 9033   0.448   6.474   1.572
 2712SOL     OW 9034   3.296   5.548   3.012
 2712SOL    HW1 9035   3.202   5.514   3.010
 2712SOL    HW2 9036   3.353   5.486   3.066
 2713SOL     OW 9037   2.187   2.873   5.623
 2713SOL    HW1 9038   2.282   2.885   5.652
 2713SOL    HW2 9039   2.183   2.810   5.545
 2714SOL     OW 9040   5.525   0.856   6.897
 2714SOL    HW1 9041   5.523   0.852   6.797
 2714SOL    HW2 9042   5.432   0.845   6.932
 2715SOL     OW 9043   5.596   0.369   6.993
 2715SOL    HW1 9044   5.598   0.441   6.924
 2715SOL    HW2 9045   5.673   0.381   0.034
 2716SOL     OW 9046   6.157   6.381   2.147
 2716SOL    HW1 9047   6.214   6.463   2.153
 2716SOL    HW2 9048   6.085   6.385   2.217
 2717SOL     OW 9049   0.522   6.736   3.360
 2717SOL    HW1 9050   0.482   6.693   3.280
 2717SOL    HW2 9051   0.581   6.812   3.332
 2718SOL     OW 9052   6.615   3.857   3.100
 2718SOL    HW1 9053   6.650   3.768   3.130
 2718SOL    HW2 9054   6.516   3.851   3.088
 2719SOL     OW 9055   4.690   4.414   3.137
 2719SOL    HW1 9056   4.638   4.494   3.107
 2719SOL    HW2 9057   4.680   4.403   3.236
 2720SOL     OW 9058   0.396   6.901   4.256
 2720SOL    HW1 9059   0.447   6.816   4.242
 2720SOL    HW2 9060   0.327   6.910   4.184
 2721SOL     OW 9061   5.283   6.177   2.906
 2721SOL    HW1 9062   5.372   6.158   2.863
 2721SOL    HW2 9063   5.210   6.159   2.840
 2722SOL     OW 9064   0.740   5.863   2.517
 2722SOL    HW1 9065   0.816   5.820   2.467
 2722SOL    HW2 9066   0.773   5.896   2.605
 2723SOL     OW 9067   2.258   2.143   4.287
 2723SOL    HW1 9068   2.183   2.131   4.222
 2723SOL    HW2 9069   2.270   2.059   4.340
 2724SOL     OW 9070   4.801   6.094   5.637
 2724SOL    HW1 9071   4.730   6.023   5.638
 2724SOL    HW2 9072   4.762   6.180   5.604
 2725SOL     OW 9073   1.758   5.220   2.086
 2725SOL    HW1 9074   1.848   5.262   2.099
 2725SOL    HW2 9075   1.737   5.162   2.165
 2726SOL     OW 9076   4.012   6.052   2.770
 2726SOL    HW1 9077   4.075   6.101   2.709
 2726SOL    HW2 9078   4.064   5.986   2.825
 2727SOL     OW 9079   2.144   5.577   3.702
 2727SOL    HW1 9080   2.178   5.526   3.781
 2727SOL    HW2 9081   2.217   5.589   3.635
 2728SOL     OW 9082   2.050   6.690   5.337
 2728SOL    HW1 9083   2.131   6.679   5.395
 2728SOL    HW2 9084   1.968   6.694   5.393
 2729SOL     OW 9085   6.971   4.137   2.413
 2729SOL    HW1 9086   7.021   4.065   2.462
 2729SOL    HW2 9087   6.877   4.142   2.447
 2730SOL     OW 9088   1.373   3.290   1.782
 2730SOL    HW1 9089   1.334   3.372   1.740
 2730SOL    HW2 9090   1.469   3.281   1.754
 2731SOL     OW 9091   2.051   3.237   7.010
 2731SOL    HW1 9092   2.084   3.257   6.918
 2731SOL    HW2 9093   1.952   3.225   7.008
 2732SOL     OW 9094   5.895   3.270   4.567
 2732SOL    HW1 9095   5.831   3.303   4.637
 2732SOL    HW2 9096   5.928   3.347   4.513
 2733SOL     OW 9097   2.239   0.404   6.727
 2733SOL    HW1 9098   2.296   0.427   6.806
 2733SOL    HW2 9099   2.151   0.368   6.759
 2734SOL     OW 9100   2.003   0.149   3.957
 2734SOL    HW1 9101   2.003   0.241   3.995
 2734SOL    HW2 9102   1.910   0.125   3.929
 2735SOL     OW 9103   1.636   5.506   1.599
 2735SOL    HW1 9104   1.610   5.410   1.599
 2735SOL    HW2 9105   1.555   5.563   1.609
 2736SOL     OW 9106   4.294   0.490   6.838
 2736SOL    HW1 9107   4.283   0.395   6.812
 2736SOL    HW2 9108   4.365   0.533   6.782
 2737SOL     OW 9109   4.113   4.154   5.368
 2737SOL    HW1 9110   4.189   4.219   5.361
 2737SOL    HW2 9111   4.121   4.102   5.453
 2738SOL     OW 9112   0.046   3.986   5.238
 2738SOL    HW1 9113   0.037   4.032   5.326
 2738SOL    HW2 9114   0.023   4.049   5.165
 2739SOL     OW 9115   4.493   3.780   6.501
 2739SOL    HW1 9116   4.550   3.717   6.554
 2739SOL    HW2 9117   4.474   3.741   6.412
 2740SOL     OW 9118   6.504   2.712   4.424
 2740SOL    HW1 9119   6.556   2.794   4.448
 2740SOL    HW2 9120   6.558   2.631   4.444
 2741SOL     OW 9121   2.297   3.584   5.966
 2741SOL    HW1 9122   2.351   3.499   5.963
 2741SOL    HW2 9123   2.358   3.662   5.967
 2742SOL     OW 9124   2.645   6.143   5.481
 2742SOL    HW1 9125   2.724   6.200   5.457
 2742SOL    HW2 9126   2.650   6.057   5.431
 2743SOL     OW 9127   5.613   3.838   5.842
 2743SOL    HW1 9128   5.669   3.779   5.900
 2743SOL    HW2 9129   5.530   3.865   5.892
 2744SOL     OW 9130   5.201   6.564   1.149
 2744SOL    HW1 9131   5.299   6.552   1.133
 2744SOL    HW2 9132   5.185   6.594   1.243
 2745SOL     OW 9133   2.975   5.400   2.268
 2745SOL    HW1 9134   2.877   5.420   2.270
 2745SOL    HW2 9135   3.015   5.440   2.186
 2746SOL     OW 9136   1.019   2.676   6.962
 2746SOL    HW1 9137   1.095   2.618   6.936
 2746SOL    HW2 9138   1.046   2.736   0.015
 2747SOL     OW 9139   5.026   6.352   3.752
 2747SOL    HW1 9140   5.017   6.439   3.704
 2747SOL    HW2 9141   5.100   6.357   3.818
 2748SOL     OW 9142   5.517   1.275   4.752
 2748SOL    HW1 9143   5.479   1.257   4.662
 2748SOL    HW2 9144   5.508   1.194   4.810
 2749SOL     OW 9145   5.401   5.201   3.219
 2749SOL    HW1 9146   5.462   5.122   3.229
 2749SOL    HW2 9147   5.419   5.247   3.132
 2750SOL     OW 9148   0.856   0.255   0.187
 2750SOL    HW1 9149   0.893   0.181   0.243
 2750SOL    HW2 9150   0.850   0.226   0.092
 2751SOL     OW 9151   1.447   0.455   6.634
 2751SOL    HW1 9152   1.402   0.484   6.718
 2751SOL    HW2 9153   1.444   0.355   6.627
 2752SOL     OW 9154   6.986   6.326   6.196
 2752SOL    HW1 9155   7.018   6.411   6.154
 2752SOL    HW2 9156   6.932   6.274   6.129
 2753SOL     OW 9157   3.667   5.263   4.284
 2753SOL    HW1 9158   3.715   5.318   4.216
 2753SOL    HW2 9159   3.695   5.167   4.276
 2754SOL     OW 9160   1.093   5.151   3.975
 2754SOL    HW1 9161   1.191   5.148   3.959
 2754SOL    HW2 9162   1.061   5.246   3.974
 2755SOL     OW 9163   4.685   6.583   2.742
 2755SOL    HW1 9164   4.683   6.676   2.707
 2755SOL    HW2 9165   4.598   6.538   2.723
 2756SOL     OW 9166   0.151   3.102   4.802
 2756SOL    HW1 9167   0.206   3.022   4.776
 2756SOL    HW2 9168   0.054   3.078   4.799
 2757SOL     OW 9169   5.028   3.863   5.584
 2757SOL    HW1 9170   4.935   3.900   5.587
 2757SOL    HW2 9171   5.085   3.909   5.651
 2758SOL     OW 9172   0.112   6.687   1.525
 2758SOL    HW1 9173   0.207   6.709   1.546
 2758SOL    HW2 9174   0.108   6.604   1.470
 2759SOL     OW 9175   3.940   3.860   4.527
 2759SOL    HW1 9176   3.949   3.779   4.585
 2759SOL    HW2 9177   3.988   3.845   4.441
 2760SOL     OW 9178   4.791   5.193   2.711
 2760SOL    HW1 9179   4.820   5.281   2.748
 2760SOL    HW2 9180   4.766   5.203   2.615
 2761SOL     OW 9181   1.870   3.412   3.956
 2761SOL    HW1 9182   1.879   3.443   3.862
 2761SOL    HW2 9183   1.926   3.470   4.016
 2762SOL     OW 9184   4.281   1.484   2.409
 2762SOL    HW1 9185   4.199   1.520   2.454
 2762SOL    HW2 9186   4.337   1.436   2.476
 2763SOL     OW 9187   5.442   0.876   4.035
 2763SOL    HW1 9188   5.431   0.781   4.066
 2763SOL    HW2 9189   5.537   0.905   4.049
 2764SOL     OW 9190   0.001   2.277   2.806
 2764SOL    HW1 9191   6.998   2.184   2.831
 2764SOL    HW2 9192   6.943   2.329   2.782
 2765SOL     OW 9193   6.922   6.745   0.060
 2765SOL    HW1 9194   6.898   6.662   0.111
 2765SOL    HW2 9195   7.017   6.770   0.082
 2766SOL     OW 9196   5.101   0.191   0.052
 2766SOL    HW1 9197   5.098   0.183   0.152
 2766SOL    HW2 9198   5.170   0.258   0.026
 2767SOL     OW 9199   0.523   6.031   6.309
 2767SOL    HW1 9200   0.608   5.989   6.340
 2767SOL    HW2 9201   0.477   6.075   6.386
 2768SOL     OW 9202   4.064   0.232   1.596
 2768SOL    HW1 9203   4.098   0.192   1.681
 2768SOL    HW2 9204   3.964   0.223   1.592
 2769SOL     OW 9205   0.894   5.154   5.985
 2769SOL    HW1 9206   0.849   5.067   6.007
 2769SOL    HW2 9207   0.910   5.205   6.070
 2770SOL     OW 9208   2.526   6.934   0.416
 2770SOL    HW1 9209   2.481   6.853   0.453
 2770SOL    HW2 9210   2.625   6.924   0.425
 2771SOL     OW 9211   3.855   5.966   5.652
 2771SOL    HW1 9212   3.850   6.064   5.631
 2771SOL    HW2 9213   3.940   5.928   5.616
 2772SOL     OW 9214   6.084   1.686   2.768
 2772SOL    HW1 9215   6.115   1.640   2.684
 2772SOL    HW2 9216   6.160   1.735   2.809
 2773SOL     OW 9217   5.038   1.489   6.236
 2773SOL    HW1 9218   4.982   1.566   6.265
 2773SOL    HW2 9219   4.994   1.443   6.158
 2774SOL     OW 9220   6.020   6.864   3.948
 2774SOL    HW1 9221   5.977   6.826   4.030
 2774SOL    HW2 9222   5.950   6.896   3.885
 2775SOL     OW 9223   0.343   2.535   4.625
 2775SOL    HW1 9224   0.366   2.534   4.722
 2775SOL    HW2 9225   0.281   2.610   4.606
 2776SOL     OW 9226   4.977   4.072   5.951
 2776SOL    HW1 9227   5.068   4.111   5.965
 2776SOL    HW2 9228   4.958   4.004   6.022
 2777SOL     OW 9229   1.705   1.454   0.492
 2777SOL    HW1 9230   1.648   1.532   0.519
 2777SOL    HW2 9231   1.794   1.462   0.537
 2778SOL     OW 9232   2.706   6.270   6.120
 2778SOL    HW1 9233   2.801   6.242   6.135
 2778SOL    HW2 9234   2.645   6.214   6.175
 2779SOL     OW 9235   5.249   1.316   3.921
 2779SOL    HW1 9236   5.288   1.255   3.852
 2779SOL    HW2 9237   5.149   1.307   3.921
 2780SOL     OW 9238   0.668   0.126   5.094
 2780SOL    HW1 9239   0.694   0.056   5.028
 2780SOL    HW2 9240   0.727   0.206   5.082
 2781SOL     OW 9241   6.869   6.875   2.822
 2781SOL    HW1 9242   6.834   6.922   2.903
 2781SOL    HW2 9243   6.942   6.813   2.848
 2782SOL     OW 9244   5.510   6.737   5.033
 2782SOL    HW1 9245   5.518   6.692   5.122
 2782SOL    HW2 9246   5.600   6.744   4.991
 2783SOL     OW 9247   0.083   2.111   1.685
 2783SOL    HW1 9248   0.069   2.080   1.779
 2783SOL    HW2 9249   7.017   2.132   1.643
 2784SOL     OW 9250   1.296   2.197   2.064
 2784SOL    HW1 9251   1.330   2.106   2.089
 2784SOL    HW2 9252   1.230   2.188   1.989
 2785SOL     OW 9253   5.289   3.392   3.664
 2785SOL    HW1 9254   5.238   3.325   3.719
 2785SOL    HW2 9255   5.332   3.345   3.587
 2786SOL     OW 9256   0.364   5.722   0.914
 2786SOL    HW1 9257   0.293   5.790   0.933
 2786SOL    HW2 9258   0.342   5.673   0.830
 2787SOL     OW 9259   0.085   6.547   6.091
 2787SOL    HW1 9260   0.063   6.600   6.172
 2787SOL    HW2 9261   0.178   6.568   6.061
 2788SOL     OW 9262   2.769   6.573   6.700
 2788SOL    HW1 9263   2.867   6.588   6.697
 2788SOL    HW2 9264   2.725   6.646   6.752
 2789SOL     OW 9265   2.109   2.024   3.641
 2789SOL    HW1 9266   2.043   1.968   3.692
 2789SOL    HW2 9267   2.079   2.031   3.545
 2790SOL     OW 9268   0.961   4.848   1.202
 2790SOL    HW1 9269   0.904   4.782   1.154
 2790SOL    HW2 9270   0.919   4.939   1.196
 2791SOL     OW 9271   0.155   3.711   5.688
 2791SOL    HW1 9272   0.163   3.613   5.675
 2791SOL    HW2 9273   0.098   3.750   5.616
 2792SOL     OW 9274   3.219   2.605   6.897
 2792SOL    HW1 9275   3.218   2.704   6.881
 2792SOL    HW2 9276   3.145   2.580   6.959
 2793SOL     OW 9277   4.399   3.675   6.252
 2793SOL    HW1 9278   4.328   3.636   6.311
 2793SOL    HW2 9279   4.376   3.658   6.156
 2794SOL     OW 9280   1.238   2.210   6.431
 2794SOL    HW1 9281   1.185   2.241   6.510
 2794SOL    HW2 9282   1.329   2.253   6.433
 2795SOL     OW 9283   1.372   0.029   0.288
 2795SOL    HW1 9284   1.334   6.976   0.340
 2795SOL    HW2 9285   1.419   0.091   0.351
 2796SOL     OW 9286   3.298   5.861   0.002
 2796SOL    HW1 9287   3.259   5.951   0.022
 2796SOL    HW2 9288   3.393   5.871   6.995
 2797SOL     OW 9289   4.819   4.031   4.820
 2797SOL    HW1 9290   4.734   4.078   4.796
 2797SOL    HW2 9291   4.891   4.100   4.835
 2798SOL     OW 9292   5.892   2.370   1.671
 2798SOL    HW1 9293   5.942   2.326   1.596
 2798SOL    HW2 9294   5.800   2.333   1.675
 2799SOL     OW 9295   3.407   0.218   4.097
 2799SOL    HW1 9296   3.358   0.257   4.019
 2799SOL    HW2 9297   3.409   0.285   4.171
 2800SOL     OW 9298   4.516   1.457   0.137
 2800SOL    HW1 9299   4.584   1.426   0.203
 2800SOL    HW2 9300   4.561   1.496   0.057
 2801SOL     OW 9301   0.350   4.248   3.341
 2801SOL    HW1 9302   0.336   4.301   3.257
 2801SOL    HW2 9303   0.419   4.177   3.324
 2802SOL     OW 9304   2.044   4.423   4.056
 2802SOL    HW1 9305   1.961   4.374   4.082
 2802SOL    HW2 9306   2.078   4.475   4.135
 2803SOL     OW 9307   2.927   3.033   6.671
 2803SOL    HW1 9308   2.992   3.048   6.596
 2803SOL    HW2 9309   2.934   2.939   6.702
 2804SOL     OW 9310   5.444   2.730   3.511
 2804SOL    HW1 9311   5.364   2.675   3.489
 2804SOL    HW2 9312   5.456   2.800   3.441
 2805SOL     OW 9313   3.820   5.269   0.301
 2805SOL    HW1 9314   3.743   5.216   0.264
 2805SOL    HW2 9315   3.801   5.293   0.396
 2806SOL     OW 9316   0.693   3.293   5.058
 2806SOL    HW1 9317   0.636   3.305   4.976
 2806SOL    HW2 9318   0.773   3.352   5.052
 2807SOL     OW 9319   4.698   1.557   3.979
 2807SOL    HW1 9320   4.663   1.556   4.073
 2807SOL    HW2 9321   4.790   1.596   3.978
 2808SOL     OW 9322   1.050   6.177   6.637
 2808SOL    HW1 9323   1.004   6.089   6.622
 2808SOL    HW2 9324   1.128   6.185   6.576
 2809SOL     OW 9325   0.832   6.364   0.508
 2809SOL    HW1 9326   0.858   6.288   0.449
 2809SOL    HW2 9327   0.911   6.393   0.562
 2810SOL     OW 9328   0.131   6.598   2.049
 2810SOL    HW1 9329   0.229   6.601   2.030
 2810SOL    HW2 9330   0.087   6.682   2.017
 2811SOL     OW 9331   1.025   0.213   0.566
 2811SOL    HW1 9332   1.001   0.116   0.569
 2811SOL    HW2 9333   1.122   0.223   0.544
 2812SOL     OW 9334   2.014   0.875   1.151
 2812SOL    HW1 9335   2.015   0.829   1.239
 2812SOL    HW2 9336   1.984   0.811   1.080
 2813SOL     OW 9337   5.826   2.041   1.816
 2813SOL    HW1 9338   5.817   2.063   1.719
 2813SOL    HW2 9339   5.843   1.943   1.827
 2814SOL     OW 9340   2.109   4.062   6.629
 2814SOL    HW1 9341   2.108   4.108   6.718
 2814SOL    HW2 9342   2.066   4.121   6.560
 2815SOL     OW 9343   6.069   6.461   4.791
 2815SOL    HW1 9344   6.160   6.458   4.750
 2815SOL    HW2 9345   6.000   6.447   4.720
 2816SOL     OW 9346   0.740   4.861   5.167
 2816SOL    HW1 9347   0.655   4.909   5.188
 2816SOL    HW2 9348   0.751   4.853   5.067
 2817SOL     OW 9349   2.947   1.021   1.416
 2817SOL    HW1 9350   2.881   0.989   1.348
 2817SOL    HW2 9351   2.983   0.943   1.467
 2818SOL     OW 9352   2.350   0.745   0.434
 2818SOL    HW1 9353   2.298   0.830   0.429
 2818SOL    HW2 9354   2.445   0.762   0.406
 2819SOL     OW 9355   6.106   0.443   6.446
 2819SOL    HW1 9356   6.088   0.399   6.358
 2819SOL    HW2 9357   6.099   0.376   6.520
 2820SOL     OW 9358   1.528   1.736   0.258
 2820SOL    HW1 9359   1.438   1.715   0.294
 2820SOL    HW2 9360   1.525   1.738   0.158
 2821SOL     OW 9361   3.520   2.467   5.939
 2821SOL    HW1 9362   3.470   2.380   5.931
 2821SOL    HW2 9363   3.617   2.448   5.955
 2822SOL     OW 9364   4.343   3.458   1.497
 2822SOL    HW1 9365   4.265   3.475   1.557
 2822SOL    HW2 9366   4.371   3.543   1.454
 2823SOL     OW 9367   5.481   4.159   3.240
 2823SOL    HW1 9368   5.572   4.155   3.197
 2823SOL    HW2 9369   5.467   4.249   3.281
 2824SOL     OW 9370   0.537   4.178   5.521
 2824SOL    HW1 9371   0.552   4.275   5.498
 2824SOL    HW2 9372   0.624   4.138   5.551
 2825SOL     OW 9373   5.021   2.734   5.491
 2825SOL    HW1 9374   4.938   2.788   5.502
 2825SOL    HW2 9375   5.022   2.659   5.557
 2826SOL     OW 9376   3.402   2.790   6.513
 2826SOL    HW1 9377   3.379   2.830   6.424
 2826SOL    HW2 9378   3.427   2.863   6.576
 2827SOL     OW 9379   6.929   1.702   0.174
 2827SOL    HW1 9380   6.831   1.702   0.195
 2827SOL    HW2 9381   6.973   1.780   0.219
 2828SOL     OW 9382   1.936   3.831   0.151
 2828SOL    HW1 9383   1.958   3.771   0.075
 2828SOL    HW2 9384   1.877   3.905   0.120
 2829SOL     OW 9385   3.168   4.698   1.060
 2829SOL    HW1 9386   3.231   4.621   1.052
 2829SOL    HW2 9387   3.158   4.722   1.157
 2830SOL     OW 9388   2.604   5.400   4.613
 2830SOL    HW1 9389   2.610   5.351   4.699
 2830SOL    HW2 9390   2.571   5.338   4.541
 2831SOL     OW 9391   5.401   1.583   1.863
 2831SOL    HW1 9392   5.399   1.682   1.852
 2831SOL    HW2 9393   5.395   1.560   1.960
 2832SOL     OW 9394   1.260   3.583   1.731
 2832SOL    HW1 9395   1.190   3.642   1.688
 2832SOL    HW2 9396   1.243   3.577   1.829
 2833SOL     OW 9397   6.338   1.858   3.359
 2833SOL    HW1 9398   6.329   1.761   3.383
 2833SOL    HW2 9399   6.337   1.913   3.443
 2834SOL     OW 9400   3.044   0.534   4.229
 2834SOL    HW1 9401   3.036   0.606   4.298
 2834SOL    HW2 9402   2.989   0.455   4.256
 2835SOL     OW 9403   6.494   1.538   0.680
 2835SOL    HW1 9404   6.455   1.456   0.637
 2835SOL    HW2 9405   6.535   1.596   0.610
 2836SOL     OW 9406   2.922   6.410   1.982
 2836SOL    HW1 9407   2.947   6.460   2.065
 2836SOL    HW2 9408   2.837   6.448   1.945
 2837SOL     OW 9409   4.996   4.143   3.448
 2837SOL    HW1 9410   5.051   4.062   3.424
 2837SOL    HW2 9411   5.008   4.164   3.545
 2838SOL     OW 9412   6.925   4.452   6.021
 2838SOL    HW1 9413   6.858   4.377   6.020
 2838SOL    HW2 9414   6.903   4.517   5.948
 2839SOL     OW 9415   5.733   2.978   6.766
 2839SOL    HW1 9416   5.717   2.974   6.865
 2839SOL    HW2 9417   5.691   2.898   6.723
 2840SOL     OW 9418   6.329   5.651   5.187
 2840SOL    HW1 9419   6.269   5.572   5.173
 2840SOL    HW2 9420   6.324   5.710   5.107
 2841SOL     OW 9421   5.600   3.461   2.961
 2841SOL    HW1 9422   5.586   3.557   2.939
 2841SOL    HW2 9423   5.627   3.452   3.057
 2842SOL     OW 9424   0.818   6.280   3.546
 2842SOL    HW1 9425   0.836   6.275   3.447
 2842SOL    HW2 9426   0.895   6.325   3.591
 2843SOL     OW 9427   0.706   2.811   3.833
 2843SOL    HW1 9428   0.744   2.830   3.924
 2843SOL    HW2 9429   0.608   2.795   3.840
 2844SOL     OW 9430   5.712   4.098   0.131
 2844SOL    HW1 9431   5.770   4.091   0.212
 2844SOL    HW2 9432   5.767   4.132   0.054
 2845SOL     OW 9433   3.736   1.923   1.237
 2845SOL    HW1 9434   3.752   1.951   1.142
 2845SOL    HW2 9435   3.718   2.004   1.292
 2846SOL     OW 9436   5.438   0.721   6.193
 2846SOL    HW1 9437   5.405   0.628   6.178
 2846SOL    HW2 9438   5.426   0.774   6.109
 2847SOL     OW 9439   5.658   4.613   2.884
 2847SOL    HW1 9440   5.677   4.670   2.804
 2847SOL    HW2 9441   5.718   4.533   2.882
 2848SOL     OW 9442   0.116   3.949   0.416
 2848SOL    HW1 9443   0.100   3.981   0.323
 2848SOL    HW2 9444   0.192   3.884   0.417
 2849SOL     OW 9445   5.209   1.036   0.489
 2849SOL    HW1 9446   5.266   1.105   0.534
 2849SOL    HW2 9447   5.164   0.979   0.559
 2850SOL     OW 9448   6.830   1.509   0.803
 2850SOL    HW1 9449   6.893   1.434   0.787
 2850SOL    HW2 9450   6.864   1.592   0.758
 2851SOL     OW 9451   3.261   3.197   2.155
 2851SOL    HW1 9452   3.290   3.107   2.123
 2851SOL    HW2 9453   3.340   3.248   2.188
 2852SOL     OW 9454   0.762   4.606   5.184
 2852SOL    HW1 9455   0.728   4.700   5.186
 2852SOL    HW2 9456   0.853   4.603   5.143
 2853SOL     OW 9457   6.929   5.153   5.705
 2853SOL    HW1 9458   7.003   5.126   5.643
 2853SOL    HW2 9459   6.931   5.252   5.718
 2854SOL     OW 9460   3.252   0.648   6.675
 2854SOL    HW1 9461   3.308   0.667   6.595
 2854SOL    HW2 9462   3.253   0.550   6.694
 2855SOL     OW 9463   2.629   2.347   4.280
 2855SOL    HW1 9464   2.715   2.329   4.232
 2855SOL    HW2 9465   2.577   2.416   4.229
 2856SOL     OW 9466   1.400   5.327   4.893
 2856SOL    HW1 9467   1.448   5.413   4.911
 2856SOL    HW2 9468   1.426   5.260   4.963
 2857SOL     OW 9469   0.915   4.142   0.248
 2857SOL    HW1 9470   0.916   4.116   0.151
 2857SOL    HW2 9471   0.902   4.241   0.256
 2858SOL     OW 9472   5.410   4.502   4.143
 2858SOL    HW1 9473   5.357   4.460   4.217
 2858SOL    HW2 9474   5.492   4.447   4.125
 2859SOL     OW 9475   0.406   5.398   1.960
 2859SOL    HW1 9476   0.346   5.337   2.012
 2859SOL    HW2 9477   0.476   5.435   2.022
 2860SOL     OW 9478   1.488   6.088   2.868
 2860SOL    HW1 9479   1.530   6.136   2.944
 2860SOL    HW2 9480   1.555   6.077   2.794
 2861SOL     OW 9481   5.792   3.381   5.337
 2861SOL    HW1 9482   5.802   3.315   5.263
 2861SOL    HW2 9483   5.751   3.336   5.417
 2862SOL     OW 9484   4.446   1.272   0.460
 2862SOL    HW1 9485   4.517   1.286   0.530
 2862SOL    HW2 9486   4.489   1.237   0.377
 2863SOL     OW 9487   5.638   1.431   6.333
 2863SOL    HW1 9488   5.672   1.507   6.388
 2863SOL    HW2 9489   5.546   1.406   6.364
 2864SOL     OW 9490   4.513   4.758   0.522
 2864SOL    HW1 9491   4.449   4.831   0.546
 2864SOL    HW2 9492   4.524   4.754   0.423
 2865SOL     OW 9493   5.673   4.334   6.332
 2865SOL    HW1 9494   5.574   4.327   6.319
 2865SOL    HW2 9495   5.715   4.247   6.307
 2866SOL     OW 9496   4.937   5.931   1.089
 2866SOL    HW1 9497   4.854   5.912   1.037
 2866SOL    HW2 9498   5.001   5.854   1.081
 2867SOL     OW 9499   0.508   6.122   3.439
 2867SOL    HW1 9500   0.420   6.115   3.485
 2867SOL    HW2 9501   0.544   6.215   3.450
 2868SOL     OW 9502   6.614   0.178   4.984
 2868SOL    HW1 9503   6.642   0.251   4.922
 2868SOL    HW2 9504   6.569   0.218   5.065
 2869SOL     OW 9505   6.160   4.651   4.986
 2869SOL    HW1 9506   6.134   4.720   4.919
 2869SOL    HW2 9507   6.083   4.588   5.001
 2870SOL     OW 9508   0.918   1.214   1.177
 2870SOL    HW1 9509   0.883   1.124   1.152
 2870SOL    HW2 9510   0.853   1.260   1.238
 2871SOL     OW 9511   4.684   1.398   3.389
 2871SOL    HW1 9512   4.769   1.450   3.381
 2871SOL    HW2 9513   4.679   1.359   3.481
 2872SOL     OW 9514   3.403   1.511   2.496
 2872SOL    HW1 9515   3.328   1.468   2.546
 2872SOL    HW2 9516   3.460   1.563   2.559
 2873SOL     OW 9517   0.164   0.153   2.478
 2873SOL    HW1 9518   0.092   0.114   2.536
 2873SOL    HW2 9519   0.249   0.103   2.490
 2874SOL     OW 9520   1.526   0.963   1.950
 2874SOL    HW1 9521   1.516   0.930   2.044
 2874SOL    HW2 9522   1.613   1.010   1.940
 2875SOL     OW 9523   2.993   0.905   2.255
 2875SOL    HW1 9524   2.976   0.860   2.167
 2875SOL    HW2 9525   2.923   0.974   2.272
 2876SOL     OW 9526   1.215   6.986   1.138
 2876SOL    HW1 9527   1.119   6.967   1.159
 2876SOL    HW2 9528   1.222   0.050   1.090
 2877SOL     OW 9529   0.885   3.435   6.777
 2877SOL    HW1 9530   0.980   3.467   6.773
 2877SOL    HW2 9531   0.849   3.449   6.869
 2878SOL     OW 9532   4.119   3.611   4.395
 2878SOL    HW1 9533   4.132   3.512   4.389
 2878SOL    HW2 9534   4.086   3.635   4.487
 2879SOL     OW 9535   6.273   6.407   0.260
 2879SOL    HW1 9536   6.282   6.315   0.298
 2879SOL    HW2 9537   6.304   6.407   0.165
 2880SOL     OW 9538   1.356   1.245   2.720
 2880SOL    HW1 9539   1.380   1.330   2.672
 2880SOL    HW2 9540   1.422   1.174   2.698
 2881SOL     OW 9541   5.218   5.663   6.763
 2881SOL    HW1 9542   5.194   5.759   6.768
 2881SOL    HW2 9543   5.274   5.647   6.682
 2882SOL     OW 9544   4.732   6.215   0.472
 2882SOL    HW1 9545   4.730   6.253   0.380
 2882SOL    HW2 9546   4.656   6.152   0.484
 2883SOL     OW 9547   5.364   6.133   3.190
 2883SOL    HW1 9548   5.307   6.083   3.255
 2883SOL    HW2 9549   5.329   6.119   3.097
 2884SOL     OW 9550   6.186   5.638   3.647
 2884SOL    HW1 9551   6.158   5.721   3.695
 2884SOL    HW2 9552   6.255   5.662   3.578
 2885SOL     OW 9553   0.722   3.866   3.402
 2885SOL    HW1 9554   0.722   3.871   3.502
 2885SOL    HW2 9555   0.658   3.795   3.372
 2886SOL     OW 9556   2.036   4.399   5.251
 2886SOL    HW1 9557   2.076   4.356   5.171
 2886SOL    HW2 9558   2.025   4.331   5.324
 2887SOL     OW 9559   0.462   4.893   2.818
 2887SOL    HW1 9560   0.484   4.928   2.727
 2887SOL    HW2 9561   0.435   4.797   2.811
 2888SOL     OW 9562   4.799   6.133   6.713
 2888SOL    HW1 9563   4.762   6.195   6.643
 2888SOL    HW2 9564   4.731   6.063   6.734
 2889SOL     OW 9565   4.020   5.120   3.564
 2889SOL    HW1 9566   3.964   5.039   3.579
 2889SOL    HW2 9567   4.115   5.093   3.552
 2890SOL     OW 9568   1.548   1.559   0.895
 2890SOL    HW1 9569   1.511   1.564   0.802
 2890SOL    HW2 9570   1.523   1.642   0.946
 2891SOL     OW 9571   1.359   1.671   5.199
 2891SOL    HW1 9572   1.426   1.669   5.273
 2891SOL    HW2 9573   1.394   1.619   5.121
 2892SOL     OW 9574   5.745   3.751   2.325
 2892SOL    HW1 9575   5.696   3.784   2.405
 2892SOL    HW2 9576   5.800   3.825   2.286
 2893SOL     OW 9577   6.321   6.175   5.290
 2893SOL    HW1 9578   6.244   6.221   5.247
 2893SOL    HW2 9579   6.394   6.240   5.307
 2894SOL     OW 9580   1.728   5.508   1.273
 2894SOL    HW1 9581   1.762   5.457   1.352
 2894SOL    HW2 9582   1.689   5.444   1.206
 2895SOL     OW 9583   4.879   6.714   6.246
 2895SOL    HW1 9584   4.858   6.617   6.242
 2895SOL    HW2 9585   4.794   6.767   6.251
 2896SOL     OW 9586   6.712   0.212   6.673
 2896SOL    HW1 9587   6.788   0.237   6.614
 2896SOL    HW2 9588   6.744   0.204   6.768
 2897SOL     OW 9589   2.552   6.391   3.745
 2897SOL    HW1 9590   2.633   6.365   3.694
 2897SOL    HW2 9591   2.489   6.313   3.751
 2898SOL     OW 9592   5.515   2.415   2.688
 2898SOL    HW1 9593   5.612   2.393   2.676
 2898SOL    HW2 9594   5.500   2.511   2.666
 2899SOL     OW 9595   6.423   2.637   1.153
 2899SOL    HW1 9596   6.477   2.571   1.102
 2899SOL    HW2 9597   6.480   2.683   1.220
 2900SOL     OW 9598   3.095   3.094   5.091
 2900SOL    HW1 9599   3.179   3.142   5.065
 2900SOL    HW2 9600   3.017   3.141   5.050
 2901SOL     OW 9601   1.691   3.100   1.437
 2901SOL    HW1 9602   1.773   3.094   1.379
 2901SOL    HW2 9603   1.698   3.034   1.512
 2902SOL     OW 9604   5.303   5.905   3.690
 2902SOL    HW1 9605   5.337   5.887   3.598
 2902SOL    HW2 9606   5.227   5.842   3.710
 2903SOL     OW 9607   0.917   5.350   1.765
 2903SOL    HW1 9608   0.955   5.285   1.830
 2903SOL    HW2 9609   0.967   5.344   1.678
 2904SOL     OW 9610   3.212   4.965   3.960
 2904SOL    HW1 9611   3.175   4.928   4.046
 2904SOL    HW2 9612   3.182   4.907   3.884
 2905SOL     OW 9613   1.758   4.310   1.159
 2905SOL    HW1 9614   1.808   4.285   1.076
 2905SOL    HW2 9615   1.660   4.301   1.142
 2906SOL     OW 9616   6.396   6.499   6.387
 2906SOL    HW1 9617   6.463   6.429   6.363
 2906SOL    HW2 9618   6.304   6.468   6.361
 2907SOL     OW 9619   0.064   1.253   6.189
 2907SOL    HW1 9620   0.036   1.313   6.264
 2907SOL    HW2 9621   0.163   1.257   6.179
 2908SOL     OW 9622   3.873   5.771   3.701
 2908SOL    HW1 9623   3.890   5.706   3.627
 2908SOL    HW2 9624   3.895   5.729   3.789
 2909SOL     OW 9625   0.132   6.461   0.810
 2909SOL    HW1 9626   0.074   6.403   0.753
 2909SOL    HW2 9627   0.106   6.557   0.798
 2910SOL     OW 9628   1.195   0.124   4.146
 2910SOL    HW1 9629   1.136   0.049   4.115
 2910SOL    HW2 9630   1.264   0.087   4.209
 2911SOL     OW 9631   6.845   3.366   3.494
 2911SOL    HW1 9632   6.857   3.322   3.405
 2911SOL    HW2 9633   6.888   3.309   3.565
 2912SOL     OW 9634   7.022   1.586   2.949
 2912SOL    HW1 9635   6.968   1.519   3.000
 2912SOL    HW2 9636   7.000   1.579   2.852
 2913SOL     OW 9637   1.015   6.485   4.004
 2913SOL    HW1 9638   1.082   6.418   4.035
 2913SOL    HW2 9639   1.051   6.531   3.922
 2914SOL     OW 9640   3.905   4.712   0.999
 2914SOL    HW1 9641   3.974   4.702   0.927
 2914SOL    HW2 9642   3.895   4.626   1.048
 2915SOL     OW 9643   2.197   0.050   3.652
 2915SOL    HW1 9644   2.236   6.981   3.646
 2915SOL    HW2 9645   2.147   0.059   3.737
 2916SOL     OW 9646   0.487   5.726   6.464
 2916SOL    HW1 9647   0.422   5.790   6.506
 2916SOL    HW2 9648   0.580   5.751   6.489
 2917SOL     OW 9649   1.753   1.680   3.814
 2917SOL    HW1 9650   1.675   1.725   3.771
 2917SOL    HW2 9651   1.835   1.737   3.805
 2918SOL     OW 9652   4.647   1.178   1.015
 2918SOL    HW1 9653   4.634   1.156   0.919
 2918SOL    HW2 9654   4.698   1.264   1.023
 2919SOL     OW 9655   1.043   5.360   5.029
 2919SOL    HW1 9656   0.995   5.297   4.970
 2919SOL    HW2 9657   1.035   5.330   5.124
 2920SOL     OW 9658   2.793   2.361   1.669
 2920SOL    HW1 9659   2.829   2.418   1.595
 2920SOL    HW2 9660   2.863   2.350   1.740
 2921SOL     OW 9661   7.006   5.367   3.551
 2921SOL    HW1 9662   7.004   5.323   3.461
 2921SOL    HW2 9663   6.950   5.314   3.615
 2922SOL     OW 9664   3.839   4.891   3.730
 2922SOL    HW1 9665   3.812   4.901   3.826
 2922SOL    HW2 9666   3.757   4.895   3.673
 2923SOL     OW 9667   1.434   4.156   3.557
 2923SOL    HW1 9668   1.362   4.135   3.623
 2923SOL    HW2 9669   1.393   4.195   3.474
 2924SOL     OW 9670   4.687   1.260   6.923
 2924SOL    HW1 9671   4.776   1.250   6.879
 2924SOL    HW2 9672   4.686   1.343   6.978
 2925SOL     OW 9673   5.317   6.719   4.735
 2925SOL    HW1 9674   5.365   6.653   4.794
 2925SOL    HW2 9675   5.365   6.807   4.740
 2926SOL     OW 9676   0.150   2.469   5.189
 2926SOL    HW1 9677   0.240   2.436   5.216
 2926SOL    HW2 9678   0.139   2.564   5.217
 2927SOL     OW 9679   0.935   1.664   2.512
 2927SOL    HW1 9680   1.006   1.731   2.532
 2927SOL    HW2 9681   0.931   1.597   2.586
 2928SOL     OW 9682   5.089   4.725   0.115
 2928SOL    HW1 9683   5.034   4.796   0.159
 2928SOL    HW2 9684   5.149   4.683   0.183
 2929SOL     OW 9685   1.708   1.616   3.063
 2929SOL    HW1 9686   1.646   1.540   3.044
 2929SOL    HW2 9687   1.802   1.584   3.059
 2930SOL     OW 9688   0.732   3.015   4.225
 2930SOL    HW1 9689   0.746   2.938   4.163
 2930SOL    HW2 9690   0.723   2.982   4.319
 2931SOL     OW 9691   5.581   4.157   5.611
 2931SOL    HW1 9692   5.560   4.144   5.514
 2931SOL    HW2 9693   5.640   4.083   5.643
 2932SOL     OW 9694   0.130   6.944   0.627
 2932SOL    HW1 9695   0.065   6.915   0.557
 2932SOL    HW2 9696   0.092   7.021   0.678
 2933SOL     OW 9697   0.440   0.436   6.794
 2933SOL    HW1 9698   0.413   0.347   6.758
 2933SOL    HW2 9699   0.480   0.424   6.885
 2934SOL     OW 9700   5.391   4.870   2.688
 2934SOL    HW1 9701   5.487   4.846   2.706
 2934SOL    HW2 9702   5.332   4.811   2.743
 2935SOL     OW 9703   0.482   4.374   6.086
 2935SOL    HW1 9704   0.503   4.386   5.989
 2935SOL    HW2 9705   0.558   4.330   6.132
 2936SOL     OW 9706   4.543   6.115   2.441
 2936SOL    HW1 9707   4.560   6.160   2.529
 2936SOL    HW2 9708   4.550   6.016   2.453
 2937SOL     OW 9709   6.309   3.244   3.290
 2937SOL    HW1 9710   6.294   3.174   3.221
 2937SOL    HW2 9711   6.240   3.316   3.280
 2938SOL     OW 9712   0.274   5.303   1.460
 2938SOL    HW1 9713   0.256   5.340   1.369
 2938SOL    HW2 9714   0.372   5.307   1.479
 2939SOL     OW 9715   6.281   5.828   1.885
 2939SOL    HW1 9716   6.331   5.904   1.842
 2939SOL    HW2 9717   6.242   5.860   1.972
 2940SOL     OW 9718   4.821   5.611   3.120
 2940SOL    HW1 9719   4.763   5.533   3.098
 2940SOL    HW2 9720   4.768   5.696   3.115
 2941SOL     OW 9721   2.822   4.948   1.887
 2941SOL    HW1 9722   2.885   4.871   1.897
 2941SOL    HW2 9723   2.873   5.034   1.896
 2942SOL     OW 9724   2.748   1.910   0.637
 2942SOL    HW1 9725   2.751   2.002   0.597
 2942SOL    HW2 9726   2.659   1.895   0.679
 2943SOL     OW 9727   0.213   4.428   3.755
 2943SOL    HW1 9728   0.248   4.444   3.662
 2943SOL    HW2 9729   0.242   4.502   3.815
 2944SOL     OW 9730   0.563   4.931   3.623
 2944SOL    HW1 9731   0.607   5.005   3.572
 2944SOL    HW2 9732   0.556   4.850   3.564
 2945SOL     OW 9733   5.446   3.553   0.689
 2945SOL    HW1 9734   5.445   3.617   0.612
 2945SOL    HW2 9735   5.354   3.547   0.729
 2946SOL     OW 9736   3.281   3.762   4.569
 2946SOL    HW1 9737   3.234   3.681   4.604
 2946SOL    HW2 9738   3.372   3.767   4.610
 2947SOL     OW 9739   6.516   6.861   0.621
 2947SOL    HW1 9740   6.473   6.771   0.614
 2947SOL    HW2 9741   6.615   6.850   0.616
 2948SOL     OW 9742   6.340   4.569   0.684
 2948SOL    HW1 9743   6.266   4.544   0.747
 2948SOL    HW2 9744   6.424   4.584   0.736
 2949SOL     OW 9745   1.549   6.192   0.990
 2949SOL    HW1 9746   1.516   6.105   1.027
 2949SOL    HW2 9747   1.482   6.227   0.924
 2950SOL     OW 9748   5.070   4.952   2.111
 2950SOL    HW1 9749   5.144   4.897   2.072
 2950SOL    HW2 9750   5.028   5.007   2.038
 2951SOL     OW 9751   0.588   2.541   0.768
 2951SOL    HW1 9752   0.529   2.594   0.829
 2951SOL    HW2 9753   0.664   2.599   0.738
 2952SOL     OW 9754   1.066   1.416   4.420
 2952SOL    HW1 9755   1.063   1.354   4.498
 2952SOL    HW2 9756   1.119   1.374   4.346
 2953SOL     OW 9757   1.146   5.512   3.214
 2953SOL    HW1 9758   1.052   5.546   3.215
 2953SOL    HW2 9759   1.173   5.493   3.119
 2954SOL     OW 9760   0.513   4.800   6.051
 2954SOL    HW1 9761   0.426   4.772   6.091
 2954SOL    HW2 9762   0.500   4.824   5.955
 2955SOL     OW 9763   1.514   4.988   5.873
 2955SOL    HW1 9764   1.614   4.982   5.870
 2955SOL    HW2 9765   1.487   5.064   5.931
 2956SOL     OW 9766   6.324   3.259   5.183
 2956SOL    HW1 9767   6.277   3.293   5.101
 2956SOL    HW2 9768   6.417   3.295   5.185
 2957SOL     OW 9769   1.501   4.973   1.882
 2957SOL    HW1 9770   1.566   5.046   1.861
 2957SOL    HW2 9771   1.529   4.889   1.835
 2958SOL     OW 9772   1.898   3.446   1.103
 2958SOL    HW1 9773   1.805   3.442   1.067
 2958SOL    HW2 9774   1.899   3.413   1.197
 2959SOL     OW 9775   0.734   4.186   3.761
 2959SOL    HW1 9776   0.803   4.255   3.782
 2959SOL    HW2 9777   0.645   4.215   3.796
 2960SOL     OW 9778   5.324   5.988   0.930
 2960SOL    HW1 9779   5.253   6.037   0.880
 2960SOL    HW2 9780   5.376   6.052   0.986
 2961SOL     OW 9781   5.834   1.956   0.800
 2961SOL    HW1 9782   5.777   1.931   0.721
 2961SOL    HW2 9783   5.893   2.033   0.775
 2962SOL     OW 9784   6.485   0.670   3.917
 2962SOL    HW1 9785   6.550   0.721   3.860
 2962SOL    HW2 9786   6.413   0.632   3.859
 2963SOL     OW 9787   2.159   1.486   6.071
 2963SOL    HW1 9788   2.178   1.486   5.973
 2963SOL    HW2 9789   2.064   1.459   6.086
 2964SOL     OW 9790   0.735   0.890   5.553
 2964SOL    HW1 9791   0.769   0.816   5.495
 2964SOL    HW2 9792   0.756   0.978   5.509
 2965SOL     OW 9793   6.057   0.383   6.168
 2965SOL    HW1 9794   6.133   0.435   6.129
 2965SOL    HW2 9795   5.977   0.391   6.108
 2966SOL     OW 9796   3.786   6.815   2.977
 2966SOL    HW1 9797   3.787   6.736   2.915
 2966SOL    HW2 9798   3.716   6.802   3.047
 2967SOL     OW 9799   5.742   0.151   5.254
 2967SOL    HW1 9800   5.655   0.143   5.206
 2967SOL    HW2 9801   5.797   0.068   5.237
 2968SOL     OW 9802   1.802   3.908   1.972
 2968SOL    HW1 9803   1.836   3.982   1.914
 2968SOL    HW2 9804   1.770   3.832   1.914
 2969SOL     OW 9805   4.204   1.843   5.123
 2969SOL    HW1 9806   4.304   1.848   5.121
 2969SOL    HW2 9807   4.167   1.930   5.154
 2970SOL     OW 9808   3.264   2.436   6.114
 2970SOL    HW1 9809   3.220   2.468   6.031
 2970SOL    HW2 9810   3.329   2.505   6.147
 2971SOL     OW 9811   4.006   3.268   5.728
 2971SOL    HW1 9812   3.949   3.345   5.700
 2971SOL    HW2 9813   3.974   3.184   5.684
 2972SOL     OW 9814   0.736   5.708   6.589
 2972SOL    HW1 9815   0.719   5.625   6.641
 2972SOL    HW2 9816   0.789   5.687   6.508
 2973SOL     OW 9817   5.269   0.520   4.392
 2973SOL    HW1 9818   5.252   0.565   4.479
 2973SOL    HW2 9819   5.363   0.485   4.390
 2974SOL     OW 9820   5.240   5.282   2.547
 2974SOL    HW1 9821   5.193   5.329   2.622
 2974SOL    HW2 9822   5.315   5.338   2.513
 2975SOL     OW 9823   0.655   3.339   4.738
 2975SOL    HW1 9824   0.567   3.312   4.777
 2975SOL    HW2 9825   0.668   3.437   4.750
 2976SOL     OW 9826   4.252   0.275   1.234
 2976SOL    HW1 9827   4.281   0.351   1.292
 2976SOL    HW2 9828   4.196   0.212   1.287
 2977SOL     OW 9829   1.346   1.485   2.211
 2977SOL    HW1 9830   1.278   1.520   2.276
 2977SOL    HW2 9831   1.315   1.397   2.175
 2978SOL     OW 9832   3.303   6.113   0.402
 2978SOL    HW1 9833   3.397   6.137   0.429
 2978SOL    HW2 9834   3.239   6.178   0.443
 2979SOL     OW 9835   2.088   1.322   5.369
 2979SOL    HW1 9836   2.181   1.285   5.364
 2979SOL    HW2 9837   2.045   1.318   5.279
 2980SOL     OW 9838   3.023   3.238   3.127
 2980SOL    HW1 9839   2.987   3.205   3.040
 2980SOL    HW2 9840   3.060   3.161   3.180
 2981SOL     OW 9841   2.619   1.831   1.577
 2981SOL    HW1 9842   2.674   1.766   1.524
 2981SOL    HW2 9843   2.677   1.907   1.606
 2982SOL     OW 9844   0.593   0.233   2.493
 2982SOL    HW1 9845   0.682   0.275   2.513
 2982SOL    HW2 9846   0.550   0.204   2.579
 2983SOL     OW 9847   6.413   2.434   6.246
 2983SOL    HW1 9848   6.501   2.457   6.286
 2983SOL    HW2 9849   6.427   2.386   6.159
 2984SOL     OW 9850   0.612   6.059   1.156
 2984SOL    HW1 9851   0.663   6.145   1.156
 2984SOL    HW2 9852   0.667   5.987   1.114
 2985SOL     OW 9853   6.849   6.851   5.510
 2985SOL    HW1 9854   6.887   6.878   5.422
 2985SOL    HW2 9855   6.855   6.928   5.574
 2986SOL     OW 9856   4.067   3.828   2.816
 2986SOL    HW1 9857   4.161   3.823   2.849
 2986SOL    HW2 9858   4.009   3.870   2.887
 2987SOL     OW 9859   2.835   6.185   5.783
 2987SOL    HW1 9860   2.871   6.214   5.871
 2987SOL    HW2 9861   2.883   6.234   5.710
 2988SOL     OW 9862   0.975   2.111   6.724
 2988SOL    HW1 9863   0.949   2.203   6.694
 2988SOL    HW2 9864   0.962   2.046   6.649
 2989SOL     OW 9865   5.792   3.682   6.023
 2989SOL    HW1 9866   5.763   3.615   6.091
 2989SOL    HW2 9867   5.859   3.743   6.064
 2990SOL     OW 9868   4.971   2.243   4.882
 2990SOL    HW1 9869   4.951   2.165   4.823
 2990SOL    HW2 9870   5.063   2.233   4.920
 2991SOL     OW 9871   6.176   2.768   0.204
 2991SOL    HW1 9872   6.254   2.725   0.157
 2991SOL    HW2 9873   6.177   2.867   0.186
 2992SOL     OW 9874   2.221   4.502   4.539
 2992SOL    HW1 9875   2.240   4.580   4.598
 2992SOL    HW2 9876   2.204   4.421   4.595
 2993SOL     OW 9877   3.911   5.173   6.672
 2993SOL    HW1 9878   3.938   5.270   6.678
 2993SOL    HW2 9879   3.840   5.154   6.739
 2994SOL     OW 9880   2.690   4.997   4.845
 2994SOL    HW1 9881   2.788   5.006   4.865
 2994SOL    HW2 9882   2.675   5.003   4.747
 2995SOL     OW 9883   5.352   0.359   2.069
 2995SOL    HW1 9884   5.264   0.357   2.023
 2995SOL    HW2 9885   5.390   0.266   2.073
 2996SOL     OW 9886   0.118   0.576   4.093
 2996SOL    HW1 9887   0.107   0.527   4.006
 2996SOL    HW2 9888   0.059   0.534   4.162
 2997SOL     OW 9889   4.854   5.860   3.719
 2997SOL    HW1 9890   4.920   5.933   3.736
 2997SOL    HW2 9891   4.841   5.848   3.621
 2998SOL     OW 9892   2.921   0.250   2.206
 2998SOL    HW1 9893   2.863   0.276   2.129
 2998SOL    HW2 9894   2.876   0.276   2.292
 2999SOL     OW 9895   2.337   5.218   0.688
 2999SOL    HW1 9896   2.398   5.248   0.615
 2999SOL    HW2 9897   2.297   5.130   0.664
 3000SOL     OW 9898   1.839   4.206   6.703
 3000SOL    HW1 9899   1.930   4.224   6.740
 3000SOL    HW2 9900   1.847   4.142   6.626
 3001SOL     OW 9901   3.277   0.504   6.231
 3001SOL    HW1 9902   3.310   0.495   6.138
 3001SOL    HW2 9903   3.192   0.557   6.231
 3002SOL     OW 9904   1.572   2.187   1.530
 3002SOL    HW1 9905   1.527   2.276   1.537
 3002SOL    HW2 9906   1.652   2.185   1.591
 3003SOL     OW 9907   1.359   5.889   6.785
 3003SOL    HW1 9908   1.277   5.941   6.809
 3003SOL    HW2 9909   1.334   5.810   6.728
 3004SOL     OW 9910   3.102   0.864   4.715
 3004SOL    HW1 9911   3.175   0.932   4.704
 3004SOL    HW2 9912   3.013   0.909   4.706
 3005SOL     OW 9913   2.686   1.423   6.901
 3005SOL    HW1 9914   2.696   1.327   6.873
 3005SOL    HW2 9915   2.775   1.468   6.900
 3006SOL     OW 9916   5.982   1.004   5.881
 3006SOL    HW1 9917   6.057   1.026   5.818
 3006SOL    HW2 9918   5.980   0.905   5.896
 3007SOL     OW 9919   6.240   5.794   6.095
 3007SOL    HW1 9920   6.188   5.857   6.153
 3007SOL    HW2 9921   6.228   5.701   6.128
 3008SOL     OW 9922   5.448   3.668   5.374
 3008SOL    HW1 9923   5.485   3.579   5.399
 3008SOL    HW2 9924   5.460   3.733   5.449
 3009SOL     OW 9925   5.572   3.805   1.594
 3009SOL    HW1 9926   5.650   3.828   1.652
 3009SOL    HW2 9927   5.507   3.749   1.647
 3010SOL     OW 9928   4.350   4.432   1.497
 3010SOL    HW1 9929   4.434   4.385   1.522
 3010SOL    HW2 9930   4.287   4.431   1.575
 3011SOL     OW 9931   5.606   0.344   1.278
 3011SOL    HW1 9932   5.585   0.259   1.229
 3011SOL    HW2 9933   5.521   0.394   1.294
 3012SOL     OW 9934   1.940   2.151   4.533
 3012SOL    HW1 9935   1.933   2.250   4.544
 3012SOL    HW2 9936   2.009   2.115   4.596
 3013SOL     OW 9937   0.641   5.241   5.333
 3013SOL    HW1 9938   0.661   5.154   5.378
 3013SOL    HW2 9939   0.632   5.227   5.235
 3014SOL     OW 9940   3.784   0.084   0.875
 3014SOL    HW1 9941   3.871   0.072   0.923
 3014SOL    HW2 9942   3.746   7.017   0.853
 3015SOL     OW 9943   2.493   6.727   6.133
 3015SOL    HW1 9944   2.427   6.754   6.063
 3015SOL    HW2 9945   2.562   6.667   6.093
 3016SOL     OW 9946   2.918   1.364   4.493
 3016SOL    HW1 9947   2.939   1.461   4.488
 3016SOL    HW2 9948   2.820   1.351   4.480
 3017SOL     OW 9949   1.834   6.100   6.860
 3017SOL    HW1 9950   1.760   6.042   6.828
 3017SOL    HW2 9951   1.891   6.128   6.783
 3018SOL     OW 9952   1.889   2.861   1.834
 3018SOL    HW1 9953   1.944   2.778   1.833
 3018SOL    HW2 9954   1.938   2.933   1.883
 3019SOL     OW 9955   0.895   1.222   5.266
 3019SOL    HW1 9956   0.975   1.163   5.275
 3019SOL    HW2 9957   0.923   1.317   5.275
 3020SOL     OW 9958   5.563   4.092   6.475
 3020SOL    HW1 9959   5.663   4.091   6.489
 3020SOL    HW2 9960   5.524   4.171   6.522
 3021SOL     OW 9961   4.305   6.857   4.373
 3021SOL    HW1 9962   4.297   6.760   4.350
 3021SOL    HW2 9963   4.239   6.909   4.320
 3022SOL     OW 9964   3.914   6.383   2.498
 3022SOL    HW1 9965   3.925   6.338   2.410
 3022SOL    HW2 9966   3.944   6.478   2.491
 3023SOL     OW 9967   5.285   4.560   4.936
 3023SOL    HW1 9968   5.235   4.503   5.002
 3023SOL    HW2 9969   5.333   4.502   4.871
 3024SOL     OW 9970   6.086   1.441   6.418
 3024SOL    HW1 9971   6.029   1.444   6.336
 3024SOL    HW2 9972   6.183   1.447   6.392
 3025SOL     OW 9973   3.697   5.458   0.954
 3025SOL    HW1 9974   3.692   5.543   1.005
 3025SOL    HW2 9975   3.777   5.459   0.893
 3026SOL     OW 9976   6.843   6.330   2.424
 3026SOL    HW1 9977   6.918   6.279   2.465
 3026SOL    HW2 9978   6.880   6.391   2.353
 3027SOL     OW 9979   4.039   0.102   0.962
 3027SOL    HW1 9980   4.107   0.056   1.019
 3027SOL    HW2 9981   4.011   0.188   1.007
 3028SOL     OW 9982   3.751   3.570   3.693
 3028SOL    HW1 9983   3.769   3.547   3.789
 3028SOL    HW2 9984   3.655   3.552   3.672
 3029SOL     OW 9985   0.117   2.244   5.349
 3029SOL    HW1 9986   0.136   2.269   5.444
 3029SOL    HW2 9987   0.091   2.326   5.299
 3030SOL     OW 9988   0.159   3.956   6.179
 3030SOL    HW1 9989   0.159   3.920   6.273
 3030SOL    HW2 9990   0.208   3.892   6.119
 3031SOL     OW 9991   0.234   4.553   6.960
 3031SOL    HW1 9992   0.162   4.530   0.002
 3031SOL    HW2 9993   0.201   4.626   6.899
 3032SOL     OW 9994   4.175   0.192   3.419
 3032SOL    HW1 9995   4.140   0.147   3.501
 3032SOL    HW2 9996   4.207   0.284   3.442
 3033SOL     OW 9997   1.850   0.376   6.674
 3033SOL    HW1 9998   1.838   0.434   6.593
 3033SOL    HW2 9999   1.796   0.413   6.749
 3034SOL     OW10000   4.954   3.531   3.274
 3034SOL    HW110001   4.888   3.600   3.244
 3034SOL    HW210002   5.020   3.514   3.201
 3035SOL     OW10003   6.232   4.123   6.738
 3035SOL    HW110004   6.225   4.104   6.836
 3035SOL    HW210005   6.218   4.221   6.722
 3036SOL     OW10006   2.931   2.747   6.746
 3036SOL    HW110007   2.999   2.679   6.718
 3036SOL    HW210008   2.892   2.722   6.834
 3037SOL     OW10009   0.760   5.393   6.290
 3037SOL    HW110010   0.840   5.334   6.277
 3037SOL    HW210011   0.746   5.449   6.209
 3038SOL     OW10012   5.748   4.905   5.032
 3038SOL    HW110013   5.727   4.991   5.078
 3038SOL    HW210014   5.681   4.836   5.058
 3039SOL     OW10015   6.269   3.521   6.665
 3039SOL    HW110016   6.190   3.559   6.714
 3039SOL    HW210017   6.278   3.566   6.577
 3040SOL     OW10018   3.580   6.709   6.712
 3040SOL    HW110019   3.648   6.766   6.757
 3040SOL    HW210020   3.499   6.701   6.771
 3041SOL     OW10021   2.600   5.825   6.522
 3041SOL    HW110022   2.674   5.760   6.508
 3041SOL    HW210023   2.552   5.840   6.436
 3042SOL     OW10024   0.110   5.416   4.583
 3042SOL    HW110025   0.045   5.490   4.563
 3042SOL    HW210026   0.091   5.338   4.524
 3043SOL     OW10027   2.241   3.251   1.046
 3043SOL    HW110028   2.295   3.332   1.068
 3043SOL    HW210029   2.144   3.274   1.047
 3044SOL     OW10030   3.807   4.020   3.804
 3044SOL    HW110031   3.821   4.035   3.902
 3044SOL    HW210032   3.865   3.944   3.774
 3045SOL     OW10033   5.565   0.129   3.387
 3045SOL    HW110034   5.511   0.073   3.325
 3045SOL    HW210035   5.652   0.153   3.344
 3046SOL     OW10036   6.691   5.816   1.572
 3046SOL    HW110037   6.594   5.815   1.549
 3046SOL    HW210038   6.734   5.899   1.535
 3047SOL     OW10039   4.419   1.980   3.718
 3047SOL    HW110040   4.334   2.031   3.718
 3047SOL    HW210041   4.475   2.009   3.796
 3048SOL     OW10042   4.450   5.110   0.749
 3048SOL    HW110043   4.550   5.111   0.755
 3048SOL    HW210044   4.423   5.101   0.653
 3049SOL     OW10045   0.246   0.634   1.191
 3049SOL    HW110046   0.168   0.571   1.197
 3049SOL    HW210047   0.214   0.728   1.198
 3050SOL     OW10048   3.815   2.631   5.375
 3050SOL    HW110049   3.729   2.584   5.357
 3050SOL    HW210050   3.819   2.716   5.323
 3051SOL     OW10051   2.263   4.449   6.142
 3051SOL    HW110052   2.199   4.448   6.065
 3051SOL    HW210053   2.346   4.399   6.116
 3052SOL     OW10054   5.715   6.612   4.311
 3052SOL    HW110055   5.723   6.530   4.254
 3052SOL    HW210056   5.694   6.585   4.405
 3053SOL     OW10057   0.478   5.532   5.491
 3053SOL    HW110058   0.378   5.538   5.491
 3053SOL    HW210059   0.508   5.468   5.420
 3054SOL     OW10060   5.804   6.638   3.552
 3054SOL    HW110061   5.858   6.718   3.577
 3054SOL    HW210062   5.811   6.622   3.454
 3055SOL     OW10063   5.844   6.029   0.765
 3055SOL    HW110064   5.889   5.941   0.784
 3055SOL    HW210065   5.777   6.017   0.693
 3056SOL     OW10066   4.572   2.441   1.221
 3056SOL    HW110067   4.482   2.479   1.244
 3056SOL    HW210068   4.601   2.378   1.293
 3057SOL     OW10069   6.665   2.643   2.987
 3057SOL    HW110070   6.587   2.609   2.934
 3057SOL    HW210071   6.732   2.570   2.998
 3058SOL     OW10072   5.588   3.878   6.618
 3058SOL    HW110073   5.556   3.971   6.600
 3058SOL    HW210074   5.682   3.869   6.586
 3059SOL     OW10075   1.706   2.752   3.266
 3059SOL    HW110076   1.754   2.835   3.296
 3059SOL    HW210077   1.772   2.678   3.253
 3060SOL     OW10078   6.424   2.909   4.048
 3060SOL    HW110079   6.404   2.832   4.107
 3060SOL    HW210080   6.522   2.912   4.029
 3061SOL     OW10081   5.506   5.788   2.446
 3061SOL    HW110082   5.513   5.717   2.517
 3061SOL    HW210083   5.432   5.765   2.384
 3062SOL     OW10084   4.157   5.019   6.865
 3062SOL    HW110085   4.188   5.038   6.772
 3062SOL    HW210086   4.104   4.934   6.866
 3063SOL     OW10087   6.306   5.876   1.209
 3063SOL    HW110088   6.389   5.876   1.264
 3063SOL    HW210089   6.240   5.811   1.249
 3064SOL     OW10090   5.094   0.720   5.922
 3064SOL    HW110091   5.186   0.758   5.933
 3064SOL    HW210092   5.100   0.623   5.899
 3065SOL     OW10093   4.881   1.697   6.303
 3065SOL    HW110094   4.800   1.709   6.245
 3065SOL    HW210095   4.856   1.713   6.399
 3066SOL     OW10096   5.597   0.111   5.994
 3066SOL    HW110097   5.666   0.182   6.009
 3066SOL    HW210098   5.537   0.138   5.919
 3067SOL     OW10099   0.900   2.267   4.628
 3067SOL    HW110100   0.812   2.316   4.633
 3067SOL    HW210101   0.888   2.173   4.660
 3068SOL     OW10102   5.944   0.712   0.870
 3068SOL    HW110103   5.909   0.693   0.962
 3068SOL    HW210104   5.885   0.778   0.825
 3069SOL     OW10105   5.680   5.752   3.965
 3069SOL    HW110106   5.668   5.818   3.891
 3069SOL    HW210107   5.624   5.671   3.948
 3070SOL     OW10108   2.183   1.614   0.470
 3070SOL    HW110109   2.228   1.606   0.558
 3070SOL    HW210110   2.193   1.529   0.419
 3071SOL     OW10111   6.387   4.209   4.374
 3071SOL    HW110112   6.298   4.235   4.412
 3071SOL    HW210113   6.413   4.118   4.407
 3072SOL     OW10114   1.740   6.727   4.410
 3072SOL    HW110115   1.786   6.784   4.478
 3072SOL    HW210116   1.806   6.665   4.368
 3073SOL     OW10117   0.413   5.276   3.170
 3073SOL    HW110118   0.427   5.195   3.113
 3073SOL    HW210119   0.365   5.250   3.254
 3074SOL     OW10120   3.067   3.513   2.073
 3074SOL    HW110121   3.001   3.515   2.149
 3074SOL    HW210122   3.080   3.418   2.044
 3075SOL     OW10123   4.110   4.978   0.586
 3075SOL    HW110124   4.043   4.913   0.621
 3075SOL    HW210125   4.083   5.071   0.610
 3076SOL     OW10126   2.302   1.022   4.108
 3076SOL    HW110127   2.307   1.121   4.118
 3076SOL    HW210128   2.246   0.984   4.182
 3077SOL     OW10129   6.591   3.684   2.596
 3077SOL    HW110130   6.651   3.764   2.597
 3077SOL    HW210131   6.617   3.623   2.670
 3078SOL     OW10132   6.258   4.657   1.581
 3078SOL    HW110133   6.315   4.692   1.655
 3078SOL    HW210134   6.248   4.558   1.589
 3079SOL     OW10135   0.152   4.098   2.116
 3079SOL    HW110136   0.067   4.113   2.066
 3079SOL    HW210137   0.167   4.173   2.180
 3080SOL     OW10138   3.118   5.026   1.310
 3080SOL    HW110139   3.109   4.929   1.288
 3080SOL    HW210140   3.211   5.056   1.292
 3081SOL     OW10141   2.146   2.364   5.947
 3081SOL    HW110142   2.216   2.300   5.915
 3081SOL    HW210143   2.168   2.393   6.040
 3082SOL     OW10144   6.423   3.483   4.787
 3082SOL    HW110145   6.521   3.501   4.779
 3082SOL    HW210146   6.407   3.422   4.865
 3083SOL     OW10147   4.643   5.665   2.103
 3083SOL    HW110148   4.609   5.720   2.179
 3083SOL    HW210149   4.613   5.706   2.017
 3084SOL     OW10150   0.425   5.406   4.324
 3084SOL    HW110151   0.439   5.461   4.406
 3084SOL    HW210152   0.508   5.409   4.267
 3085SOL     OW10153   6.768   5.793   5.554
 3085SOL    HW110154   6.766   5.792   5.454
 3085SOL    HW210155   6.765   5.699   5.589
 3086SOL     OW10156   6.037   6.398   6.052
 3086SOL    HW110157   5.966   6.356   5.996
 3086SOL    HW210158   6.104   6.443   5.993
 3087SOL     OW10159   3.201   0.156   1.542
 3087SOL    HW110160   3.173   0.192   1.631
 3087SOL    HW210161   3.124   0.107   1.500
 3088SOL     OW10162   2.353   2.991   5.416
 3088SOL    HW110163   2.280   2.923   5.406
 3088SOL    HW210164   2.403   2.998   5.330
 3089SOL     OW10165   4.012   6.787   0.255
 3089SOL    HW110166   3.982   6.768   0.161
 3089SOL    HW210167   4.110   6.769   0.262
 3090SOL     OW10168   0.849   1.984   2.721
 3090SOL    HW110169   0.800   2.068   2.743
 3090SOL    HW210170   0.856   1.974   2.622
 3091SOL     OW10171   1.477   1.861   5.696
 3091SOL    HW110172   1.398   1.921   5.682
 3091SOL    HW210173   1.556   1.916   5.723
 3092SOL     OW10174   5.153   1.907   3.868
 3092SOL    HW110175   5.156   1.847   3.788
 3092SOL    HW210176   5.138   2.002   3.838
 3093SOL     OW10177   6.141   5.842   0.096
 3093SOL    HW110178   6.121   5.875   0.188
 3093SOL    HW210179   6.078   5.769   0.071
 3094SOL     OW10180   2.079   1.114   6.544
 3094SOL    HW110181   2.131   1.071   6.470
 3094SOL    HW210182   2.140   1.137   6.619
 3095SOL     OW10183   1.784   3.457   5.995
 3095SOL    HW110184   1.789   3.421   6.088
 3095SOL    HW210185   1.813   3.386   5.931
 3096SOL     OW10186   2.160   3.571   3.589
 3096SOL    HW110187   2.219   3.592   3.667
 3096SOL    HW210188   2.071   3.615   3.602
 3097SOL     OW10189   4.990   2.480   6.551
 3097SOL    HW110190   5.084   2.513   6.564
 3097SOL    HW210191   4.982   2.442   6.459
 3098SOL     OW10192   1.849   4.118   2.623
 3098SOL    HW110193   1.764   4.081   2.662
 3098SOL    HW210194   1.888   4.051   2.560
 3099SOL     OW10195   0.270   0.799   5.976
 3099SOL    HW110196   0.272   0.741   5.895
 3099SOL    HW210197   0.300   0.747   6.055
 3100SOL     OW10198   5.700   4.007   2.996
 3100SOL    HW110199   5.610   3.967   3.015
 3100SOL    HW210200   5.746   3.951   2.927
 3101SOL     OW10201   4.894   0.432   4.356
 3101SOL    HW110202   4.848   0.454   4.442
 3101SOL    HW210203   4.982   0.480   4.352
 3102SOL     OW10204   5.537   3.076   3.137
 3102SOL    HW110205   5.491   3.157   3.102
 3102SOL    HW210206   5.469   3.010   3.169
 3103SOL     OW10207   1.284   1.087   2.377
 3103SOL    HW110208   1.363   1.037   2.413
 3103SOL    HW210209   1.204   1.069   2.433
 3104SOL     OW10210   5.934   1.501   6.200
 3104SOL    HW110211   5.851   1.532   6.246
 3104SOL    HW210212   5.909   1.444   6.121
 3105SOL     OW10213   5.545   4.599   0.287
 3105SOL    HW110214   5.581   4.597   0.194
 3105SOL    HW210215   5.544   4.507   0.326
 3106SOL     OW10216   5.467   1.960   5.761
 3106SOL    HW110217   5.412   1.929   5.839
 3106SOL    HW210218   5.442   1.907   5.680
 3107SOL     OW10219   4.278   1.884   4.539
 3107SOL    HW110220   4.228   1.800   4.561
 3107SOL    HW210221   4.223   1.939   4.475
 3108SOL     OW10222   2.353   4.954   4.070
 3108SOL    HW110223   2.291   5.014   4.020
 3108SOL    HW210224   2.394   4.889   4.006
 3109SOL     OW10225   0.144   5.294   4.243
 3109SOL    HW110226   0.103   5.349   4.170
 3109SOL    HW210227   0.239   5.322   4.257
 3110SOL     OW10228   1.890   5.166   3.744
 3110SOL    HW110229   1.933   5.243   3.696
 3110SOL    HW210230   1.793   5.184   3.755
 3111SOL     OW10231   6.770   3.620   4.100
 3111SOL    HW110232   6.818   3.533   4.113
 3111SOL    HW210233   6.820   3.693   4.148
 3112SOL     OW10234   4.503   0.121   1.014
 3112SOL    HW110235   4.431   0.066   1.056
 3112SOL    HW210236   4.478   0.144   0.920
 3113SOL     OW10237   1.455   6.305   3.665
 3113SOL    HW110238   1.473   6.365   3.587
 3113SOL    HW210239   1.356   6.298   3.679
 3114SOL     OW10240   5.234   5.133   5.217
 3114SOL    HW110241   5.334   5.123   5.216
 3114SOL    HW210242   5.193   5.063   5.275
 3115SOL     OW10243   5.195   5.610   4.735
 3115SOL    HW110244   5.180   5.511   4.723
 3115SOL    HW210245   5.190   5.655   4.646
 3116SOL     OW10246   0.727   2.587   6.488
 3116SOL    HW110247   0.631   2.607   6.471
 3116SOL    HW210248   0.782   2.617   6.410
 3117SOL     OW10249   4.502   0.041   2.063
 3117SOL    HW110250   4.464   7.019   2.143
 3117SOL    HW210251   4.496   7.004   1.984
 3118SOL     OW10252   0.628   2.097   3.560
 3118SOL    HW110253   0.551   2.076   3.501
 3118SOL    HW210254   0.695   2.152   3.510
 3119SOL     OW10255   4.494   6.272   3.284
 3119SOL    HW110256   4.425   6.207   3.253
 3119SOL    HW210257   4.451   6.343   3.339
 3120SOL     OW10258   3.774   6.350   6.268
 3120SOL    HW110259   3.789   6.430   6.325
 3120SOL    HW210260   3.739   6.275   6.324
 3121SOL     OW10261   3.898   1.384   2.913
 3121SOL    HW110262   3.873   1.394   2.817
 3121SOL    HW210263   3.970   1.315   2.922
 3122SOL     OW10264   5.512   3.480   6.446
 3122SOL    HW110265   5.559   3.392   6.448
 3122SOL    HW210266   5.505   3.516   6.540
 3123SOL     OW10267   2.034   3.191   2.821
 3123SOL    HW110268   2.001   3.178   2.728
 3123SOL    HW210269   2.041   3.289   2.841
 3124SOL     OW10270   5.148   7.001   5.523
 3124SOL    HW110271   5.206   0.054   5.552
 3124SOL    HW210272   5.104   0.002   5.436
 3125SOL     OW10273   2.086   1.792   4.841
 3125SOL    HW110274   2.025   1.714   4.853
 3125SOL    HW210275   2.046   1.873   4.884
 3126SOL     OW10276   5.474   4.114   4.608
 3126SOL    HW110277   5.570   4.119   4.582
 3126SOL    HW210278   5.444   4.019   4.608
 3127SOL     OW10279   6.701   2.244   6.381
 3127SOL    HW110280   6.780   2.286   6.426
 3127SOL    HW210281   6.647   2.315   6.336
 3128SOL     OW10282   4.492   2.122   1.624
 3128SOL    HW110283   4.413   2.132   1.685
 3128SOL    HW210284   4.567   2.079   1.674
 3129SOL     OW10285   4.268   4.580   0.231
 3129SOL    HW110286   4.326   4.499   0.223
 3129SOL    HW210287   4.185   4.557   0.282
 3130SOL     OW10288   6.321   5.174   2.788
 3130SOL    HW110289   6.320   5.272   2.808
 3130SOL    HW210290   6.298   5.124   2.872
 3131SOL     OW10291   0.214   2.533   3.124
 3131SOL    HW110292   0.226   2.473   3.045
 3131SOL    HW210293   0.303   2.557   3.162
 3132SOL     OW10294   4.637   3.975   5.833
 3132SOL    HW110295   4.710   4.036   5.863
 3132SOL    HW210296   4.675   3.886   5.808
 3133SOL     OW10297   5.613   6.470   4.539
 3133SOL    HW110298   5.565   6.397   4.491
 3133SOL    HW210299   5.562   6.497   4.620
 3134SOL     OW10300   3.977   5.068   2.901
 3134SOL    HW110301   3.881   5.097   2.891
 3134SOL    HW210302   4.033   5.147   2.927
 3135SOL     OW10303   4.282   0.905   5.960
 3135SOL    HW110304   4.227   0.902   6.044
 3135SOL    HW210305   4.241   0.844   5.892
 3136SOL     OW10306   6.024   6.037   1.999
 3136SOL    HW110307   6.074   5.967   2.050
 3136SOL    HW210308   6.020   6.012   1.902
 3137SOL     OW10309   4.933   3.892   0.193
 3137SOL    HW110310   5.027   3.924   0.184
 3137SOL    HW210311   4.919   3.810   0.138
 3138SOL     OW10312   6.717   6.432   5.108
 3138SOL    HW110313   6.632   6.413   5.157
 3138SOL    HW210314   6.776   6.491   5.163
 3139SOL     OW10315   1.309   4.763   2.139
 3139SOL    HW110316   1.390   4.811   2.172
 3139SOL    HW210317   1.280   4.803   2.051
 3140SOL     OW10318   4.756   5.574   6.791
 3140SOL    HW110319   4.848   5.607   6.812
 3140SOL    HW210320   4.702   5.648   6.750
 3141SOL     OW10321   5.922   2.141   0.224
 3141SOL    HW110322   6.010   2.100   0.245
 3141SOL    HW210323   5.936   2.228   0.176
 3142SOL     OW10324   4.207   0.974   4.065
 3142SOL    HW110325   4.164   0.893   4.027
 3142SOL    HW210326   4.239   0.955   4.157
 3143SOL     OW10327   6.140   1.418   7.000
 3143SOL    HW110328   6.112   1.366   6.919
 3143SOL    HW210329   6.110   1.513   6.989
 3144SOL     OW10330   4.033   4.935   6.541
 3144SOL    HW110331   4.100   4.960   6.471
 3144SOL    HW210332   3.996   5.018   6.582
 3145SOL     OW10333   0.524   5.869   5.530
 3145SOL    HW110334   0.543   5.804   5.457
 3145SOL    HW210335   0.549   5.829   5.618
 3146SOL     OW10336   6.723   1.566   4.177
 3146SOL    HW110337   6.796   1.573   4.109
 3146SOL    HW210338   6.686   1.473   4.177
 3147SOL     OW10339   5.047   6.698   0.703
 3147SOL    HW110340   4.984   6.653   0.640
 3147SOL    HW210341   5.007   6.786   0.731
 3148SOL     OW10342   5.507   4.906   0.470
 3148SOL    HW110343   5.524   4.883   0.566
 3148SOL    HW210344   5.586   4.956   0.434
 3149SOL     OW10345   4.407   3.117   6.876
 3149SOL    HW110346   4.462   3.093   6.956
 3149SOL    HW210347   4.395   3.216   6.873
 3150SOL     OW10348   0.148   0.244   5.335
 3150SOL    HW110349   0.200   0.258   5.251
 3150SOL    HW210350   0.210   0.229   5.411
 3151SOL     OW10351   0.215   1.856   6.798
 3151SOL    HW110352   0.186   1.836   6.704
 3151SOL    HW210353   0.148   1.819   6.862
 3152SOL     OW10354   2.547   1.929   6.138
 3152SOL    HW110355   2.613   1.965   6.072
 3152SOL    HW210356   2.484   2.002   6.165
 3153SOL     OW10357   5.741   5.546   1.519
 3153SOL    HW110358   5.826   5.564   1.469
 3153SOL    HW210359   5.758   5.558   1.617
 3154SOL     OW10360   3.477   2.286   0.697
 3154SOL    HW110361   3.572   2.262   0.715
 3154SOL    HW210362   3.467   2.386   0.696
 3155SOL     OW10363   6.764   6.118   6.625
 3155SOL    HW110364   6.801   6.153   6.711
 3155SOL    HW210365   6.808   6.031   6.603
 3156SOL     OW10366   2.643   4.440   0.800
 3156SOL    HW110367   2.622   4.532   0.835
 3156SOL    HW210368   2.737   4.437   0.769
 3157SOL     OW10369   1.350   1.340   3.142
 3157SOL    HW110370   1.343   1.395   3.225
 3157SOL    HW210371   1.262   1.296   3.123
 3158SOL     OW10372   2.056   0.319   6.073
 3158SOL    HW110373   1.956   0.317   6.077
 3158SOL    HW210374   2.091   0.226   6.080
 3159SOL     OW10375   4.638   5.654   1.428
 3159SOL    HW110376   4.684   5.708   1.497
 3159SOL    HW210377   4.615   5.564   1.465
 3160SOL     OW10378   2.334   1.070   5.613
 3160SOL    HW110379   2.380   1.132   5.677
 3160SOL    HW210380   2.388   0.986   5.604
 3161SOL     OW10381   2.086   2.364   2.020
 3161SOL    HW110382   2.122   2.413   2.099
 3161SOL    HW210383   2.159   2.347   1.954
 3162SOL     OW10384   1.538   5.875   2.244
 3162SOL    HW110385   1.573   5.785   2.268
 3162SOL    HW210386   1.470   5.866   2.172
 3163SOL     OW10387   5.135   4.601   1.479
 3163SOL    HW110388   5.086   4.527   1.524
 3163SOL    HW210389   5.070   4.668   1.444
 3164SOL     OW10390   2.396   0.022   3.259
 3164SOL    HW110391   2.324   0.070   3.309
 3164SOL    HW210392   2.355   6.997   3.181
 3165SOL     OW10393   0.309   5.519   6.938
 3165SOL    HW110394   0.260   5.439   6.974
 3165SOL    HW210395   0.365   5.491   6.860
 3166SOL     OW10396   3.495   2.084   4.688
 3166SOL    HW110397   3.481   2.097   4.786
 3166SOL    HW210398   3.476   2.170   4.640
 3167SOL     OW10399   6.291   2.922   2.563
 3167SOL    HW110400   6.219   2.991   2.554
 3167SOL    HW210401   6.380   2.965   2.555
 3168SOL     OW10402   5.435   1.539   0.980
 3168SOL    HW110403   5.432   1.629   0.937
 3168SOL    HW210404   5.342   1.504   0.993
 3169SOL     OW10405   1.127   2.617   2.133
 3169SOL    HW110406   1.220   2.589   2.156
 3169SOL    HW210407   1.103   2.580   2.043
 3170SOL     OW10408   2.497   4.833   3.835
 3170SOL    HW110409   2.402   4.811   3.813
 3170SOL    HW210410   2.555   4.808   3.758
 3171SOL     OW10411   6.278   1.961   4.520
 3171SOL    HW110412   6.257   2.057   4.538
 3171SOL    HW210413   6.286   1.911   4.606
 3172SOL     OW10414   5.980   4.354   1.184
 3172SOL    HW110415   6.054   4.422   1.178
 3172SOL    HW210416   5.898   4.397   1.222
 3173SOL     OW10417   5.519   4.349   0.411
 3173SOL    HW110418   5.476   4.306   0.332
 3173SOL    HW210419   5.450   4.364   0.482
 3174SOL     OW10420   2.839   2.881   0.097
 3174SOL    HW110421   2.857   2.872   0.195
 3174SOL    HW210422   2.782   2.804   0.067
 3175SOL     OW10423   5.951   6.086   5.628
 3175SOL    HW110424   5.922   6.151   5.697
 3175SOL    HW210425   5.911   6.112   5.539
 3176SOL     OW10426   6.846   5.263   3.960
 3176SOL    HW110427   6.777   5.193   3.978
 3176SOL    HW210428   6.937   5.222   3.968
 3177SOL     OW10429   5.591   2.388   1.659
 3177SOL    HW110430   5.547   2.390   1.570
 3177SOL    HW210431   5.554   2.312   1.713
 3178SOL     OW10432   1.588   0.688   2.394
 3178SOL    HW110433   1.671   0.647   2.433
 3178SOL    HW210434   1.509   0.633   2.418
 3179SOL     OW10435   0.504   4.071   2.952
 3179SOL    HW110436   0.497   4.058   2.853
 3179SOL    HW210437   0.598   4.097   2.976
 3180SOL     OW10438   6.136   0.204   6.604
 3180SOL    HW110439   6.138   0.130   6.536
 3180SOL    HW210440   6.165   0.168   6.693
 3181SOL     OW10441   0.042   6.943   4.490
 3181SOL    HW110442   0.065   6.900   4.578
 3181SOL    HW210443   6.989   7.007   4.503
 3182SOL     OW10444   1.314   6.860   1.518
 3182SOL    HW110445   1.311   6.950   1.475
 3182SOL    HW210446   1.345   6.870   1.613
 3183SOL     OW10447   4.333   4.023   0.268
 3183SOL    HW110448   4.245   3.974   0.264
 3183SOL    HW210449   4.318   4.116   0.301
 3184SOL     OW10450   6.465   0.675   4.757
 3184SOL    HW110451   6.396   0.621   4.709
 3184SOL    HW210452   6.462   0.654   4.855
 3185SOL     OW10453   1.171   0.904   6.444
 3185SOL    HW110454   1.247   0.970   6.446
 3185SOL    HW210455   1.135   0.897   6.352
 3186SOL     OW10456   0.836   2.130   6.007
 3186SOL    HW110457   0.739   2.135   6.032
 3186SOL    HW210458   0.884   2.070   6.071
 3187SOL     OW10459   4.898   0.272   3.566
 3187SOL    HW110460   4.976   0.316   3.522
 3187SOL    HW210461   4.863   0.330   3.640
 3188SOL     OW10462   1.161   5.948   1.373
 3188SOL    HW110463   1.193   5.998   1.454
 3188SOL    HW210464   1.149   6.012   1.297
 3189SOL     OW10465   2.409   2.086   5.388
 3189SOL    HW110466   2.441   2.173   5.351
 3189SOL    HW210467   2.351   2.041   5.320
 3190SOL     OW10468   6.670   6.128   4.496
 3190SOL    HW110469   6.609   6.150   4.572
 3190SOL    HW210470   6.760   6.103   4.531
 3191SOL     OW10471   4.046   5.198   0.726
 3191SOL    HW110472   4.011   5.291   0.713
 3191SOL    HW210473   4.125   5.201   0.787
 3192SOL     OW10474   5.346   0.911   3.348
 3192SOL    HW110475   5.345   1.010   3.357
 3192SOL    HW210476   5.393   0.871   3.428
 3193SOL     OW10477   3.633   5.865   4.621
 3193SOL    HW110478   3.659   5.918   4.540
 3193SOL    HW210479   3.673   5.773   4.615
 3194SOL     OW10480   2.491   6.229   6.301
 3194SOL    HW110481   2.445   6.317   6.306
 3194SOL    HW210482   2.460   6.180   6.219
 3195SOL     OW10483   0.108   5.859   1.641
 3195SOL    HW110484   0.120   5.760   1.642
 3195SOL    HW210485   0.011   5.881   1.637
 3196SOL     OW10486   5.650   0.464   3.215
 3196SOL    HW110487   5.649   0.458   3.314
 3196SOL    HW210488   5.735   0.426   3.180
 3197SOL     OW10489   3.183   0.924   0.007
 3197SOL    HW110490   3.117   0.977   6.978
 3197SOL    HW210491   3.146   0.904   0.098
 3198SOL     OW10492   5.849   4.229   4.243
 3198SOL    HW110493   5.834   4.130   4.237
 3198SOL    HW210494   5.932   4.253   4.193
 3199SOL     OW10495   5.359   3.139   4.090
 3199SOL    HW110496   5.385   3.218   4.146
 3199SOL    HW210497   5.303   3.170   4.014
 3200SOL     OW10498   6.674   3.077   4.922
 3200SOL    HW110499   6.649   3.018   5.000
 3200SOL    HW210500   6.597   3.083   4.859
 3201SOL     OW10501   5.976   3.431   2.446
 3201SOL    HW110502   6.026   3.359   2.400
 3201SOL    HW210503   5.888   3.446   2.400
 3202SOL     OW10504   3.013   3.012   6.003
 3202SOL    HW110505   2.942   3.035   5.937
 3202SOL    HW210506   3.068   3.093   6.022
 3203SOL     OW10507   3.298   6.435   1.549
 3203SOL    HW110508   3.292   6.345   1.591
 3203SOL    HW210509   3.323   6.503   1.619
 3204SOL     OW10510   5.358   0.455   3.268
 3204SOL    HW110511   5.297   0.530   3.241
 3204SOL    HW210512   5.449   0.472   3.229
 3205SOL     OW10513   5.364   2.947   0.402
 3205SOL    HW110514   5.376   3.033   0.353
 3205SOL    HW210515   5.444   2.931   0.460
 3206SOL     OW10516   3.593   5.112   0.062
 3206SOL    HW110517   3.514   5.059   0.094
 3206SOL    HW210518   3.677   5.064   0.087
 3207SOL     OW10519   1.924   6.377   3.024
 3207SOL    HW110520   1.887   6.377   2.931
 3207SOL    HW210521   1.852   6.348   3.088
 3208SOL     OW10522   0.070   3.950   0.077
 3208SOL    HW110523   0.134   3.875   0.059
 3208SOL    HW210524   7.003   3.912   0.100
 3209SOL     OW10525   5.275   0.077   5.273
 3209SOL    HW110526   5.329   0.068   5.357
 3209SOL    HW210527   5.315   0.019   5.202
 3210SOL     OW10528   4.678   5.201   2.444
 3210SOL    HW110529   4.761   5.153   2.415
 3210SOL    HW210530   4.603   5.136   2.453
 3211SOL     OW10531   2.782   0.153   6.842
 3211SOL    HW110532   2.743   0.162   6.751
 3211SOL    HW210533   2.815   0.242   6.873
 3212SOL     OW10534   3.720   6.750   4.234
 3212SOL    HW110535   3.736   6.828   4.294
 3212SOL    HW210536   3.737   6.776   4.139
 3213SOL     OW10537   1.031   0.208   5.736
 3213SOL    HW110538   1.099   0.278   5.757
 3213SOL    HW210539   0.941   0.238   5.767
 3214SOL     OW10540   2.254   7.014   3.027
 3214SOL    HW110541   2.286   0.058   2.959
 3214SOL    HW210542   2.198   6.945   2.981
 3215SOL     OW10543   2.147   3.309   1.706
 3215SOL    HW110544   2.223   3.353   1.753
 3215SOL    HW210545   2.060   3.344   1.743
 3216SOL     OW10546   6.840   4.167   1.267
 3216SOL    HW110547   6.936   4.140   1.275
 3216SOL    HW210548   6.810   4.211   1.351
 3217SOL     OW10549   6.124   5.874   3.783
 3217SOL    HW110550   6.097   5.858   3.878
 3217SOL    HW210551   6.080   5.958   3.750
 3218SOL     OW10552   5.905   1.280   3.382
 3218SOL    HW110553   5.952   1.272   3.470
 3218SOL    HW210554   5.968   1.316   3.313
 3219SOL     OW10555   4.775   2.052   4.436
 3219SOL    HW110556   4.677   2.058   4.456
 3219SOL    HW210557   4.809   2.140   4.403
 3220SOL     OW10558   6.948   3.470   5.467
 3220SOL    HW110559   6.850   3.457   5.452
 3220SOL    HW210560   6.989   3.385   5.498
 3221SOL     OW10561   4.140   1.865   2.264
 3221SOL    HW110562   4.116   1.824   2.352
 3221SOL    HW210563   4.107   1.959   2.260
 3222SOL     OW10564   3.130   0.815   3.531
 3222SOL    HW110565   3.148   0.832   3.628
 3222SOL    HW210566   3.044   0.765   3.521
 3223SOL     OW10567   1.731   5.886   0.642
 3223SOL    HW110568   1.824   5.878   0.604
 3223SOL    HW210569   1.737   5.923   0.734
 3224SOL     OW10570   4.479   2.523   3.712
 3224SOL    HW110571   4.512   2.596   3.652
 3224SOL    HW210572   4.492   2.549   3.807
 3225SOL     OW10573   3.463   0.855   5.087
 3225SOL    HW110574   3.457   0.932   5.024
 3225SOL    HW210575   3.485   0.888   5.178
 3226SOL     OW10576   5.582   1.018   0.283
 3226SOL    HW110577   5.672   0.979   0.302
 3226SOL    HW210578   5.524   0.949   0.242
 3227SOL     OW10579   5.949   4.187   5.850
 3227SOL    HW110580   5.900   4.120   5.794
 3227SOL    HW210581   6.012   4.140   5.911
 3228SOL     OW10582   1.905   4.543   0.702
 3228SOL    HW110583   1.973   4.609   0.736
 3228SOL    HW210584   1.813   4.575   0.726
 3229SOL     OW10585   1.251   0.887   0.572
 3229SOL    HW110586   1.270   0.959   0.639
 3229SOL    HW210587   1.262   0.798   0.617
 3230SOL     OW10588   3.155   6.179   5.214
 3230SOL    HW110589   3.157   6.082   5.189
 3230SOL    HW210590   3.094   6.191   5.293
 3231SOL     OW10591   2.932   2.225   2.539
 3231SOL    HW110592   2.941   2.259   2.445
 3231SOL    HW210593   3.022   2.201   2.574
 3232SOL     OW10594   3.104   4.845   3.733
 3232SOL    HW110595   3.017   4.876   3.772
 3232SOL    HW210596   3.103   4.857   3.634
 3233SOL     OW10597   2.421   0.313   5.363
 3233SOL    HW110598   2.365   0.230   5.358
 3233SOL    HW210599   2.513   0.293   5.327
 3234SOL     OW10600   3.683   3.863   0.738
 3234SOL    HW110601   3.717   3.872   0.831
 3234SOL    HW210602   3.757   3.879   0.673
 3235SOL     OW10603   0.245   2.093   2.890
 3235SOL    HW110604   0.303   2.133   2.819
 3235SOL    HW210605   0.149   2.106   2.866
 3236SOL     OW10606   6.024   6.497   0.747
 3236SOL    HW110607   6.102   6.554   0.725
 3236SOL    HW210608   5.951   6.554   0.786
 3237SOL     OW10609   6.004   2.140   5.584
 3237SOL    HW110610   6.092   2.140   5.536
 3237SOL    HW210611   5.989   2.229   5.627
 3238SOL     OW10612   0.599   5.025   1.082
 3238SOL    HW110613   0.510   4.981   1.095
 3238SOL    HW210614   0.633   5.007   0.990
 3239SOL     OW10615   6.297   1.349   5.084
 3239SOL    HW110616   6.246   1.327   5.001
 3239SOL    HW210617   6.270   1.440   5.117
 3240SOL     OW10618   0.757   1.913   1.399
 3240SOL    HW110619   0.660   1.934   1.386
 3240SOL    HW210620   0.794   1.971   1.472
 3241SOL     OW10621   0.118   2.881   5.470
 3241SOL    HW110622   0.176   2.959   5.446
 3241SOL    HW210623   0.145   2.802   5.414
 3242SOL     OW10624   0.292   4.963   5.430
 3242SOL    HW110625   0.329   4.870   5.425
 3242SOL    HW210626   0.238   4.972   5.514
 3243SOL     OW10627   6.386   4.942   5.155
 3243SOL    HW110628   6.434   4.959   5.069
 3243SOL    HW210629   6.327   4.862   5.145
 3244SOL     OW10630   4.976   7.006   6.898
 3244SOL    HW110631   5.055   6.952   6.868
 3244SOL    HW210632   5.007   0.065   6.947
 3245SOL     OW10633   2.095   6.372   4.404
 3245SOL    HW110634   2.181   6.420   4.391
 3245SOL    HW210635   2.110   6.273   4.397
 3246SOL     OW10636   6.350   5.601   2.452
 3246SOL    HW110637   6.396   5.530   2.506
 3246SOL    HW210638   6.414   5.638   2.385
 3247SOL     OW10639   2.125   4.305   4.706
 3247SOL    HW110640   2.117   4.280   4.802
 3247SOL    HW210641   2.161   4.227   4.654
 3248SOL     OW10642   6.077   2.372   3.687
 3248SOL    HW110643   6.048   2.382   3.592
 3248SOL    HW210644   6.020   2.429   3.746
 3249SOL     OW10645   3.884   4.006   4.064
 3249SOL    HW110646   3.923   3.927   4.112
 3249SOL    HW210647   3.875   4.083   4.128
 3250SOL     OW10648   4.574   5.622   3.373
 3250SOL    HW110649   4.561   5.715   3.338
 3250SOL    HW210650   4.538   5.556   3.307
 3251SOL     OW10651   1.966   2.213   2.243
 3251SOL    HW110652   1.954   2.242   2.148
 3251SOL    HW210653   1.938   2.288   2.304
 3252SOL     OW10654   1.491   1.543   2.465
 3252SOL    HW110655   1.438   1.489   2.399
 3252SOL    HW210656   1.435   1.619   2.497
 3253SOL     OW10657   6.330   3.353   1.019
 3253SOL    HW110658   6.394   3.388   0.951
 3253SOL    HW210659   6.313   3.424   1.088
 3254SOL     OW10660   6.117   0.110   0.735
 3254SOL    HW110661   6.143   0.188   0.678
 3254SOL    HW210662   6.030   0.130   0.780
 3255SOL     OW10663   3.788   4.853   2.178
 3255SOL    HW110664   3.707   4.813   2.136
 3255SOL    HW210665   3.804   4.944   2.140
 3256SOL     OW10666   5.730   2.213   2.062
 3256SOL    HW110667   5.790   2.287   2.029
 3256SOL    HW210668   5.697   2.161   1.983
 3257SOL     OW10669   2.581   1.325   2.677
 3257SOL    HW110670   2.540   1.319   2.768
 3257SOL    HW210671   2.594   1.422   2.654
 3258SOL     OW10672   0.411   5.068   4.142
 3258SOL    HW110673   0.490   5.023   4.100
 3258SOL    HW210674   0.422   5.069   4.241
 3259SOL     OW10675   6.156   5.092   3.306
 3259SOL    HW110676   6.133   5.001   3.340
 3259SOL    HW210677   6.144   5.159   3.379
 3260SOL     OW10678   2.754   4.677   3.728
 3260SOL    HW110679   2.691   4.622   3.673
 3260SOL    HW210680   2.823   4.717   3.669
 3261SOL     OW10681   5.914   6.778   4.217
 3261SOL    HW110682   5.840   6.715   4.240
 3261SOL    HW210683   5.980   6.780   4.292
 3262SOL     OW10684   2.699   1.689   2.407
 3262SOL    HW110685   2.676   1.721   2.315
 3262SOL    HW210686   2.786   1.729   2.436
 3263SOL     OW10687   5.763   0.198   1.867
 3263SOL    HW110688   5.678   0.173   1.913
 3263SOL    HW210689   5.759   0.172   1.771
 3264SOL     OW10690   1.040   5.222   6.657
 3264SOL    HW110691   0.983   5.293   6.616
 3264SOL    HW210692   1.137   5.244   6.643
 3265SOL     OW10693   6.681   5.954   5.760
 3265SOL    HW110694   6.721   5.948   5.668
 3265SOL    HW210695   6.692   5.866   5.806
 3266SOL     OW10696   3.876   4.671   6.287
 3266SOL    HW110697   3.860   4.599   6.219
 3266SOL    HW210698   3.920   4.749   6.243
 3267SOL     OW10699   3.092   0.239   0.553
 3267SOL    HW110700   3.084   0.311   0.484
 3267SOL    HW210701   3.189   0.224   0.575
 3268SOL     OW10702   5.634   4.355   2.644
 3268SOL    HW110703   5.712   4.415   2.661
 3268SOL    HW210704   5.551   4.400   2.676
 3269SOL     OW10705   1.972   5.572   0.769
 3269SOL    HW110706   2.070   5.567   0.788
 3269SOL    HW210707   1.955   5.639   0.697
 3270SOL     OW10708   2.008   3.116   6.390
 3270SOL    HW110709   2.047   3.141   6.302
 3270SOL    HW210710   2.053   3.168   6.463
 3271SOL     OW10711   0.793   4.232   1.376
 3271SOL    HW110712   0.761   4.181   1.296
 3271SOL    HW210713   0.821   4.168   1.447
 3272SOL     OW10714   3.684   0.173   0.485
 3272SOL    HW110715   3.740   0.094   0.459
 3272SOL    HW210716   3.730   0.223   0.559
 3273SOL     OW10717   4.626   3.621   6.678
 3273SOL    HW110718   4.684   3.542   6.657
 3273SOL    HW210719   4.610   3.626   6.776
 3274SOL     OW10720   4.699   0.187   2.200
 3274SOL    HW110721   4.792   0.163   2.174
 3274SOL    HW210722   4.636   0.157   2.128
 3275SOL     OW10723   4.832   0.437   1.629
 3275SOL    HW110724   4.909   0.490   1.664
 3275SOL    HW210725   4.789   0.485   1.553
 3276SOL     OW10726   5.963   5.908   0.279
 3276SOL    HW110727   5.936   5.981   0.342
 3276SOL    HW210728   5.928   5.928   0.187
 3277SOL     OW10729   4.658   1.156   2.450
 3277SOL    HW110730   4.655   1.057   2.466
 3277SOL    HW210731   4.668   1.173   2.352
 3278SOL     OW10732   4.968   1.208   6.862
 3278SOL    HW110733   5.017   1.284   6.821
 3278SOL    HW210734   4.992   1.123   6.815
 3279SOL     OW10735   4.143   0.292   2.283
 3279SOL    HW110736   4.129   0.221   2.352
 3279SOL    HW210737   4.235   0.330   2.293
 3280SOL     OW10738   0.068   2.494   4.284
 3280SOL    HW110739   0.157   2.540   4.280
 3280SOL    HW210740   0.042   2.463   4.193
 3281SOL     OW10741   6.132   2.611   2.147
 3281SOL    HW110742   6.182   2.672   2.209
 3281SOL    HW210743   6.184   2.599   2.063
 3282SOL     OW10744   6.872   4.846   5.011
 3282SOL    HW110745   6.799   4.799   4.961
 3282SOL    HW210746   6.831   4.903   5.083
 3283SOL     OW10747   3.518   1.277   0.616
 3283SOL    HW110748   3.511   1.376   0.625
 3283SOL    HW210749   3.506   1.234   0.705
 3284SOL     OW10750   2.433   0.815   5.601
 3284SOL    HW110751   2.531   0.793   5.600
 3284SOL    HW210752   2.380   0.730   5.607
 3285SOL     OW10753   4.252   1.529   4.307
 3285SOL    HW110754   4.165   1.579   4.302
 3285SOL    HW210755   4.298   1.551   4.393
 3286SOL     OW10756   1.353   4.200   3.258
 3286SOL    HW110757   1.313   4.127   3.203
 3286SOL    HW210758   1.452   4.186   3.264
 3287SOL     OW10759   3.237   1.249   0.539
 3287SOL    HW110760   3.337   1.248   0.545
 3287SOL    HW210761   3.198   1.258   0.631
 3288SOL     OW10762   2.907   5.383   1.632
 3288SOL    HW110763   2.914   5.293   1.588
 3288SOL    HW210764   2.815   5.395   1.669
 3289SOL     OW10765   5.010   6.990   0.322
 3289SOL    HW110766   5.017   7.013   0.420
 3289SOL    HW210767   5.014   0.051   0.268
 3290SOL     OW10768   0.902   4.094   7.007
 3290SOL    HW110769   0.806   4.121   7.017
 3290SOL    HW210770   0.918   4.062   6.913
 3291SOL     OW10771   4.758   6.783   5.722
 3291SOL    HW110772   4.812   6.738   5.794
 3291SOL    HW210773   4.806   6.775   5.635
 3292SOL     OW10774   0.368   2.957   1.121
 3292SOL    HW110775   0.351   2.986   1.027
 3292SOL    HW210776   0.466   2.948   1.137
 3293SOL     OW10777   6.517   4.471   2.545
 3293SOL    HW110778   6.463   4.438   2.467
 3293SOL    HW210779   6.471   4.550   2.585
 3294SOL     OW10780   4.170   2.792   5.526
 3294SOL    HW110781   4.185   2.890   5.518
 3294SOL    HW210782   4.240   2.743   5.475
 3295SOL     OW10783   1.097   3.672   3.423
 3295SOL    HW110784   1.057   3.593   3.470
 3295SOL    HW210785   1.037   3.699   3.347
 3296SOL     OW10786   2.376   0.462   6.955
 3296SOL    HW110787   2.456   0.412   6.987
 3296SOL    HW210788   2.313   0.477   0.007
 3297SOL     OW10789   2.927   0.745   5.937
 3297SOL    HW110790   2.866   0.753   5.858
 3297SOL    HW210791   2.976   0.832   5.950
 3298SOL     OW10792   4.150   3.907   6.203
 3298SOL    HW110793   4.147   3.998   6.160
 3298SOL    HW210794   4.158   3.837   6.132
 3299SOL     OW10795   2.598   6.980   4.309
 3299SOL    HW110796   2.561   6.926   4.385
 3299SOL    HW210797   2.546   6.960   4.226
 3300SOL     OW10798   1.897   0.989   3.149
 3300SOL    HW110799   1.825   0.951   3.091
 3300SOL    HW210800   1.982   0.995   3.098
 3301SOL     OW10801   1.281   0.757   2.184
 3301SOL    HW110802   1.272   0.755   2.085
 3301SOL    HW210803   1.297   0.851   2.215
 3302SOL     OW10804   1.414   4.919   4.884
 3302SOL    HW110805   1.398   4.829   4.843
 3302SOL    HW210806   1.333   4.976   4.874
 3303SOL     OW10807   4.450   3.808   0.609
 3303SOL    HW110808   4.447   3.789   0.510
 3303SOL    HW210809   4.357   3.812   0.645
 3304SOL     OW10810   2.355   4.022   0.869
 3304SOL    HW110811   2.418   4.065   0.933
 3304SOL    HW210812   2.406   3.984   0.791
 3305SOL     OW10813   3.223   2.870   6.865
 3305SOL    HW110814   3.161   2.945   6.888
 3305SOL    HW210815   3.293   2.904   6.801
 3306SOL     OW10816   2.884   0.595   0.918
 3306SOL    HW110817   2.962   0.657   0.911
 3306SOL    HW210818   2.913   0.503   0.895
 3307SOL     OW10819   2.080   5.677   4.881
 3307SOL    HW110820   1.985   5.705   4.869
 3307SOL    HW210821   2.140   5.739   4.831
 3308SOL     OW10822   5.356   5.421   1.677
 3308SOL    HW110823   5.353   5.436   1.578
 3308SOL    HW210824   5.437   5.367   1.699
 3309SOL     OW10825   5.841   3.341   4.269
 3309SOL    HW110826   5.753   3.374   4.302
 3309SOL    HW210827   5.827   3.262   4.209
 3310SOL     OW10828   6.309   4.424   6.747
 3310SOL    HW110829   6.278   4.517   6.728
 3310SOL    HW210830   6.242   4.377   6.804
 3311SOL     OW10831   1.623   2.756   1.191
 3311SOL    HW110832   1.638   2.855   1.183
 3311SOL    HW210833   1.623   2.715   1.100
 3312SOL     OW10834   5.399   3.756   0.501
 3312SOL    HW110835   5.301   3.762   0.519
 3312SOL    HW210836   5.430   3.840   0.457
 3313SOL     OW10837   1.054   6.614   3.448
 3313SOL    HW110838   1.032   6.663   3.363
 3313SOL    HW210839   1.092   6.677   3.514
 3314SOL     OW10840   3.033   6.295   3.869
 3314SOL    HW110841   2.968   6.265   3.940
 3314SOL    HW210842   3.090   6.369   3.906
 3315SOL     OW10843   1.171   6.280   3.752
 3315SOL    HW110844   1.228   6.289   3.833
 3315SOL    HW210845   1.110   6.360   3.745
 3316SOL     OW10846   3.792   1.828   0.300
 3316SOL    HW110847   3.839   1.897   0.245
 3316SOL    HW210848   3.791   1.741   0.251
 3317SOL     OW10849   5.997   2.241   0.706
 3317SOL    HW110850   5.947   2.284   0.630
 3317SOL    HW210851   6.092   2.225   0.678
 3318SOL     OW10852   3.957   2.599   0.489
 3318SOL    HW110853   3.951   2.684   0.437
 3318SOL    HW210854   3.925   2.523   0.433
 3319SOL     OW10855   6.473   6.405   4.101
 3319SOL    HW110856   6.524   6.320   4.088
 3319SOL    HW210857   6.536   6.479   4.123
 3320SOL     OW10858   6.194   0.452   2.840
 3320SOL    HW110859   6.183   0.437   2.742
 3320SOL    HW210860   6.194   0.364   2.887
 3321SOL     OW10861   4.626   1.627   6.746
 3321SOL    HW110862   4.635   1.621   6.845
 3321SOL    HW210863   4.593   1.540   6.710
 3322SOL     OW10864   6.354   3.542   1.596
 3322SOL    HW110865   6.397   3.629   1.570
 3322SOL    HW210866   6.293   3.557   1.673
 3323SOL     OW10867   0.811   0.259   2.112
 3323SOL    HW110868   0.849   0.335   2.165
 3323SOL    HW210869   0.854   0.256   2.023
 3324SOL     OW10870   6.552   5.503   6.358
 3324SOL    HW110871   6.586   5.579   6.413
 3324SOL    HW210872   6.538   5.533   6.264
 3325SOL     OW10873   2.712   5.360   6.373
 3325SOL    HW110874   2.642   5.391   6.438
 3325SOL    HW210875   2.722   5.261   6.380
 3326SOL     OW10876   4.238   1.584   1.937
 3326SOL    HW110877   4.175   1.596   2.014
 3326SOL    HW210878   4.275   1.492   1.938
 3327SOL     OW10879   1.510   6.246   5.740
 3327SOL    HW110880   1.521   6.223   5.837
 3327SOL    HW210881   1.462   6.173   5.693
 3328SOL     OW10882   4.410   2.930   5.348
 3328SOL    HW110883   4.445   2.953   5.439
 3328SOL    HW210884   4.381   2.834   5.347
 3329SOL     OW10885   6.788   6.604   5.571
 3329SOL    HW110886   6.815   6.699   5.552
 3329SOL    HW210887   6.716   6.604   5.640
 3330SOL     OW10888   6.541   2.905   3.084
 3330SOL    HW110889   6.597   2.841   3.031
 3330SOL    HW210890   6.527   2.869   3.176
 3331SOL     OW10891   1.792   3.029   0.737
 3331SOL    HW110892   1.871   3.052   0.792
 3331SOL    HW210893   1.822   2.987   0.651
 3332SOL     OW10894   6.932   4.215   1.988
 3332SOL    HW110895   6.931   4.279   1.911
 3332SOL    HW210896   6.908   4.264   2.072
 3333SOL     OW10897   3.324   5.969   5.061
 3333SOL    HW110898   3.273   5.958   4.975
 3333SOL    HW210899   3.290   5.905   5.129
 3334SOL     OW10900   1.584   3.021   1.134
 3334SOL    HW110901   1.526   3.065   1.203
 3334SOL    HW210902   1.557   3.053   1.043
 3335SOL     OW10903   5.396   4.432   4.720
 3335SOL    HW110904   5.359   4.349   4.677
 3335SOL    HW210905   5.480   4.458   4.674
 3336SOL     OW10906   3.577   6.134   5.544
 3336SOL    HW110907   3.500   6.069   5.545
 3336SOL    HW210908   3.634   6.117   5.464
 3337SOL     OW10909   4.147   1.485   0.678
 3337SOL    HW110910   4.213   1.511   0.607
 3337SOL    HW210911   4.058   1.469   0.636
 3338SOL     OW10912   6.905   5.432   0.318
 3338SOL    HW110913   6.922   5.337   0.343
 3338SOL    HW210914   6.807   5.450   0.318
 3339SOL     OW10915   6.967   4.351   6.554
 3339SOL    HW110916   6.965   4.275   6.488
 3339SOL    HW210917   0.010   4.420   6.523
 3340SOL     OW10918   3.923   0.513   1.847
 3340SOL    HW110919   3.984   0.555   1.914
 3340SOL    HW210920   3.930   0.414   1.853
 3341SOL     OW10921   0.654   0.285   6.619
 3341SOL    HW110922   0.719   0.269   6.694
 3341SOL    HW210923   0.681   0.367   6.569
 3342SOL     OW10924   1.863   6.737   5.538
 3342SOL    HW110925   1.925   6.811   5.563
 3342SOL    HW210926   1.796   6.725   5.611
 3343SOL     OW10927   0.325   2.315   0.835
 3343SOL    HW110928   0.317   2.399   0.783
 3343SOL    HW210929   0.403   2.320   0.897
 3344SOL     OW10930   1.533   2.290   6.415
 3344SOL    HW110931   1.608   2.230   6.442
 3344SOL    HW210932   1.492   2.331   6.497
 3345SOL     OW10933   2.865   3.287   6.621
 3345SOL    HW110934   2.896   3.194   6.635
 3345SOL    HW210935   2.846   3.302   6.524
 3346SOL     OW10936   2.257   5.742   2.791
 3346SOL    HW110937   2.343   5.723   2.837
 3346SOL    HW210938   2.262   5.711   2.696
 3347SOL     OW10939   6.023   4.315   4.037
 3347SOL    HW110940   6.110   4.301   3.991
 3347SOL    HW210941   5.952   4.263   3.989
 3348SOL     OW10942   3.769   3.769   3.433
 3348SOL    HW110943   3.728   3.755   3.343
 3348SOL    HW210944   3.707   3.735   3.504
 3349SOL     OW10945   4.992   2.400   0.661
 3349SOL    HW110946   5.001   2.317   0.717
 3349SOL    HW210947   4.900   2.402   0.620
 3350SOL     OW10948   2.636   3.032   1.533
 3350SOL    HW110949   2.634   3.114   1.476
 3350SOL    HW210950   2.565   3.037   1.603
 3351SOL     OW10951   5.853   2.854   0.790
 3351SOL    HW110952   5.932   2.881   0.735
 3351SOL    HW210953   5.784   2.926   0.786
 3352SOL     OW10954   0.031   3.672   0.557
 3352SOL    HW110955   0.015   3.657   0.655
 3352SOL    HW210956   6.985   3.735   0.521
 3353SOL     OW10957   1.335   6.516   6.359
 3353SOL    HW110958   1.329   6.520   6.459
 3353SOL    HW210959   1.337   6.609   6.322
 3354SOL     OW10960   0.750   6.483   1.851
 3354SOL    HW110961   0.781   6.425   1.775
 3354SOL    HW210962   0.804   6.566   1.854
 3355SOL     OW10963   5.528   0.962   2.626
 3355SOL    HW110964   5.468   0.883   2.615
 3355SOL    HW210965   5.489   1.024   2.694
 3356SOL     OW10966   1.446   3.851   7.010
 3356SOL    HW110967   1.532   3.857   6.959
 3356SOL    HW210968   1.373   3.893   6.957
 3357SOL     OW10969   2.788   5.640   2.411
 3357SOL    HW110970   2.743   5.578   2.346
 3357SOL    HW210971   2.839   5.585   2.478
 3358SOL     OW10972   0.099   3.864   3.219
 3358SOL    HW110973   0.035   3.801   3.173
 3358SOL    HW210974   0.165   3.899   3.153
 3359SOL     OW10975   2.234   1.613   1.693
 3359SOL    HW110976   2.193   1.695   1.734
 3359SOL    HW210977   2.248   1.629   1.595
 3360SOL     OW10978   2.754   1.057   6.276
 3360SOL    HW110979   2.778   0.960   6.268
 3360SOL    HW210980   2.838   1.112   6.275
 3361SOL     OW10981   2.375   0.915   2.796
 3361SOL    HW110982   2.290   0.964   2.776
 3361SOL    HW210983   2.384   0.905   2.895
 3362SOL     OW10984   2.820   2.034   4.450
 3362SOL    HW110985   2.722   2.023   4.466
 3362SOL    HW210986   2.835   2.093   4.371
 3363SOL     OW10987   6.214   0.758   0.225
 3363SOL    HW110988   6.284   0.760   0.296
 3363SOL    HW210989   6.253   0.787   0.138
 3364SOL     OW10990   1.437   5.276   5.290
 3364SOL    HW110991   1.389   5.360   5.263
 3364SOL    HW210992   1.466   5.227   5.208
 3365SOL     OW10993   6.540   1.932   5.076
 3365SOL    HW110994   6.618   1.991   5.095
 3365SOL    HW210995   6.512   1.942   4.981
 3366SOL     OW10996   5.137   0.801   0.170
 3366SOL    HW110997   5.157   0.736   0.243
 3366SOL    HW210998   5.117   0.890   0.210
 3367SOL     OW10999   2.030   0.214   2.007
 3367SOL    HW111000   1.959   0.252   1.947
 3367SOL    HW211001   2.062   0.127   1.970
 3368SOL     OW11002   6.095   1.531   4.664
 3368SOL    HW111003   6.096   1.611   4.604
 3368SOL    HW211004   6.001   1.514   4.694
 3369SOL     OW11005   3.960   5.425   6.559
 3369SOL    HW111006   3.981   5.487   6.484
 3369SOL    HW211007   3.888   5.361   6.531
 3370SOL     OW11008   6.189   0.648   5.715
 3370SOL    HW111009   6.235   0.661   5.803
 3370SOL    HW211010   6.170   0.738   5.674
 3371SOL     OW11011   6.595   4.821   1.408
 3371SOL    HW111012   6.592   4.915   1.441
 3371SOL    HW211013   6.527   4.809   1.336
 3372SOL     OW11014   1.203   2.804   3.121
 3372SOL    HW111015   1.301   2.784   3.122
 3372SOL    HW211016   1.161   2.760   3.042
 3373SOL     OW11017   1.068   2.509   6.207
 3373SOL    HW111018   1.017   2.592   6.228
 3373SOL    HW211019   1.166   2.529   6.210
 3374SOL     OW11020   3.601   6.139   4.982
 3374SOL    HW111021   3.512   6.104   5.010
 3374SOL    HW211022   3.658   6.064   4.949
 3375SOL     OW11023   3.155   3.785   4.849
 3375SOL    HW111024   3.059   3.769   4.870
 3375SOL    HW211025   3.174   3.883   4.855
 3376SOL     OW11026   3.447   2.909   1.440
 3376SOL    HW111027   3.528   2.968   1.449
 3376SOL    HW211028   3.372   2.948   1.493
 3377SOL     OW11029   2.845   5.475   6.158
 3377SOL    HW111030   2.764   5.460   6.216
 3377SOL    HW211031   2.875   5.569   6.167
 3378SOL     OW11032   6.714   1.086   0.877
 3378SOL    HW111033   6.732   1.093   0.975
 3378SOL    HW211034   6.690   1.176   0.842
 3379SOL     OW11035   5.837   5.096   5.545
 3379SOL    HW111036   5.848   5.121   5.641
 3379SOL    HW211037   5.888   5.160   5.487
 3380SOL     OW11038   0.765   3.876   5.329
 3380SOL    HW111039   0.837   3.824   5.375
 3380SOL    HW211040   0.686   3.816   5.312
 3381SOL     OW11041   3.158   2.279   1.089
 3381SOL    HW111042   3.247   2.233   1.085
 3381SOL    HW211043   3.099   2.245   1.016
 3382SOL     OW11044   6.983   6.819   0.423
 3382SOL    HW111045   7.016   6.726   0.406
 3382SOL    HW211046   7.007   6.877   0.345
 3383SOL     OW11047   0.540   4.334   1.457
 3383SOL    HW111048   0.632   4.310   1.427
 3383SOL    HW211049   0.537   4.334   1.557
 3384SOL     OW11050   3.297   3.710   3.010
 3384SOL    HW111051   3.244   3.644   3.064
 3384SOL    HW211052   3.347   3.771   3.073
 3385SOL     OW11053   6.682   3.931   3.843
 3385SOL    HW111054   6.726   3.964   3.927
 3385SOL    HW211055   6.752   3.912   3.774
 3386SOL     OW11056   5.774   4.652   4.226
 3386SOL    HW111057   5.722   4.737   4.225
 3386SOL    HW211058   5.832   4.650   4.308
 3387SOL     OW11059   3.477   1.588   2.239
 3387SOL    HW111060   3.527   1.519   2.187
 3387SOL    HW211061   3.479   1.565   2.336
 3388SOL     OW11062   5.730   1.771   1.175
 3388SOL    HW111063   5.795   1.802   1.244
 3388SOL    HW211064   5.775   1.706   1.114
 3389SOL     OW11065   4.032   5.648   2.647
 3389SOL    HW111066   3.951   5.706   2.648
 3389SOL    HW211067   4.005   5.552   2.636
 3390SOL     OW11068   4.552   1.693   5.554
 3390SOL    HW111069   4.469   1.744   5.533
 3390SOL    HW211070   4.570   1.626   5.482
 3391SOL     OW11071   2.830   2.027   3.854
 3391SOL    HW111072   2.896   2.096   3.824
 3391SOL    HW211073   2.740   2.050   3.817
 3392SOL     OW11074   5.371   5.799   3.944
 3392SOL    HW111075   5.371   5.834   3.850
 3392SOL    HW211076   5.280   5.767   3.968
 3393SOL     OW11077   6.923   6.762   6.336
 3393SOL    HW111078   6.856   6.731   6.403
 3393SOL    HW211079   7.015   6.750   6.372
 3394SOL     OW11080   5.046   1.686   1.892
 3394SOL    HW111081   5.066   1.591   1.870
 3394SOL    HW211082   5.068   1.744   1.813
 3395SOL     OW11083   1.884   4.146   5.039
 3395SOL    HW111084   1.929   4.234   5.020
 3395SOL    HW211085   1.947   4.088   5.091
 3396SOL     OW11086   6.290   3.693   4.249
 3396SOL    HW111087   6.314   3.664   4.342
 3396SOL    HW211088   6.364   3.750   4.212
 3397SOL     OW11089   3.117   5.693   6.346
 3397SOL    HW111090   3.169   5.698   6.260
 3397SOL    HW211091   3.067   5.779   6.359
 3398SOL     OW11092   0.390   1.519   3.540
 3398SOL    HW111093   0.336   1.435   3.548
 3398SOL    HW211094   0.467   1.503   3.479
 3399SOL     OW11095   4.200   5.717   4.514
 3399SOL    HW111096   4.188   5.633   4.566
 3399SOL    HW211097   4.141   5.715   4.433
 3400SOL     OW11098   5.044   2.066   0.459
 3400SOL    HW111099   4.973   2.078   0.528
 3400SOL    HW211100   5.133   2.086   0.498
 3401SOL     OW11101   6.614   4.779   6.713
 3401SOL    HW111102   6.654   4.690   6.694
 3401SOL    HW211103   6.515   4.773   6.705
 3402SOL     OW11104   3.995   4.788   1.993
 3402SOL    HW111105   3.910   4.791   2.046
 3402SOL    HW211106   3.984   4.725   1.916
 3403SOL     OW11107   4.135   1.841   6.255
 3403SOL    HW111108   4.103   1.768   6.195
 3403SOL    HW211109   4.057   1.896   6.286
 3404SOL     OW11110   4.945   5.757   1.968
 3404SOL    HW111111   4.904   5.842   2.000
 3404SOL    HW211112   4.884   5.681   1.990
 3405SOL     OW11113   6.154   4.113   6.989
 3405SOL    HW111114   6.145   4.160   0.054
 3405SOL    HW211115   6.144   4.015   7.002
 3406SOL     OW11116   1.299   3.118   1.588
 3406SOL    HW111117   1.303   3.165   1.676
 3406SOL    HW211118   1.306   3.019   1.603
 3407SOL     OW11119   0.970   5.647   2.656
 3407SOL    HW111120   0.915   5.623   2.735
 3407SOL    HW211121   0.996   5.744   2.662
 3408SOL     OW11122   5.454   3.589   2.299
 3408SOL    HW111123   5.467   3.635   2.386
 3408SOL    HW211124   5.428   3.494   2.315
 3409SOL     OW11125   2.716   1.139   6.705
 3409SOL    HW111126   2.716   1.074   6.629
 3409SOL    HW211127   2.757   1.225   6.676
 3410SOL     OW11128   0.324   1.858   0.139
 3410SOL    HW111129   0.243   1.810   0.104
 3410SOL    HW211130   0.383   1.884   0.063
 3411SOL     OW11131   4.866   2.016   2.471
 3411SOL    HW111132   4.917   1.978   2.549
 3411SOL    HW211133   4.880   1.958   2.391
 3412SOL     OW11134   4.123   5.337   6.885
 3412SOL    HW111135   4.102   5.243   6.914
 3412SOL    HW211136   4.196   5.335   6.817
 3413SOL     OW11137   5.201   1.242   2.790
 3413SOL    HW111138   5.114   1.194   2.799
 3413SOL    HW211139   5.193   1.313   2.721
 3414SOL     OW11140   3.631   0.426   5.507
 3414SOL    HW111141   3.618   0.508   5.564
 3414SOL    HW211142   3.604   0.447   5.413
 3415SOL     OW11143   1.814   6.122   5.642
 3415SOL    HW111144   1.887   6.149   5.705
 3415SOL    HW211145   1.771   6.204   5.603
 3416SOL     OW11146   1.672   4.669   5.856
 3416SOL    HW111147   1.655   4.659   5.954
 3416SOL    HW211148   1.768   4.694   5.841
 3417SOL     OW11149   5.150   0.756   1.255
 3417SOL    HW111150   5.154   0.702   1.171
 3417SOL    HW211151   5.234   0.810   1.264
 3418SOL     OW11152   2.965   2.134   5.766
 3418SOL    HW111153   3.060   2.141   5.738
 3418SOL    HW211154   2.961   2.116   5.865
 3419SOL     OW11155   4.674   3.597   6.096
 3419SOL    HW111156   4.587   3.640   6.072
 3419SOL    HW211157   4.677   3.504   6.059
 3420SOL     OW11158   3.080   0.721   5.105
 3420SOL    HW111159   3.006   0.683   5.159
 3420SOL    HW211160   3.074   0.821   5.106
 3421SOL     OW11161   0.591   6.852   3.012
 3421SOL    HW111162   0.635   6.818   2.929
 3421SOL    HW211163   0.522   6.787   3.043
 3422SOL     OW11164   3.281   1.922   2.715
 3422SOL    HW111165   3.243   1.844   2.665
 3422SOL    HW211166   3.300   1.895   2.809
 3423SOL     OW11167   3.439   1.089   1.655
 3423SOL    HW111168   3.484   1.001   1.674
 3423SOL    HW211169   3.505   1.163   1.666
 3424SOL     OW11170   4.622   2.018   1.239
 3424SOL    HW111171   4.615   1.960   1.157
 3424SOL    HW211172   4.576   1.973   1.315
 3425SOL     OW11173   4.252   3.898   1.680
 3425SOL    HW111174   4.318   3.972   1.669
 3425SOL    HW211175   4.250   3.869   1.776
 3426SOL     OW11176   4.840   3.847   0.920
 3426SOL    HW111177   4.795   3.828   1.007
 3426SOL    HW211178   4.786   3.913   0.868
 3427SOL     OW11179   0.842   1.593   0.605
 3427SOL    HW111180   0.875   1.505   0.638
 3427SOL    HW211181   0.742   1.597   0.612
 3428SOL     OW11182   4.526   4.575   3.362
 3428SOL    HW111183   4.503   4.563   3.266
 3428SOL    HW211184   4.444   4.603   3.413
 3429SOL     OW11185   0.425   2.664   0.959
 3429SOL    HW111186   0.485   2.675   1.038
 3429SOL    HW211187   0.330   2.654   0.989
 3430SOL     OW11188   0.914   5.478   6.583
 3430SOL    HW111189   0.953   5.513   6.498
 3430SOL    HW211190   0.851   5.403   6.563
 3431SOL     OW11191   1.862   5.778   6.268
 3431SOL    HW111192   1.789   5.842   6.290
 3431SOL    HW211193   1.837   5.727   6.186
 3432SOL     OW11194   4.082   2.027   5.992
 3432SOL    HW111195   4.102   1.967   6.069
 3432SOL    HW211196   3.983   2.026   5.973
 3433SOL     OW11197   4.097   1.224   4.501
 3433SOL    HW111198   4.149   1.165   4.563
 3433SOL    HW211199   4.049   1.294   4.553
 3434SOL     OW11200   4.253   1.644   3.426
 3434SOL    HW111201   4.244   1.639   3.327
 3434SOL    HW211202   4.261   1.552   3.464
 3435SOL     OW11203   1.134   1.073   6.802
 3435SOL    HW111204   1.105   1.074   6.898
 3435SOL    HW211205   1.158   1.166   6.774
 3436SOL     OW11206   4.190   6.339   1.920
 3436SOL    HW111207   4.169   6.259   1.976
 3436SOL    HW211208   4.113   6.358   1.859
 3437SOL     OW11209   3.875   0.147   0.235
 3437SOL    HW111210   3.947   0.121   0.170
 3437SOL    HW211211   3.802   0.195   0.186
 3438SOL     OW11212   0.731   5.280   6.537
 3438SOL    HW111213   0.739   5.180   6.532
 3438SOL    HW211214   0.724   5.317   6.444
 3439SOL     OW11215   2.420   0.395   3.988
 3439SOL    HW111216   2.405   0.487   4.023
 3439SOL    HW211217   2.515   0.368   4.004
 3440SOL     OW11218   3.625   2.081   0.316
 3440SOL    HW111219   3.651   2.044   0.227
 3440SOL    HW211220   3.590   2.174   0.305
 3441SOL     OW11221   4.618   0.597   4.062
 3441SOL    HW111222   4.711   0.633   4.070
 3441SOL    HW211223   4.576   0.593   4.152
 3442SOL     OW11224   1.019   5.275   2.970
 3442SOL    HW111225   0.923   5.296   2.989
 3442SOL    HW211226   1.045   5.192   3.019
 3443SOL     OW11227   5.535   6.693   4.099
 3443SOL    HW111228   5.479   6.773   4.120
 3443SOL    HW211229   5.616   6.692   4.156
 3444SOL     OW11230   4.018   5.467   0.214
 3444SOL    HW111231   3.929   5.422   0.207
 3444SOL    HW211232   4.020   5.546   0.153
 3445SOL     OW11233   6.058   5.125   5.273
 3445SOL    HW111234   5.976   5.115   5.216
 3445SOL    HW211235   6.133   5.162   5.219
 3446SOL     OW11236   2.143   6.427   1.753
 3446SOL    HW111237   2.173   6.370   1.829
 3446SOL    HW211238   2.182   6.519   1.763
 3447SOL     OW11239   6.000   4.505   5.419
 3447SOL    HW111240   5.920   4.564   5.433
 3447SOL    HW211241   6.083   4.555   5.443
 3448SOL     OW11242   4.029   3.192   0.448
 3448SOL    HW111243   4.023   3.290   0.426
 3448SOL    HW211244   4.002   3.179   0.544
 3449SOL     OW11245   6.509   6.401   3.138
 3449SOL    HW111246   6.467   6.324   3.089
 3449SOL    HW211247   6.562   6.456   3.073
 3450SOL     OW11248   0.663   2.141   1.175
 3450SOL    HW111249   0.698   2.233   1.191
 3450SOL    HW211250   0.567   2.136   1.205
 3451SOL     OW11251   1.929   4.926   4.467
 3451SOL    HW111252   1.876   4.924   4.383
 3451SOL    HW211253   1.868   4.913   4.545
 3452SOL     OW11254   6.707   2.135   0.607
 3452SOL    HW111255   6.651   2.206   0.650
 3452SOL    HW211256   6.790   2.175   0.570
 3453SOL     OW11257   5.897   5.429   5.295
 3453SOL    HW111258   5.874   5.414   5.199
 3453SOL    HW211259   5.817   5.410   5.352
 3454SOL     OW11260   0.334   1.111   0.816
 3454SOL    HW111261   0.270   1.180   0.782
 3454SOL    HW211262   0.383   1.148   0.895
 3455SOL     OW11263   1.283   2.937   3.489
 3455SOL    HW111264   1.361   2.886   3.455
 3455SOL    HW211265   1.252   3.002   3.419
 3456SOL     OW11266   5.939   0.415   0.442
 3456SOL    HW111267   5.867   0.356   0.407
 3456SOL    HW211268   5.907   0.510   0.443
 3457SOL     OW11269   1.706   6.580   3.417
 3457SOL    HW111270   1.731   6.541   3.506
 3457SOL    HW211271   1.785   6.626   3.378
 3458SOL     OW11272   4.860   5.247   0.179
 3458SOL    HW111273   4.808   5.283   0.257
 3458SOL    HW211274   4.797   5.225   0.104
 3459SOL     OW11275   6.206   0.297   3.275
 3459SOL    HW111276   6.130   0.362   3.267
 3459SOL    HW211277   6.258   0.317   3.358
 3460SOL     OW11278   4.460   2.915   0.560
 3460SOL    HW111279   4.515   2.888   0.639
 3460SOL    HW211280   4.365   2.931   0.590
 3461SOL     OW11281   2.603   5.950   3.353
 3461SOL    HW111282   2.643   5.870   3.398
 3461SOL    HW211283   2.642   6.033   3.392
 3462SOL     OW11284   4.920   2.432   2.656
 3462SOL    HW111285   4.878   2.523   2.655
 3462SOL    HW211286   5.013   2.438   2.692
 3463SOL     OW11287   1.047   3.178   0.864
 3463SOL    HW111288   1.011   3.255   0.918
 3463SOL    HW211289   1.064   3.100   0.924
 3464SOL     OW11290   5.511   1.467   6.073
 3464SOL    HW111291   5.467   1.389   6.027
 3464SOL    HW211292   5.570   1.433   6.146
 3465SOL     OW11293   2.057   4.210   1.619
 3465SOL    HW111294   2.044   4.235   1.523
 3465SOL    HW211295   1.998   4.267   1.676
 3466SOL     OW11296   6.503   3.948   4.451
 3466SOL    HW111297   6.467   3.874   4.507
 3466SOL    HW211298   6.496   3.923   4.354
 3467SOL     OW11299   3.796   3.384   0.368
 3467SOL    HW111300   3.776   3.392   0.465
 3467SOL    HW211301   3.763   3.296   0.334
 3468SOL     OW11302   4.166   1.264   1.827
 3468SOL    HW111303   4.173   1.252   1.728
 3468SOL    HW211304   4.080   1.309   1.849
 3469SOL     OW11305   3.873   5.618   5.110
 3469SOL    HW111306   3.806   5.691   5.125
 3469SOL    HW211307   3.906   5.621   5.016
 3470SOL     OW11308   1.052   2.672   1.028
 3470SOL    HW111309   1.127   2.638   0.971
 3470SOL    HW211310   1.057   2.628   1.118
 3471SOL     OW11311   5.268   3.158   4.750
 3471SOL    HW111312   5.233   3.065   4.762
 3471SOL    HW211313   5.276   3.178   4.652
 3472SOL     OW11314   4.786   1.661   2.381
 3472SOL    HW111315   4.741   1.582   2.340
 3472SOL    HW211316   4.732   1.694   2.458
 3473SOL     OW11317   5.975   4.519   2.092
 3473SOL    HW111318   5.972   4.619   2.086
 3473SOL    HW211319   6.021   4.492   2.176
 3474SOL     OW11320   4.844   3.920   3.621
 3474SOL    HW111321   4.761   3.916   3.565
 3474SOL    HW211322   4.844   3.844   3.687
 3475SOL     OW11323   6.925   4.077   4.346
 3475SOL    HW111324   6.852   4.053   4.409
 3475SOL    HW211325   7.012   4.078   4.395
 3476SOL     OW11326   2.024   2.607   3.486
 3476SOL    HW111327   1.943   2.629   3.540
 3476SOL    HW211328   2.086   2.685   3.484
 3477SOL     OW11329   0.930   4.133   1.889
 3477SOL    HW111330   1.027   4.153   1.903
 3477SOL    HW211331   0.877   4.170   1.965
 3478SOL     OW11332   2.859   0.476   1.620
 3478SOL    HW111333   2.823   0.432   1.538
 3478SOL    HW211334   2.806   0.559   1.639
 3479SOL     OW11335   1.080   4.597   5.516
 3479SOL    HW111336   1.098   4.513   5.465
 3479SOL    HW211337   1.000   4.585   5.575
 3480SOL     OW11338   1.226   4.863   6.610
 3480SOL    HW111339   1.129   4.855   6.587
 3480SOL    HW211340   1.236   4.910   6.697
 3481SOL     OW11341   6.134   1.092   4.699
 3481SOL    HW111342   6.166   1.113   4.607
 3481SOL    HW211343   6.149   0.995   4.718
 3482SOL     OW11344   6.231   2.623   6.804
 3482SOL    HW111345   6.262   2.633   6.709
 3482SOL    HW211346   6.163   2.694   6.825
 3483SOL     OW11347   5.157   2.527   4.940
 3483SOL    HW111348   5.069   2.562   4.974
 3483SOL    HW211349   5.159   2.428   4.951
 3484SOL     OW11350   1.228   2.974   4.631
 3484SOL    HW111351   1.215   2.887   4.678
 3484SOL    HW211352   1.264   3.041   4.696
 3485SOL     OW11353   6.884   3.751   0.123
 3485SOL    HW111354   6.878   3.716   0.030
 3485SOL    HW211355   6.890   3.675   0.187
 3486SOL     OW11356   1.808   6.788   5.071
 3486SOL    HW111357   1.783   6.707   5.124
 3486SOL    HW211358   1.831   6.761   4.977
 3487SOL     OW11359   4.538   1.880   6.717
 3487SOL    HW111360   4.564   1.784   6.710
 3487SOL    HW211361   4.438   1.888   6.709
 3488SOL     OW11362   5.092   6.654   5.248
 3488SOL    HW111363   5.021   6.720   5.223
 3488SOL    HW211364   5.054   6.562   5.247
 3489SOL     OW11365   3.388   6.273   0.717
 3489SOL    HW111366   3.301   6.268   0.668
 3489SOL    HW211367   3.372   6.254   0.814
 3490SOL     OW11368   3.905   6.782   0.791
 3490SOL    HW111369   3.813   6.775   0.753
 3490SOL    HW211370   3.965   6.827   0.725
 3491SOL     OW11371   4.839   4.504   5.796
 3491SOL    HW111372   4.815   4.431   5.861
 3491SOL    HW211373   4.804   4.591   5.831
 3492SOL     OW11374   5.556   3.650   3.564
 3492SOL    HW111375   5.536   3.731   3.510
 3492SOL    HW211376   5.475   3.624   3.618
 3493SOL     OW11377   6.897   3.497   5.769
 3493SOL    HW111378   6.829   3.493   5.696
 3493SOL    HW211379   6.984   3.460   5.736
 3494SOL     OW11380   4.243   1.335   2.186
 3494SOL    HW111381   4.150   1.343   2.153
 3494SOL    HW211382   4.257   1.398   2.263
 3495SOL     OW11383   1.924   3.676   3.934
 3495SOL    HW111384   1.864   3.691   4.013
 3495SOL    HW211385   1.890   3.731   3.857
 3496SOL     OW11386   6.273   5.178   1.255
 3496SOL    HW111387   6.324   5.256   1.220
 3496SOL    HW211388   6.226   5.204   1.340
 3497SOL     OW11389   3.321   0.402   1.556
 3497SOL    HW111390   3.285   0.310   1.542
 3497SOL    HW211391   3.420   0.398   1.570
 3498SOL     OW11392   2.645   2.692   1.211
 3498SOL    HW111393   2.740   2.719   1.193
 3498SOL    HW211394   2.590   2.773   1.230
 3499SOL     OW11395   5.541   6.534   4.796
 3499SOL    HW111396   5.556   6.436   4.810
 3499SOL    HW211397   5.584   6.586   4.870
 3500SOL     OW11398   2.953   2.271   3.778
 3500SOL    HW111399   3.052   2.260   3.790
 3500SOL    HW211400   2.934   2.301   3.685
 3501SOL     OW11401   1.704   6.823   6.161
 3501SOL    HW111402   1.688   6.764   6.240
 3501SOL    HW211403   1.617   6.842   6.115
 3502SOL     OW11404   5.316   2.294   1.992
 3502SOL    HW111405   5.311   2.282   1.893
 3502SOL    HW211406   5.277   2.214   2.037
 3503SOL     OW11407   0.796   5.974   6.350
 3503SOL    HW111408   0.769   5.904   6.284
 3503SOL    HW211409   0.895   5.984   6.350
 3504SOL     OW11410   2.131   0.820   0.091
 3504SOL    HW111411   2.178   0.899   0.051
 3504SOL    HW211412   2.087   0.847   0.176
 3505SOL     OW11413   5.070   2.907   5.279
 3505SOL    HW111414   5.064   2.845   5.357
 3505SOL    HW211415   4.985   2.902   5.226
 3506SOL     OW11416   4.257   4.812   5.017
 3506SOL    HW111417   4.223   4.825   5.110
 3506SOL    HW211418   4.297   4.720   5.009
 3507SOL     OW11419   3.193   1.767   1.310
 3507SOL    HW111420   3.253   1.713   1.251
 3507SOL    HW211421   3.164   1.850   1.262
 3508SOL     OW11422   3.989   1.632   6.120
 3508SOL    HW111423   3.900   1.592   6.139
 3508SOL    HW211424   4.044   1.568   6.065
 3509SOL     OW11425   4.411   5.631   6.552
 3509SOL    HW111426   4.335   5.679   6.596
 3509SOL    HW211427   4.496   5.683   6.565
 3510SOL     OW11428   2.374   1.585   1.418
 3510SOL    HW111429   2.438   1.578   1.342
 3510SOL    HW211430   2.425   1.589   1.504
 3511SOL     OW11431   2.565   4.672   1.960
 3511SOL    HW111432   2.522   4.623   1.885
 3511SOL    HW211433   2.664   4.660   1.956
 3512SOL     OW11434   6.817   5.249   6.293
 3512SOL    HW111435   6.741   5.307   6.324
 3512SOL    HW211436   6.904   5.293   6.317
 3513SOL     OW11437   5.411   1.764   0.105
 3513SOL    HW111438   5.401   1.735   0.009
 3513SOL    HW211439   5.337   1.724   0.159
 3514SOL     OW11440   3.103   1.830   2.015
 3514SOL    HW111441   3.110   1.929   2.020
 3514SOL    HW211442   3.194   1.790   2.027
 3515SOL     OW11443   0.563   4.252   4.244
 3515SOL    HW111444   0.655   4.224   4.270
 3515SOL    HW211445   0.509   4.171   4.221
 3516SOL     OW11446   4.712   0.862   1.330
 3516SOL    HW111447   4.804   0.841   1.364
 3516SOL    HW211448   4.680   0.947   1.371
 3517SOL     OW11449   4.806   0.690   2.066
 3517SOL    HW111450   4.706   0.688   2.060
 3517SOL    HW211451   4.833   0.725   2.156
 3518SOL     OW11452   6.028   1.330   5.253
 3518SOL    HW111453   6.126   1.323   5.235
 3518SOL    HW211454   5.977   1.304   5.171
 3519SOL     OW11455   3.396   1.514   1.433
 3519SOL    HW111456   3.473   1.572   1.404
 3519SOL    HW211457   3.424   1.418   1.429
 3520SOL     OW11458   2.505   5.912   4.191
 3520SOL    HW111459   2.471   5.973   4.263
 3520SOL    HW211460   2.537   5.827   4.233
 3521SOL     OW11461   2.581   2.602   6.292
 3521SOL    HW111462   2.661   2.649   6.255
 3521SOL    HW211463   2.521   2.573   6.217
 3522SOL     OW11464   1.283   6.158   6.495
 3522SOL    HW111465   1.321   6.137   6.404
 3522SOL    HW211466   1.358   6.178   6.558
 3523SOL     OW11467   3.667   5.572   0.230
 3523SOL    HW111468   3.595   5.514   0.268
 3523SOL    HW211469   3.674   5.556   0.132
 3524SOL     OW11470   4.529   1.004   3.790
 3524SOL    HW111471   4.462   0.930   3.782
 3524SOL    HW211472   4.498   1.071   3.857
 3525SOL     OW11473   6.992   2.944   3.642
 3525SOL    HW111474   0.056   2.899   3.663
 3525SOL    HW211475   6.942   2.890   3.575
 3526SOL     OW11476   0.374   6.726   1.570
 3526SOL    HW111477   0.413   6.808   1.529
 3526SOL    HW211478   0.431   6.647   1.549
 3527SOL     OW11479   6.521   3.056   0.207
 3527SOL    HW111480   6.566   2.967   0.209
 3527SOL    HW211481   6.430   3.047   0.165
 3528SOL     OW11482   2.416   4.702   4.920
 3528SOL    HW111483   2.391   4.747   5.005
 3528SOL    HW211484   2.515   4.690   4.917
 3529SOL     OW11485   4.395   4.237   0.464
 3529SOL    HW111486   4.493   4.232   0.450
 3529SOL    HW211487   4.371   4.191   0.549
 3530SOL     OW11488   6.420   0.181   0.811
 3530SOL    HW111489   6.491   0.135   0.758
 3530SOL    HW211490   6.332   0.134   0.798
 3531SOL     OW11491   4.538   2.182   0.509
 3531SOL    HW111492   4.453   2.132   0.490
 3531SOL    HW211493   4.595   2.183   0.427
 3532SOL     OW11494   2.324   0.675   1.360
 3532SOL    HW111495   2.393   0.744   1.381
 3532SOL    HW211496   2.240   0.720   1.330
 3533SOL     OW11497   1.916   2.768   3.021
 3533SOL    HW111498   1.975   2.849   3.023
 3533SOL    HW211499   1.842   2.778   3.087
 3534SOL     OW11500   0.657   1.256   0.685
 3534SOL    HW111501   0.648   1.200   0.603
 3534SOL    HW211502   0.586   1.231   0.750
 3535SOL     OW11503   3.791   6.808   3.393
 3535SOL    HW111504   3.746   6.805   3.304
 3535SOL    HW211505   3.847   6.890   3.400
 3536SOL     OW11506   4.152   1.982   3.779
 3536SOL    HW111507   4.122   2.064   3.730
 3536SOL    HW211508   4.074   1.921   3.791
 3537SOL     OW11509   1.764   6.644   2.908
 3537SOL    HW111510   1.806   6.712   2.848
 3537SOL    HW211511   1.684   6.605   2.864
 3538SOL     OW11512   3.227   5.585   1.826
 3538SOL    HW111513   3.281   5.532   1.761
 3538SOL    HW211514   3.137   5.604   1.786
 3539SOL     OW11515   3.384   3.757   4.310
 3539SOL    HW111516   3.428   3.846   4.295
 3539SOL    HW211517   3.368   3.745   4.408
 3540SOL     OW11518   1.502   2.319   3.153
 3540SOL    HW111519   1.513   2.220   3.158
 3540SOL    HW211520   1.524   2.359   3.242
 3541SOL     OW11521   3.800   4.097   4.346
 3541SOL    HW111522   3.707   4.099   4.308
 3541SOL    HW211523   3.795   4.112   4.445
 3542SOL     OW11524   6.878   5.617   1.245
 3542SOL    HW111525   6.862   5.633   1.342
 3542SOL    HW211526   6.960   5.665   1.216
 3543SOL     OW11527   5.168   2.350   4.522
 3543SOL    HW111528   5.213   2.289   4.587
 3543SOL    HW211529   5.142   2.435   4.567
 3544SOL     OW11530   2.896   6.902   6.787
 3544SOL    HW111531   2.855   6.950   6.864
 3544SOL    HW211532   2.829   6.895   6.713
 3545SOL     OW11533   3.374   5.539   0.818
 3545SOL    HW111534   3.361   5.496   0.908
 3545SOL    HW211535   3.372   5.469   0.747
 3546SOL     OW11536   1.054   4.548   2.692
 3546SOL    HW111537   1.003   4.603   2.626
 3546SOL    HW211538   1.002   4.465   2.714
 3547SOL     OW11539   4.913   4.555   4.540
 3547SOL    HW111540   4.907   4.519   4.447
 3547SOL    HW211541   5.008   4.578   4.561
 3548SOL     OW11542   5.198   3.060   5.642
 3548SOL    HW111543   5.188   3.144   5.695
 3548SOL    HW211544   5.148   2.986   5.687
 3549SOL     OW11545   4.852   3.200   2.455
 3549SOL    HW111546   4.870   3.144   2.374
 3549SOL    HW211547   4.799   3.147   2.521
 3550SOL     OW11548   5.143   1.729   3.673
 3550SOL    HW111549   5.112   1.787   3.598
 3550SOL    HW211550   5.182   1.645   3.636
 3551SOL     OW11551   1.899   0.099   2.458
 3551SOL    HW111552   1.874   0.045   2.538
 3551SOL    HW211553   1.916   0.194   2.486
 3552SOL     OW11554   6.552   4.261   3.202
 3552SOL    HW111555   6.568   4.183   3.263
 3552SOL    HW211556   6.471   4.244   3.146
 3553SOL     OW11557   5.920   1.585   3.339
 3553SOL    HW111558   5.878   1.618   3.254
 3553SOL    HW211559   5.950   1.490   3.327
 3554SOL     OW11560   4.077   5.610   6.892
 3554SOL    HW111561   3.997   5.643   6.943
 3554SOL    HW211562   4.082   5.511   6.900
 3555SOL     OW11563   0.988   2.192   3.999
 3555SOL    HW111564   1.035   2.251   3.934
 3555SOL    HW211565   0.948   2.114   3.951
 3556SOL     OW11566   4.352   1.520   5.926
 3556SOL    HW111567   4.388   1.517   6.019
 3556SOL    HW211568   4.428   1.525   5.861
 3557SOL     OW11569   1.117   0.437   3.818
 3557SOL    HW111570   1.077   0.516   3.866
 3557SOL    HW211571   1.045   0.373   3.793
 3558SOL     OW11572   0.545   6.730   1.267
 3558SOL    HW111573   0.593   6.812   1.236
 3558SOL    HW211574   0.448   6.751   1.280
 3559SOL     OW11575   0.689   0.436   6.038
 3559SOL    HW111576   0.785   0.448   6.063
 3559SOL    HW211577   0.677   0.459   5.942
 3560SOL     OW11578   6.696   6.954   1.789
 3560SOL    HW111579   6.721   6.882   1.725
 3560SOL    HW211580   6.770   7.022   1.794
 3561SOL     OW11581   5.380   4.660   3.672
 3561SOL    HW111582   5.388   4.707   3.584
 3561SOL    HW211583   5.470   4.655   3.716
 3562SOL     OW11584   4.168   2.128   2.487
 3562SOL    HW111585   4.123   2.105   2.574
 3562SOL    HW211586   4.105   2.110   2.411
 3563SOL     OW11587   4.307   6.282   1.564
 3563SOL    HW111588   4.383   6.329   1.609
 3563SOL    HW211589   4.278   6.205   1.620
 3564SOL     OW11590   6.093   4.462   2.325
 3564SOL    HW111591   6.085   4.371   2.366
 3564SOL    HW211592   6.076   4.532   2.394
 3565SOL     OW11593   0.853   0.692   5.387
 3565SOL    HW111594   0.952   0.700   5.382
 3565SOL    HW211595   0.826   0.597   5.372
 3566SOL     OW11596   0.875   4.357   6.168
 3566SOL    HW111597   0.815   4.332   6.244
 3566SOL    HW211598   0.945   4.420   6.200
 3567SOL     OW11599   0.013   2.452   0.917
 3567SOL    HW111600   6.992   2.522   0.973
 3567SOL    HW211601   6.968   2.385   0.888
 3568SOL     OW11602   4.873   4.166   3.738
 3568SOL    HW111603   4.789   4.215   3.758
 3568SOL    HW211604   4.854   4.090   3.676
 3569SOL     OW11605   4.075   3.517   3.749
 3569SOL    HW111606   4.025   3.603   3.741
 3569SOL    HW211607   4.073   3.470   3.661
 3570SOL     OW11608   0.163   2.312   5.604
 3570SOL    HW111609   0.169   2.240   5.673
 3570SOL    HW211610   0.244   2.370   5.610
 3571SOL     OW11611   2.786   6.856   4.537
 3571SOL    HW111612   2.856   6.905   4.588
 3571SOL    HW211613   2.697   6.869   4.581
 3572SOL     OW11614   5.090   4.345   2.500
 3572SOL    HW111615   5.160   4.283   2.536
 3572SOL    HW211616   5.102   4.436   2.541
 3573SOL     OW11617   0.275   4.627   3.916
 3573SOL    HW111618   0.242   4.691   3.985
 3573SOL    HW211619   0.359   4.583   3.948
 3574SOL     OW11620   2.005   1.982   6.029
 3574SOL    HW111621   1.917   1.943   6.003
 3574SOL    HW211622   2.066   1.981   5.949
 3575SOL     OW11623   5.163   0.747   6.663
 3575SOL    HW111624   5.229   0.747   6.588
 3575SOL    HW211625   5.127   0.655   6.676
 3576SOL     OW11626   0.760   2.729   0.654
 3576SOL    HW111627   0.799   2.722   0.562
 3576SOL    HW211628   0.821   2.781   0.713
 3577SOL     OW11629   2.020   3.903   4.552
 3577SOL    HW111630   2.040   3.995   4.587
 3577SOL    HW211631   2.025   3.903   4.452
 3578SOL     OW11632   4.492   2.407   0.678
 3578SOL    HW111633   4.504   2.332   0.613
 3578SOL    HW211634   4.451   2.486   0.632
 3579SOL     OW11635   0.808   3.369   2.114
 3579SOL    HW111636   0.809   3.438   2.041
 3579SOL    HW211637   0.837   3.281   2.076
 3580SOL     OW11638   6.834   4.348   2.197
 3580SOL    HW111639   6.803   4.443   2.193
 3580SOL    HW211640   6.913   4.342   2.259
 3581SOL     OW11641   1.876   0.319   2.650
 3581SOL    HW111642   1.783   0.352   2.638
 3581SOL    HW211643   1.934   0.393   2.684
 3582SOL     OW11644   4.934   6.429   6.630
 3582SOL    HW111645   4.999   6.358   6.602
 3582SOL    HW211646   4.954   6.459   6.723
 3583SOL     OW11647   1.641   6.118   0.497
 3583SOL    HW111648   1.544   6.103   0.478
 3583SOL    HW211649   1.671   6.055   0.569
 3584SOL     OW11650   5.575   4.692   4.730
 3584SOL    HW111651   5.631   4.772   4.708
 3584SOL    HW211652   5.480   4.721   4.745
 3585SOL     OW11653   4.275   2.371   3.852
 3585SOL    HW111654   4.326   2.448   3.815
 3585SOL    HW211655   4.218   2.330   3.781
 3586SOL     OW11656   6.525   2.528   5.133
 3586SOL    HW111657   6.577   2.600   5.179
 3586SOL    HW211658   6.472   2.568   5.058
 3587SOL     OW11659   2.096   0.559   6.308
 3587SOL    HW111660   2.091   0.461   6.330
 3587SOL    HW211661   2.188   0.594   6.331
 3588SOL     OW11662   6.109   3.742   4.039
 3588SOL    HW111663   6.056   3.657   4.029
 3588SOL    HW211664   6.174   3.731   4.114
 3589SOL     OW11665   0.336   0.703   6.230
 3589SOL    HW111666   0.291   0.684   6.318
 3589SOL    HW211667   0.390   0.623   6.203
 3590SOL     OW11668   6.211   5.126   5.770
 3590SOL    HW111669   6.142   5.060   5.800
 3590SOL    HW211670   6.180   5.171   5.687
 3591SOL     OW11671   4.745   1.806   0.692
 3591SOL    HW111672   4.652   1.792   0.660
 3591SOL    HW211673   4.773   1.900   0.673
 3592SOL     OW11674   0.832   6.235   1.223
 3592SOL    HW111675   0.833   6.224   1.323
 3592SOL    HW211676   0.920   6.269   1.192
 3593SOL     OW11677   4.213   3.276   5.898
 3593SOL    HW111678   4.220   3.195   5.956
 3593SOL    HW211679   4.126   3.274   5.849
 3594SOL     OW11680   4.642   4.308   5.113
 3594SOL    HW111681   4.639   4.242   5.187
 3594SOL    HW211682   4.564   4.370   5.121
 3595SOL     OW11683   4.816   0.118   5.947
 3595SOL    HW111684   4.744   0.055   5.918
 3595SOL    HW211685   4.831   0.108   6.046
 3596SOL     OW11686   3.316   1.564   1.770
 3596SOL    HW111687   3.371   1.568   1.686
 3596SOL    HW211688   3.219   1.569   1.747
 3597SOL     OW11689   4.115   4.564   5.315
 3597SOL    HW111690   4.183   4.522   5.255
 3597SOL    HW211691   4.040   4.501   5.330
 3598SOL     OW11692   6.610   5.531   4.607
 3598SOL    HW111693   6.591   5.498   4.514
 3598SOL    HW211694   6.629   5.629   4.603
 3599SOL     OW11695   2.347   1.189   5.340
 3599SOL    HW111696   2.358   1.102   5.291
 3599SOL    HW211697   2.299   1.172   5.426
 3600SOL     OW11698   2.125   4.126   0.992
 3600SOL    HW111699   2.201   4.097   0.935
 3600SOL    HW211700   2.068   4.047   1.015
 3601SOL     OW11701   3.210   0.160   5.100
 3601SOL    HW111702   3.291   0.101   5.101
 3601SOL    HW211703   3.197   0.201   5.190
 3602SOL     OW11704   1.625   2.065   0.740
 3602SOL    HW111705   1.535   2.084   0.779
 3602SOL    HW211706   1.692   2.056   0.813
 3603SOL     OW11707   1.345   6.753   6.202
 3603SOL    HW111708   1.323   6.716   6.112
 3603SOL    HW211709   1.370   6.849   6.194
 3604SOL     OW11710   0.048   0.954   4.338
 3604SOL    HW111711   0.041   0.887   4.265
 3604SOL    HW211712   0.056   0.907   4.426
 3605SOL     OW11713   1.426   0.248   4.427
 3605SOL    HW111714   1.354   0.250   4.496
 3605SOL    HW211715   1.493   0.178   4.450
 3606SOL     OW11716   1.973   0.181   3.124
 3606SOL    HW111717   2.066   0.147   3.115
 3606SOL    HW211718   1.912   0.104   3.145
 3607SOL     OW11719   5.829   1.830   4.380
 3607SOL    HW111720   5.886   1.830   4.297
 3607SOL    HW211721   5.814   1.924   4.410
 3608SOL     OW11722   4.135   1.669   5.353
 3608SOL    HW111723   4.088   1.735   5.412
 3608SOL    HW211724   4.225   1.706   5.328
 3609SOL     OW11725   2.892   6.747   4.903
 3609SOL    HW111726   2.958   6.760   4.829
 3609SOL    HW211727   2.891   6.650   4.930
 3610SOL     OW11728   1.209   0.299   5.949
 3610SOL    HW111729   1.248   0.354   6.022
 3610SOL    HW211730   1.220   0.202   5.971
 3611SOL     OW11731   5.366   3.471   2.705
 3611SOL    HW111732   5.326   3.525   2.779
 3611SOL    HW211733   5.429   3.527   2.651
 3612SOL     OW11734   4.877   1.554   0.775
 3612SOL    HW111735   4.829   1.633   0.737
 3612SOL    HW211736   4.976   1.569   0.769
 3613SOL     OW11737   4.019   0.723   2.802
 3613SOL    HW111738   3.926   0.709   2.834
 3613SOL    HW211739   4.072   0.639   2.814
 3614SOL     OW11740   3.424   5.773   0.442
 3614SOL    HW111741   3.486   5.768   0.364
 3614SOL    HW211742   3.366   5.853   0.433
 3615SOL     OW11743   5.550   2.356   4.889
 3615SOL    HW111744   5.616   2.304   4.944
 3615SOL    HW211745   5.466   2.370   4.941
 3616SOL     OW11746   1.676   1.228   1.132
 3616SOL    HW111747   1.743   1.171   1.180
 3616SOL    HW211748   1.723   1.288   1.067
 3617SOL     OW11749   4.160   5.174   4.567
 3617SOL    HW111750   4.212   5.242   4.514
 3617SOL    HW211751   4.178   5.187   4.664
 3618SOL     OW11752   0.971   5.410   4.438
 3618SOL    HW111753   0.873   5.393   4.441
 3618SOL    HW211754   0.993   5.490   4.495
 3619SOL     OW11755   0.149   2.040   2.248
 3619SOL    HW111756   0.173   1.944   2.231
 3619SOL    HW211757   0.193   2.098   2.180
 3620SOL     OW11758   4.762   6.391   5.638
 3620SOL    HW111759   4.783   6.461   5.570
 3620SOL    HW211760   4.667   6.400   5.667
 3621SOL     OW11761   3.136   3.016   3.250
 3621SOL    HW111762   3.128   3.056   3.341
 3621SOL    HW211763   3.232   3.003   3.227
 3622SOL     OW11764   2.512   5.840   6.257
 3622SOL    HW111765   2.500   5.747   6.221
 3622SOL    HW211766   2.460   5.904   6.201
 3623SOL     OW11767   2.029   6.153   5.810
 3623SOL    HW111768   2.049   6.055   5.800
 3623SOL    HW211769   1.971   6.167   5.890
 3624SOL     OW11770   2.609   1.993   2.902
 3624SOL    HW111771   2.591   1.934   2.824
 3624SOL    HW211772   2.697   1.968   2.943
 3625SOL     OW11773   6.062   1.846   1.278
 3625SOL    HW111774   6.157   1.839   1.306
 3625SOL    HW211775   6.057   1.882   1.185
 3626SOL     OW11776   0.491   3.084   5.756
 3626SOL    HW111777   0.545   3.081   5.672
 3626SOL    HW211778   0.544   3.128   5.828
 3627SOL     OW11779   3.229   1.388   2.651
 3627SOL    HW111780   3.232   1.382   2.751
 3627SOL    HW211781   3.136   1.371   2.619
 3628SOL     OW11782   0.397   1.124   1.699
 3628SOL    HW111783   0.485   1.166   1.721
 3628SOL    HW211784   0.364   1.161   1.612
 3629SOL     OW11785   1.824   0.594   4.644
 3629SOL    HW111786   1.812   0.618   4.548
 3629SOL    HW211787   1.777   0.661   4.701
 3630SOL     OW11788   6.809   1.839   2.605
 3630SOL    HW111789   6.799   1.751   2.558
 3630SOL    HW211790   6.728   1.856   2.661
 3631SOL     OW11791   1.946   5.401   2.620
 3631SOL    HW111792   2.002   5.414   2.538
 3631SOL    HW211793   1.857   5.364   2.593
 3632SOL     OW11794   5.066   3.156   2.722
 3632SOL    HW111795   5.161   3.130   2.740
 3632SOL    HW211796   5.065   3.235   2.661
 3633SOL     OW11797   4.697   5.050   5.925
 3633SOL    HW111798   4.750   4.970   5.953
 3633SOL    HW211799   4.637   5.079   6.000
 3634SOL     OW11800   2.865   5.190   6.188
 3634SOL    HW111801   2.955   5.153   6.168
 3634SOL    HW211802   2.873   5.288   6.205
 3635SOL     OW11803   1.878   6.808   2.723
 3635SOL    HW111804   1.862   6.905   2.739
 3635SOL    HW211805   1.974   6.793   2.701
 3636SOL     OW11806   6.945   6.295   4.232
 3636SOL    HW111807   6.993   6.315   4.146
 3636SOL    HW211808   6.997   6.226   4.284
 3637SOL     OW11809   5.311   2.329   6.842
 3637SOL    HW111810   5.312   2.422   6.879
 3637SOL    HW211811   5.229   2.281   6.874
 3638SOL     OW11812   0.758   2.538   3.756
 3638SOL    HW111813   0.771   2.627   3.799
 3638SOL    HW211814   0.699   2.481   3.813
 3639SOL     OW11815   3.586   3.320   4.068
 3639SOL    HW111816   3.568   3.397   4.130
 3639SOL    HW211817   3.499   3.281   4.038
 3640SOL     OW11818   4.646   1.766   2.625
 3640SOL    HW111819   4.633   1.673   2.657
 3640SOL    HW211820   4.560   1.800   2.586
 3641SOL     OW11821   0.399   3.317   1.497
 3641SOL    HW111822   0.327   3.387   1.498
 3641SOL    HW211823   0.488   3.361   1.495
 3642SOL     OW11824   4.314   4.473   6.463
 3642SOL    HW111825   4.244   4.528   6.509
 3642SOL    HW211826   4.274   4.387   6.433
 3643SOL     OW11827   4.276   5.440   4.728
 3643SOL    HW111828   4.256   5.363   4.789
 3643SOL    HW211829   4.359   5.487   4.759
 3644SOL     OW11830   3.624   1.655   1.310
 3644SOL    HW111831   3.604   1.642   1.213
 3644SOL    HW211832   3.647   1.750   1.327
 3645SOL     OW11833   1.590   3.567   3.833
 3645SOL    HW111834   1.635   3.613   3.909
 3645SOL    HW211835   1.499   3.536   3.861
 3646SOL     OW11836   2.593   4.886   5.184
 3646SOL    HW111837   2.499   4.912   5.164
 3646SOL    HW211838   2.596   4.790   5.211
 3647SOL     OW11839   3.522   0.495   0.598
 3647SOL    HW111840   3.619   0.472   0.590
 3647SOL    HW211841   3.474   0.422   0.647
 3648SOL     OW11842   5.722   5.322   3.661
 3648SOL    HW111843   5.730   5.228   3.693
 3648SOL    HW211844   5.709   5.324   3.562
 3649SOL     OW11845   5.465   3.055   6.851
 3649SOL    HW111846   5.504   3.039   6.760
 3649SOL    HW211847   5.465   3.153   6.870
 3650SOL     OW11848   5.303   6.353   0.050
 3650SOL    HW111849   5.264   6.370   0.141
 3650SOL    HW211850   5.382   6.412   0.037
 3651SOL     OW11851   1.052   1.681   5.781
 3651SOL    HW111852   0.963   1.700   5.822
 3651SOL    HW211853   1.080   1.587   5.801
 3652SOL     OW11854   5.990   2.213   2.527
 3652SOL    HW111855   5.980   2.304   2.485
 3652SOL    HW211856   5.914   2.155   2.500
 3653SOL     OW11857   1.920   1.474   0.649
 3653SOL    HW111858   2.016   1.465   0.623
 3653SOL    HW211859   1.900   1.569   0.671
 3654SOL     OW11860   3.944   6.163   0.580
 3654SOL    HW111861   3.903   6.096   0.643
 3654SOL    HW211862   4.039   6.137   0.562
 3655SOL     OW11863   0.971   0.133   3.892
 3655SOL    HW111864   0.997   0.052   3.944
 3655SOL    HW211865   0.874   0.152   3.904
 3656SOL     OW11866   0.444   0.857   0.807
 3656SOL    HW111867   0.534   0.901   0.806
 3656SOL    HW211868   0.374   0.924   0.829
 3657SOL     OW11869   6.411   4.864   6.351
 3657SOL    HW111870   6.387   4.923   6.273
 3657SOL    HW211871   6.390   4.912   6.436
 3658SOL     OW11872   1.983   4.776   5.965
 3658SOL    HW111873   1.918   4.837   6.010
 3658SOL    HW211874   2.075   4.794   5.999
 3659SOL     OW11875   1.058   2.363   0.057
 3659SOL    HW111876   0.973   2.336   0.011
 3659SOL    HW211877   1.052   2.340   0.154
 3660SOL     OW11878   4.572   4.877   4.358
 3660SOL    HW111879   4.528   4.796   4.398
 3660SOL    HW211880   4.518   4.910   4.281
 3661SOL     OW11881   1.155   0.707   5.394
 3661SOL    HW111882   1.188   0.792   5.436
 3661SOL    HW211883   1.232   0.660   5.350
 3662SOL     OW11884   3.736   2.648   5.641
 3662SOL    HW111885   3.819   2.653   5.697
 3662SOL    HW211886   3.757   2.677   5.547
 3663SOL     OW11887   1.584   2.905   5.935
 3663SOL    HW111888   1.521   2.871   6.005
 3663SOL    HW211889   1.667   2.940   5.978
 3664SOL     OW11890   2.100   2.320   0.795
 3664SOL    HW111891   2.019   2.377   0.811
 3664SOL    HW211892   2.159   2.324   0.876
 3665SOL     OW11893   0.023   6.270   5.087
 3665SOL    HW111894   0.096   6.276   5.155
 3665SOL    HW211895   6.964   6.230   5.129
 3666SOL     OW11896   2.125   3.975   4.834
 3666SOL    HW111897   2.186   3.966   4.756
 3666SOL    HW211898   2.175   4.015   4.911
 3667SOL     OW11899   2.386   6.487   1.208
 3667SOL    HW111900   2.417   6.474   1.114
 3667SOL    HW211901   2.291   6.455   1.217
 3668SOL     OW11902   4.464   0.888   0.878
 3668SOL    HW111903   4.381   0.833   0.881
 3668SOL    HW211904   4.540   0.836   0.916
 3669SOL     OW11905   6.720   1.078   2.059
 3669SOL    HW111906   6.806   1.126   2.077
 3669SOL    HW211907   6.689   1.033   2.143
 3670SOL     OW11908   2.089   6.628   2.301
 3670SOL    HW111909   2.014   6.687   2.270
 3670SOL    HW211910   2.093   6.546   2.245
 3671SOL     OW11911   0.633   0.309   5.758
 3671SOL    HW111912   0.724   0.321   5.719
 3671SOL    HW211913   0.577   0.256   5.695
 3672SOL     OW11914   2.911   0.506   3.280
 3672SOL    HW111915   3.006   0.490   3.307
 3672SOL    HW211916   2.868   0.568   3.345
 3673SOL     OW11917   3.627   1.755   1.652
 3673SOL    HW111918   3.543   1.764   1.599
 3673SOL    HW211919   3.656   1.845   1.684
 3674SOL     OW11920   6.570   5.673   6.130
 3674SOL    HW111921   6.529   5.590   6.093
 3674SOL    HW211922   6.516   5.753   6.102
 3675SOL     OW11923   5.916   0.716   5.337
 3675SOL    HW111924   5.896   0.687   5.431
 3675SOL    HW211925   5.938   0.635   5.282
 3676SOL     OW11926   2.064   0.805   6.201
 3676SOL    HW111927   2.092   0.721   6.247
 3676SOL    HW211928   2.083   0.797   6.103
 3677SOL     OW11929   1.568   0.469   5.017
 3677SOL    HW111930   1.556   0.389   5.076
 3677SOL    HW211931   1.480   0.512   5.001
 3678SOL     OW11932   2.729   1.066   3.380
 3678SOL    HW111933   2.827   1.056   3.366
 3678SOL    HW211934   2.694   0.987   3.432
 3679SOL     OW11935   3.158   1.319   2.006
 3679SOL    HW111936   3.090   1.381   1.967
 3679SOL    HW211937   3.152   1.231   1.961
 3680SOL     OW11938   4.422   1.623   4.120
 3680SOL    HW111939   4.368   1.593   4.198
 3680SOL    HW211940   4.365   1.624   4.038
 3681SOL     OW11941   1.035   5.267   3.325
 3681SOL    HW111942   1.097   5.331   3.279
 3681SOL    HW211943   1.084   5.183   3.347
 3682SOL     OW11944   5.059   1.413   1.823
 3682SOL    HW111945   5.094   1.321   1.844
 3682SOL    HW211946   4.967   1.405   1.784
 3683SOL     OW11947   6.354   2.247   0.984
 3683SOL    HW111948   6.332   2.239   0.887
 3683SOL    HW211949   6.400   2.335   1.001
 3684SOL     OW11950   2.659   5.868   5.978
 3684SOL    HW111951   2.671   5.932   6.053
 3684SOL    HW211952   2.563   5.840   5.973
 3685SOL     OW11953   1.530   6.572   2.807
 3685SOL    HW111954   1.503   6.491   2.755
 3685SOL    HW211955   1.448   6.620   2.839
 3686SOL     OW11956   1.160   5.167   0.691
 3686SOL    HW111957   1.100   5.194   0.766
 3686SOL    HW211958   1.106   5.125   0.618
 3687SOL     OW11959   0.200   4.651   4.350
 3687SOL    HW111960   0.231   4.717   4.282
 3687SOL    HW211961   0.196   4.560   4.309
 3688SOL     OW11962   0.396   2.867   1.479
 3688SOL    HW111963   0.448   2.882   1.563
 3688SOL    HW211964   0.449   2.809   1.417
 3689SOL     OW11965   2.640   2.329   5.504
 3689SOL    HW111966   2.635   2.379   5.417
 3689SOL    HW211967   2.731   2.342   5.544
 3690SOL     OW11968   6.966   5.342   2.293
 3690SOL    HW111969   0.037   5.345   2.327
 3690SOL    HW211970   6.946   5.428   2.246
 3691SOL     OW11971   2.364   1.717   6.860
 3691SOL    HW111972   2.407   1.800   6.897
 3691SOL    HW211973   2.276   1.741   6.818
 3692SOL     OW11974   1.059   2.785   5.902
 3692SOL    HW111975   1.108   2.702   5.877
 3692SOL    HW211976   1.038   2.838   5.820
 3693SOL     OW11977   0.287   1.633   3.000
 3693SOL    HW111978   0.312   1.729   3.012
 3693SOL    HW211979   0.194   1.627   2.966
 3694SOL     OW11980   0.033   6.461   1.816
 3694SOL    HW111981   0.059   6.504   1.903
 3694SOL    HW211982   6.974   6.506   1.780
 3695SOL     OW11983   5.964   3.459   4.961
 3695SOL    HW111984   5.883   3.463   4.902
 3695SOL    HW211985   5.985   3.550   4.996
 3696SOL     OW11986   4.269   0.149   4.131
 3696SOL    HW111987   4.341   0.101   4.181
 3696SOL    HW211988   4.200   0.084   4.100
 3697SOL     OW11989   6.858   4.924   2.777
 3697SOL    HW111990   6.889   4.830   2.768
 3697SOL    HW211991   6.935   4.986   2.761
 3698SOL     OW11992   1.339   0.578   3.756
 3698SOL    HW111993   1.265   0.513   3.771
 3698SOL    HW211994   1.389   0.592   3.842
 3699SOL     OW11995   3.214   1.861   3.252
 3699SOL    HW111996   3.252   1.882   3.162
 3699SOL    HW211997   3.169   1.943   3.289
 3700SOL     OW11998   0.854   5.184   4.846
 3700SOL    HW111999   0.784   5.255   4.850
 3700SOL    HW212000   0.854   5.143   4.755
 3701SOL     OW12001   6.456   0.621   2.478
 3701SOL    HW112002   6.422   0.622   2.572
 3701SOL    HW212003   6.478   0.527   2.452
 3702SOL     OW12004   6.618   4.798   3.395
 3702SOL    HW112005   6.675   4.879   3.405
 3702SOL    HW212006   6.671   4.716   3.419
 3703SOL     OW12007   0.822   2.212   3.360
 3703SOL    HW112008   0.852   2.235   3.268
 3703SOL    HW212009   0.893   2.158   3.406
 3704SOL     OW12010   6.627   6.679   1.004
 3704SOL    HW112011   6.535   6.700   0.970
 3704SOL    HW212012   6.622   6.603   1.068
 3705SOL     OW12013   6.523   4.182   3.746
 3705SOL    HW112014   6.436   4.184   3.696
 3705SOL    HW212015   6.545   4.087   3.770
 3706SOL     OW12016   0.416   5.916   6.899
 3706SOL    HW112017   0.436   5.898   6.995
 3706SOL    HW212018   0.501   5.938   6.851
 3707SOL     OW12019   6.608   4.019   3.357
 3707SOL    HW112020   6.685   4.000   3.418
 3707SOL    HW212021   6.621   3.970   3.271
 3708SOL     OW12022   0.839   5.731   7.002
 3708SOL    HW112023   0.842   5.830   7.015
 3708SOL    HW212024   0.906   5.688   0.040
 3709SOL     OW12025   0.478   1.738   1.225
 3709SOL    HW112026   0.387   1.715   1.189
 3709SOL    HW212027   0.532   1.781   1.154
 3710SOL     OW12028   2.089   3.575   5.080
 3710SOL    HW112029   2.058   3.645   5.015
 3710SOL    HW212030   2.165   3.611   5.134
 3711SOL     OW12031   1.390   4.760   5.923
 3711SOL    HW112032   1.440   4.844   5.900
 3711SOL    HW212033   1.449   4.681   5.906
 3712SOL     OW12034   3.368   4.929   3.631
 3712SOL    HW112035   3.278   4.925   3.673
 3712SOL    HW212036   3.361   4.900   3.535
 3713SOL     OW12037   6.589   0.465   6.468
 3713SOL    HW112038   6.642   0.414   6.400
 3713SOL    HW212039   6.525   0.526   6.420
 3714SOL     OW12040   0.493   5.598   0.285
 3714SOL    HW112041   0.563   5.592   0.356
 3714SOL    HW212042   0.442   5.512   0.281
 3715SOL     OW12043   5.508   4.047   2.096
 3715SOL    HW112044   5.600   4.075   2.121
 3715SOL    HW212045   5.466   4.118   2.038
 3716SOL     OW12046   5.205   4.977   5.492
 3716SOL    HW112047   5.161   4.913   5.556
 3716SOL    HW212048   5.213   5.067   5.535
 3717SOL     OW12049   4.645   7.012   1.287
 3717SOL    HW112050   4.614   6.934   1.232
 3717SOL    HW212051   4.719   6.982   1.347
 3718SOL     OW12052   5.362   6.203   6.825
 3718SOL    HW112053   5.274   6.251   6.824
 3718SOL    HW212054   5.432   6.262   6.786
 3719SOL     OW12055   2.941   4.043   0.426
 3719SOL    HW112056   3.017   3.984   0.451
 3719SOL    HW212057   2.973   4.117   0.367
 3720SOL     OW12058   1.036   2.284   0.320
 3720SOL    HW112059   1.131   2.255   0.321
 3720SOL    HW212060   0.991   2.255   0.405
 3721SOL     OW12061   6.720   0.464   5.911
 3721SOL    HW112062   6.693   0.371   5.937
 3721SOL    HW212063   6.708   0.525   5.989
 3722SOL     OW12064   5.365   6.685   1.679
 3722SOL    HW112065   5.313   6.751   1.626
 3722SOL    HW212066   5.355   6.704   1.777
 3723SOL     OW12067   4.247   4.239   6.383
 3723SOL    HW112068   4.264   4.155   6.435
 3723SOL    HW212069   4.250   4.219   6.285
 3724SOL     OW12070   5.866   3.860   5.208
 3724SOL    HW112071   5.917   3.941   5.179
 3724SOL    HW212072   5.897   3.781   5.156
 3725SOL     OW12073   6.968   6.335   1.050
 3725SOL    HW112074   6.963   6.262   0.983
 3725SOL    HW212075   0.003   6.408   1.015
 3726SOL     OW12076   5.990   3.582   5.417
 3726SOL    HW112077   6.017   3.538   5.503
 3726SOL    HW212078   5.922   3.526   5.371
 3727SOL     OW12079   6.248   1.749   4.054
 3727SOL    HW112080   6.295   1.805   4.122
 3727SOL    HW212081   6.152   1.740   4.079
 3728SOL     OW12082   1.995   4.568   0.447
 3728SOL    HW112083   2.071   4.631   0.460
 3728SOL    HW212084   1.949   4.551   0.534
 3729SOL     OW12085   0.166   6.977   6.104
 3729SOL    HW112086   0.082   6.943   6.147
 3729SOL    HW212087   0.213   0.016   6.167
 3730SOL     OW12088   5.897   4.567   4.804
 3730SOL    HW112089   5.905   4.660   4.767
 3730SOL    HW212090   5.961   4.507   4.756
 3731SOL     OW12091   6.536   1.423   1.833
 3731SOL    HW112092   6.617   1.420   1.773
 3731SOL    HW212093   6.454   1.407   1.778
 3732SOL     OW12094   4.419   2.573   6.764
 3732SOL    HW112095   4.376   2.586   6.853
 3732SOL    HW212096   4.485   2.646   6.748
 3733SOL     OW12097   1.931   1.178   2.856
 3733SOL    HW112098   1.951   1.269   2.820
 3733SOL    HW212099   1.833   1.160   2.851
 3734SOL     OW12100   4.354   1.151   1.974
 3734SOL    HW112101   4.322   1.188   2.061
 3734SOL    HW212102   4.288   1.172   1.902
 3735SOL     OW12103   3.687   0.915   2.418
 3735SOL    HW112104   3.777   0.910   2.462
 3735SOL    HW212105   3.616   0.900   2.486
 3736SOL     OW12106   0.899   0.933   6.725
 3736SOL    HW112107   0.894   0.842   6.685
 3736SOL    HW212108   0.994   0.964   6.726
 3737SOL     OW12109   4.960   2.042   4.655
 3737SOL    HW112110   5.018   1.972   4.614
 3737SOL    HW212111   4.894   2.074   4.587
 3738SOL     OW12112   0.985   1.003   0.347
 3738SOL    HW112113   1.027   1.059   0.276
 3738SOL    HW212114   1.023   0.910   0.343
 3739SOL     OW12115   3.336   4.813   6.517
 3739SOL    HW112116   3.334   4.721   6.554
 3739SOL    HW212117   3.248   4.835   6.475
 3740SOL     OW12118   6.708   6.846   6.947
 3740SOL    HW112119   6.779   6.803   7.002
 3740SOL    HW212120   6.664   6.919   7.000
 3741SOL     OW12121   6.010   4.844   6.810
 3741SOL    HW112122   5.955   4.900   6.748
 3741SOL    HW212123   5.972   4.848   6.902
 3742SOL     OW12124   4.880   5.113   1.363
 3742SOL    HW112125   4.933   5.083   1.284
 3742SOL    HW212126   4.783   5.094   1.348
 3743SOL     OW12127   2.334   4.098   1.276
 3743SOL    HW112128   2.324   4.017   1.334
 3743SOL    HW212129   2.247   4.120   1.232
 3744SOL     OW12130   6.199   5.893   2.155
 3744SOL    HW112131   6.280   5.916   2.209
 3744SOL    HW212132   6.148   5.820   2.201
 3745SOL     OW12133   6.313   0.836   2.848
 3745SOL    HW112134   6.359   0.887   2.775
 3745SOL    HW212135   6.270   0.900   2.911
 3746SOL     OW12136   5.455   0.226   5.768
 3746SOL    HW112137   5.411   0.160   5.708
 3746SOL    HW212138   5.479   0.308   5.715
 3747SOL     OW12139   1.858   4.799   5.478
 3747SOL    HW112140   1.790   4.805   5.404
 3747SOL    HW212141   1.950   4.799   5.438
 3748SOL     OW12142   5.104   1.848   3.411
 3748SOL    HW112143   5.199   1.876   3.403
 3748SOL    HW212144   5.054   1.877   3.330
 3749SOL     OW12145   5.772   5.367   0.964
 3749SOL    HW112146   5.713   5.377   1.044
 3749SOL    HW212147   5.798   5.458   0.930
 3750SOL     OW12148   0.205   4.739   1.318
 3750SOL    HW112149   0.301   4.748   1.342
 3750SOL    HW212150   0.169   4.829   1.293
 3751SOL     OW12151   1.863   5.282   0.782
 3751SOL    HW112152   1.779   5.245   0.743
 3751SOL    HW212153   1.848   5.377   0.809
 3752SOL     OW12154   1.472   0.224   6.064
 3752SOL    HW112155   1.521   0.264   5.986
 3752SOL    HW212156   1.408   0.292   6.101
 3753SOL     OW12157   0.749   1.437   5.979
 3753SOL    HW112158   0.672   1.387   5.941
 3753SOL    HW212159   0.735   1.451   6.077
 3754SOL     OW12160   6.629   6.498   1.195
 3754SOL    HW112161   6.569   6.419   1.202
 3754SOL    HW212162   6.669   6.517   1.285
 3755SOL     OW12163   4.593   2.630   3.153
 3755SOL    HW112164   4.667   2.596   3.095
 3755SOL    HW212165   4.602   2.729   3.163
 3756SOL     OW12166   3.258   0.071   0.325
 3756SOL    HW112167   3.201   0.153   0.338
 3756SOL    HW212168   3.312   0.082   0.242
 3757SOL     OW12169   2.887   4.007   5.306
 3757SOL    HW112170   2.894   4.005   5.206
 3757SOL    HW212171   2.795   3.980   5.333
 3758SOL     OW12172   0.602   0.499   1.833
 3758SOL    HW112173   0.568   0.438   1.905
 3758SOL    HW212174   0.643   0.580   1.875
 3759SOL     OW12175   5.781   4.295   0.513
 3759SOL    HW112176   5.701   4.295   0.453
 3759SOL    HW212177   5.832   4.380   0.499
 3760SOL     OW12178   1.858   1.443   5.766
 3760SOL    HW112179   1.911   1.446   5.681
 3760SOL    HW212180   1.771   1.489   5.752
 3761SOL     OW12181   0.284   6.423   4.464
 3761SOL    HW112182   0.260   6.326   4.465
 3761SOL    HW212183   0.261   6.464   4.553
 3762SOL     OW12184   0.219   3.517   1.501
 3762SOL    HW112185   0.170   3.561   1.577
 3762SOL    HW212186   0.155   3.500   1.426
 3763SOL     OW12187   0.464   2.405   4.967
 3763SOL    HW112188   0.520   2.488   4.967
 3763SOL    HW212189   0.422   2.394   5.057
 3764SOL     OW12190   2.328   0.388   2.881
 3764SOL    HW112191   2.385   0.441   2.944
 3764SOL    HW212192   2.370   0.299   2.865
 3765SOL     OW12193   6.216   1.291   3.776
 3765SOL    HW112194   6.116   1.280   3.775
 3765SOL    HW212195   6.239   1.387   3.762
 3766SOL     OW12196   2.081   1.303   4.453
 3766SOL    HW112197   2.180   1.299   4.471
 3766SOL    HW212198   2.059   1.386   4.403
 3767SOL     OW12199   6.687   4.558   1.659
 3767SOL    HW112200   6.783   4.586   1.662
 3767SOL    HW212201   6.638   4.616   1.593
 3768SOL     OW12202   5.023   6.794   1.353
 3768SOL    HW112203   4.954   6.729   1.386
 3768SOL    HW212204   5.106   6.785   1.408
 3769SOL     OW12205   4.186   6.815   4.626
 3769SOL    HW112206   4.250   6.839   4.699
 3769SOL    HW212207   4.237   6.798   4.542
 3770SOL     OW12208   1.674   2.939   0.356
 3770SOL    HW112209   1.653   3.001   0.432
 3770SOL    HW212210   1.632   2.974   0.272
 3771SOL     OW12211   4.807   1.304   5.138
 3771SOL    HW112212   4.722   1.356   5.141
 3771SOL    HW212213   4.814   1.246   5.220
 3772SOL     OW12214   4.984   0.293   3.162
 3772SOL    HW112215   5.007   0.298   3.065
 3772SOL    HW212216   4.934   0.375   3.189
 3773SOL     OW12217   5.949   2.339   0.975
 3773SOL    HW112218   5.928   2.433   0.947
 3773SOL    HW212219   5.949   2.280   0.894
 3774SOL     OW12220   2.053   1.378   1.692
 3774SOL    HW112221   2.113   1.440   1.742
 3774SOL    HW212222   2.082   1.283   1.709
 3775SOL     OW12223   5.621   2.567   3.673
 3775SOL    HW112224   5.555   2.619   3.620
 3775SOL    HW212225   5.605   2.583   3.771
 3776SOL     OW12226   3.069   2.155   6.772
 3776SOL    HW112227   3.095   2.213   6.849
 3776SOL    HW212228   3.077   2.208   6.687
 3777SOL     OW12229   1.636   4.149   3.262
 3777SOL    HW112230   1.657   4.123   3.356
 3777SOL    HW212231   1.697   4.100   3.199
 3778SOL     OW12232   2.123   0.454   1.728
 3778SOL    HW112233   2.143   0.531   1.789
 3778SOL    HW212234   2.197   0.445   1.661
 3779SOL     OW12235   1.730   4.234   0.490
 3779SOL    HW112236   1.819   4.234   0.535
 3779SOL    HW212237   1.743   4.245   0.391
 3780SOL     OW12238   2.076   0.379   4.087
 3780SOL    HW112239   2.147   0.435   4.044
 3780SOL    HW212240   1.997   0.436   4.107
 3781SOL     OW12241   2.966   4.961   4.493
 3781SOL    HW112242   2.922   4.886   4.542
 3781SOL    HW212243   3.054   4.981   4.534
 3782SOL     OW12244   2.807   1.093   2.295
 3782SOL    HW112245   2.890   1.146   2.281
 3782SOL    HW212246   2.781   1.097   2.392
 3783SOL     OW12247   5.152   4.370   5.169
 3783SOL    HW112248   5.114   4.297   5.227
 3783SOL    HW212249   5.251   4.358   5.162
 3784SOL     OW12250   4.807   3.084   4.838
 3784SOL    HW112251   4.734   3.143   4.873
 3784SOL    HW212252   4.768   3.020   4.772
 3785SOL     OW12253   6.944   0.085   1.905
 3785SOL    HW112254   7.002   0.089   1.986
 3785SOL    HW212255   6.998   0.051   1.828
 3786SOL     OW12256   2.783   6.326   1.375
 3786SOL    HW112257   2.805   6.231   1.352
 3786SOL    HW212258   2.868   6.378   1.387
 3787SOL     OW12259   4.213   1.253   3.189
 3787SOL    HW112260   4.130   1.303   3.213
 3787SOL    HW212261   4.287   1.280   3.252
 3788SOL     OW12262   0.223   3.106   2.781
 3788SOL    HW112263   0.258   3.028   2.729
 3788SOL    HW212264   0.259   3.191   2.743
 3789SOL     OW12265   1.983   5.376   2.135
 3789SOL    HW112266   2.056   5.391   2.068
 3789SOL    HW212267   1.927   5.459   2.143
 3790SOL     OW12268   2.037   3.454   2.889
 3790SOL    HW112269   1.950   3.495   2.917
 3790SOL    HW212270   2.081   3.513   2.822
 3791SOL     OW12271   6.725   0.492   2.741
 3791SOL    HW112272   6.646   0.552   2.751
 3791SOL    HW212273   6.719   0.442   2.654
 3792SOL     OW12274   1.673   5.285   6.066
 3792SOL    HW112275   1.727   5.227   6.005
 3792SOL    HW212276   1.635   5.361   6.014
 3793SOL     OW12277   6.654   6.298   2.604
 3793SOL    HW112278   6.599   6.381   2.599
 3793SOL    HW212279   6.729   6.303   2.538
 3794SOL     OW12280   4.510   0.293   4.816
 3794SOL    HW112281   4.543   0.318   4.907
 3794SOL    HW212282   4.582   0.243   4.767
 3795SOL     OW12283   5.671   0.410   0.905
 3795SOL    HW112284   5.670   0.428   0.806
 3795SOL    HW212285   5.642   0.316   0.921
 3796SOL     OW12286   0.026   2.599   1.351
 3796SOL    HW112287   7.019   2.694   1.358
 3796SOL    HW212288   0.103   2.583   1.413
 3797SOL     OW12289   6.450   5.951   2.230
 3797SOL    HW112290   6.463   6.033   2.175
 3797SOL    HW212291   6.539   5.909   2.249
 3798SOL     OW12292   1.368   4.312   0.141
 3798SOL    HW112293   1.349   4.229   0.192
 3798SOL    HW212294   1.433   4.293   0.068
 3799SOL     OW12295   0.711   0.467   5.281
 3799SOL    HW112296   0.786   0.405   5.306
 3799SOL    HW212297   0.627   0.434   5.322
 3800SOL     OW12298   4.595   2.488   4.765
 3800SOL    HW112299   4.548   2.499   4.853
 3800SOL    HW212300   4.664   2.560   4.756
 3801SOL     OW12301   6.983   0.608   5.874
 3801SOL    HW112302   6.896   0.560   5.886
 3801SOL    HW212303   0.033   0.542   5.859
 3802SOL     OW12304   1.955   2.308   4.916
 3802SOL    HW112305   2.043   2.308   4.869
 3802SOL    HW212306   1.968   2.330   5.012
 3803SOL     OW12307   4.631   1.104   1.416
 3803SOL    HW112308   4.560   1.120   1.347
 3803SOL    HW212309   4.689   1.185   1.423
 3804SOL     OW12310   5.177   3.934   4.592
 3804SOL    HW112311   5.159   3.994   4.514
 3804SOL    HW212312   5.095   3.927   4.649
 3805SOL     OW12313   1.936   3.668   1.389
 3805SOL    HW112314   1.917   3.571   1.380
 3805SOL    HW212315   2.035   3.682   1.388
 3806SOL     OW12316   3.786   0.629   0.454
 3806SOL    HW112317   3.752   0.701   0.394
 3806SOL    HW212318   3.864   0.583   0.410
 3807SOL     OW12319   1.893   6.464   2.521
 3807SOL    HW112320   1.897   6.370   2.486
 3807SOL    HW212321   1.932   6.526   2.453
 3808SOL     OW12322   4.047   1.165   0.728
 3808SOL    HW112323   4.141   1.151   0.759
 3808SOL    HW212324   4.015   1.082   0.681
 3809SOL     OW12325   4.089   1.326   0.297
 3809SOL    HW112326   4.027   1.248   0.311
 3809SOL    HW212327   4.170   1.295   0.247
 3810SOL     OW12328   1.785   3.478   0.012
 3810SOL    HW112329   1.823   3.497   0.102
 3810SOL    HW212330   1.689   3.454   0.020
 3811SOL     OW12331   0.020   0.927   5.448
 3811SOL    HW112332   7.005   1.001   5.505
 3811SOL    HW212333   0.109   0.956   5.412
 3812SOL     OW12334   4.704   0.490   5.809
 3812SOL    HW112335   4.667   0.575   5.847
 3812SOL    HW212336   4.633   0.444   5.755
 3813SOL     OW12337   3.932   4.984   1.772
 3813SOL    HW112338   4.003   4.937   1.824
 3813SOL    HW212339   3.852   4.924   1.763
 3814SOL     OW12340   2.232   0.130   1.747
 3814SOL    HW112341   2.298   0.136   1.673
 3814SOL    HW212342   2.188   0.219   1.760
 3815SOL     OW12343   5.204   2.149   2.188
 3815SOL    HW112344   5.141   2.083   2.229
 3815SOL    HW212345   5.178   2.242   2.214
 3816SOL     OW12346   0.221   6.025   0.280
 3816SOL    HW112347   0.128   5.988   0.290
 3816SOL    HW212348   0.261   6.038   0.371
 3817SOL     OW12349   5.463   1.942   5.301
 3817SOL    HW112350   5.451   2.036   5.271
 3817SOL    HW212351   5.559   1.917   5.298
 3818SOL     OW12352   3.595   6.834   3.157
 3818SOL    HW112353   3.516   6.884   3.121
 3818SOL    HW212354   3.563   6.750   3.203
 3819SOL     OW12355   5.700   3.539   6.254
 3819SOL    HW112356   5.771   3.549   6.325
 3819SOL    HW212357   5.611   3.528   6.298
 3820SOL     OW12358   4.059   6.126   3.310
 3820SOL    HW112359   4.032   6.173   3.393
 3820SOL    HW212360   4.091   6.034   3.332
 3821SOL     OW12361   0.793   4.471   1.567
 3821SOL    HW112362   0.871   4.451   1.507
 3821SOL    HW212363   0.774   4.392   1.624
 3822SOL     OW12364   0.828   3.902   1.549
 3822SOL    HW112365   0.843   3.837   1.474
 3822SOL    HW212366   0.897   3.887   1.620
 3823SOL     OW12367   2.341   3.548   5.468
 3823SOL    HW112368   2.370   3.459   5.433
 3823SOL    HW212369   2.334   3.614   5.393
 3824SOL     OW12370   0.429   2.647   6.167
 3824SOL    HW112371   0.351   2.708   6.149
 3824SOL    HW212372   0.502   2.668   6.102
 3825SOL     OW12373   0.376   6.177   6.494
 3825SOL    HW112374   0.281   6.148   6.487
 3825SOL    HW212375   0.381   6.277   6.499
 3826SOL     OW12376   0.103   1.471   1.571
 3826SOL    HW112377   0.096   1.386   1.520
 3826SOL    HW212378   0.087   1.453   1.668
 3827SOL     OW12379   4.517   1.719   2.280
 3827SOL    HW112380   4.439   1.764   2.236
 3827SOL    HW212381   4.562   1.784   2.341
 3828SOL     OW12382   3.496   1.234   1.370
 3828SOL    HW112383   3.408   1.216   1.415
 3828SOL    HW212384   3.569   1.192   1.423
 3829SOL     OW12385   1.181   5.253   3.614
 3829SOL    HW112386   1.164   5.181   3.546
 3829SOL    HW212387   1.112   5.325   3.603
 3830SOL     OW12388   1.793   0.080   5.452
 3830SOL    HW112389   1.728   0.004   5.450
 3830SOL    HW212390   1.748   0.163   5.418
 3831SOL     OW12391   4.586   1.961   2.404
 3831SOL    HW112392   4.607   1.973   2.307
 3831SOL    HW212393   4.647   2.018   2.459
 3832SOL     OW12394   6.114   0.011   2.462
 3832SOL    HW112395   6.207   7.016   2.428
 3832SOL    HW212396   6.064   0.066   2.395
 3833SOL     OW12397   1.466   6.254   2.262
 3833SOL    HW112398   1.447   6.183   2.193
 3833SOL    HW212399   1.409   6.334   2.244
 3834SOL     OW12400   3.116   2.597   0.415
 3834SOL    HW112401   3.114   2.613   0.514
 3834SOL    HW212402   3.188   2.531   0.394
 3835SOL     OW12403   3.161   4.902   3.217
 3835SOL    HW112404   3.173   4.932   3.122
 3835SOL    HW212405   3.077   4.848   3.224
 3836SOL     OW12406   1.538   2.781   6.240
 3836SOL    HW112407   1.617   2.734   6.200
 3836SOL    HW212408   1.563   2.819   6.329
 3837SOL     OW12409   3.588   4.551   6.347
 3837SOL    HW112410   3.588   4.492   6.428
 3837SOL    HW212411   3.680   4.588   6.333
 3838SOL     OW12412   0.083   3.274   5.033
 3838SOL    HW112413   0.135   3.344   5.082
 3838SOL    HW212414   0.133   3.246   4.951
 3839SOL     OW12415   0.680   6.205   6.982
 3839SOL    HW112416   0.737   6.277   6.941
 3839SOL    HW212417   0.617   6.246   0.025
 3840SOL     OW12418   3.400   2.129   3.217
 3840SOL    HW112419   3.343   2.120   3.135
 3840SOL    HW212420   3.482   2.072   3.206
 3841SOL     OW12421   1.583   3.038   4.034
 3841SOL    HW112422   1.599   3.137   4.040
 3841SOL    HW212423   1.615   3.005   3.945
 3842SOL     OW12424   1.075   5.016   6.828
 3842SOL    HW112425   1.060   5.092   6.765
 3842SOL    HW212426   1.036   4.933   6.791
 3843SOL     OW12427   6.578   5.313   6.653
 3843SOL    HW112428   6.628   5.400   6.653
 3843SOL    HW212429   6.596   5.264   6.738
 3844SOL     OW12430   2.981   4.373   5.613
 3844SOL    HW112431   2.951   4.359   5.519
 3844SOL    HW212432   2.913   4.335   5.676
 3845SOL     OW12433   3.136   3.521   4.662
 3845SOL    HW112434   3.119   3.535   4.760
 3845SOL    HW212435   3.198   3.444   4.649
 3846SOL     OW12436   6.703   4.222   4.914
 3846SOL    HW112437   6.706   4.259   4.821
 3846SOL    HW212438   6.769   4.270   4.971
 3847SOL     OW12439   1.255   6.654   0.977
 3847SOL    HW112440   1.172   6.668   1.032
 3847SOL    HW212441   1.331   6.704   1.018
 3848SOL     OW12442   2.732   6.261   2.528
 3848SOL    HW112443   2.803   6.323   2.560
 3848SOL    HW212444   2.663   6.249   2.599
 3849SOL     OW12445   2.462   1.515   4.706
 3849SOL    HW112446   2.377   1.568   4.703
 3849SOL    HW212447   2.483   1.492   4.801
 3850SOL     OW12448   1.621   3.284   1.665
 3850SOL    HW112449   1.696   3.264   1.729
 3850SOL    HW212450   1.637   3.235   1.579
 3851SOL     OW12451   2.821   2.841   0.368
 3851SOL    HW112452   2.886   2.906   0.407
 3851SOL    HW212453   2.767   2.800   0.442
 3852SOL     OW12454   4.096   0.746   5.512
 3852SOL    HW112455   4.025   0.676   5.500
 3852SOL    HW212456   4.124   0.779   5.422
 3853SOL     OW12457   0.388   3.282   2.176
 3853SOL    HW112458   0.464   3.305   2.237
 3853SOL    HW212459   0.305   3.325   2.210
 3854SOL     OW12460   1.258   4.172   4.194
 3854SOL    HW112461   1.194   4.130   4.258
 3854SOL    HW212462   1.280   4.265   4.225
 3855SOL     OW12463   0.207   1.940   5.004
 3855SOL    HW112464   0.273   1.941   4.929
 3855SOL    HW212465   0.117   1.966   4.970
 3856SOL     OW12466   0.952   6.229   6.108
 3856SOL    HW112467   0.907   6.215   6.196
 3856SOL    HW212468   1.008   6.312   6.111
 3857SOL     OW12469   0.067   0.206   6.720
 3857SOL    HW112470   0.069   0.129   6.783
 3857SOL    HW212471   0.160   0.225   6.688
 3858SOL     OW12472   4.271   5.088   6.612
 3858SOL    HW112473   4.343   5.150   6.581
 3858SOL    HW212474   4.293   4.995   6.584
 3859SOL     OW12475   6.758   2.413   2.696
 3859SOL    HW112476   6.812   2.495   2.678
 3859SOL    HW212477   6.663   2.439   2.716
 3860SOL     OW12478   2.287   6.392   5.104
 3860SOL    HW112479   2.192   6.420   5.113
 3860SOL    HW212480   2.310   6.327   5.176
 3861SOL     OW12481   3.458   3.704   0.336
 3861SOL    HW112482   3.438   3.800   0.356
 3861SOL    HW212483   3.481   3.656   0.420
 3862SOL     OW12484   0.542   6.287   5.529
 3862SOL    HW112485   0.612   6.245   5.587
 3862SOL    HW212486   0.476   6.217   5.501
 3863SOL     OW12487   2.375   3.255   0.358
 3863SOL    HW112488   2.409   3.161   0.352
 3863SOL    HW212489   2.444   3.312   0.403
 3864SOL     OW12490   3.187   1.903   1.672
 3864SOL    HW112491   3.193   1.988   1.724
 3864SOL    HW212492   3.276   1.883   1.630
 3865SOL     OW12493   4.303   0.936   2.258
 3865SOL    HW112494   4.354   0.995   2.195
 3865SOL    HW212495   4.351   0.849   2.269
 3866SOL     OW12496   4.612   6.189   6.497
 3866SOL    HW112497   4.646   6.283   6.486
 3866SOL    HW212498   4.652   6.131   6.426
 3867SOL     OW12499   1.986   5.016   2.809
 3867SOL    HW112500   1.896   5.049   2.780
 3867SOL    HW212501   2.043   5.094   2.836
 3868SOL     OW12502   2.491   5.177   2.731
 3868SOL    HW112503   2.546   5.259   2.716
 3868SOL    HW212504   2.415   5.200   2.792
 3869SOL     OW12505   1.244   1.287   3.558
 3869SOL    HW112506   1.153   1.283   3.598
 3869SOL    HW212507   1.303   1.220   3.603
 3870SOL     OW12508   4.067   3.438   0.287
 3870SOL    HW112509   4.128   3.476   0.357
 3870SOL    HW212510   3.982   3.490   0.284
 3871SOL     OW12511   2.916   1.065   4.686
 3871SOL    HW112512   2.941   1.113   4.770
 3871SOL    HW212513   2.884   1.132   4.618
 3872SOL     OW12514   4.867   3.906   0.454
 3872SOL    HW112515   4.900   3.926   0.361
 3872SOL    HW212516   4.892   3.813   0.478
 3873SOL     OW12517   6.337   4.916   1.964
 3873SOL    HW112518   6.386   5.003   1.966
 3873SOL    HW212519   6.240   4.932   1.982
 3874SOL     OW12520   5.537   6.511   5.788
 3874SOL    HW112521   5.454   6.537   5.740
 3874SOL    HW212522   5.605   6.584   5.779
 3875SOL     OW12523   3.225   3.113   0.666
 3875SOL    HW112524   3.265   3.053   0.736
 3875SOL    HW212525   3.292   3.129   0.594
 3876SOL     OW12526   5.415   3.957   2.970
 3876SOL    HW112527   5.338   4.022   2.970
 3876SOL    HW212528   5.407   3.896   3.048
 3877SOL     OW12529   4.483   1.951   1.882
 3877SOL    HW112530   4.469   1.936   1.980
 3877SOL    HW212531   4.575   1.919   1.857
 3878SOL     OW12532   6.165   5.397   5.367
 3878SOL    HW112533   6.073   5.428   5.342
 3878SOL    HW212534   6.202   5.339   5.294
 3879SOL     OW12535   2.118   6.616   0.514
 3879SOL    HW112536   2.120   6.706   0.558
 3879SOL    HW212537   2.086   6.548   0.580
 3880SOL     OW12538   5.573   2.194   4.613
 3880SOL    HW112539   5.614   2.103   4.608
 3880SOL    HW212540   5.592   2.235   4.702
 3881SOL     OW12541   6.836   6.295   5.724
 3881SOL    HW112542   6.839   6.394   5.738
 3881SOL    HW212543   6.922   6.254   5.753
 3882SOL     OW12544   6.928   6.049   0.061
 3882SOL    HW112545   6.886   6.025   0.148
 3882SOL    HW212546   7.002   5.986   0.041
 3883SOL     OW12547   4.065   2.054   0.373
 3883SOL    HW112548   4.000   2.025   0.303
 3883SOL    HW212549   4.020   2.117   0.436
 3884SOL     OW12550   3.018   6.212   6.075
 3884SOL    HW112551   3.098   6.265   6.103
 3884SOL    HW212552   3.047   6.122   6.044
 3885SOL     OW12553   0.789   1.091   4.060
 3885SOL    HW112554   0.886   1.095   4.036
 3885SOL    HW212555   0.779   1.044   4.148
 3886SOL     OW12556   7.002   6.261   4.632
 3886SOL    HW112557   0.005   6.293   4.723
 3886SOL    HW212558   6.928   6.318   4.596
 3887SOL     OW12559   0.654   3.218   5.325
 3887SOL    HW112560   0.669   3.237   5.227
 3887SOL    HW212561   0.711   3.141   5.353
 3888SOL     OW12562   4.711   2.208   3.476
 3888SOL    HW112563   4.777   2.133   3.479
 3888SOL    HW212564   4.628   2.178   3.430
 3889SOL     OW12565   6.311   5.551   0.739
 3889SOL    HW112566   6.333   5.593   0.827
 3889SOL    HW212567   6.395   5.515   0.697
 3890SOL     OW12568   6.181   3.062   3.616
 3890SOL    HW112569   6.086   3.065   3.585
 3890SOL    HW212570   6.184   3.053   3.715
 3891SOL     OW12571   3.789   4.235   6.194
 3891SOL    HW112572   3.791   4.331   6.167
 3891SOL    HW212573   3.811   4.178   6.115
 3892SOL     OW12574   5.088   6.035   4.396
 3892SOL    HW112575   5.067   6.005   4.303
 3892SOL    HW212576   5.007   6.025   4.454
 3893SOL     OW12577   2.722   5.937   4.879
 3893SOL    HW112578   2.738   5.839   4.868
 3893SOL    HW212579   2.790   5.988   4.826
 3894SOL     OW12580   5.516   6.020   5.830
 3894SOL    HW112581   5.455   5.945   5.807
 3894SOL    HW212582   5.606   5.984   5.856
 3895SOL     OW12583   1.341   1.883   4.787
 3895SOL    HW112584   1.429   1.837   4.794
 3895SOL    HW212585   1.271   1.818   4.757
 3896SOL     OW12586   6.424   2.953   1.007
 3896SOL    HW112587   6.382   2.863   1.014
 3896SOL    HW212588   6.389   3.012   1.080
 3897SOL     OW12589   2.525   0.881   3.022
 3897SOL    HW112590   2.621   0.888   3.049
 3897SOL    HW212591   2.467   0.880   3.103
 3898SOL     OW12592   3.329   3.932   2.759
 3898SOL    HW112593   3.320   3.899   2.853
 3898SOL    HW212594   3.377   4.019   2.758
 3899SOL     OW12595   4.733   1.161   6.090
 3899SOL    HW112596   4.634   1.163   6.078
 3899SOL    HW212597   4.777   1.178   6.002
 3900SOL     OW12598   1.012   2.620   4.005
 3900SOL    HW112599   1.081   2.567   4.054
 3900SOL    HW212600   1.052   2.706   3.975
 3901SOL     OW12601   3.978   6.534   4.472
 3901SOL    HW112602   3.972   6.465   4.544
 3901SOL    HW212603   4.035   6.610   4.503
 3902SOL     OW12604   2.919   4.782   3.206
 3902SOL    HW112605   2.843   4.736   3.253
 3902SOL    HW212606   2.901   4.784   3.108
 3903SOL     OW12607   2.534   4.095   6.173
 3903SOL    HW112608   2.448   4.131   6.209
 3903SOL    HW212609   2.580   4.042   6.244
 3904SOL     OW12610   2.734   6.155   0.699
 3904SOL    HW112611   2.750   6.123   0.792
 3904SOL    HW212612   2.642   6.192   0.692
 3905SOL     OW12613   4.286   6.565   5.386
 3905SOL    HW112614   4.318   6.471   5.378
 3905SOL    HW212615   4.308   6.600   5.477
 3906SOL     OW12616   6.749   5.977   4.063
 3906SOL    HW112617   6.701   5.923   3.994
 3906SOL    HW212618   6.720   6.072   4.057
 3907SOL     OW12619   1.722   0.659   5.159
 3907SOL    HW112620   1.667   0.735   5.196
 3907SOL    HW212621   1.661   0.593   5.115
 3908SOL     OW12622   2.292   1.871   4.426
 3908SOL    HW112623   2.341   1.848   4.342
 3908SOL    HW212624   2.233   1.795   4.452
 3909SOL     OW12625   6.482   3.302   2.881
 3909SOL    HW112626   6.383   3.293   2.869
 3909SOL    HW212627   6.527   3.288   2.793
 3910SOL     OW12628   1.523   2.165   0.115
 3910SOL    HW112629   1.512   2.108   0.034
 3910SOL    HW212630   1.521   2.107   0.197
 3911SOL     OW12631   6.533   0.686   2.776
 3911SOL    HW112632   6.447   0.725   2.811
 3911SOL    HW212633   6.606   0.755   2.784
 3912SOL     OW12634   4.832   4.593   0.957
 3912SOL    HW112635   4.790   4.682   0.939
 3912SOL    HW212636   4.778   4.544   1.025
 3913SOL     OW12637   4.104   4.667   0.829
 3913SOL    HW112638   4.189   4.716   0.812
 3913SOL    HW212639   4.033   4.700   0.765
 3914SOL     OW12640   0.561   1.013   0.324
 3914SOL    HW112641   0.626   0.954   0.276
 3914SOL    HW212642   0.478   1.021   0.269
 3915SOL     OW12643   5.098   6.899   4.732
 3915SOL    HW112644   5.165   6.825   4.720
 3915SOL    HW212645   5.008   6.861   4.750
 3916SOL     OW12646   1.855   2.724   2.329
 3916SOL    HW112647   1.921   2.778   2.277
 3916SOL    HW212648   1.812   2.657   2.268
 3917SOL     OW12649   3.201   5.451   2.060
 3917SOL    HW112650   3.150   5.519   2.113
 3917SOL    HW212651   3.248   5.496   1.984
 3918SOL     OW12652   3.754   6.367   6.964
 3918SOL    HW112653   3.711   6.315   6.891
 3918SOL    HW212654   3.784   6.305   0.013
 3919SOL     OW12655   5.266   4.252   3.602
 3919SOL    HW112656   5.266   4.309   3.520
 3919SOL    HW212657   5.262   4.310   3.683
 3920SOL     OW12658   4.232   0.463   5.647
 3920SOL    HW112659   4.209   0.449   5.550
 3920SOL    HW212660   4.182   0.396   5.703
 3921SOL     OW12661   1.238   3.865   5.505
 3921SOL    HW112662   1.267   3.769   5.509
 3921SOL    HW212663   1.252   3.899   5.412
 3922SOL     OW12664   5.499   1.393   3.933
 3922SOL    HW112665   5.505   1.492   3.942
 3922SOL    HW212666   5.406   1.363   3.952
 3923SOL     OW12667   5.757   0.728   1.676
 3923SOL    HW112668   5.715   0.793   1.612
 3923SOL    HW212669   5.833   0.682   1.631
 3924SOL     OW12670   5.657   4.907   3.941
 3924SOL    HW112671   5.591   4.834   3.956
 3924SOL    HW212672   5.661   4.966   4.022
 3925SOL     OW12673   3.766   4.421   1.656
 3925SOL    HW112674   3.705   4.492   1.692
 3925SOL    HW212675   3.792   4.444   1.562
 3926SOL     OW12676   0.643   5.993   5.216
 3926SOL    HW112677   0.698   6.044   5.283
 3926SOL    HW212678   0.592   5.921   5.263
 3927SOL     OW12679   5.902   6.016   5.322
 3927SOL    HW112680   5.833   5.960   5.368
 3927SOL    HW212681   5.992   5.977   5.337
 3928SOL     OW12682   4.185   5.349   2.452
 3928SOL    HW112683   4.256   5.413   2.479
 3928SOL    HW212684   4.156   5.296   2.531
 3929SOL     OW12685   1.902   0.969   5.150
 3929SOL    HW112686   1.877   0.891   5.092
 3929SOL    HW212687   1.974   0.941   5.214
 3930SOL     OW12688   2.042   5.867   4.640
 3930SOL    HW112689   1.971   5.912   4.694
 3930SOL    HW212690   2.001   5.801   4.578
 3931SOL     OW12691   0.004   1.910   0.301
 3931SOL    HW112692   0.057   1.883   0.381
 3931SOL    HW212693   0.040   1.996   0.265
 3932SOL     OW12694   1.845   4.710   2.958
 3932SOL    HW112695   1.932   4.749   2.989
 3932SOL    HW212696   1.844   4.612   2.977
 3933SOL     OW12697   1.289   0.169   1.662
 3933SOL    HW112698   1.286   0.118   1.576
 3933SOL    HW212699   1.227   0.247   1.657
 3934SOL     OW12700   1.194   6.630   1.789
 3934SOL    HW112701   1.222   6.535   1.777
 3934SOL    HW212702   1.262   6.691   1.748
 3935SOL     OW12703   6.826   1.178   4.798
 3935SOL    HW112704   6.861   1.095   4.841
 3935SOL    HW212705   6.772   1.154   4.717
 3936SOL     OW12706   6.377   4.712   4.222
 3936SOL    HW112707   6.346   4.647   4.292
 3936SOL    HW212708   6.345   4.682   4.133
 3937SOL     OW12709   1.668   6.715   6.791
 3937SOL    HW112710   1.640   6.663   6.872
 3937SOL    HW212711   1.754   6.762   6.809
 3938SOL     OW12712   1.289   4.684   6.951
 3938SOL    HW112713   1.278   4.591   6.915
 3938SOL    HW212714   1.201   4.716   6.986
 3939SOL     OW12715   2.182   5.846   4.355
 3939SOL    HW112716   2.144   5.860   4.447
 3939SOL    HW212717   2.111   5.812   4.295
 3940SOL     OW12718   2.240   5.901   6.793
 3940SOL    HW112719   2.291   5.968   6.846
 3940SOL    HW212720   2.303   5.833   6.755
 3941SOL     OW12721   5.547   4.933   3.261
 3941SOL    HW112722   5.528   4.876   3.181
 3941SOL    HW212723   5.566   4.875   3.340
 3942SOL     OW12724   0.946   6.967   0.233
 3942SOL    HW112725   0.992   6.907   0.299
 3942SOL    HW212726   0.847   6.955   0.241
 3943SOL     OW12727   0.416   4.591   0.407
 3943SOL    HW112728   0.400   4.689   0.423
 3943SOL    HW212729   0.392   4.569   0.312
 3944SOL     OW12730   5.551   2.847   0.575
 3944SOL    HW112731   5.572   2.902   0.656
 3944SOL    HW212732   5.518   2.757   0.604
 3945SOL     OW12733   0.304   0.742   2.808
 3945SOL    HW112734   0.398   0.722   2.781
 3945SOL    HW212735   0.249   0.658   2.802
 3946SOL     OW12736   4.986   0.854   0.947
 3946SOL    HW112737   4.949   0.935   0.992
 3946SOL    HW212738   5.022   0.791   1.016
 3947SOL     OW12739   5.207   0.109   0.815
 3947SOL    HW112740   5.266   0.029   0.802
 3947SOL    HW212741   5.115   0.079   0.837
 3948SOL     OW12742   1.781   1.443   4.190
 3948SOL    HW112743   1.762   1.531   4.147
 3948SOL    HW212744   1.753   1.369   4.128
 3949SOL     OW12745   6.169   6.685   2.411
 3949SOL    HW112746   6.089   6.656   2.360
 3949SOL    HW212747   6.159   6.781   2.437
 3950SOL     OW12748   2.480   4.527   1.741
 3950SOL    HW112749   2.485   4.429   1.758
 3950SOL    HW212750   2.410   4.546   1.672
 3951SOL     OW12751   0.083   2.761   3.056
 3951SOL    HW112752   0.119   2.678   3.098
 3951SOL    HW212753   0.159   2.819   3.026
 3952SOL     OW12754   5.900   5.509   6.833
 3952SOL    HW112755   5.979   5.460   6.797
 3952SOL    HW212756   5.887   5.593   6.779
 3953SOL     OW12757   3.229   3.048   4.844
 3953SOL    HW112758   3.134   3.046   4.875
 3953SOL    HW212759   3.234   3.010   4.751
 3954SOL     OW12760   0.905   4.808   6.328
 3954SOL    HW112761   0.955   4.729   6.294
 3954SOL    HW212762   0.963   4.889   6.323
 3955SOL     OW12763   6.087   3.317   0.344
 3955SOL    HW112764   6.141   3.264   0.408
 3955SOL    HW212765   6.125   3.409   0.335
 3956SOL     OW12766   6.905   3.068   4.788
 3956SOL    HW112767   6.909   3.155   4.738
 3956SOL    HW212768   6.825   3.067   4.847
 3957SOL     OW12769   1.700   2.857   2.047
 3957SOL    HW112770   1.751   2.876   1.963
 3957SOL    HW212771   1.699   2.759   2.065
 3958SOL     OW12772   5.201   5.449   1.138
 3958SOL    HW112773   5.254   5.367   1.121
 3958SOL    HW212774   5.109   5.424   1.169
 3959SOL     OW12775   2.623   4.751   0.669
 3959SOL    HW112776   2.633   4.686   0.594
 3959SOL    HW212777   2.713   4.785   0.696
 3960SOL     OW12778   5.796   3.315   0.988
 3960SOL    HW112779   5.878   3.277   1.030
 3960SOL    HW212780   5.806   3.314   0.888
 3961SOL     OW12781   6.924   1.214   1.864
 3961SOL    HW112782   6.861   1.232   1.788
 3961SOL    HW212783   6.945   1.117   1.868
 3962SOL     OW12784   0.332   6.588   6.951
 3962SOL    HW112785   0.411   6.534   6.923
 3962SOL    HW212786   0.310   6.656   6.881
 3963SOL     OW12787   6.448   2.707   4.904
 3963SOL    HW112788   6.401   2.739   4.822
 3963SOL    HW212789   6.411   2.754   4.985
 3964SOL     OW12790   5.892   5.396   6.518
 3964SOL    HW112791   5.960   5.322   6.512
 3964SOL    HW212792   5.832   5.380   6.597
 3965SOL     OW12793   2.183   5.315   1.496
 3965SOL    HW112794   2.145   5.225   1.519
 3965SOL    HW212795   2.188   5.324   1.396
 3966SOL     OW12796   6.681   4.403   5.750
 3966SOL    HW112797   6.661   4.412   5.652
 3966SOL    HW212798   6.705   4.493   5.787
 3967SOL     OW12799   2.906   0.368   0.767
 3967SOL    HW112800   2.841   0.296   0.746
 3967SOL    HW212801   2.970   0.380   0.691
 3968SOL     OW12802   4.709   2.695   0.588
 3968SOL    HW112803   4.704   2.631   0.665
 3968SOL    HW212804   4.784   2.669   0.527
 3969SOL     OW12805   6.198   6.593   1.350
 3969SOL    HW112806   6.144   6.614   1.431
 3969SOL    HW212807   6.142   6.603   1.268
 3970SOL     OW12808   5.954   4.065   3.674
 3970SOL    HW112809   5.874   4.123   3.691
 3970SOL    HW212810   5.964   4.000   3.749
 3971SOL     OW12811   0.075   5.824   4.299
 3971SOL    HW112812   0.152   5.784   4.250
 3971SOL    HW212813   0.069   5.922   4.277
 3972SOL     OW12814   0.644   0.542   6.388
 3972SOL    HW112815   0.606   0.567   6.477
 3972SOL    HW212816   0.629   0.445   6.372
 3973SOL     OW12817   4.021   3.014   1.702
 3973SOL    HW112818   4.004   3.079   1.775
 3973SOL    HW212819   3.935   2.995   1.654
 3974SOL     OW12820   5.268   0.840   6.953
 3974SOL    HW112821   5.209   0.824   0.009
 3974SOL    HW212822   5.224   0.905   6.891
 3975SOL     OW12823   0.146   6.559   3.628
 3975SOL    HW112824   0.210   6.544   3.553
 3975SOL    HW212825   0.052   6.557   3.592
 3976SOL     OW12826   0.829   3.017   5.383
 3976SOL    HW112827   0.786   2.988   5.469
 3976SOL    HW212828   0.928   3.025   5.398
 3977SOL     OW12829   2.499   4.857   5.813
 3977SOL    HW112830   2.503   4.884   5.909
 3977SOL    HW212831   2.525   4.760   5.806
 3978SOL     OW12832   4.485   3.306   6.199
 3978SOL    HW112833   4.499   3.337   6.293
 3978SOL    HW212834   4.460   3.385   6.142
 3979SOL     OW12835   6.939   5.373   2.679
 3979SOL    HW112836   6.851   5.368   2.631
 3979SOL    HW212837   6.924   5.415   2.769
 3980SOL     OW12838   5.254   4.438   3.809
 3980SOL    HW112839   5.177   4.446   3.873
 3980SOL    HW212840   5.280   4.529   3.777
 3981SOL     OW12841   6.839   0.989   6.967
 3981SOL    HW112842   6.802   1.079   6.948
 3981SOL    HW212843   6.769   0.919   6.951
 3982SOL     OW12844   2.151   3.019   3.720
 3982SOL    HW112845   2.167   3.084   3.795
 3982SOL    HW212846   2.062   2.975   3.732
 3983SOL     OW12847   2.730   1.381   3.293
 3983SOL    HW112848   2.771   1.290   3.295
 3983SOL    HW212849   2.639   1.377   3.334
 3984SOL     OW12850   1.413   6.170   2.533
 3984SOL    HW112851   1.403   6.200   2.438
 3984SOL    HW212852   1.507   6.139   2.549
 3985SOL     OW12853   1.233   2.563   0.826
 3985SOL    HW112854   1.321   2.543   0.869
 3985SOL    HW212855   1.247   2.619   0.745
 3986SOL     OW12856   0.589   1.066   3.133
 3986SOL    HW112857   0.661   1.133   3.149
 3986SOL    HW212858   0.622   0.996   3.069
 3987SOL     OW12859   1.592   4.298   5.441
 3987SOL    HW112860   1.652   4.218   5.451
 3987SOL    HW212861   1.626   4.372   5.499
 3988SOL     OW12862   5.242   5.723   2.342
 3988SOL    HW112863   5.279   5.683   2.258
 3988SOL    HW212864   5.206   5.650   2.401
 3989SOL     OW12865   4.689   0.744   6.341
 3989SOL    HW112866   4.644   0.750   6.430
 3989SOL    HW212867   4.740   0.658   6.335
 3990SOL     OW12868   6.236   6.422   3.980
 3990SOL    HW112869   6.329   6.406   4.012
 3990SOL    HW212870   6.211   6.518   3.995
 3991SOL     OW12871   0.381   2.150   4.016
 3991SOL    HW112872   0.419   2.163   3.924
 3991SOL    HW212873   0.303   2.087   4.011
 3992SOL     OW12874   6.067   3.767   5.800
 3992SOL    HW112875   6.094   3.675   5.771
 3992SOL    HW212876   6.056   3.825   5.719
 3993SOL     OW12877   2.077   0.673   4.591
 3993SOL    HW112878   2.111   0.582   4.567
 3993SOL    HW212879   1.987   0.665   4.634
 3994SOL     OW12880   3.206   2.111   3.733
 3994SOL    HW112881   3.153   2.027   3.729
 3994SOL    HW212882   3.250   2.128   3.645
 3995SOL     OW12883   1.911   3.816   2.190
 3995SOL    HW112884   1.893   3.863   2.104
 3995SOL    HW212885   1.992   3.759   2.181
 3996SOL     OW12886   0.222   5.619   5.456
 3996SOL    HW112887   0.205   5.703   5.508
 3996SOL    HW212888   0.225   5.642   5.358
 3997SOL     OW12889   6.112   2.865   4.946
 3997SOL    HW112890   6.122   2.954   4.991
 3997SOL    HW212891   6.037   2.814   4.990
 3998SOL     OW12892   4.430   2.432   3.020
 3998SOL    HW112893   4.512   2.409   2.969
 3998SOL    HW212894   4.454   2.488   3.099
 3999SOL     OW12895   4.449   3.447   0.763
 3999SOL    HW112896   4.476   3.441   0.859
 3999SOL    HW212897   4.522   3.411   0.706
 4000SOL     OW12898   2.556   4.672   2.597
 4000SOL    HW112899   2.494   4.747   2.619
 4000SOL    HW212900   2.648   4.708   2.582
 4001SOL     OW12901   0.867   5.701   3.901
 4001SOL    HW112902   0.811   5.767   3.851
 4001SOL    HW212903   0.846   5.608   3.869
 4002SOL     OW12904   3.910   3.969   4.924
 4002SOL    HW112905   3.990   3.995   4.870
 4002SOL    HW212906   3.926   3.993   5.020
 4003SOL     OW12907   2.950   1.830   4.272
 4003SOL    HW112908   2.946   1.891   4.192
 4003SOL    HW212909   2.904   1.874   4.349
 4004SOL     OW12910   1.988   3.742   4.899
 4004SOL    HW112911   2.039   3.828   4.897
 4004SOL    HW212912   1.902   3.754   4.850
 4005SOL     OW12913   5.662   1.998   1.004
 4005SOL    HW112914   5.725   1.988   0.928
 4005SOL    HW212915   5.683   1.931   1.075
 4006SOL     OW12916   6.900   5.956   2.296
 4006SOL    HW112917   6.914   6.035   2.355
 4006SOL    HW212918   6.986   5.932   2.251
 4007SOL     OW12919   0.768   1.387   1.358
 4007SOL    HW112920   0.783   1.485   1.341
 4007SOL    HW212921   0.827   1.357   1.433
 4008SOL     OW12922   4.205   0.473   1.576
 4008SOL    HW112923   4.254   0.459   1.490
 4008SOL    HW212924   4.137   0.400   1.588
 4009SOL     OW12925   3.644   2.594   1.337
 4009SOL    HW112926   3.665   2.629   1.428
 4009SOL    HW212927   3.700   2.642   1.269
 4010SOL     OW12928   1.257   5.279   0.970
 4010SOL    HW112929   1.270   5.225   1.053
 4010SOL    HW212930   1.332   5.260   0.906
 4011SOL     OW12931   5.850   6.781   0.113
 4011SOL    HW112932   5.927   6.799   0.051
 4011SOL    HW212933   5.881   6.788   0.208
 4012SOL     OW12934   5.590   4.470   1.721
 4012SOL    HW112935   5.520   4.513   1.665
 4012SOL    HW212936   5.627   4.537   1.785
 4013SOL     OW12937   6.783   1.910   6.763
 4013SOL    HW112938   6.745   1.818   6.753
 4013SOL    HW212939   6.871   1.905   6.810
 4014SOL     OW12940   3.821   6.117   3.156
 4014SOL    HW112941   3.763   6.129   3.237
 4014SOL    HW212942   3.917   6.119   3.182
 4015SOL     OW12943   3.305   6.347   4.787
 4015SOL    HW112944   3.377   6.413   4.766
 4015SOL    HW212945   3.224   6.368   4.732
 4016SOL     OW12946   4.374   5.025   4.195
 4016SOL    HW112947   4.275   5.038   4.198
 4016SOL    HW212948   4.396   4.952   4.130
 4017SOL     OW12949   2.032   5.878   5.881
 4017SOL    HW112950   1.967   5.929   5.938
 4017SOL    HW212951   2.093   5.824   5.940
 4018SOL     OW12952   5.204   5.677   0.041
 4018SOL    HW112953   5.252   5.625   6.994
 4018SOL    HW212954   5.105   5.664   0.030
 4019SOL     OW12955   0.770   2.209   3.041
 4019SOL    HW112956   0.782   2.113   3.069
 4019SOL    HW212957   0.849   2.238   2.988
 4020SOL     OW12958   6.854   6.053   4.679
 4020SOL    HW112959   6.918   6.123   4.646
 4020SOL    HW212960   6.854   6.052   4.779
 4021SOL     OW12961   4.620   5.837   5.807
 4021SOL    HW112962   4.597   5.839   5.709
 4021SOL    HW212963   4.535   5.843   5.861
 4022SOL     OW12964   3.792   0.206   1.549
 4022SOL    HW112965   3.782   0.305   1.540
 4022SOL    HW212966   3.787   0.163   1.458
 4023SOL     OW12967   0.818   2.022   3.753
 4023SOL    HW112968   0.732   2.022   3.702
 4023SOL    HW212969   0.850   1.929   3.764
 4024SOL     OW12970   0.751   6.516   6.614
 4024SOL    HW112971   0.820   6.562   6.557
 4024SOL    HW212972   0.672   6.576   6.625
 4025SOL     OW12973   1.107   4.688   4.667
 4025SOL    HW112974   1.063   4.747   4.735
 4025SOL    HW212975   1.165   4.744   4.608
 4026SOL     OW12976   0.866   6.380   4.382
 4026SOL    HW112977   0.798   6.346   4.448
 4026SOL    HW212978   0.836   6.358   4.289
 4027SOL     OW12979   3.116   5.700   4.897
 4027SOL    HW112980   3.124   5.704   4.997
 4027SOL    HW212981   3.194   5.650   4.860
 4028SOL     OW12982   4.563   1.984   4.859
 4028SOL    HW112983   4.593   1.921   4.787
 4028SOL    HW212984   4.533   2.070   4.817
 4029SOL     OW12985   2.172   6.753   1.049
 4029SOL    HW112986   2.249   6.770   1.110
 4029SOL    HW212987   2.092   6.726   1.103
 4030SOL     OW12988   0.897   1.126   1.844
 4030SOL    HW112989   0.944   1.069   1.776
 4030SOL    HW212990   0.944   1.214   1.851
 4031SOL     OW12991   6.483   6.084   0.772
 4031SOL    HW112992   6.416   6.149   0.737
 4031SOL    HW212993   6.572   6.104   0.731
 4032SOL     OW12994   4.987   1.873   2.265
 4032SOL    HW112995   4.907   1.817   2.246
 4032SOL    HW212996   5.036   1.892   2.179
 4033SOL     OW12997   1.087   3.880   2.952
 4033SOL    HW112998   1.011   3.852   2.894
 4033SOL    HW212999   1.160   3.812   2.945
 4034SOL     OW13000   2.486   2.045   4.093
 4034SOL    HW113001   2.418   2.093   4.148
 4034SOL    HW213002   2.531   2.109   4.031
 4035SOL     OW13003   3.161   2.474   1.507
 4035SOL    HW113004   3.254   2.441   1.490
 4035SOL    HW213005   3.103   2.397   1.534
 4036SOL     OW13006   4.518   6.993   3.433
 4036SOL    HW113007   4.600   0.021   3.407
 4036SOL    HW213008   4.471   6.962   3.350
 4037SOL     OW13009   1.748   0.922   5.585
 4037SOL    HW113010   1.729   0.892   5.678
 4037SOL    HW213011   1.811   1.000   5.587
 4038SOL     OW13012   4.234   5.039   5.529
 4038SOL    HW113013   4.289   5.041   5.446
 4038SOL    HW213014   4.141   5.009   5.508
 4039SOL     OW13015   5.745   4.386   2.042
 4039SOL    HW113016   5.827   4.442   2.047
 4039SOL    HW213017   5.770   4.291   2.024
 4040SOL     OW13018   2.494   6.592   5.133
 4040SOL    HW113019   2.469   6.688   5.115
 4040SOL    HW213020   2.414   6.534   5.120
 4041SOL     OW13021   1.593   6.008   1.327
 4041SOL    HW113022   1.618   5.948   1.403
 4041SOL    HW213023   1.558   6.094   1.363
 4042SOL     OW13024   1.269   1.821   4.186
 4042SOL    HW113025   1.214   1.758   4.241
 4042SOL    HW213026   1.233   1.914   4.196
 4043SOL     OW13027   3.553   2.864   6.081
 4043SOL    HW113028   3.556   2.791   6.014
 4043SOL    HW213029   3.644   2.881   6.118
 4044SOL     OW13030   4.750   4.106   3.075
 4044SOL    HW113031   4.701   4.193   3.069
 4044SOL    HW213032   4.762   4.080   3.171
 4045SOL     OW13033   4.355   1.437   4.919
 4045SOL    HW113034   4.300   1.451   4.836
 4045SOL    HW213035   4.294   1.430   4.998
 4046SOL     OW13036   5.065   1.142   4.179
 4046SOL    HW113037   5.012   1.145   4.264
 4046SOL    HW213038   5.145   1.201   4.188
 4047SOL     OW13039   2.883   2.440   6.357
 4047SOL    HW113040   2.879   2.461   6.455
 4047SOL    HW213041   2.804   2.384   6.331
 4048SOL     OW13042   4.811   2.449   3.594
 4048SOL    HW113043   4.759   2.370   3.564
 4048SOL    HW213044   4.857   2.428   3.680
 4049SOL     OW13045   3.899   3.947   2.636
 4049SOL    HW113046   3.986   3.909   2.666
 4049SOL    HW213047   3.827   3.922   2.702
 4050SOL     OW13048   0.367   5.025   3.044
 4050SOL    HW113049   0.276   4.984   3.054
 4050SOL    HW213050   0.401   5.008   2.951
 4051SOL     OW13051   5.692   0.635   3.838
 4051SOL    HW113052   5.682   0.593   3.929
 4051SOL    HW213053   5.778   0.686   3.834
 4052SOL     OW13054   4.339   1.011   4.668
 4052SOL    HW113055   4.412   1.047   4.726
 4052SOL    HW213056   4.371   0.930   4.620
 4053SOL     OW13057   0.823   4.527   2.922
 4053SOL    HW113058   0.778   4.539   3.010
 4053SOL    HW213059   0.759   4.547   2.849
 4054SOL     OW13060   5.412   3.589   1.653
 4054SOL    HW113061   5.413   3.573   1.554
 4054SOL    HW213062   5.362   3.516   1.698
 4055SOL     OW13063   6.843   4.463   6.955
 4055SOL    HW113064   6.754   4.438   6.991
 4055SOL    HW213065   6.900   4.381   6.948
 4056SOL     OW13066   4.872   4.129   0.104
 4056SOL    HW113067   4.776   4.156   0.113
 4056SOL    HW213068   4.885   4.039   0.144
 4057SOL     OW13069   0.005   4.823   6.054
 4057SOL    HW113070   6.948   4.883   6.054
 4057SOL    HW213071   7.013   4.747   6.118
 4058SOL     OW13072   3.076   0.919   4.075
 4058SOL    HW113073   3.135   0.844   4.104
 4058SOL    HW213074   3.132   0.996   4.045
 4059SOL     OW13075   1.648   1.541   3.523
 4059SOL    HW113076   1.612   1.627   3.561
 4059SOL    HW213077   1.617   1.465   3.580
 4060SOL     OW13078   0.206   6.856   4.092
 4060SOL    HW113079   0.190   6.797   4.013
 4060SOL    HW213080   0.166   6.814   4.173
 4061SOL     OW13081   1.564   4.038   2.543
 4061SOL    HW113082   1.511   4.041   2.627
 4061SOL    HW213083   1.618   3.953   2.540
 4062SOL     OW13084   2.649   4.030   0.398
 4062SOL    HW113085   2.748   4.045   0.395
 4062SOL    HW213086   2.611   4.076   0.478
 4063SOL     OW13087   3.711   1.049   1.008
 4063SOL    HW113088   3.770   0.969   1.004
 4063SOL    HW213089   3.641   1.035   1.078
 4064SOL     OW13090   2.462   6.708   4.872
 4064SOL    HW113091   2.497   6.622   4.909
 4064SOL    HW213092   2.373   6.692   4.831
 4065SOL     OW13093   2.122   1.482   1.396
 4065SOL    HW113094   2.103   1.430   1.480
 4065SOL    HW213095   2.218   1.510   1.395
 4066SOL     OW13096   0.546   4.025   4.885
 4066SOL    HW113097   0.549   3.929   4.858
 4066SOL    HW213098   0.470   4.039   4.949
 4067SOL     OW13099   5.948   4.501   1.510
 4067SOL    HW113100   6.029   4.458   1.550
 4067SOL    HW213101   5.870   4.439   1.518
 4068SOL     OW13102   2.304   2.804   6.037
 4068SOL    HW113103   2.398   2.834   6.021
 4068SOL    HW213104   2.306   2.716   6.086
 4069SOL     OW13105   4.128   0.235   6.224
 4069SOL    HW113106   4.046   0.243   6.167
 4069SOL    HW213107   4.101   0.222   6.320
 4070SOL     OW13108   1.710   3.943   4.215
 4070SOL    HW113109   1.612   3.958   4.203
 4070SOL    HW213110   1.760   4.014   4.164
 4071SOL     OW13111   1.100   0.368   5.286
 4071SOL    HW113112   1.187   0.328   5.315
 4071SOL    HW213113   1.101   0.382   5.187
 4072SOL     OW13114   2.880   6.475   2.579
 4072SOL    HW113115   2.903   6.542   2.650
 4072SOL    HW213116   2.817   6.517   2.514
 4073SOL     OW13117   4.737   5.321   6.870
 4073SOL    HW113118   4.753   5.410   6.827
 4073SOL    HW213119   4.750   5.249   6.802
 4074SOL     OW13120   1.568   5.397   1.990
 4074SOL    HW113121   1.622   5.323   1.950
 4074SOL    HW213122   1.473   5.390   1.958
 4075SOL     OW13123   5.318   0.574   6.879
 4075SOL    HW113124   5.413   0.575   6.850
 4075SOL    HW213125   5.297   0.659   6.928
 4076SOL     OW13126   2.324   5.571   3.509
 4076SOL    HW113127   2.424   5.571   3.517
 4076SOL    HW213128   2.299   5.570   3.412
 4077SOL     OW13129   2.412   2.134   1.574
 4077SOL    HW113130   2.401   2.058   1.511
 4077SOL    HW213131   2.506   2.136   1.607
 4078SOL     OW13132   4.461   4.899   2.050
 4078SOL    HW113133   4.549   4.857   2.028
 4078SOL    HW213134   4.465   4.998   2.031
 4079SOL     OW13135   0.743   2.278   4.114
 4079SOL    HW113136   0.823   2.258   4.058
 4079SOL    HW213137   0.738   2.212   4.189
 4080SOL     OW13138   6.052   2.438   4.636
 4080SOL    HW113139   5.974   2.479   4.683
 4080SOL    HW213140   6.021   2.392   4.553
 4081SOL     OW13141   6.544   3.563   2.345
 4081SOL    HW113142   6.556   3.604   2.436
 4081SOL    HW213143   6.504   3.472   2.354
 4082SOL     OW13144   0.378   3.936   0.952
 4082SOL    HW113145   0.376   3.992   0.870
 4082SOL    HW213146   0.287   3.937   0.995
 4083SOL     OW13147   6.683   3.330   5.472
 4083SOL    HW113148   6.705   3.243   5.515
 4083SOL    HW213149   6.629   3.387   5.535
 4084SOL     OW13150   4.876   0.816   4.148
 4084SOL    HW113151   4.965   0.774   4.166
 4084SOL    HW213152   4.890   0.911   4.121
 4085SOL     OW13153   3.074   5.231   0.040
 4085SOL    HW113154   3.155   5.253   7.008
 4085SOL    HW213155   3.014   5.311   0.043
 4086SOL     OW13156   0.152   2.273   1.451
 4086SOL    HW113157   0.183   2.368   1.452
 4086SOL    HW213158   0.154   2.236   1.544
 4087SOL     OW13159   1.236   1.121   3.305
 4087SOL    HW113160   1.192   1.170   3.230
 4087SOL    HW213161   1.231   1.176   3.388
 4088SOL     OW13162   0.088   2.698   6.155
 4088SOL    HW113163   0.135   2.778   6.193
 4088SOL    HW213164   0.095   2.622   6.219
 4089SOL     OW13165   0.512   1.587   5.400
 4089SOL    HW113166   0.470   1.518   5.341
 4089SOL    HW213167   0.561   1.654   5.344
 4090SOL     OW13168   3.216   5.281   6.819
 4090SOL    HW113169   3.141   5.296   6.755
 4090SOL    HW213170   3.257   5.192   6.802
 4091SOL     OW13171   4.397   6.523   1.124
 4091SOL    HW113172   4.301   6.495   1.121
 4091SOL    HW213173   4.436   6.520   1.032
 4092SOL     OW13174   1.173   1.305   3.882
 4092SOL    HW113175   1.210   1.225   3.836
 4092SOL    HW213176   1.081   1.285   3.914
 4093SOL     OW13177   4.628   6.770   4.266
 4093SOL    HW113178   4.705   6.742   4.324
 4093SOL    HW213179   4.657   6.844   4.205
 4094SOL     OW13180   3.216   3.289   6.346
 4094SOL    HW113181   3.220   3.268   6.248
 4094SOL    HW213182   3.289   3.353   6.369
 4095SOL     OW13183   1.752   3.718   5.881
 4095SOL    HW113184   1.815   3.764   5.944
 4095SOL    HW213185   1.733   3.625   5.914
 4096SOL     OW13186   4.537   4.693   1.533
 4096SOL    HW113187   4.610   4.713   1.598
 4096SOL    HW213188   4.506   4.599   1.546
 4097SOL     OW13189   3.490   3.869   3.154
 4097SOL    HW113190   3.572   3.813   3.167
 4097SOL    HW213191   3.513   3.965   3.167
 4098SOL     OW13192   1.447   3.226   2.518
 4098SOL    HW113193   1.535   3.209   2.561
 4098SOL    HW213194   1.438   3.168   2.437
 4099SOL     OW13195   2.054   6.373   1.499
 4099SOL    HW113196   1.975   6.318   1.525
 4099SOL    HW213197   2.103   6.403   1.581
 4100SOL     OW13198   3.724   0.067   2.928
 4100SOL    HW113199   3.703   6.997   2.960
 4100SOL    HW213200   3.697   0.133   2.998
 4101SOL     OW13201   4.650   1.899   7.016
 4101SOL    HW113202   4.568   1.911   6.960
 4101SOL    HW213203   4.630   1.834   0.067
 4102SOL     OW13204   4.579   1.535   5.776
 4102SOL    HW113205   4.619   1.444   5.789
 4102SOL    HW213206   4.575   1.556   5.679
 4103SOL     OW13207   6.728   6.847   2.082
 4103SOL    HW113208   6.810   6.829   2.137
 4103SOL    HW213209   6.753   6.899   2.001
 4104SOL     OW13210   2.302   4.321   2.349
 4104SOL    HW113211   2.237   4.282   2.414
 4104SOL    HW213212   2.387   4.344   2.397
 4105SOL     OW13213   6.135   4.927   0.697
 4105SOL    HW113214   6.091   5.017   0.702
 4105SOL    HW213215   6.174   4.905   0.787
 4106SOL     OW13216   0.460   3.601   4.435
 4106SOL    HW113217   0.545   3.631   4.393
 4106SOL    HW213218   0.429   3.670   4.501
 4107SOL     OW13219   6.909   0.509   0.832
 4107SOL    HW113220   6.984   0.536   0.770
 4107SOL    HW213221   6.867   0.591   0.871
 4108SOL     OW13222   6.386   2.223   5.008
 4108SOL    HW113223   6.483   2.245   5.016
 4108SOL    HW213224   6.343   2.284   4.942
 4109SOL     OW13225   2.175   6.496   3.665
 4109SOL    HW113226   2.270   6.516   3.637
 4109SOL    HW213227   2.164   6.516   3.762
 4110SOL     OW13228   4.895   3.325   5.122
 4110SOL    HW113229   4.969   3.281   5.070
 4110SOL    HW213230   4.851   3.394   5.064
 4111SOL     OW13231   3.849   3.427   6.427
 4111SOL    HW113232   3.937   3.384   6.410
 4111SOL    HW213233   3.778   3.378   6.376
 4112SOL     OW13234   3.897   0.709   5.839
 4112SOL    HW113235   3.966   0.758   5.786
 4112SOL    HW213236   3.814   0.700   5.784
 4113SOL     OW13237   3.823   5.444   4.136
 4113SOL    HW113238   3.913   5.401   4.140
 4113SOL    HW213239   3.824   5.527   4.191
 4114SOL     OW13240   3.385   1.769   3.440
 4114SOL    HW113241   3.442   1.727   3.370
 4114SOL    HW213242   3.306   1.812   3.397
 4115SOL     OW13243   5.090   3.968   3.263
 4115SOL    HW113244   5.168   3.911   3.238
 4115SOL    HW213245   5.092   4.053   3.211
 4116SOL     OW13246   2.838   1.224   1.807
 4116SOL    HW113247   2.928   1.269   1.806
 4116SOL    HW213248   2.804   1.216   1.713
 4117SOL     OW13249   1.332   6.096   2.001
 4117SOL    HW113250   1.296   6.058   1.916
 4117SOL    HW213251   1.431   6.080   2.005
 4118SOL     OW13252   1.546   0.700   6.204
 4118SOL    HW113253   1.514   0.691   6.298
 4118SOL    HW213254   1.640   0.733   6.204
 4119SOL     OW13255   4.926   1.504   3.342
 4119SOL    HW113256   5.000   1.465   3.395
 4119SOL    HW213257   4.939   1.482   3.245
 4120SOL     OW13258   5.664   0.923   2.365
 4120SOL    HW113259   5.632   0.836   2.326
 4120SOL    HW213260   5.626   0.934   2.456
 4121SOL     OW13261   5.621   2.221   3.761
 4121SOL    HW113262   5.546   2.171   3.806
 4121SOL    HW213263   5.595   2.243   3.667
 4122SOL     OW13264   2.418   5.013   0.230
 4122SOL    HW113265   2.321   5.037   0.237
 4122SOL    HW213266   2.466   5.084   0.179
 4123SOL     OW13267   4.036   3.711   5.320
 4123SOL    HW113268   4.086   3.692   5.404
 4123SOL    HW213269   3.940   3.728   5.342
 4124SOL     OW13270   4.748   6.187   3.032
 4124SOL    HW113271   4.654   6.211   3.008
 4124SOL    HW213272   4.802   6.271   3.044
 4125SOL     OW13273   4.754   1.779   1.592
 4125SOL    HW113274   4.675   1.745   1.540
 4125SOL    HW213275   4.732   1.778   1.690
 4126SOL     OW13276   1.865   4.065   4.770
 4126SOL    HW113277   1.847   4.086   4.866
 4126SOL    HW213278   1.951   4.014   4.763
 4127SOL     OW13279   4.950   4.712   4.071
 4127SOL    HW113280   4.970   4.614   4.068
 4127SOL    HW213281   5.033   4.762   4.095
 4128SOL     OW13282   0.125   1.843   1.886
 4128SOL    HW113283   0.186   1.822   1.962
 4128SOL    HW213284   0.179   1.857   1.802
 4129SOL     OW13285   0.215   2.850   0.347
 4129SOL    HW113286   0.133   2.815   0.303
 4129SOL    HW213287   0.289   2.783   0.340
 4130SOL     OW13288   6.468   1.658   1.124
 4130SOL    HW113289   6.470   1.738   1.184
 4130SOL    HW213290   6.500   1.685   1.033
 4131SOL     OW13291   6.713   3.589   3.204
 4131SOL    HW113292   6.701   3.607   3.301
 4131SOL    HW213293   6.693   3.493   3.185
 4132SOL     OW13294   4.366   1.593   4.538
 4132SOL    HW113295   4.412   1.527   4.597
 4132SOL    HW213296   4.433   1.659   4.503
 4133SOL     OW13297   2.785   2.807   0.691
 4133SOL    HW113298   2.884   2.811   0.676
 4133SOL    HW213299   2.764   2.828   0.786
 4134SOL     OW13300   2.499   1.083   6.879
 4134SOL    HW113301   2.500   0.986   6.903
 4134SOL    HW213302   2.574   1.102   6.815
 4135SOL     OW13303   1.756   0.404   0.712
 4135SOL    HW113304   1.811   0.400   0.628
 4135SOL    HW213305   1.817   0.402   0.791
 4136SOL     OW13306   1.382   1.854   3.429
 4136SOL    HW113307   1.364   1.947   3.463
 4136SOL    HW213308   1.461   1.857   3.367
 4137SOL     OW13309   3.832   3.330   5.234
 4137SOL    HW113310   3.881   3.288   5.310
 4137SOL    HW213311   3.886   3.323   5.151
 4138SOL     OW13312   5.008   5.361   1.438
 4138SOL    HW113313   4.934   5.300   1.465
 4138SOL    HW213314   5.091   5.309   1.423
 4139SOL     OW13315   2.955   1.530   6.885
 4139SOL    HW113316   3.010   1.535   6.969
 4139SOL    HW213317   2.995   1.591   6.817
 4140SOL     OW13318   4.819   2.664   4.739
 4140SOL    HW113319   4.800   2.761   4.753
 4140SOL    HW213320   4.900   2.653   4.682
 4141SOL     OW13321   5.157   6.273   1.230
 4141SOL    HW113322   5.168   6.289   1.329
 4141SOL    HW213323   5.245   6.251   1.190
 4142SOL     OW13324   6.130   3.261   1.584
 4142SOL    HW113325   6.117   3.301   1.675
 4142SOL    HW213326   6.042   3.257   1.536
 4143SOL     OW13327   1.769   2.582   1.724
 4143SOL    HW113328   1.711   2.657   1.689
 4143SOL    HW213329   1.850   2.574   1.666
 4144SOL     OW13330   4.101   1.180   2.395
 4144SOL    HW113331   4.093   1.080   2.400
 4144SOL    HW213332   4.190   1.204   2.358
 4145SOL     OW13333   2.913   0.100   3.511
 4145SOL    HW113334   2.876   0.018   3.554
 4145SOL    HW213335   2.853   0.128   3.436
 4146SOL     OW13336   5.202   4.765   0.526
 4146SOL    HW113337   5.240   4.690   0.580
 4146SOL    HW213338   5.111   4.739   0.493
 4147SOL     OW13339   2.717   2.001   5.755
 4147SOL    HW113340   2.814   2.018   5.735
 4147SOL    HW213341   2.694   2.039   5.844
 4148SOL     OW13342   6.974   6.519   2.244
 4148SOL    HW113343   0.015   6.560   2.179
 4148SOL    HW213344   6.986   6.562   2.334
 4149SOL     OW13345   4.779   4.246   2.162
 4149SOL    HW113346   4.702   4.251   2.098
 4149SOL    HW213347   4.749   4.274   2.253
 4150SOL     OW13348   3.237   0.393   4.842
 4150SOL    HW113349   3.180   0.475   4.845
 4150SOL    HW213350   3.243   0.353   4.934
 4151SOL     OW13351   0.550   5.840   0.089
 4151SOL    HW113352   0.544   5.767   0.157
 4151SOL    HW213353   0.622   5.818   0.023
 4152SOL     OW13354   3.754   4.271   1.023
 4152SOL    HW113355   3.779   4.196   1.085
 4152SOL    HW213356   3.671   4.247   0.973
 4153SOL     OW13357   6.114   5.900   6.323
 4153SOL    HW113358   6.025   5.856   6.336
 4153SOL    HW213359   6.101   5.998   6.309
 4154SOL     OW13360   4.486   2.241   4.709
 4154SOL    HW113361   4.409   2.247   4.773
 4154SOL    HW213362   4.543   2.322   4.717
 4155SOL     OW13363   1.828   2.778   0.532
 4155SOL    HW113364   1.797   2.840   0.460
 4155SOL    HW213365   1.909   2.728   0.500
 4156SOL     OW13366   6.324   1.127   5.537
 4156SOL    HW113367   6.339   1.118   5.438
 4156SOL    HW213368   6.303   1.222   5.559
 4157SOL     OW13369   3.519   1.041   3.853
 4157SOL    HW113370   3.618   1.052   3.864
 4157SOL    HW213371   3.500   0.973   3.783
 4158SOL     OW13372   0.576   0.193   3.281
 4158SOL    HW113373   0.509   0.242   3.338
 4158SOL    HW213374   0.658   0.249   3.270
 4159SOL     OW13375   0.554   4.831   5.776
 4159SOL    HW113376   0.554   4.765   5.701
 4159SOL    HW213377   0.605   4.913   5.749
 4160SOL     OW13378   6.682   0.767   1.330
 4160SOL    HW113379   6.737   0.784   1.412
 4160SOL    HW213380   6.587   0.750   1.356
 4161SOL     OW13381   6.505   0.996   1.602
 4161SOL    HW113382   6.559   1.042   1.673
 4161SOL    HW213383   6.478   1.063   1.533
 4162SOL     OW13384   0.983   6.770   4.950
 4162SOL    HW113385   0.933   6.736   4.870
 4162SOL    HW213386   1.075   6.732   4.950
 4163SOL     OW13387   0.171   1.735   5.185
 4163SOL    HW113388   0.223   1.664   5.137
 4163SOL    HW213389   0.180   1.822   5.137
 4164SOL     OW13390   2.613   6.629   5.799
 4164SOL    HW113391   2.630   6.645   5.702
 4164SOL    HW213392   2.527   6.580   5.810
 4165SOL     OW13393   1.432   6.153   1.692
 4165SOL    HW113394   1.484   6.202   1.761
 4165SOL    HW213395   1.479   6.158   1.604
 4166SOL     OW13396   6.272   1.821   2.480
 4166SOL    HW113397   6.347   1.788   2.422
 4166SOL    HW213398   6.212   1.745   2.503
 4167SOL     OW13399   1.714   2.706   1.450
 4167SOL    HW113400   1.690   2.610   1.461
 4167SOL    HW213401   1.675   2.741   1.365
 4168SOL     OW13402   2.458   6.185   0.681
 4168SOL    HW113403   2.455   6.090   0.712
 4168SOL    HW213404   2.365   6.221   0.673
 4169SOL     OW13405   6.241   3.723   6.370
 4169SOL    HW113406   6.167   3.658   6.388
 4169SOL    HW213407   6.245   3.790   6.444
 4170SOL     OW13408   3.110   0.920   5.564
 4170SOL    HW113409   3.109   0.994   5.632
 4170SOL    HW213410   3.016   0.890   5.546
 4171SOL     OW13411   6.314   3.008   1.750
 4171SOL    HW113412   6.391   2.990   1.689
 4171SOL    HW213413   6.310   3.106   1.770
 4172SOL     OW13414   3.203   0.668   1.262
 4172SOL    HW113415   3.159   0.604   1.325
 4172SOL    HW213416   3.218   0.755   1.309
 4173SOL     OW13417   4.323   3.964   5.576
 4173SOL    HW113418   4.388   4.039   5.585
 4173SOL    HW213419   4.234   3.992   5.611
 4174SOL     OW13420   4.716   0.993   3.570
 4174SOL    HW113421   4.733   0.895   3.558
 4174SOL    HW213422   4.655   1.007   3.648
 4175SOL     OW13423   2.165   1.599   2.419
 4175SOL    HW113424   2.205   1.568   2.505
 4175SOL    HW213425   2.068   1.618   2.432
 4176SOL     OW13426   5.770   4.596   3.227
 4176SOL    HW113427   5.757   4.576   3.130
 4176SOL    HW213428   5.828   4.677   3.236
 4177SOL     OW13429   6.975   5.853   2.804
 4177SOL    HW113430   6.956   5.812   2.715
 4177SOL    HW213431   6.977   5.782   2.874
 4178SOL     OW13432   4.359   2.662   5.371
 4178SOL    HW113433   4.431   2.594   5.385
 4178SOL    HW213434   4.308   2.640   5.288
 4179SOL     OW13435   0.145   1.673   0.038
 4179SOL    HW113436   0.148   1.588   7.009
 4179SOL    HW213437   0.068   1.670   0.102
 4180SOL     OW13438   5.635   4.026   1.793
 4180SOL    HW113439   5.612   4.047   1.698
 4180SOL    HW213440   5.554   4.040   1.850
 4181SOL     OW13441   6.126   1.234   0.173
 4181SOL    HW113442   6.137   1.287   0.089
 4181SOL    HW213443   6.102   1.295   0.248
 4182SOL     OW13444   5.889   0.878   3.865
 4182SOL    HW113445   5.928   0.820   3.793
 4182SOL    HW213446   5.873   0.970   3.828
 4183SOL     OW13447   1.020   0.517   1.961
 4183SOL    HW113448   1.116   0.541   1.973
 4183SOL    HW213449   1.010   0.417   1.960
 4184SOL     OW13450   4.319   4.684   6.176
 4184SOL    HW113451   4.361   4.679   6.267
 4184SOL    HW213452   4.316   4.592   6.136
 4185SOL     OW13453   0.096   0.710   4.509
 4185SOL    HW113454   0.108   0.719   4.608
 4185SOL    HW213455   0.076   0.615   4.486
 4186SOL     OW13456   3.274   4.085   1.603
 4186SOL    HW113457   3.216   4.004   1.595
 4186SOL    HW213458   3.237   4.159   1.547
 4187SOL     OW13459   4.569   5.144   5.449
 4187SOL    HW113460   4.541   5.085   5.373
 4187SOL    HW213461   4.541   5.238   5.429
 4188SOL     OW13462   5.493   5.579   2.654
 4188SOL    HW113463   5.505   5.512   2.581
 4188SOL    HW213464   5.569   5.572   2.719
 4189SOL     OW13465   1.203   3.070   3.268
 4189SOL    HW113466   1.162   3.143   3.214
 4189SOL    HW213467   1.176   2.981   3.231
 4190SOL     OW13468   2.250   6.703   1.806
 4190SOL    HW113469   2.166   6.751   1.782
 4190SOL    HW213470   2.312   6.703   1.727
 4191SOL     OW13471   0.113   2.229   3.816
 4191SOL    HW113472   0.168   2.293   3.870
 4191SOL    HW213473   0.173   2.158   3.779
 4192SOL     OW13474   5.678   6.369   4.133
 4192SOL    HW113475   5.708   6.276   4.154
 4192SOL    HW213476   5.628   6.369   4.046
 4193SOL     OW13477   1.272   6.720   3.882
 4193SOL    HW113478   1.313   6.641   3.926
 4193SOL    HW213479   1.333   6.799   3.892
 4194SOL     OW13480   5.045   0.022   3.202
 4194SOL    HW113481   5.102   7.011   3.277
 4194SOL    HW213482   5.048   0.122   3.200
 4195SOL     OW13483   4.663   0.405   3.409
 4195SOL    HW113484   4.733   0.366   3.470
 4195SOL    HW213485   4.610   0.332   3.368
 4196SOL     OW13486   4.981   2.666   3.006
 4196SOL    HW113487   4.897   2.627   2.967
 4196SOL    HW213488   5.032   2.713   2.934
 4197SOL     OW13489   5.627   4.395   4.549
 4197SOL    HW113490   5.692   4.321   4.533
 4197SOL    HW213491   5.673   4.474   4.589
 4198SOL     OW13492   6.303   3.659   5.955
 4198SOL    HW113493   6.347   3.715   5.884
 4198SOL    HW213494   6.313   3.562   5.931
 4199SOL     OW13495   3.216   4.337   5.981
 4199SOL    HW113496   3.125   4.365   5.949
 4199SOL    HW213497   3.276   4.323   5.902
 4200SOL     OW13498   3.000   0.474   5.878
 4200SOL    HW113499   2.969   0.565   5.905
 4200SOL    HW213500   3.008   0.416   5.959
 4201SOL     OW13501   6.369   0.286   5.128
 4201SOL    HW113502   6.336   0.323   5.215
 4201SOL    HW213503   6.315   0.206   5.104
 4202SOL     OW13504   5.706   3.020   5.127
 4202SOL    HW113505   5.784   3.071   5.162
 4202SOL    HW213506   5.621   3.059   5.164
 4203SOL     OW13507   3.763   5.624   4.665
 4203SOL    HW113508   3.712   5.585   4.741
 4203SOL    HW213509   3.749   5.567   4.583
 4204SOL     OW13510   1.494   4.494   0.359
 4204SOL    HW113511   1.455   4.441   0.285
 4204SOL    HW213512   1.499   4.590   0.332
 4205SOL     OW13513   2.172   6.500   3.368
 4205SOL    HW113514   2.149   6.476   3.463
 4205SOL    HW213515   2.159   6.598   3.354
 4206SOL     OW13516   4.680   6.516   3.849
 4206SOL    HW113517   4.759   6.575   3.832
 4206SOL    HW213518   4.691   6.431   3.797
 4207SOL     OW13519   1.640   6.304   6.946
 4207SOL    HW113520   1.618   6.304   6.849
 4207SOL    HW213521   1.694   6.223   6.969
 4208SOL     OW13522   0.802   1.880   1.839
 4208SOL    HW113523   0.882   1.826   1.812
 4208SOL    HW213524   0.748   1.902   1.757
 4209SOL     OW13525   2.655   0.291   5.852
 4209SOL    HW113526   2.714   0.222   5.892
 4209SOL    HW213527   2.559   0.267   5.870
 4210SOL     OW13528   3.734   3.446   0.619
 4210SOL    HW113529   3.673   3.524   0.604
 4210SOL    HW213530   3.824   3.479   0.646
 4211SOL     OW13531   6.481   3.182   3.916
 4211SOL    HW113532   6.416   3.111   3.892
 4211SOL    HW213533   6.500   3.239   3.837
 4212SOL     OW13534   6.243   6.938   2.024
 4212SOL    HW113535   6.328   6.887   2.011
 4212SOL    HW213536   6.264   0.005   2.062
 4213SOL     OW13537   0.782   0.106   0.707
 4213SOL    HW113538   0.833   0.041   0.651
 4213SOL    HW213539   0.739   0.175   0.648
 4214SOL     OW13540   3.001   5.411   3.466
 4214SOL    HW113541   2.934   5.409   3.391
 4214SOL    HW213542   2.986   5.492   3.521
 4215SOL     OW13543   1.623   5.958   6.788
 4215SOL    HW113544   1.530   5.920   6.796
 4215SOL    HW213545   1.689   5.884   6.802
 4216SOL     OW13546   2.445   2.744   5.178
 4216SOL    HW113547   2.446   2.840   5.149
 4216SOL    HW213548   2.522   2.696   5.136
 4217SOL     OW13549   6.262   0.651   4.971
 4217SOL    HW113550   6.291   0.557   4.989
 4217SOL    HW213551   6.260   0.701   5.058
 4218SOL     OW13552   3.191   5.210   2.695
 4218SOL    HW113553   3.153   5.214   2.788
 4218SOL    HW213554   3.117   5.221   2.629
 4219SOL     OW13555   4.879   0.491   2.815
 4219SOL    HW113556   4.882   0.464   2.719
 4219SOL    HW213557   4.964   0.462   2.860
 4220SOL     OW13558   0.348   4.446   3.094
 4220SOL    HW113559   0.405   4.437   3.012
 4220SOL    HW213560   0.256   4.411   3.074
 4221SOL     OW13561   5.436   6.357   5.987
 4221SOL    HW113562   5.463   6.423   5.917
 4221SOL    HW213563   5.412   6.406   6.071
 4222SOL     OW13564   2.375   2.952   0.130
 4222SOL    HW113565   2.432   3.004   0.067
 4222SOL    HW213566   2.406   2.968   0.224
 4223SOL     OW13567   3.716   3.890   2.822
 4223SOL    HW113568   3.642   3.955   2.838
 4223SOL    HW213569   3.769   3.878   2.906
 4224SOL     OW13570   3.410   2.202   5.255
 4224SOL    HW113571   3.343   2.264   5.216
 4224SOL    HW213572   3.366   2.115   5.277
 4225SOL     OW13573   4.853   6.782   4.635
 4225SOL    HW113574   4.899   6.696   4.657
 4225SOL    HW213575   4.866   6.804   4.538
 4226SOL     OW13576   2.365   1.877   1.838
 4226SOL    HW113577   2.419   1.948   1.884
 4226SOL    HW213578   2.425   1.804   1.808
 4227SOL     OW13579   5.699   3.895   0.516
 4227SOL    HW113580   5.617   3.952   0.509
 4227SOL    HW213581   5.705   3.835   0.436
 4228SOL     OW13582   4.370   5.255   3.160
 4228SOL    HW113583   4.453   5.265   3.214
 4228SOL    HW213584   4.392   5.208   3.074
 4229SOL     OW13585   4.393   4.917   4.797
 4229SOL    HW113586   4.412   4.830   4.751
 4229SOL    HW213587   4.320   4.905   4.864
 4230SOL     OW13588   1.875   1.327   5.170
 4230SOL    HW113589   1.837   1.416   5.144
 4230SOL    HW213590   1.805   1.273   5.216
 4231SOL     OW13591   3.800   6.526   6.508
 4231SOL    HW113592   3.758   6.468   6.578
 4231SOL    HW213593   3.861   6.592   6.552
 4232SOL     OW13594   1.426   3.996   1.566
 4232SOL    HW113595   1.523   4.001   1.541
 4232SOL    HW213596   1.375   3.954   1.491
 4233SOL     OW13597   4.950   5.366   1.164
 4233SOL    HW113598   4.939   5.390   1.261
 4233SOL    HW213599   4.861   5.340   1.127
 4234SOL     OW13600   3.960   3.490   5.944
 4234SOL    HW113601   3.973   3.454   6.036
 4234SOL    HW213602   3.945   3.414   5.881
 4235SOL     OW13603   0.664   4.131   4.633
 4235SOL    HW113604   0.627   4.110   4.723
 4235SOL    HW213605   0.763   4.113   4.632
 4236SOL     OW13606   1.091   3.509   4.446
 4236SOL    HW113607   1.049   3.419   4.438
 4236SOL    HW213608   1.020   3.579   4.456
 4237SOL     OW13609   4.948   3.375   5.466
 4237SOL    HW113610   4.973   3.388   5.370
 4237SOL    HW213611   4.953   3.277   5.489
 4238SOL     OW13612   4.803   4.744   5.129
 4238SOL    HW113613   4.857   4.671   5.171
 4238SOL    HW213614   4.845   4.833   5.150
 4239SOL     OW13615   5.216   4.819   5.254
 4239SOL    HW113616   5.314   4.802   5.267
 4239SOL    HW213617   5.178   4.858   5.338
 4240SOL     OW13618   2.335   4.590   6.348
 4240SOL    HW113619   2.299   4.536   6.272
 4240SOL    HW213620   2.429   4.562   6.367
 4241SOL     OW13621   3.170   2.249   0.599
 4241SOL    HW113622   3.165   2.229   0.501
 4241SOL    HW213623   3.266   2.256   0.626
 4242SOL     OW13624   2.726   0.325   2.030
 4242SOL    HW113625   2.701   0.305   1.935
 4242SOL    HW213626   2.718   0.424   2.047
 4243SOL     OW13627   1.840   2.035   2.033
 4243SOL    HW113628   1.891   1.976   2.096
 4243SOL    HW213629   1.778   2.093   2.085
 4244SOL     OW13630   2.567   0.140   0.934
 4244SOL    HW113631   2.485   0.197   0.946
 4244SOL    HW213632   2.542   0.043   0.943
 4245SOL     OW13633   0.534   1.413   1.211
 4245SOL    HW113634   0.626   1.414   1.250
 4245SOL    HW213635   0.467   1.431   1.283
 4246SOL     OW13636   3.322   2.129   3.493
 4246SOL    HW113637   3.342   2.134   3.395
 4246SOL    HW213638   3.407   2.134   3.545
 4247SOL     OW13639   2.794   5.141   6.706
 4247SOL    HW113640   2.818   5.082   6.783
 4247SOL    HW213641   2.735   5.216   6.738
 4248SOL     OW13642   2.531   6.934   2.116
 4248SOL    HW113643   2.455   6.880   2.079
 4248SOL    HW213644   2.605   6.873   2.143
 4249SOL     OW13645   6.451   1.196   5.236
 4249SOL    HW113646   6.471   1.101   5.213
 4249SOL    HW213647   6.422   1.245   5.154
 4250SOL     OW13648   0.717   5.356   4.481
 4250SOL    HW113649   0.743   5.345   4.577
 4250SOL    HW213650   0.630   5.309   4.464
 4251SOL     OW13651   4.664   2.087   5.308
 4251SOL    HW113652   4.727   2.010   5.318
 4251SOL    HW213653   4.702   2.154   5.245
 4252SOL     OW13654   0.719   6.920   6.483
 4252SOL    HW113655   0.710   6.868   6.398
 4252SOL    HW213656   0.682   6.867   6.559
 4253SOL     OW13657   3.774   0.009   2.646
 4253SOL    HW113658   3.764   0.025   2.744
 4253SOL    HW213659   3.745   0.091   2.597
 4254SOL     OW13660   1.078   0.685   4.994
 4254SOL    HW113661   1.118   0.657   4.907
 4254SOL    HW213662   1.056   0.782   4.991
 4255SOL     OW13663   1.655   3.098   4.531
 4255SOL    HW113664   1.676   3.165   4.460
 4255SOL    HW213665   1.556   3.082   4.533
 4256SOL     OW13666   5.923   5.909   1.163
 4256SOL    HW113667   6.002   5.964   1.134
 4256SOL    HW213668   5.839   5.963   1.151
 4257SOL     OW13669   0.074   1.149   2.440
 4257SOL    HW113670   7.018   1.204   2.465
 4257SOL    HW213671   0.089   1.078   2.509
 4258SOL     OW13672   2.422   6.460   0.960
 4258SOL    HW113673   2.467   6.419   0.881
 4258SOL    HW213674   2.333   6.498   0.932
 4259SOL     OW13675   1.373   0.322   7.005
 4259SOL    HW113676   1.355   0.387   6.931
 4259SOL    HW213677   1.354   0.229   6.974
 4260SOL     OW13678   0.017   0.454   5.519
 4260SOL    HW113679   0.034   0.374   5.461
 4260SOL    HW213680   0.057   0.439   5.609
 4261SOL     OW13681   2.112   6.763   3.267
 4261SOL    HW113682   2.106   6.861   3.248
 4261SOL    HW213683   2.046   6.714   3.210
 4262SOL     OW13684   1.547   4.290   4.390
 4262SOL    HW113685   1.578   4.247   4.305
 4262SOL    HW213686   1.448   4.279   4.398
 4263SOL     OW13687   3.173   0.770   2.432
 4263SOL    HW113688   3.130   0.749   2.520
 4263SOL    HW213689   3.105   0.808   2.369
 4264SOL     OW13690   4.147   2.298   6.329
 4264SOL    HW113691   4.059   2.343   6.315
 4264SOL    HW213692   4.135   2.219   6.389
 4265SOL     OW13693   3.434   6.173   6.415
 4265SOL    HW113694   3.339   6.200   6.428
 4265SOL    HW213695   3.440   6.103   6.344
 4266SOL     OW13696   1.310   3.732   2.933
 4266SOL    HW113697   1.353   3.645   2.909
 4266SOL    HW213698   1.378   3.792   2.976
 4267SOL     OW13699   1.661   3.687   3.603
 4267SOL    HW113700   1.622   3.632   3.677
 4267SOL    HW213701   1.632   3.651   3.515
 4268SOL     OW13702   1.444   4.543   5.271
 4268SOL    HW113703   1.481   4.466   5.220
 4268SOL    HW213704   1.492   4.552   5.358
 4269SOL     OW13705   1.867   1.850   4.327
 4269SOL    HW113706   1.846   1.792   4.248
 4269SOL    HW213707   1.902   1.938   4.296
 4270SOL     OW13708   4.059   4.210   1.100
 4270SOL    HW113709   4.110   4.174   1.178
 4270SOL    HW213710   3.976   4.155   1.087
 4271SOL     OW13711   6.326   0.137   0.120
 4271SOL    HW113712   6.239   0.096   0.093
 4271SOL    HW213713   6.327   0.153   0.218
 4272SOL     OW13714   6.528   2.185   5.789
 4272SOL    HW113715   6.540   2.285   5.794
 4272SOL    HW213716   6.589   2.148   5.720
 4273SOL     OW13717   3.420   6.423   3.903
 4273SOL    HW113718   3.353   6.423   3.829
 4273SOL    HW213719   3.458   6.331   3.913
 4274SOL     OW13720   6.515   0.637   1.858
 4274SOL    HW113721   6.609   0.606   1.874
 4274SOL    HW213722   6.461   0.562   1.820
 4275SOL     OW13723   5.770   1.544   4.365
 4275SOL    HW113724   5.674   1.537   4.338
 4275SOL    HW213725   5.787   1.635   4.403
 4276SOL     OW13726   2.144   1.044   2.848
 4276SOL    HW113727   2.058   1.093   2.854
 4276SOL    HW213728   2.174   1.016   2.939
 4277SOL     OW13729   6.440   4.670   2.936
 4277SOL    HW113730   6.514   4.734   2.917
 4277SOL    HW213731   6.363   4.720   2.978
 4278SOL     OW13732   0.664   6.742   1.623
 4278SOL    HW113733   0.615   6.793   1.552
 4278SOL    HW213734   0.647   6.644   1.611
 4279SOL     OW13735   1.469   3.530   2.860
 4279SOL    HW113736   1.527   3.545   2.781
 4279SOL    HW213737   1.503   3.451   2.912
 4280SOL     OW13738   2.829   6.713   6.285
 4280SOL    HW113739   2.802   6.683   6.193
 4280SOL    HW213740   2.765   6.676   6.352
 4281SOL     OW13741   6.667   6.615   2.757
 4281SOL    HW113742   6.766   6.606   2.763
 4281SOL    HW213743   6.640   6.628   2.662
 4282SOL     OW13744   5.045   4.751   2.295
 4282SOL    HW113745   5.031   4.834   2.242
 4282SOL    HW213746   5.024   4.671   2.238
 4283SOL     OW13747   6.974   1.662   5.299
 4283SOL    HW113748   6.898   1.709   5.254
 4283SOL    HW213749   0.035   1.679   5.247
 4284SOL     OW13750   4.948   6.337   0.070
 4284SOL    HW113751   4.970   6.360   0.164
 4284SOL    HW213752   4.992   6.251   0.044
 4285SOL     OW13753   2.976   1.731   6.187
 4285SOL    HW113754   2.904   1.674   6.148
 4285SOL    HW213755   2.937   1.817   6.219
 4286SOL     OW13756   5.491   6.727   6.615
 4286SOL    HW113757   5.452   6.819   6.607
 4286SOL    HW213758   5.428   6.660   6.575
 4287SOL     OW13759   4.537   7.002   0.647
 4287SOL    HW113760   4.515   0.059   0.592
 4287SOL    HW213761   4.498   7.014   0.739
 4288SOL     OW13762   6.614   6.590   2.444
 4288SOL    HW113763   6.554   6.509   2.441
 4288SOL    HW213764   6.587   6.653   2.371
 4289SOL     OW13765   0.178   4.542   5.969
 4289SOL    HW113766   0.205   4.610   6.036
 4289SOL    HW213767   0.081   4.521   5.978
 4290SOL     OW13768   6.978   0.906   2.867
 4290SOL    HW113769   0.014   0.891   2.946
 4290SOL    HW213770   6.883   0.891   2.894
 4291SOL     OW13771   4.734   4.834   5.637
 4291SOL    HW113772   4.686   4.817   5.723
 4291SOL    HW213773   4.695   4.775   5.566
 4292SOL     OW13774   6.311   0.209   0.394
 4292SOL    HW113775   6.384   0.148   0.425
 4292SOL    HW213776   6.226   0.184   0.441
 4293SOL     OW13777   4.239   2.260   5.957
 4293SOL    HW113778   4.196   2.170   5.966
 4293SOL    HW213779   4.293   2.280   6.038
 4294SOL     OW13780   2.871   1.928   0.277
 4294SOL    HW113781   2.909   1.875   0.202
 4294SOL    HW213782   2.787   1.885   0.309
 4295SOL     OW13783   4.115   6.775   2.748
 4295SOL    HW113784   4.020   6.748   2.731
 4295SOL    HW213785   4.131   6.867   2.711
 4296SOL     OW13786   1.920   5.319   1.733
 4296SOL    HW113787   2.020   5.315   1.739
 4296SOL    HW213788   1.888   5.407   1.768
 4297SOL     OW13789   5.039   4.235   0.385
 4297SOL    HW113790   5.034   4.273   0.293
 4297SOL    HW213791   4.949   4.207   0.415
 4298SOL     OW13792   1.973   6.425   0.671
 4298SOL    HW113793   2.017   6.366   0.739
 4298SOL    HW213794   1.874   6.408   0.671
 4299SOL     OW13795   0.079   3.392   6.907
 4299SOL    HW113796   0.048   3.351   6.821
 4299SOL    HW213797   7.022   3.407   6.967
 4300SOL     OW13798   3.780   0.761   2.206
 4300SOL    HW113799   3.877   0.787   2.212
 4300SOL    HW213800   3.734   0.788   2.290
 4301SOL     OW13801   1.755   6.035   4.653
 4301SOL    HW113802   1.735   6.054   4.749
 4301SOL    HW213803   1.698   5.960   4.621
 4302SOL     OW13804   3.774   4.902   0.018
 4302SOL    HW113805   3.693   4.894   6.983
 4302SOL    HW213806   3.856   4.887   6.985
 4303SOL     OW13807   4.816   4.958   3.520
 4303SOL    HW113808   4.903   4.925   3.557
 4303SOL    HW213809   4.762   4.880   3.489
 4304SOL     OW13810   3.097   4.118   1.347
 4304SOL    HW113811   3.185   4.102   1.304
 4304SOL    HW213812   3.076   4.215   1.346
 4305SOL     OW13813   0.962   6.804   6.059
 4305SOL    HW113814   0.956   6.902   6.077
 4305SOL    HW213815   0.878   6.773   6.014
 4306SOL     OW13816   6.385   3.852   4.905
 4306SOL    HW113817   6.473   3.855   4.856
 4306SOL    HW213818   6.375   3.936   4.959
 4307SOL     OW13819   6.644   2.050   4.111
 4307SOL    HW113820   6.613   1.961   4.078
 4307SOL    HW213821   6.669   2.044   4.207
 4308SOL     OW13822   4.809   5.428   5.705
 4308SOL    HW113823   4.714   5.403   5.725
 4308SOL    HW213824   4.828   5.518   5.744
 4309SOL     OW13825   2.247   1.883   0.650
 4309SOL    HW113826   2.247   1.879   0.550
 4309SOL    HW213827   2.174   1.944   0.681
 4310SOL     OW13828   6.396   1.127   4.831
 4310SOL    HW113829   6.452   1.195   4.784
 4310SOL    HW213830   6.315   1.106   4.776
 4311SOL     OW13831   1.013   6.656   1.105
 4311SOL    HW113832   0.957   6.672   1.024
 4311SOL    HW213833   0.963   6.684   1.187
 4312SOL     OW13834   0.621   3.254   2.672
 4312SOL    HW113835   0.690   3.325   2.686
 4312SOL    HW213836   0.552   3.287   2.608
 4313SOL     OW13837   0.256   3.384   0.732
 4313SOL    HW113838   0.202   3.312   0.689
 4313SOL    HW213839   0.278   3.454   0.664
 4314SOL     OW13840   2.422   2.279   5.668
 4314SOL    HW113841   2.362   2.350   5.631
 4314SOL    HW213842   2.503   2.270   5.610
 4315SOL     OW13843   2.541   2.597   5.454
 4315SOL    HW113844   2.590   2.565   5.373
 4315SOL    HW213845   2.491   2.520   5.494
 4316SOL     OW13846   4.469   4.123   1.365
 4316SOL    HW113847   4.539   4.123   1.294
 4316SOL    HW213848   4.497   4.186   1.438
 4317SOL     OW13849   4.772   0.693   3.800
 4317SOL    HW113850   4.710   0.697   3.878
 4317SOL    HW213851   4.853   0.749   3.820
 4318SOL     OW13852   2.181   5.699   4.047
 4318SOL    HW113853   2.230   5.653   3.974
 4318SOL    HW213854   2.215   5.793   4.056
 4319SOL     OW13855   2.202   4.965   1.238
 4319SOL    HW113856   2.232   4.940   1.330
 4319SOL    HW213857   2.135   5.039   1.244
 4320SOL     OW13858   4.455   1.384   1.833
 4320SOL    HW113859   4.424   1.300   1.876
 4320SOL    HW213860   4.424   1.386   1.737
 4321SOL     OW13861   6.827   6.162   3.665
 4321SOL    HW113862   6.756   6.127   3.604
 4321SOL    HW213863   6.792   6.164   3.759
 4322SOL     OW13864   2.514   2.301   3.972
 4322SOL    HW113865   2.471   2.272   3.887
 4322SOL    HW213866   2.494   2.398   3.988
 4323SOL     OW13867   5.753   3.784   1.908
 4323SOL    HW113868   5.691   3.748   1.977
 4323SOL    HW213869   5.705   3.854   1.855
 4324SOL     OW13870   6.353   3.994   5.286
 4324SOL    HW113871   6.309   3.904   5.284
 4324SOL    HW213872   6.352   4.034   5.195
 4325SOL     OW13873   1.522   0.524   0.782
 4325SOL    HW113874   1.606   0.473   0.766
 4325SOL    HW213875   1.544   0.612   0.824
 4326SOL     OW13876   5.550   2.919   1.946
 4326SOL    HW113877   5.451   2.907   1.961
 4326SOL    HW213878   5.597   2.921   2.034
 4327SOL     OW13879   3.287   6.452   4.153
 4327SOL    HW113880   3.335   6.471   4.067
 4327SOL    HW213881   3.266   6.354   4.158
 4328SOL     OW13882   6.012   0.088   1.943
 4328SOL    HW113883   5.935   0.135   1.901
 4328SOL    HW213884   6.081   0.068   1.874
 4329SOL     OW13885   6.356   4.058   0.333
 4329SOL    HW113886   6.288   4.127   0.357
 4329SOL    HW213887   6.437   4.069   0.391
 4330SOL     OW13888   2.887   6.091   5.210
 4330SOL    HW113889   2.813   6.092   5.143
 4330SOL    HW213890   2.891   6.180   5.256
 4331SOL     OW13891   5.977   1.334   2.949
 4331SOL    HW113892   5.992   1.280   2.867
 4331SOL    HW213893   5.898   1.394   2.936
 4332SOL     OW13894   6.869   5.985   1.462
 4332SOL    HW113895   6.888   5.952   1.370
 4332SOL    HW213896   6.835   6.079   1.458
 4333SOL     OW13897   3.557   3.126   5.804
 4333SOL    HW113898   3.482   3.063   5.821
 4333SOL    HW213899   3.525   3.199   5.743
 4334SOL     OW13900   0.784   1.519   3.819
 4334SOL    HW113901   0.729   1.600   3.839
 4334SOL    HW213902   0.734   1.459   3.757
 4335SOL     OW13903   2.330   2.663   1.615
 4335SOL    HW113904   2.407   2.727   1.612
 4335SOL    HW213905   2.360   2.573   1.584
 4336SOL     OW13906   2.568   5.700   5.060
 4336SOL    HW113907   2.543   5.797   5.063
 4336SOL    HW213908   2.545   5.663   4.970
 4337SOL     OW13909   6.829   4.486   4.286
 4337SOL    HW113910   6.838   4.420   4.361
 4337SOL    HW213911   6.889   4.564   4.302
 4338SOL     OW13912   3.554   3.314   5.603
 4338SOL    HW113913   3.497   3.373   5.545
 4338SOL    HW213914   3.578   3.231   5.552
 4339SOL     OW13915   3.772   3.780   5.291
 4339SOL    HW113916   3.687   3.739   5.325
 4339SOL    HW213917   3.791   3.745   5.199
 4340SOL     OW13918   0.083   4.493   0.381
 4340SOL    HW113919   0.021   4.430   0.336
 4340SOL    HW213920   0.177   4.460   0.372
 4341SOL     OW13921   6.227   6.638   1.736
 4341SOL    HW113922   6.321   6.672   1.749
 4341SOL    HW213923   6.163   6.703   1.776
 4342SOL     OW13924   4.998   3.561   2.118
 4342SOL    HW113925   4.970   3.585   2.211
 4342SOL    HW213926   5.024   3.465   2.115
 4343SOL     OW13927   5.040   6.905   6.171
 4343SOL    HW113928   4.974   6.830   6.177
 4343SOL    HW213929   5.035   6.961   6.254
 4344SOL     OW13930   1.352   4.108   2.402
 4344SOL    HW113931   1.357   4.207   2.388
 4344SOL    HW213932   1.436   4.076   2.446
 4345SOL     OW13933   4.096   3.276   2.451
 4345SOL    HW113934   4.086   3.212   2.527
 4345SOL    HW213935   4.056   3.364   2.477
 4346SOL     OW13936   1.286   3.219   2.077
 4346SOL    HW113937   1.331   3.308   2.069
 4346SOL    HW213938   1.297   3.169   1.991
 4347SOL     OW13939   5.954   6.206   1.231
 4347SOL    HW113940   5.885   6.254   1.176
 4347SOL    HW213941   5.939   6.227   1.327
 4348SOL     OW13942   6.409   4.170   6.006
 4348SOL    HW113943   6.440   4.195   6.098
 4348SOL    HW213944   6.471   4.103   5.966
 4349SOL     OW13945   0.630   3.677   3.810
 4349SOL    HW113946   0.672   3.640   3.893
 4349SOL    HW213947   0.687   3.751   3.774
 4350SOL     OW13948   5.225   0.062   4.475
 4350SOL    HW113949   5.148   0.061   4.540
 4350SOL    HW213950   5.195   0.022   4.388
 4351SOL     OW13951   0.234   6.439   1.068
 4351SOL    HW113952   0.283   6.352   1.075
 4351SOL    HW213953   0.211   6.456   0.972
 4352SOL     OW13954   3.966   4.411   1.399
 4352SOL    HW113955   4.034   4.484   1.400
 4352SOL    HW213956   3.996   4.337   1.460
 4353SOL     OW13957   2.241   3.644   0.207
 4353SOL    HW113958   2.222   3.545   0.203
 4353SOL    HW213959   2.269   3.676   0.117
 4354SOL     OW13960   6.159   4.707   3.032
 4354SOL    HW113961   6.152   4.660   2.945
 4354SOL    HW213962   6.116   4.798   3.025
 4355SOL     OW13963   2.078   5.072   3.910
 4355SOL    HW113964   2.045   4.983   3.942
 4355SOL    HW213965   2.011   5.112   3.847
 4356SOL     OW13966   5.971   1.626   5.808
 4356SOL    HW113967   6.056   1.666   5.842
 4356SOL    HW213968   5.951   1.543   5.859
 4357SOL     OW13969   5.296   5.794   2.950
 4357SOL    HW113970   5.314   5.758   2.859
 4357SOL    HW213971   5.204   5.834   2.953
 4358SOL     OW13972   3.617   0.602   1.301
 4358SOL    HW113973   3.664   0.690   1.306
 4358SOL    HW213974   3.518   0.617   1.312
 4359SOL     OW13975   3.086   3.569   1.714
 4359SOL    HW113976   3.181   3.544   1.735
 4359SOL    HW213977   3.045   3.498   1.657
 4360SOL     OW13978   2.434   6.561   3.580
 4360SOL    HW113979   2.429   6.526   3.487
 4360SOL    HW213980   2.473   6.492   3.641
 4361SOL     OW13981   1.833   0.609   6.489
 4361SOL    HW113982   1.895   0.579   6.416
 4361SOL    HW213983   1.882   0.673   6.549
 4362SOL     OW13984   6.119   5.283   2.188
 4362SOL    HW113985   6.180   5.351   2.147
 4362SOL    HW213986   6.170   5.198   2.204
 4363SOL     OW13987   4.444   0.086   2.543
 4363SOL    HW113988   4.408   7.023   2.577
 4363SOL    HW213989   4.370   0.153   2.533
 4364SOL     OW13990   3.284   3.307   3.054
 4364SOL    HW113991   3.189   3.296   3.086
 4364SOL    HW213992   3.332   3.221   3.064
 4365SOL     OW13993   2.190   1.253   0.783
 4365SOL    HW113994   2.099   1.237   0.821
 4365SOL    HW213995   2.238   1.320   0.839
 4366SOL     OW13996   4.804   5.580   4.738
 4366SOL    HW113997   4.793   5.679   4.739
 4366SOL    HW213998   4.757   5.540   4.817
 4367SOL     OW13999   1.720   6.933   1.574
 4367SOL    HW114000   1.683   7.015   1.618
 4367SOL    HW214001   1.681   6.852   1.616
 4368SOL     OW14002   5.090   5.562   4.172
 4368SOL    HW114003   5.055   5.619   4.246
 4368SOL    HW214004   5.019   5.497   4.143
 4369SOL     OW14005   6.751   3.939   4.550
 4369SOL    HW114006   6.754   3.878   4.629
 4369SOL    HW214007   6.660   3.935   4.509
 4370SOL     OW14008   5.537   4.291   1.319
 4370SOL    HW114009   5.511   4.309   1.224
 4370SOL    HW214010   5.465   4.239   1.365
 4371SOL     OW14011   3.379   0.622   3.714
 4371SOL    HW114012   3.411   0.540   3.761
 4371SOL    HW214013   3.349   0.598   3.622
 4372SOL     OW14014   2.137   4.161   5.846
 4372SOL    HW114015   2.194   4.167   5.764
 4372SOL    HW214016   2.139   4.248   5.895
 4373SOL     OW14017   4.433   0.193   0.490
 4373SOL    HW114018   4.394   0.188   0.582
 4373SOL    HW214019   4.360   0.210   0.424
 4374SOL     OW14020   1.835   6.254   0.221
 4374SOL    HW114021   1.737   6.262   0.240
 4374SOL    HW214022   1.884   6.331   0.263
 4375SOL     OW14023   4.435   0.310   5.312
 4375SOL    HW114024   4.435   0.220   5.356
 4375SOL    HW214025   4.485   0.375   5.369
 4376SOL     OW14026   2.667   4.831   0.199
 4376SOL    HW114027   2.722   4.807   0.120
 4376SOL    HW214028   2.571   4.838   0.173
 4377SOL     OW14029   5.419   6.248   0.474
 4377SOL    HW114030   5.360   6.208   0.544
 4377SOL    HW214031   5.507   6.199   0.472
 4378SOL     OW14032   2.924   5.114   1.555
 4378SOL    HW114033   2.874   5.028   1.566
 4378SOL    HW214034   2.990   5.105   1.480
 4379SOL     OW14035   6.027   6.281   0.578
 4379SOL    HW114036   6.125   6.261   0.574
 4379SOL    HW214037   6.008   6.347   0.650
 4380SOL     OW14038   1.774   6.148   5.173
 4380SOL    HW114039   1.737   6.177   5.085
 4380SOL    HW214040   1.752   6.217   5.242
 4381SOL     OW14041   3.116   6.373   4.579
 4381SOL    HW114042   3.192   6.404   4.522
 4381SOL    HW214043   3.040   6.343   4.522
 4382SOL     OW14044   5.785   3.755   3.713
 4382SOL    HW114045   5.697   3.714   3.689
 4382SOL    HW214046   5.795   3.843   3.666
 4383SOL     OW14047   1.641   0.216   6.834
 4383SOL    HW114048   1.658   0.134   6.779
 4383SOL    HW214049   1.676   0.296   6.785
 4384SOL     OW14050   3.692   6.622   1.870
 4384SOL    HW114051   3.627   6.546   1.861
 4384SOL    HW214052   3.666   6.695   1.807
 4385SOL     OW14053   5.817   2.123   4.021
 4385SOL    HW114054   5.739   2.117   3.958
 4385SOL    HW214055   5.840   2.219   4.036
 4386SOL     OW14056   1.662   5.290   0.235
 4386SOL    HW114057   1.710   5.224   0.293
 4386SOL    HW214058   1.691   5.278   0.140
 4387SOL     OW14059   6.075   2.613   0.557
 4387SOL    HW114060   6.121   2.610   0.646
 4387SOL    HW214061   6.129   2.562   0.490
 4388SOL     OW14062   4.490   0.425   5.662
 4388SOL    HW114063   4.392   0.441   5.671
 4388SOL    HW214064   4.524   0.471   5.580
 4389SOL     OW14065   1.116   3.029   2.545
 4389SOL    HW114066   1.153   3.100   2.606
 4389SOL    HW214067   1.016   3.034   2.545
 4390SOL     OW14068   5.093   4.214   1.188
 4390SOL    HW114069   5.190   4.188   1.191
 4390SOL    HW214070   5.049   4.169   1.111
 4391SOL     OW14071   0.543   5.646   1.357
 4391SOL    HW114072   0.549   5.746   1.347
 4391SOL    HW214073   0.552   5.622   1.453
 4392SOL     OW14074   5.180   5.376   4.562
 4392SOL    HW114075   5.232   5.394   4.479
 4392SOL    HW214076   5.084   5.400   4.547
 4393SOL     OW14077   4.697   6.850   2.637
 4393SOL    HW114078   4.681   6.850   2.539
 4393SOL    HW214079   4.775   6.909   2.658
 4394SOL     OW14080   4.671   1.181   2.750
 4394SOL    HW114081   4.700   1.239   2.674
 4394SOL    HW214082   4.703   1.088   2.735
 4395SOL     OW14083   5.061   2.686   0.858
 4395SOL    HW114084   5.101   2.648   0.942
 4395SOL    HW214085   5.000   2.619   0.816
 4396SOL     OW14086   1.571   0.886   2.205
 4396SOL    HW114087   1.612   0.966   2.248
 4396SOL    HW214088   1.575   0.808   2.268
 4397SOL     OW14089   3.699   2.110   6.818
 4397SOL    HW114090   3.754   2.048   6.761
 4397SOL    HW214091   3.719   2.205   6.794
 4398SOL     OW14092   0.646   4.657   4.808
 4398SOL    HW114093   0.558   4.658   4.761
 4398SOL    HW214094   0.671   4.751   4.833
 4399SOL     OW14095   2.784   0.747   1.713
 4399SOL    HW114096   2.751   0.838   1.688
 4399SOL    HW214097   2.799   0.742   1.811
 4400SOL     OW14098   3.460   4.949   2.887
 4400SOL    HW114099   3.364   4.946   2.914
 4400SOL    HW214100   3.479   4.874   2.823
 4401SOL     OW14101   4.700   6.546   4.549
 4401SOL    HW114102   4.796   6.571   4.541
 4401SOL    HW214103   4.664   6.524   4.458
 4402SOL     OW14104   6.776   6.582   1.473
 4402SOL    HW114105   6.808   6.675   1.493
 4402SOL    HW214106   6.837   6.539   1.407
 4403SOL     OW14107   6.338   1.570   3.450
 4403SOL    HW114108   6.297   1.479   3.438
 4403SOL    HW214109   6.435   1.560   3.473
 4404SOL     OW14110   1.603   3.576   2.594
 4404SOL    HW114111   1.569   3.561   2.501
 4404SOL    HW214112   1.615   3.674   2.609
 4405SOL     OW14113   3.293   4.295   6.419
 4405SOL    HW114114   3.391   4.313   6.411
 4405SOL    HW214115   3.270   4.210   6.371
 4406SOL     OW14116   6.119   2.562   2.808
 4406SOL    HW114117   6.072   2.628   2.749
 4406SOL    HW214118   6.186   2.610   2.864
 4407SOL     OW14119   1.077   0.741   0.379
 4407SOL    HW114120   1.138   0.788   0.443
 4407SOL    HW214121   1.067   0.645   0.407
 4408SOL     OW14122   4.927   6.127   1.276
 4408SOL    HW114123   5.009   6.178   1.251
 4408SOL    HW214124   4.912   6.054   1.210
 4409SOL     OW14125   3.555   1.663   2.936
 4409SOL    HW114126   3.652   1.688   2.926
 4409SOL    HW214127   3.543   1.566   2.917
 4410SOL     OW14128   2.032   6.085   0.804
 4410SOL    HW114129   1.941   6.050   0.829
 4410SOL    HW214130   2.070   6.030   0.730
 4411SOL     OW14131   3.589   3.057   2.195
 4411SOL    HW114132   3.587   3.126   2.267
 4411SOL    HW214133   3.671   3.000   2.206
 4412SOL     OW14134   3.753   1.126   6.269
 4412SOL    HW114135   3.733   1.174   6.184
 4412SOL    HW214136   3.821   1.054   6.252
 4413SOL     OW14137   3.684   5.804   4.114
 4413SOL    HW114138   3.687   5.900   4.083
 4413SOL    HW214139   3.665   5.745   4.036
 4414SOL     OW14140   3.369   4.738   1.704
 4414SOL    HW114141   3.451   4.696   1.743
 4414SOL    HW214142   3.293   4.674   1.709
 4415SOL     OW14143   4.886   0.801   1.833
 4415SOL    HW114144   4.848   0.758   1.915
 4415SOL    HW214145   4.818   0.861   1.792
 4416SOL     OW14146   2.793   2.310   4.643
 4416SOL    HW114147   2.835   2.308   4.552
 4416SOL    HW214148   2.851   2.261   4.708
 4417SOL     OW14149   5.335   0.343   1.528
 4417SOL    HW114150   5.423   0.389   1.533
 4417SOL    HW214151   5.277   0.388   1.459
 4418SOL     OW14152   4.338   0.254   3.015
 4418SOL    HW114153   4.360   0.317   2.940
 4418SOL    HW214154   4.341   0.160   2.982
 4419SOL     OW14155   6.571   5.735   6.532
 4419SOL    HW114156   6.635   5.799   6.490
 4419SOL    HW214157   6.478   5.758   6.505
 4420SOL     OW14158   5.451   1.131   0.801
 4420SOL    HW114159   5.354   1.141   0.822
 4420SOL    HW214160   5.476   1.192   0.725
 4421SOL     OW14161   0.579   1.902   3.155
 4421SOL    HW114162   0.591   1.846   3.236
 4421SOL    HW214163   0.669   1.919   3.113
 4422SOL     OW14164   1.488   4.004   5.608
 4422SOL    HW114165   1.547   3.924   5.616
 4422SOL    HW214166   1.396   3.976   5.582
 4423SOL     OW14167   6.886   1.855   5.939
 4423SOL    HW114168   6.860   1.807   6.023
 4423SOL    HW214169   6.964   1.808   5.897
 4424SOL     OW14170   2.191   5.368   3.307
 4424SOL    HW114171   2.239   5.328   3.385
 4424SOL    HW214172   2.237   5.452   3.279
 4425SOL     OW14173   5.311   4.200   2.565
 4425SOL    HW114174   5.398   4.171   2.606
 4425SOL    HW214175   5.320   4.201   2.465
 4426SOL     OW14176   0.509   6.445   6.794
 4426SOL    HW114177   0.471   6.353   6.788
 4426SOL    HW214178   0.592   6.451   6.738
 4427SOL     OW14179   0.418   5.207   3.912
 4427SOL    HW114180   0.431   5.176   4.006
 4427SOL    HW214181   0.378   5.134   3.858
 4428SOL     OW14182   1.806   0.036   2.707
 4428SOL    HW114183   1.798   0.133   2.731
 4428SOL    HW214184   1.720   0.005   2.666
 4429SOL     OW14185   2.646   0.302   1.752
 4429SOL    HW114186   2.737   0.323   1.718
 4429SOL    HW214187   2.579   0.317   1.680
 4430SOL     OW14188   1.896   0.349   1.826
 4430SOL    HW114189   1.818   0.408   1.846
 4430SOL    HW214190   1.974   0.405   1.798
 4431SOL     OW14191   1.763   1.966   2.761
 4431SOL    HW114192   1.846   1.956   2.707
 4431SOL    HW214193   1.711   2.045   2.729
 4432SOL     OW14194   3.773   4.041   4.663
 4432SOL    HW114195   3.835   4.055   4.740
 4432SOL    HW214196   3.804   3.962   4.610
 4433SOL     OW14197   6.815   0.293   1.584
 4433SOL    HW114198   6.846   0.265   1.493
 4433SOL    HW214199   6.730   0.245   1.607
 4434SOL     OW14200   5.692   1.811   5.895
 4434SOL    HW114201   5.623   1.865   5.847
 4434SOL    HW214202   5.739   1.752   5.830
 4435SOL     OW14203   3.426   3.014   1.962
 4435SOL    HW114204   3.382   2.924   1.956
 4435SOL    HW214205   3.482   3.018   2.044
 4436SOL     OW14206   5.606   6.989   0.317
 4436SOL    HW114207   5.691   6.937   0.321
 4436SOL    HW214208   5.534   6.932   0.276
 4437SOL     OW14209   2.801   6.805   5.867
 4437SOL    HW114210   2.780   6.885   5.811
 4437SOL    HW214211   2.726   6.738   5.859
 4438SOL     OW14212   3.922   2.822   6.744
 4438SOL    HW114213   3.893   2.837   6.650
 4438SOL    HW214214   4.004   2.878   6.762
 4439SOL     OW14215   1.431   5.032   2.908
 4439SOL    HW114216   1.406   5.011   2.813
 4439SOL    HW214217   1.509   4.975   2.935
 4440SOL     OW14218   6.458   0.877   0.325
 4440SOL    HW114219   6.522   0.938   0.279
 4440SOL    HW214220   6.427   0.919   0.411
 4441SOL     OW14221   6.161   1.036   3.926
 4441SOL    HW114222   6.082   1.039   3.986
 4441SOL    HW214223   6.174   1.125   3.883
 4442SOL     OW14224   1.999   5.691   2.442
 4442SOL    HW114225   1.953   5.675   2.529
 4442SOL    HW214226   2.036   5.606   2.406
 4443SOL     OW14227   1.887   1.111   1.241
 4443SOL    HW114228   1.950   1.033   1.236
 4443SOL    HW214229   1.937   1.196   1.225
 4444SOL     OW14230   5.048   2.021   2.922
 4444SOL    HW114231   4.973   1.960   2.898
 4444SOL    HW214232   5.103   2.040   2.841
 4445SOL     OW14233   1.330   2.191   6.025
 4445SOL    HW114234   1.250   2.238   5.987
 4445SOL    HW214235   1.403   2.189   5.956
 4446SOL     OW14236   6.783   5.188   4.469
 4446SOL    HW114237   6.692   5.195   4.429
 4446SOL    HW214238   6.783   5.231   4.559
 4447SOL     OW14239   4.874   3.884   5.089
 4447SOL    HW114240   4.859   3.791   5.055
 4447SOL    HW214241   4.862   3.949   5.014
 4448SOL     OW14242   2.767   3.680   6.824
 4448SOL    HW114243   2.852   3.642   6.786
 4448SOL    HW214244   2.722   3.737   6.756
 4449SOL     OW14245   0.056   1.731   5.799
 4449SOL    HW114246   0.149   1.715   5.833
 4449SOL    HW214247   0.050   1.702   5.703
 4450SOL     OW14248   3.974   3.065   3.219
 4450SOL    HW114249   4.066   3.090   3.190
 4450SOL    HW214250   3.912   3.070   3.141
 4451SOL     OW14251   0.751   5.467   1.149
 4451SOL    HW114252   0.677   5.534   1.152
 4451SOL    HW214253   0.735   5.404   1.073
 4452SOL     OW14254   1.214   3.920   6.838
 4452SOL    HW114255   1.210   3.843   6.774
 4452SOL    HW214256   1.151   3.904   6.914
 4453SOL     OW14257   5.366   0.765   0.996
 4453SOL    HW114258   5.373   0.839   1.063
 4453SOL    HW214259   5.407   0.794   0.910
 4454SOL     OW14260   6.207   3.393   1.849
 4454SOL    HW114261   6.129   3.356   1.898
 4454SOL    HW214262   6.275   3.427   1.915
 4455SOL     OW14263   4.877   2.803   2.479
 4455SOL    HW114264   4.828   2.810   2.392
 4455SOL    HW214265   4.852   2.880   2.538
 4456SOL     OW14266   6.892   5.766   2.547
 4456SOL    HW114267   6.804   5.767   2.593
 4456SOL    HW214268   6.879   5.782   2.449
 4457SOL     OW14269   5.083   2.374   6.286
 4457SOL    HW114270   5.111   2.442   6.219
 4457SOL    HW214271   5.141   2.293   6.277
 4458SOL     OW14272   4.490   1.829   1.412
 4458SOL    HW114273   4.404   1.835   1.360
 4458SOL    HW214274   4.505   1.735   1.442
 4459SOL     OW14275   6.089   5.303   6.056
 4459SOL    HW114276   6.082   5.332   5.961
 4459SOL    HW214277   6.010   5.247   6.080
 4460SOL     OW14278   1.907   0.296   0.484
 4460SOL    HW114279   1.961   0.232   0.538
 4460SOL    HW214280   1.967   0.369   0.450
 4461SOL     OW14281   2.070   0.522   3.126
 4461SOL    HW114282   1.972   0.543   3.128
 4461SOL    HW214283   2.105   0.535   3.033
 4462SOL     OW14284   0.368   3.203   1.220
 4462SOL    HW114285   0.366   3.103   1.211
 4462SOL    HW214286   0.337   3.228   1.312
 4463SOL     OW14287   0.814   4.013   6.723
 4463SOL    HW114288   0.835   3.933   6.667
 4463SOL    HW214289   0.826   4.096   6.669
 4464SOL     OW14290   6.617   2.904   0.521
 4464SOL    HW114291   6.545   2.862   0.464
 4464SOL    HW214292   6.576   2.939   0.605
 4465SOL     OW14293   5.981   5.063   1.483
 4465SOL    HW114294   6.062   5.003   1.478
 4465SOL    HW214295   5.988   5.133   1.412
 4466SOL     OW14296   6.795   3.139   3.899
 4466SOL    HW114297   6.866   3.084   3.944
 4466SOL    HW214298   6.713   3.140   3.955
 4467SOL     OW14299   1.276   0.609   4.412
 4467SOL    HW114300   1.228   0.641   4.330
 4467SOL    HW214301   1.222   0.537   4.455
 4468SOL     OW14302   1.101   1.141   0.542
 4468SOL    HW114303   1.052   1.083   0.477
 4468SOL    HW214304   1.198   1.117   0.540
 4469SOL     OW14305   4.705   6.631   0.126
 4469SOL    HW114306   4.785   6.673   0.082
 4469SOL    HW214307   4.652   6.580   0.058
 4470SOL     OW14308   4.678   4.475   1.144
 4470SOL    HW114309   4.710   4.529   1.221
 4470SOL    HW214310   4.583   4.448   1.159
 4471SOL     OW14311   6.109   2.078   1.865
 4471SOL    HW114312   6.013   2.101   1.852
 4471SOL    HW214313   6.134   2.090   1.961
 4472SOL     OW14314   2.245   5.423   1.265
 4472SOL    HW114315   2.171   5.482   1.232
 4472SOL    HW214316   2.326   5.478   1.285
 4473SOL     OW14317   5.814   0.909   0.716
 4473SOL    HW114318   5.848   0.906   0.622
 4473SOL    HW214319   5.822   1.001   0.752
 4474SOL     OW14320   6.529   1.632   5.509
 4474SOL    HW114321   6.479   1.658   5.591
 4474SOL    HW214322   6.591   1.706   5.483
 4475SOL     OW14323   1.594   3.109   0.554
 4475SOL    HW114324   1.626   3.097   0.648
 4475SOL    HW214325   1.495   3.100   0.550
 4476SOL     OW14326   3.845   6.763   2.664
 4476SOL    HW114327   3.797   6.711   2.735
 4476SOL    HW214328   3.799   6.851   2.651
 4477SOL     OW14329   1.878   1.975   0.937
 4477SOL    HW114330   1.929   2.006   1.017
 4477SOL    HW214331   1.802   1.918   0.966
 4478SOL     OW14332   1.276   4.662   1.088
 4478SOL    HW114333   1.197   4.604   1.111
 4478SOL    HW214334   1.356   4.604   1.073
 4479SOL     OW14335   1.322   5.636   6.215
 4479SOL    HW114336   1.261   5.673   6.145
 4479SOL    HW214337   1.416   5.665   6.196
 4480SOL     OW14338   7.000   3.242   3.039
 4480SOL    HW114339   0.005   3.182   3.115
 4480SOL    HW214340   6.901   3.256   3.043
 4481SOL     OW14341   1.123   0.620   4.169
 4481SOL    HW114342   1.114   0.526   4.202
 4481SOL    HW214343   1.062   0.634   4.091
 4482SOL     OW14344   0.573   4.105   3.354
 4482SOL    HW114345   0.624   4.186   3.382
 4482SOL    HW214346   0.635   4.026   3.350
 4483SOL     OW14347   6.321   4.234   1.264
 4483SOL    HW114348   6.260   4.157   1.245
 4483SOL    HW214349   6.342   4.281   1.179
 4484SOL     OW14350   3.181   4.118   6.199
 4484SOL    HW114351   3.136   4.036   6.233
 4484SOL    HW214352   3.114   4.180   6.159
 4485SOL     OW14353   4.370   6.852   5.938
 4485SOL    HW114354   4.304   6.927   5.934
 4485SOL    HW214355   4.341   6.786   6.008
 4486SOL     OW14356   6.032   3.514   4.420
 4486SOL    HW114357   5.959   3.483   4.358
 4486SOL    HW214358   6.121   3.499   4.378
 4487SOL     OW14359   3.371   2.920   6.267
 4487SOL    HW114360   3.275   2.933   6.243
 4487SOL    HW214361   3.424   2.904   6.184
 4488SOL     OW14362   0.005   2.434   6.898
 4488SOL    HW114363   6.992   2.504   6.837
 4488SOL    HW214364   0.094   2.463   6.933
 4489SOL     OW14365   0.231   1.294   3.497
 4489SOL    HW114366   0.175   1.325   3.421
 4489SOL    HW214367   0.242   1.195   3.492
 4490SOL     OW14368   6.873   2.132   3.777
 4490SOL    HW114369   6.968   2.158   3.764
 4490SOL    HW214370   6.814   2.213   3.771
 4491SOL     OW14371   1.994   4.937   2.260
 4491SOL    HW114372   1.964   4.850   2.299
 4491SOL    HW214373   2.090   4.930   2.234
 4492SOL     OW14374   5.774   3.717   5.526
 4492SOL    HW114375   5.722   3.763   5.455
 4492SOL    HW214376   5.867   3.700   5.494
 4493SOL     OW14377   5.870   4.909   3.543
 4493SOL    HW114378   5.959   4.878   3.577
 4493SOL    HW214379   5.826   4.966   3.613
 4494SOL     OW14380   5.235   2.840   1.620
 4494SOL    HW114381   5.221   2.926   1.669
 4494SOL    HW214382   5.330   2.810   1.632
 4495SOL     OW14383   5.734   4.557   2.264
 4495SOL    HW114384   5.762   4.520   2.176
 4495SOL    HW214385   5.644   4.519   2.289
 4496SOL     OW14386   5.708   3.283   6.118
 4496SOL    HW114387   5.697   3.218   6.194
 4496SOL    HW214388   5.727   3.374   6.155
 4497SOL     OW14389   6.728   6.893   0.860
 4497SOL    HW114390   6.698   6.809   0.905
 4497SOL    HW214391   6.779   6.950   0.925
 4498SOL     OW14392   1.163   4.470   5.755
 4498SOL    HW114393   1.248   4.417   5.748
 4498SOL    HW214394   1.146   4.517   5.668
 4499SOL     OW14395   6.071   3.987   0.712
 4499SOL    HW114396   6.084   3.945   0.802
 4499SOL    HW214397   5.978   4.023   0.706
 4500SOL     OW14398   3.398   4.170   1.844
 4500SOL    HW114399   3.359   4.175   1.753
 4500SOL    HW214400   3.410   4.074   1.870
 4501SOL     OW14401   1.594   5.557   4.967
 4501SOL    HW114402   1.668   5.499   5.001
 4501SOL    HW214403   1.572   5.627   5.036
 4502SOL     OW14404   5.396   2.651   0.369
 4502SOL    HW114405   5.369   2.747   0.358
 4502SOL    HW214406   5.402   2.629   0.466
 4503SOL     OW14407   0.847   3.788   2.801
 4503SOL    HW114408   0.829   3.739   2.715
 4503SOL    HW214409   0.830   3.727   2.878
 4504SOL     OW14410   4.155   2.024   4.284
 4504SOL    HW114411   4.103   2.077   4.218
 4504SOL    HW214412   4.243   1.999   4.245
 4505SOL     OW14413   2.359   5.300   0.259
 4505SOL    HW114414   2.347   5.358   0.339
 4505SOL    HW214415   2.388   5.356   0.181
 4506SOL     OW14416   3.451   6.307   5.828
 4506SOL    HW114417   3.499   6.384   5.871
 4506SOL    HW214418   3.486   6.221   5.866
 4507SOL     OW14419   6.258   3.838   2.733
 4507SOL    HW114420   6.169   3.866   2.696
 4507SOL    HW214421   6.324   3.830   2.659
 4508SOL     OW14422   2.023   4.231   1.341
 4508SOL    HW114423   1.935   4.261   1.306
 4508SOL    HW214424   2.016   4.137   1.373
 4509SOL     OW14425   0.802   2.908   3.597
 4509SOL    HW114426   0.762   2.869   3.680
 4509SOL    HW214427   0.747   2.987   3.568
 4510SOL     OW14428   2.770   0.193   6.522
 4510SOL    HW114429   2.688   0.239   6.487
 4510SOL    HW214430   2.823   0.257   6.577
 4511SOL     OW14431   0.352   2.763   6.782
 4511SOL    HW114432   0.389   2.817   6.857
 4511SOL    HW214433   0.413   2.687   6.762
 4512SOL     OW14434   2.204   3.657   0.504
 4512SOL    HW114435   2.276   3.593   0.533
 4512SOL    HW214436   2.200   3.660   0.405
 4513SOL     OW14437   6.159   1.554   2.551
 4513SOL    HW114438   6.110   1.555   2.463
 4513SOL    HW214439   6.218   1.473   2.555
 4514SOL     OW14440   2.021   0.099   4.600
 4514SOL    HW114441   2.051   0.150   4.520
 4514SOL    HW214442   2.005   0.162   4.676
 4515SOL     OW14443   6.963   4.599   0.616
 4515SOL    HW114444   7.002   4.530   0.677
 4515SOL    HW214445   6.973   4.570   0.521
 4516SOL     OW14446   0.569   6.770   3.847
 4516SOL    HW114447   0.517   6.853   3.827
 4516SOL    HW214448   0.506   6.696   3.869
 4517SOL     OW14449   2.955   0.643   0.222
 4517SOL    HW114450   2.995   0.617   0.134
 4517SOL    HW214451   2.976   0.739   0.242
 4518SOL     OW14452   0.982   0.825   3.619
 4518SOL    HW114453   0.945   0.857   3.706
 4518SOL    HW214454   1.081   0.812   3.627
 4519SOL     OW14455   6.975   2.230   4.186
 4519SOL    HW114456   6.961   2.288   4.106
 4519SOL    HW214457   7.015   2.143   4.158
 4520SOL     OW14458   6.831   3.766   2.870
 4520SOL    HW114459   6.741   3.806   2.885
 4520SOL    HW214460   6.863   3.723   2.955
 4521SOL     OW14461   5.357   1.437   6.421
 4521SOL    HW114462   5.342   1.340   6.442
 4521SOL    HW214463   5.317   1.494   6.493
 4522SOL     OW14464   5.394   6.824   3.680
 4522SOL    HW114465   5.362   6.866   3.765
 4522SOL    HW214466   5.433   6.894   3.621
 4523SOL     OW14467   4.806   2.242   5.543
 4523SOL    HW114468   4.711   2.273   5.546
 4523SOL    HW214469   4.836   2.235   5.447
 4524SOL     OW14470   5.634   1.540   5.523
 4524SOL    HW114471   5.537   1.566   5.524
 4524SOL    HW214472   5.660   1.511   5.431
 4525SOL     OW14473   0.213   1.141   4.174
 4525SOL    HW114474   0.120   1.178   4.174
 4525SOL    HW214475   0.276   1.211   4.207
 4526SOL     OW14476   2.664   1.887   0.979
 4526SOL    HW114477   2.624   1.795   0.985
 4526SOL    HW214478   2.651   1.922   0.886
 4527SOL     OW14479   4.690   6.749   3.434
 4527SOL    HW114480   4.621   6.820   3.449
 4527SOL    HW214481   4.780   6.785   3.459
 4528SOL     OW14482   4.345   0.515   6.476
 4528SOL    HW114483   4.382   0.552   6.562
 4528SOL    HW214484   4.408   0.537   6.401
 4529SOL     OW14485   2.865   6.942   4.257
 4529SOL    HW114486   2.769   6.937   4.284
 4529SOL    HW214487   2.907   0.002   4.295
 4530SOL     OW14488   6.544   2.261   3.984
 4530SOL    HW114489   6.613   2.202   4.025
 4530SOL    HW214490   6.461   2.209   3.966
 4531SOL     OW14491   0.192   3.906   3.849
 4531SOL    HW114492   0.106   3.875   3.810
 4531SOL    HW214493   0.260   3.834   3.842
 4532SOL     OW14494   0.374   2.088   0.525
 4532SOL    HW114495   0.341   2.075   0.619
 4532SOL    HW214496   0.446   2.157   0.524
 4533SOL     OW14497   3.480   6.135   2.264
 4533SOL    HW114498   3.577   6.125   2.241
 4533SOL    HW214499   3.460   6.231   2.285
 4534SOL     OW14500   6.652   4.224   6.369
 4534SOL    HW114501   6.675   4.170   6.450
 4534SOL    HW214502   6.689   4.317   6.380
 4535SOL     OW14503   4.619   2.314   2.642
 4535SOL    HW114504   4.522   2.329   2.625
 4535SOL    HW214505   4.666   2.296   2.555
 4536SOL     OW14506   6.661   0.182   3.541
 4536SOL    HW114507   6.647   0.083   3.546
 4536SOL    HW214508   6.663   0.220   3.633
 4537SOL     OW14509   5.147   3.152   5.386
 4537SOL    HW114510   5.102   3.083   5.329
 4537SOL    HW214511   5.181   3.110   5.469
 4538SOL     OW14512   3.584   2.211   1.490
 4538SOL    HW114513   3.537   2.193   1.576
 4538SOL    HW214514   3.677   2.173   1.494
 4539SOL     OW14515   2.535   3.714   1.009
 4539SOL    HW114516   2.604   3.706   1.081
 4539SOL    HW214517   2.541   3.804   0.967
 4540SOL     OW14518   3.882   3.217   4.479
 4540SOL    HW114519   3.824   3.283   4.527
 4540SOL    HW214520   3.876   3.128   4.524
 4541SOL     OW14521   6.296   0.838   1.509
 4541SOL    HW114522   6.241   0.799   1.583
 4541SOL    HW214523   6.389   0.854   1.543
 4542SOL     OW14524   5.424   6.354   3.463
 4542SOL    HW114525   5.487   6.365   3.540
 4542SOL    HW214526   5.459   6.282   3.402
 4543SOL     OW14527   5.227   2.424   2.729
 4543SOL    HW114528   5.325   2.425   2.707
 4543SOL    HW214529   5.210   2.486   2.805
 4544SOL     OW14530   5.379   4.786   0.186
 4544SOL    HW114531   5.459   4.741   0.225
 4544SOL    HW214532   5.357   4.867   0.240
 4545SOL     OW14533   4.718   3.347   0.641
 4545SOL    HW114534   4.679   3.263   0.606
 4545SOL    HW214535   4.749   3.404   0.565
 4546SOL     OW14536   0.819   5.940   0.319
 4546SOL    HW114537   0.788   5.951   0.413
 4546SOL    HW214538   0.884   5.864   0.314
 4547SOL     OW14539   4.452   1.295   2.528
 4547SOL    HW114540   4.420   1.249   2.610
 4547SOL    HW214541   4.541   1.258   2.500
 4548SOL     OW14542   0.859   3.169   4.637
 4548SOL    HW114543   0.796   3.228   4.687
 4548SOL    HW214544   0.913   3.116   4.703
 4549SOL     OW14545   5.978   1.245   2.679
 4549SOL    HW114546   5.943   1.151   2.670
 4549SOL    HW214547   5.906   1.310   2.656
 4550SOL     OW14548   2.186   5.224   5.281
 4550SOL    HW114549   2.200   5.242   5.378
 4550SOL    HW214550   2.105   5.167   5.270
 4551SOL     OW14551   6.209   3.329   0.789
 4551SOL    HW114552   6.131   3.272   0.765
 4551SOL    HW214553   6.242   3.305   0.880
 4552SOL     OW14554   6.981   3.742   5.065
 4552SOL    HW114555   6.883   3.745   5.089
 4552SOL    HW214556   0.007   3.808   5.121
 4553SOL     OW14557   5.448   5.560   6.924
 4553SOL    HW114558   5.507   5.628   6.879
 4553SOL    HW214559   5.365   5.547   6.870
 4554SOL     OW14560   6.677   6.303   4.297
 4554SOL    HW114561   6.762   6.290   4.246
 4554SOL    HW214562   6.666   6.230   4.365
 4555SOL     OW14563   3.762   2.823   0.105
 4555SOL    HW114564   3.812   2.886   0.164
 4555SOL    HW214565   3.687   2.872   0.060
 4556SOL     OW14566   3.957   0.585   4.921
 4556SOL    HW114567   3.973   0.486   4.926
 4556SOL    HW214568   3.940   0.612   4.827
 4557SOL     OW14569   5.181   0.948   4.004
 4557SOL    HW114570   5.171   1.035   4.052
 4557SOL    HW214571   5.269   0.907   4.029
 4558SOL     OW14572   0.281   3.669   6.641
 4558SOL    HW114573   0.323   3.755   6.612
 4558SOL    HW214574   0.333   3.631   6.717
 4559SOL     OW14575   1.729   6.428   1.603
 4559SOL    HW114576   1.693   6.522   1.603
 4559SOL    HW214577   1.764   6.406   1.694
 4560SOL     OW14578   5.822   2.556   3.443
 4560SOL    HW114579   5.759   2.527   3.372
 4560SOL    HW214580   5.770   2.582   3.525
 4561SOL     OW14581   2.511   6.023   6.800
 4561SOL    HW114582   2.575   6.070   6.861
 4561SOL    HW214583   2.494   6.079   6.720
 4562SOL     OW14584   3.211   4.224   5.526
 4562SOL    HW114585   3.201   4.180   5.437
 4562SOL    HW214586   3.129   4.278   5.545
 4563SOL     OW14587   5.513   3.009   6.577
 4563SOL    HW114588   5.413   3.008   6.582
 4563SOL    HW214589   5.545   2.919   6.549
 4564SOL     OW14590   6.727   5.154   6.941
 4564SOL    HW114591   6.789   5.205   6.881
 4564SOL    HW214592   6.781   5.088   6.994
 4565SOL     OW14593   3.691   0.986   4.351
 4565SOL    HW114594   3.600   1.015   4.320
 4565SOL    HW214595   3.693   0.887   4.360
 4566SOL     OW14596   1.907   0.437   0.943
 4566SOL    HW114597   1.992   0.398   0.979
 4566SOL    HW214598   1.834   0.425   1.010
 4567SOL     OW14599   5.677   2.427   0.706
 4567SOL    HW114600   5.602   2.487   0.677
 4567SOL    HW214601   5.685   2.431   0.806
 4568SOL     OW14602   4.293   4.651   3.985
 4568SOL    HW114603   4.214   4.694   3.940
 4568SOL    HW214604   4.280   4.655   4.085
 4569SOL     OW14605   2.146   1.703   3.820
 4569SOL    HW114606   2.182   1.766   3.889
 4569SOL    HW214607   2.054   1.730   3.794
 4570SOL     OW14608   5.351   5.751   5.211
 4570SOL    HW114609   5.379   5.846   5.223
 4570SOL    HW214610   5.262   5.748   5.165
 4571SOL     OW14611   3.868   3.000   4.036
 4571SOL    HW114612   3.952   3.054   4.029
 4571SOL    HW214613   3.819   3.027   4.118
 4572SOL     OW14614   2.984   5.420   0.917
 4572SOL    HW114615   3.054   5.408   0.988
 4572SOL    HW214616   3.025   5.464   0.837
 4573SOL     OW14617   4.872   7.019   1.453
 4573SOL    HW114618   4.920   6.956   1.392
 4573SOL    HW214619   4.928   0.078   1.466
 4574SOL     OW14620   6.994   4.806   2.192
 4574SOL    HW114621   0.023   4.747   2.254
 4574SOL    HW214622   0.007   4.899   2.198
 4575SOL     OW14623   6.394   5.713   1.595
 4575SOL    HW114624   6.382   5.647   1.669
 4575SOL    HW214625   6.424   5.666   1.513
 4576SOL     OW14626   3.552   6.235   4.446
 4576SOL    HW114627   3.617   6.300   4.404
 4576SOL    HW214628   3.460   6.255   4.413
 4577SOL     OW14629   2.535   4.508   3.611
 4577SOL    HW114630   2.533   4.445   3.533
 4577SOL    HW214631   2.475   4.473   3.683
 4578SOL     OW14632   5.915   6.391   3.613
 4578SOL    HW114633   5.963   6.383   3.700
 4578SOL    HW214634   5.854   6.470   3.616
 4579SOL     OW14635   4.445   1.803   3.070
 4579SOL    HW114636   4.397   1.869   3.128
 4579SOL    HW214637   4.429   1.825   2.974
 4580SOL     OW14638   0.517   4.899   0.155
 4580SOL    HW114639   0.568   4.832   0.209
 4580SOL    HW214640   0.563   4.914   0.068
 4581SOL     OW14641   3.404   5.615   4.382
 4581SOL    HW114642   3.373   5.530   4.339
 4581SOL    HW214643   3.403   5.688   4.315
 4582SOL     OW14644   4.905   6.434   3.068
 4582SOL    HW114645   5.002   6.421   3.088
 4582SOL    HW214646   4.872   6.516   3.115
 4583SOL     OW14647   3.683   6.521   5.285
 4583SOL    HW114648   3.721   6.460   5.216
 4583SOL    HW214649   3.583   6.522   5.277
 4584SOL     OW14650   6.682   5.148   5.788
 4584SOL    HW114651   6.782   5.146   5.780
 4584SOL    HW214652   6.649   5.059   5.819
 4585SOL     OW14653   3.064   6.551   2.205
 4585SOL    HW114654   3.025   6.635   2.243
 4585SOL    HW214655   3.103   6.496   2.278
 4586SOL     OW14656   1.869   6.182   1.541
 4586SOL    HW114657   1.875   6.092   1.585
 4586SOL    HW214658   1.779   6.222   1.558
 4587SOL     OW14659   3.497   4.862   1.186
 4587SOL    HW114660   3.500   4.811   1.272
 4587SOL    HW214661   3.502   4.797   1.110
 4588SOL     OW14662   3.327   4.150   4.652
 4588SOL    HW114663   3.403   4.085   4.656
 4588SOL    HW214664   3.362   4.240   4.624
 4589SOL     OW14665   2.066   2.103   3.377
 4589SOL    HW114666   2.040   2.177   3.439
 4589SOL    HW214667   2.144   2.131   3.322
 4590SOL     OW14668   4.510   6.191   2.731
 4590SOL    HW114669   4.460   6.105   2.721
 4590SOL    HW214670   4.504   6.222   2.826
 4591SOL     OW14671   4.545   5.995   4.836
 4591SOL    HW114672   4.607   5.934   4.887
 4591SOL    HW214673   4.487   5.940   4.776
 4592SOL     OW14674   3.176   2.487   5.601
 4592SOL    HW114675   3.197   2.583   5.584
 4592SOL    HW214676   3.167   2.439   5.513
 4593SOL     OW14677   4.912   5.329   1.802
 4593SOL    HW114678   4.853   5.386   1.859
 4593SOL    HW214679   4.867   5.241   1.785
 4594SOL     OW14680   4.018   2.097   2.269
 4594SOL    HW114681   3.919   2.091   2.253
 4594SOL    HW214682   4.055   2.175   2.220
 4595SOL     OW14683   4.227   3.109   5.561
 4595SOL    HW114684   4.244   3.138   5.655
 4595SOL    HW214685   4.289   3.158   5.499
 4596SOL     OW14686   4.376   0.918   2.516
 4596SOL    HW114687   4.327   0.929   2.429
 4596SOL    HW214688   4.473   0.934   2.502
 4597SOL     OW14689   6.833   3.650   6.469
 4597SOL    HW114690   6.791   3.740   6.482
 4597SOL    HW214691   6.789   3.604   6.391
 4598SOL     OW14692   2.756   3.985   6.774
 4598SOL    HW114693   2.666   4.023   6.756
 4598SOL    HW214694   2.766   3.967   6.872
 4599SOL     OW14695   3.145   4.629   0.740
 4599SOL    HW114696   3.129   4.703   0.674
 4599SOL    HW214697   3.204   4.560   0.697
 4600SOL     OW14698   2.347   3.611   0.818
 4600SOL    HW114699   2.252   3.600   0.847
 4600SOL    HW214700   2.407   3.606   0.897
 4601SOL     OW14701   1.994   5.215   3.173
 4601SOL    HW114702   2.069   5.278   3.195
 4601SOL    HW214703   2.010   5.127   3.218
 4602SOL     OW14704   1.569   0.176   1.660
 4602SOL    HW114705   1.472   0.156   1.646
 4602SOL    HW214706   1.579   0.267   1.701
 4603SOL     OW14707   2.766   1.630   1.409
 4603SOL    HW114708   2.710   1.565   1.358
 4603SOL    HW214709   2.859   1.594   1.419
 4604SOL     OW14710   1.319   6.806   3.181
 4604SOL    HW114711   1.304   6.903   3.161
 4604SOL    HW214712   1.326   6.794   3.280
 4605SOL     OW14713   5.290   6.684   5.684
 4605SOL    HW114714   5.343   6.750   5.737
 4605SOL    HW214715   5.271   6.721   5.593
 4606SOL     OW14716   5.871   6.371   4.575
 4606SOL    HW114717   5.892   6.299   4.510
 4606SOL    HW214718   5.787   6.418   4.547
 4607SOL     OW14719   2.983   3.300   0.678
 4607SOL    HW114720   2.909   3.234   0.693
 4607SOL    HW214721   3.071   3.252   0.682
 4608SOL     OW14722   1.915   3.277   5.823
 4608SOL    HW114723   1.969   3.194   5.810
 4608SOL    HW214724   1.968   3.357   5.794
 4609SOL     OW14725   3.404   0.094   0.553
 4609SOL    HW114726   3.364   0.062   0.468
 4609SOL    HW214727   3.502   0.112   0.540
 4610SOL     OW14728   6.353   3.732   0.613
 4610SOL    HW114729   6.449   3.744   0.586
 4610SOL    HW214730   6.326   3.637   0.599
 4611SOL     OW14731   1.615   4.897   6.331
 4611SOL    HW114732   1.588   4.993   6.341
 4611SOL    HW214733   1.713   4.888   6.348
 4612SOL     OW14734   1.505   0.669   6.461
 4612SOL    HW114735   1.552   0.744   6.507
 4612SOL    HW214736   1.504   0.589   6.520
 4613SOL     OW14737   4.018   5.077   1.545
 4613SOL    HW114738   3.985   5.038   1.631
 4613SOL    HW214739   4.117   5.063   1.537
 4614SOL     OW14740   1.936   4.262   0.688
 4614SOL    HW114741   1.926   4.361   0.695
 4614SOL    HW214742   2.030   4.236   0.710
 4615SOL     OW14743   5.921   3.030   6.403
 4615SOL    HW114744   5.911   2.934   6.427
 4615SOL    HW214745   5.928   3.085   6.486
 4616SOL     OW14746   5.538   0.792   6.646
 4616SOL    HW114747   5.616   0.806   6.585
 4616SOL    HW214748   5.461   0.754   6.595
 4617SOL     OW14749   0.523   4.285   1.727
 4617SOL    HW114750   0.606   4.230   1.735
 4617SOL    HW214751   0.446   4.236   1.768
 4618SOL     OW14752   1.409   3.058   6.240
 4618SOL    HW114753   1.454   2.972   6.218
 4618SOL    HW214754   1.472   3.134   6.227
 4619SOL     OW14755   3.800   1.029   3.863
 4619SOL    HW114756   3.790   0.934   3.895
 4619SOL    HW214757   3.890   1.041   3.823
 4620SOL     OW14758   1.766   6.030   0.076
 4620SOL    HW114759   1.801   6.112   0.121
 4620SOL    HW214760   1.798   6.027   7.005
 4621SOL     OW14761   6.589   0.911   6.966
 4621SOL    HW114762   6.514   0.965   6.925
 4621SOL    HW214763   6.565   0.814   6.962
 4622SOL     OW14764   1.737   4.807   0.452
 4622SOL    HW114765   1.788   4.805   0.366
 4622SOL    HW214766   1.800   4.826   0.528
 4623SOL     OW14767   6.043   3.336   3.846
 4623SOL    HW114768   5.978   3.411   3.855
 4623SOL    HW214769   6.105   3.354   3.770
 4624SOL     OW14770   4.474   6.526   5.646
 4624SOL    HW114771   4.472   6.617   5.604
 4624SOL    HW214772   4.480   6.535   5.745
 4625SOL     OW14773   1.249   4.104   6.215
 4625SOL    HW114774   1.278   4.100   6.119
 4625SOL    HW214775   1.177   4.037   6.231
 4626SOL     OW14776   6.794   4.582   2.483
 4626SOL    HW114777   6.724   4.524   2.526
 4626SOL    HW214778   6.777   4.586   2.384
 4627SOL     OW14779   2.184   6.861   4.284
 4627SOL    HW114780   2.215   6.766   4.279
 4627SOL    HW214781   2.151   6.890   4.194
 4628SOL     OW14782   6.619   2.330   1.773
 4628SOL    HW114783   6.667   2.341   1.860
 4628SOL    HW214784   6.644   2.404   1.711
 4629SOL     OW14785   4.487   5.248   3.674
 4629SOL    HW114786   4.483   5.305   3.755
 4629SOL    HW214787   4.539   5.165   3.694
 4630SOL     OW14788   2.757   6.125   2.900
 4630SOL    HW114789   2.768   6.077   2.987
 4630SOL    HW214790   2.786   6.220   2.910
 4631SOL     OW14791   1.816   0.608   2.490
 4631SOL    HW114792   1.884   0.575   2.426
 4631SOL    HW214793   1.850   0.690   2.536
 4632SOL     OW14794   5.443   6.361   4.349
 4632SOL    HW114795   5.356   6.316   4.328
 4632SOL    HW214796   5.512   6.333   4.282
 4633SOL     OW14797   5.087   3.114   6.061
 4633SOL    HW114798   5.112   3.113   5.965
 4633SOL    HW214799   5.079   3.209   6.092
 4634SOL     OW14800   2.795   3.615   0.485
 4634SOL    HW114801   2.815   3.517   0.487
 4634SOL    HW214802   2.696   3.629   0.478
 4635SOL     OW14803   4.729   3.119   1.435
 4635SOL    HW114804   4.752   3.096   1.529
 4635SOL    HW214805   4.633   3.146   1.430
 4636SOL     OW14806   0.903   5.089   2.016
 4636SOL    HW114807   0.955   5.091   1.931
 4636SOL    HW214808   0.964   5.068   2.092
 4637SOL     OW14809   0.599   0.762   5.296
 4637SOL    HW114810   0.681   0.748   5.351
 4637SOL    HW214811   0.557   0.674   5.276
 4638SOL     OW14812   4.462   4.987   5.724
 4638SOL    HW114813   4.445   4.935   5.808
 4638SOL    HW214814   4.381   4.985   5.666
 4639SOL     OW14815   6.646   2.306   5.277
 4639SOL    HW114816   6.686   2.239   5.214
 4639SOL    HW214817   6.567   2.349   5.233
 4640SOL     OW14818   6.995   5.650   2.988
 4640SOL    HW114819   6.980   5.719   3.059
 4640SOL    HW214820   0.066   5.617   2.994
 4641SOL     OW14821   2.266   3.717   5.266
 4641SOL    HW114822   2.191   3.732   5.331
 4641SOL    HW214823   2.295   3.805   5.227
 4642SOL     OW14824   5.705   5.319   4.793
 4642SOL    HW114825   5.679   5.401   4.742
 4642SOL    HW214826   5.700   5.239   4.734
 4643SOL     OW14827   4.490   3.857   1.207
 4643SOL    HW114828   4.575   3.812   1.178
 4643SOL    HW214829   4.444   3.896   1.128
 4644SOL     OW14830   3.476   4.956   5.570
 4644SOL    HW114831   3.425   4.871   5.564
 4644SOL    HW214832   3.460   5.010   5.487
 4645SOL     OW14833   1.709   6.259   4.895
 4645SOL    HW114834   1.657   6.343   4.884
 4645SOL    HW214835   1.806   6.277   4.879
 4646SOL     OW14836   3.527   1.395   1.098
 4646SOL    HW114837   3.488   1.319   1.149
 4646SOL    HW214838   3.453   1.449   1.058
 4647SOL     OW14839   6.400   0.637   5.461
 4647SOL    HW114840   6.470   0.687   5.513
 4647SOL    HW214841   6.325   0.611   5.521
 4648SOL     OW14842   2.470   6.472   3.303
 4648SOL    HW114843   2.495   6.437   3.213
 4648SOL    HW214844   2.433   6.564   3.294
 4649SOL     OW14845   5.870   5.191   5.786
 4649SOL    HW114846   5.777   5.189   5.823
 4649SOL    HW214847   5.907   5.284   5.796
 4650SOL     OW14848   6.416   4.808   1.728
 4650SOL    HW114849   6.509   4.834   1.753
 4650SOL    HW214850   6.353   4.841   1.798
 4651SOL     OW14851   6.002   1.494   1.422
 4651SOL    HW114852   6.090   1.472   1.379
 4651SOL    HW214853   6.018   1.527   1.516
 4652SOL     OW14854   0.486   6.432   5.766
 4652SOL    HW114855   0.542   6.514   5.753
 4652SOL    HW214856   0.480   6.380   5.681
 4653SOL     OW14857   1.871   4.850   0.225
 4653SOL    HW114858   1.970   4.850   0.210
 4653SOL    HW214859   1.824   4.855   0.137
 4654SOL     OW14860   1.864   1.755   0.744
 4654SOL    HW114861   1.963   1.762   0.761
 4654SOL    HW214862   1.815   1.792   0.823
 4655SOL     OW14863   0.413   5.132   4.412
 4655SOL    HW114864   0.358   5.104   4.491
 4655SOL    HW214865   0.378   5.218   4.376
 4656SOL     OW14866   2.878   0.369   2.918
 4656SOL    HW114867   2.789   0.359   2.962
 4656SOL    HW214868   2.884   0.460   2.876
 4657SOL     OW14869   6.636   1.171   5.485
 4657SOL    HW114870   6.544   1.165   5.523
 4657SOL    HW214871   6.671   1.079   5.468
 4658SOL     OW14872   5.197   0.218   4.004
 4658SOL    HW114873   5.237   0.253   3.919
 4658SOL    HW214874   5.112   0.267   4.023
 4659SOL     OW14875   2.082   3.220   3.919
 4659SOL    HW114876   1.999   3.273   3.903
 4659SOL    HW214877   2.061   3.140   3.976
 4660SOL     OW14878   6.702   1.339   4.959
 4660SOL    HW114879   6.725   1.301   5.049
 4660SOL    HW214880   6.720   1.271   4.888
 4661SOL     OW14881   3.165   3.227   3.899
 4661SOL    HW114882   3.209   3.202   3.985
 4661SOL    HW214883   3.192   3.162   3.828
 4662SOL     OW14884   6.374   6.420   4.806
 4662SOL    HW114885   6.395   6.500   4.751
 4662SOL    HW214886   6.406   6.435   4.900
 4663SOL     OW14887   0.813   1.869   2.410
 4663SOL    HW114888   0.833   1.782   2.455
 4663SOL    HW214889   0.889   1.933   2.426
 4664SOL     OW14890   3.418   5.164   0.438
 4664SOL    HW114891   3.326   5.143   0.403
 4664SOL    HW214892   3.410   5.224   0.518
 4665SOL     OW14893   5.941   0.903   6.311
 4665SOL    HW114894   5.847   0.874   6.294
 4665SOL    HW214895   5.991   0.832   6.360
 4666SOL     OW14896   1.697   1.106   0.818
 4666SOL    HW114897   1.641   1.177   0.861
 4666SOL    HW214898   1.787   1.103   0.862
 4667SOL     OW14899   0.333   6.048   4.139
 4667SOL    HW114900   0.393   5.976   4.172
 4667SOL    HW214901   0.360   6.075   4.046
 4668SOL     OW14902   5.760   1.093   5.122
 4668SOL    HW114903   5.806   1.152   5.056
 4668SOL    HW214904   5.803   1.103   5.211
 4669SOL     OW14905   1.955   1.976   2.359
 4669SOL    HW114906   1.970   2.069   2.325
 4669SOL    HW214907   1.972   1.910   2.285
 4670SOL     OW14908   2.537   1.789   4.222
 4670SOL    HW114909   2.541   1.881   4.183
 4670SOL    HW214910   2.614   1.735   4.187
 4671SOL     OW14911   6.229   2.069   2.385
 4671SOL    HW114912   6.267   1.978   2.402
 4671SOL    HW214913   6.140   2.077   2.430
 4672SOL     OW14914   2.892   2.205   5.105
 4672SOL    HW114915   2.848   2.282   5.059
 4672SOL    HW214916   2.984   2.231   5.133
 4673SOL     OW14917   5.541   0.529   2.247
 4673SOL    HW114918   5.512   0.457   2.185
 4673SOL    HW214919   5.555   0.614   2.196
 4674SOL     OW14920   4.425   0.042   5.628
 4674SOL    HW114921   4.446   0.092   5.711
 4674SOL    HW214922   4.328   0.054   5.606
 4675SOL     OW14923   0.707   4.095   5.855
 4675SOL    HW114924   0.778   4.065   5.918
 4675SOL    HW214925   0.715   4.193   5.838
 4676SOL     OW14926   1.453   4.581   3.657
 4676SOL    HW114927   1.504   4.659   3.692
 4676SOL    HW214928   1.515   4.503   3.648
 4677SOL     OW14929   1.314   3.455   0.727
 4677SOL    HW114930   1.277   3.471   0.819
 4677SOL    HW214931   1.396   3.510   0.715
 4678SOL     OW14932   1.330   2.230   1.086
 4678SOL    HW114933   1.238   2.201   1.058
 4678SOL    HW214934   1.324   2.316   1.136
 4679SOL     OW14935   4.343   0.405   2.000
 4679SOL    HW114936   4.315   0.319   2.043
 4679SOL    HW214937   4.390   0.385   1.914
 4680SOL     OW14938   3.017   1.091   6.890
 4680SOL    HW114939   3.077   1.167   6.912
 4680SOL    HW214940   2.976   1.104   6.800
 4681SOL     OW14941   5.244   5.379   2.083
 4681SOL    HW114942   5.301   5.313   2.132
 4681SOL    HW214943   5.239   5.355   1.987
 4682SOL     OW14944   3.592   3.267   6.337
 4682SOL    HW114945   3.565   3.263   6.240
 4682SOL    HW214946   3.514   3.295   6.392
 4683SOL     OW14947   6.833   4.021   4.047
 4683SOL    HW114948   6.869   3.947   4.104
 4683SOL    HW214949   6.893   4.101   4.054
 4684SOL     OW14950   5.272   0.646   5.634
 4684SOL    HW114951   5.277   0.595   5.549
 4684SOL    HW214952   5.217   0.595   5.701
 4685SOL     OW14953   3.013   3.726   4.060
 4685SOL    HW114954   2.936   3.663   4.056
 4685SOL    HW214955   3.039   3.753   3.968
 4686SOL     OW14956   1.461   0.001   6.197
 4686SOL    HW114957   1.473   0.012   6.296
 4686SOL    HW214958   1.501   0.080   6.150
 4687SOL     OW14959   1.138   0.068   2.288
 4687SOL    HW114960   1.056   0.015   2.310
 4687SOL    HW214961   1.179   0.102   2.373
 4688SOL     OW14962   5.281   2.844   4.541
 4688SOL    HW114963   5.233   2.864   4.456
 4688SOL    HW214964   5.363   2.901   4.546
 4689SOL     OW14965   6.876   0.999   1.103
 4689SOL    HW114966   6.968   1.029   1.081
 4689SOL    HW214967   6.878   0.904   1.134
 4690SOL     OW14968   3.437   2.446   1.428
 4690SOL    HW114969   3.485   2.533   1.415
 4690SOL    HW214970   3.504   2.371   1.434
 4691SOL     OW14971   6.370   2.920   2.024
 4691SOL    HW114972   6.380   2.944   1.927
 4691SOL    HW214973   6.379   2.821   2.034
 4692SOL     OW14974   6.064   2.886   2.973
 4692SOL    HW114975   6.154   2.842   2.983
 4692SOL    HW214976   5.994   2.827   3.012
 4693SOL     OW14977   6.782   0.543   3.896
 4693SOL    HW114978   6.812   0.488   3.974
 4693SOL    HW214979   6.682   0.540   3.890
 4694SOL     OW14980   2.074   6.844   5.746
 4694SOL    HW114981   2.028   6.762   5.779
 4694SOL    HW214982   2.132   6.821   5.668
 4695SOL     OW14983   1.865   4.613   2.050
 4695SOL    HW114984   1.779   4.665   2.053
 4695SOL    HW214985   1.872   4.556   2.132
 4696SOL     OW14986   2.395   6.095   6.059
 4696SOL    HW114987   2.414   6.016   6.002
 4696SOL    HW214988   2.380   6.175   6.002
 4697SOL     OW14989   4.584   5.788   1.878
 4697SOL    HW114990   4.664   5.846   1.862
 4697SOL    HW214991   4.527   5.787   1.795
 4698SOL     OW14992   5.535   1.626   4.585
 4698SOL    HW114993   5.457   1.659   4.637
 4698SOL    HW214994   5.511   1.621   4.488
 4699SOL     OW14995   0.849   1.408   2.556
 4699SOL    HW114996   0.887   1.370   2.640
 4699SOL    HW214997   0.750   1.397   2.557
 4700SOL     OW14998   6.696   1.995   3.610
 4700SOL    HW114999   6.779   2.027   3.656
 4700SOL    HW215000   6.659   2.068   3.554
 4701SOL     OW15001   2.605   2.736   1.553
 4701SOL    HW115002   2.693   2.705   1.518
 4701SOL    HW215003   2.588   2.829   1.522
 4702SOL     OW15004   6.354   4.893   1.252
 4702SOL    HW115005   6.295   4.892   1.333
 4702SOL    HW215006   6.359   4.986   1.216
 4703SOL     OW15007   6.865   4.981   4.254
 4703SOL    HW115008   6.896   4.894   4.293
 4703SOL    HW215009   6.845   5.045   4.328
 4704SOL     OW15010   1.541   5.094   4.547
 4704SOL    HW115011   1.531   5.084   4.448
 4704SOL    HW215012   1.580   5.011   4.585
 4705SOL     OW15013   2.992   2.242   1.298
 4705SOL    HW115014   3.047   2.252   1.215
 4705SOL    HW215015   3.023   2.162   1.349
 4706SOL     OW15016   2.002   1.663   1.191
 4706SOL    HW115017   1.920   1.638   1.141
 4706SOL    HW215018   2.008   1.610   1.276
 4707SOL     OW15019   1.859   5.616   2.169
 4707SOL    HW115020   1.831   5.632   2.264
 4707SOL    HW215021   1.784   5.643   2.108
 4708SOL     OW15022   2.037   2.854   6.665
 4708SOL    HW115023   2.063   2.821   6.756
 4708SOL    HW215024   1.962   2.920   6.674
 4709SOL     OW15025   6.199   3.326   4.923
 4709SOL    HW115026   6.186   3.273   4.839
 4709SOL    HW215027   6.115   3.375   4.945
 4710SOL     OW15028   6.161   4.898   5.396
 4710SOL    HW115029   6.085   4.842   5.430
 4710SOL    HW215030   6.125   4.970   5.337
 4711SOL     OW15031   4.784   4.313   2.719
 4711SOL    HW115032   4.877   4.328   2.751
 4711SOL    HW215033   4.756   4.220   2.742
 4712SOL     OW15034   4.420   4.869   5.995
 4712SOL    HW115035   4.333   4.915   5.975
 4712SOL    HW215036   4.406   4.800   6.066
 4713SOL     OW15037   5.573   4.901   1.607
 4713SOL    HW115038   5.599   4.837   1.534
 4713SOL    HW215039   5.655   4.938   1.650
 4714SOL     OW15040   4.417   2.257   5.715
 4714SOL    HW115041   4.352   2.309   5.659
 4714SOL    HW215042   4.373   2.230   5.801
 4715SOL     OW15043   0.190   1.313   1.811
 4715SOL    HW115044   0.106   1.264   1.833
 4715SOL    HW215045   0.266   1.248   1.803
 4716SOL     OW15046   3.899   4.376   5.371
 4716SOL    HW115047   3.891   4.316   5.451
 4716SOL    HW215048   3.885   4.323   5.288
 4717SOL     OW15049   1.648   4.663   6.129
 4717SOL    HW115050   1.634   4.744   6.186
 4717SOL    HW215051   1.566   4.606   6.132
 4718SOL     OW15052   4.870   3.470   2.377
 4718SOL    HW115053   4.774   3.475   2.350
 4718SOL    HW215054   4.902   3.375   2.369
 4719SOL     OW15055   5.730   3.971   3.970
 4719SOL    HW115056   5.658   3.913   3.932
 4719SOL    HW215057   5.708   4.067   3.954
 4720SOL     OW15058   1.022   1.689   6.123
 4720SOL    HW115059   1.038   1.787   6.130
 4720SOL    HW215060   0.983   1.667   6.034
 4721SOL     OW15061   0.489   2.866   2.926
 4721SOL    HW115062   0.398   2.884   2.964
 4721SOL    HW215063   0.507   2.929   2.850
 4722SOL     OW15064   1.783   5.126   5.839
 4722SOL    HW115065   1.749   5.136   5.745
 4722SOL    HW215066   1.878   5.156   5.844
 4723SOL     OW15067   3.388   4.567   6.129
 4723SOL    HW115068   3.468   4.541   6.183
 4723SOL    HW215069   3.352   4.487   6.082
 4724SOL     OW15070   0.451   0.469   4.335
 4724SOL    HW115071   0.404   0.550   4.370
 4724SOL    HW215072   0.383   0.400   4.309
 4725SOL     OW15073   5.691   5.297   1.436
 4725SOL    HW115074   5.629   5.235   1.484
 4725SOL    HW215075   5.695   5.385   1.485
 4726SOL     OW15076   2.110   3.087   5.756
 4726SOL    HW115077   2.134   2.998   5.716
 4726SOL    HW215078   2.152   3.160   5.702
 4727SOL     OW15079   6.220   5.257   1.795
 4727SOL    HW115080   6.151   5.295   1.857
 4727SOL    HW215081   6.302   5.235   1.847
 4728SOL     OW15082   4.300   0.914   3.388
 4728SOL    HW115083   4.249   0.924   3.303
 4728SOL    HW215084   4.258   0.971   3.459
 4729SOL     OW15085   0.320   1.182   3.088
 4729SOL    HW115086   0.396   1.119   3.100
 4729SOL    HW215087   0.235   1.140   3.121
 4730SOL     OW15088   2.995   0.993   3.338
 4730SOL    HW115089   3.027   0.922   3.275
 4730SOL    HW215090   3.038   0.979   3.428
 4731SOL     OW15091   3.944   6.649   2.420
 4731SOL    HW115092   3.883   6.701   2.479
 4731SOL    HW215093   3.900   6.634   2.331
 4732SOL     OW15094   0.245   4.834   4.087
 4732SOL    HW115095   0.184   4.906   4.054
 4732SOL    HW215096   0.335   4.873   4.108
 4733SOL     OW15097   2.114   3.805   3.392
 4733SOL    HW115098   2.098   3.751   3.308
 4733SOL    HW215099   2.133   3.743   3.468
 4734SOL     OW15100   4.572   4.451   6.509
 4734SOL    HW115101   4.599   4.355   6.499
 4734SOL    HW215102   4.473   4.460   6.495
 4735SOL     OW15103   0.257   1.058   5.337
 4735SOL    HW115104   0.329   1.027   5.399
 4735SOL    HW215105   0.280   1.033   5.243
 4736SOL     OW15106   6.301   0.169   4.666
 4736SOL    HW115107   6.225   0.224   4.703
 4736SOL    HW215108   6.369   0.231   4.625
 4737SOL     OW15109   2.097   5.133   0.156
 4737SOL    HW115110   2.005   5.164   0.135
 4737SOL    HW215111   2.116   5.146   0.253
 4738SOL     OW15112   0.211   6.156   3.502
 4738SOL    HW115113   0.245   6.213   3.577
 4738SOL    HW215114   0.123   6.117   3.527
 4739SOL     OW15115   5.795   3.718   3.157
 4739SOL    HW115116   5.777   3.624   3.183
 4739SOL    HW215117   5.779   3.778   3.235
 4740SOL     OW15118   1.726   6.374   0.838
 4740SOL    HW115119   1.661   6.438   0.879
 4740SOL    HW215120   1.679   6.289   0.814
 4741SOL     OW15121   6.038   4.780   2.215
 4741SOL    HW115122   6.124   4.746   2.253
 4741SOL    HW215123   5.983   4.821   2.288
 4742SOL     OW15124   2.109   5.644   2.049
 4742SOL    HW115125   2.013   5.651   2.076
 4742SOL    HW215126   2.121   5.567   1.987
 4743SOL     OW15127   2.803   3.340   0.402
 4743SOL    HW115128   2.803   3.268   0.333
 4743SOL    HW215129   2.894   3.347   0.443
 4744SOL     OW15130   3.091   1.588   5.896
 4744SOL    HW115131   3.026   1.649   5.941
 4744SOL    HW215132   3.091   1.607   5.797
 4745SOL     OW15133   4.355   5.907   4.227
 4745SOL    HW115134   4.401   5.824   4.258
 4745SOL    HW215135   4.405   5.947   4.151
 4746SOL     OW15136   5.615   1.405   0.793
 4746SOL    HW115137   5.712   1.423   0.810
 4746SOL    HW215138   5.561   1.430   0.873
 4747SOL     OW15139   1.083   2.882   2.132
 4747SOL    HW115140   1.141   2.922   2.203
 4747SOL    HW215141   1.087   2.782   2.138
 4748SOL     OW15142   1.962   6.471   0.334
 4748SOL    HW115143   1.938   6.549   0.276
 4748SOL    HW215144   1.999   6.505   0.421
 4749SOL     OW15145   3.665   1.394   0.220
 4749SOL    HW115146   3.570   1.397   0.252
 4749SOL    HW215147   3.668   1.347   0.131
 4750SOL     OW15148   0.996   1.858   4.925
 4750SOL    HW115149   1.032   1.813   4.843
 4750SOL    HW215150   1.041   1.946   4.937
 4751SOL     OW15151   1.542   3.723   6.538
 4751SOL    HW115152   1.574   3.750   6.447
 4751SOL    HW215153   1.524   3.805   6.593
 4752SOL     OW15154   1.367   6.011   1.132
 4752SOL    HW115155   1.441   5.994   1.197
 4752SOL    HW215156   1.328   5.923   1.103
 4753SOL     OW15157   0.248   1.117   6.501
 4753SOL    HW115158   0.156   1.087   6.524
 4753SOL    HW215159   0.277   1.076   6.415
 4754SOL     OW15160   1.504   0.739   6.797
 4754SOL    HW115161   1.536   0.748   6.892
 4754SOL    HW215162   1.427   0.801   6.782
 4755SOL     OW15163   2.800   6.786   3.126
 4755SOL    HW115164   2.824   6.878   3.098
 4755SOL    HW215165   2.752   6.789   3.214
 4756SOL     OW15166   5.622   2.290   1.140
 4756SOL    HW115167   5.683   2.241   1.078
 4756SOL    HW215168   5.605   2.382   1.105
 4757SOL     OW15169   2.385   2.927   0.791
 4757SOL    HW115170   2.419   3.011   0.749
 4757SOL    HW215171   2.321   2.951   0.864
 4758SOL     OW15172   6.335   4.138   6.353
 4758SOL    HW115173   6.272   4.215   6.357
 4758SOL    HW215174   6.429   4.172   6.349
 4759SOL     OW15175   0.091   4.074   6.822
 4759SOL    HW115176   0.126   4.014   6.894
 4759SOL    HW215177   0.091   4.169   6.856
 4760SOL     OW15178   0.613   2.894   0.244
 4760SOL    HW115179   0.679   2.838   0.194
 4760SOL    HW215180   0.628   2.990   0.223
 4761SOL     OW15181   2.928   6.280   6.555
 4761SOL    HW115182   2.887   6.314   6.470
 4761SOL    HW215183   2.880   6.318   6.633
 4762SOL     OW15184   3.489   0.415   2.904
 4762SOL    HW115185   3.438   0.338   2.866
 4762SOL    HW215186   3.448   0.501   2.872
 4763SOL     OW15187   4.944   4.841   4.789
 4763SOL    HW115188   4.929   4.918   4.727
 4763SOL    HW215189   5.017   4.864   4.854
 4764SOL     OW15190   3.378   3.754   3.870
 4764SOL    HW115191   3.315   3.693   3.823
 4764SOL    HW215192   3.392   3.721   3.964
 4765SOL     OW15193   6.159   5.536   6.179
 4765SOL    HW115194   6.184   5.521   6.275
 4765SOL    HW215195   6.124   5.450   6.141
 4766SOL     OW15196   3.119   1.592   3.172
 4766SOL    HW115197   3.106   1.593   3.073
 4766SOL    HW215198   3.152   1.681   3.203
 4767SOL     OW15199   4.584   0.847   6.568
 4767SOL    HW115200   4.526   0.925   6.593
 4767SOL    HW215201   4.680   0.869   6.584
 4768SOL     OW15202   2.096   0.546   5.869
 4768SOL    HW115203   2.098   0.639   5.904
 4768SOL    HW215204   2.069   0.484   5.943
 4769SOL     OW15205   4.528   0.695   1.978
 4769SOL    HW115206   4.473   0.635   1.921
 4769SOL    HW215207   4.552   0.778   1.927
 4770SOL     OW15208   2.724   1.325   3.864
 4770SOL    HW115209   2.693   1.245   3.812
 4770SOL    HW215210   2.809   1.359   3.825
 4771SOL     OW15211   4.202   4.955   6.323
 4771SOL    HW115212   4.218   4.879   6.260
 4771SOL    HW215213   4.244   5.038   6.286
 4772SOL     OW15214   3.658   2.786   6.826
 4772SOL    HW115215   3.755   2.798   6.805
 4772SOL    HW215216   3.633   2.689   6.814
 4773SOL     OW15217   6.965   4.712   4.386
 4773SOL    HW115218   0.038   4.702   4.358
 4773SOL    HW215219   6.962   4.741   4.482
 4774SOL     OW15220   2.250   4.247   0.088
 4774SOL    HW115221   2.239   4.152   0.117
 4774SOL    HW215222   2.180   4.303   0.133
 4775SOL     OW15223   1.856   3.101   2.575
 4775SOL    HW115224   1.816   3.167   2.511
 4775SOL    HW215225   1.936   3.058   2.535
 4776SOL     OW15226   4.477   5.334   1.506
 4776SOL    HW115227   4.402   5.358   1.445
 4776SOL    HW215228   4.441   5.320   1.598
 4777SOL     OW15229   1.698   3.966   1.561
 4777SOL    HW115230   1.685   3.873   1.527
 4777SOL    HW215231   1.791   3.977   1.594
 4778SOL     OW15232   5.421   3.281   2.890
 4778SOL    HW115233   5.409   3.340   2.810
 4778SOL    HW215234   5.498   3.313   2.945
 4779SOL     OW15235   5.858   1.465   2.582
 4779SOL    HW115236   5.926   1.484   2.652
 4779SOL    HW215237   5.770   1.506   2.607
 4780SOL     OW15238   1.627   1.566   5.671
 4780SOL    HW115239   1.568   1.647   5.682
 4780SOL    HW215240   1.612   1.527   5.580
 4781SOL     OW15241   2.825   5.668   2.859
 4781SOL    HW115242   2.750   5.606   2.880
 4781SOL    HW215243   2.895   5.662   2.931
 4782SOL     OW15244   6.025   6.174   6.759
 4782SOL    HW115245   5.995   6.185   6.854
 4782SOL    HW215246   6.123   6.156   6.757
 4783SOL     OW15247   5.477   4.571   3.236
 4783SOL    HW115248   5.461   4.628   3.155
 4783SOL    HW215249   5.574   4.572   3.260
 4784SOL     OW15250   5.178   4.261   4.638
 4784SOL    HW115251   5.188   4.189   4.707
 4784SOL    HW215252   5.084   4.262   4.604
 4785SOL     OW15253   5.623   5.794   0.543
 4785SOL    HW115254   5.644   5.813   0.447
 4785SOL    HW215255   5.529   5.821   0.563
 4786SOL     OW15256   1.437   4.420   3.091
 4786SOL    HW115257   1.347   4.430   3.133
 4786SOL    HW215258   1.494   4.498   3.116
 4787SOL     OW15259   4.110   2.092   2.766
 4787SOL    HW115260   4.064   2.023   2.822
 4787SOL    HW215261   4.163   2.153   2.825
 4788SOL     OW15262   2.553   0.497   4.741
 4788SOL    HW115263   2.533   0.495   4.643
 4788SOL    HW215264   2.607   0.578   4.762
 4789SOL     OW15265   4.918   5.937   6.869
 4789SOL    HW115266   4.889   6.016   6.815
 4789SOL    HW215267   4.870   5.939   6.957
 4790SOL     OW15268   5.623   6.832   6.983
 4790SOL    HW115269   5.627   6.931   6.971
 4790SOL    HW215270   5.688   6.804   0.030
 4791SOL     OW15271   4.514   2.466   3.350
 4791SOL    HW115272   4.526   2.560   3.320
 4791SOL    HW215273   4.542   2.458   3.446
 4792SOL     OW15274   3.286   3.308   0.333
 4792SOL    HW115275   3.209   3.267   0.285
 4792SOL    HW215276   3.348   3.236   0.365
 4793SOL     OW15277   0.720   0.851   0.066
 4793SOL    HW115278   0.707   0.918   7.017
 4793SOL    HW215279   0.812   0.811   0.059
 4794SOL     OW15280   5.643   0.972   1.903
 4794SOL    HW115281   5.596   1.058   1.923
 4794SOL    HW215282   5.586   0.915   1.844
 4795SOL     OW15283   5.969   2.299   4.423
 4795SOL    HW115284   6.046   2.278   4.362
 4795SOL    HW215285   5.903   2.357   4.375
 4796SOL     OW15286   4.942   3.649   0.518
 4796SOL    HW115287   4.985   3.600   0.441
 4796SOL    HW215288   4.847   3.671   0.494
 4797SOL     OW15289   1.439   5.912   5.060
 4797SOL    HW115290   1.377   5.979   5.101
 4797SOL    HW215291   1.458   5.839   5.127
 4798SOL     OW15292   0.195   5.758   6.094
 4798SOL    HW115293   0.256   5.708   6.033
 4798SOL    HW215294   0.236   5.846   6.118
 4799SOL     OW15295   5.204   1.444   4.321
 4799SOL    HW115296   5.157   1.500   4.389
 4799SOL    HW215297   5.153   1.444   4.235
 4800SOL     OW15298   1.178   3.128   4.013
 4800SOL    HW115299   1.080   3.144   4.008
 4800SOL    HW215300   1.213   3.156   4.103
 4801SOL     OW15301   0.093   1.872   0.796
 4801SOL    HW115302   0.089   1.972   0.789
 4801SOL    HW215303   0.151   1.847   0.874
 4802SOL     OW15304   1.920   0.165   1.624
 4802SOL    HW115305   1.843   0.102   1.621
 4802SOL    HW215306   1.898   0.243   1.683
 4803SOL     OW15307   0.853   6.919   0.931
 4803SOL    HW115308   0.792   6.997   0.919
 4803SOL    HW215309   0.803   6.834   0.917
 4804SOL     OW15310   4.311   5.078   0.276
 4804SOL    HW115311   4.356   5.166   0.266
 4804SOL    HW215312   4.224   5.078   0.227
 4805SOL     OW15313   7.008   6.807   1.946
 4805SOL    HW115314   0.070   6.858   1.957
 4805SOL    HW215315   6.958   6.842   1.867
 4806SOL     OW15316   0.256   2.011   3.708
 4806SOL    HW115317   0.331   1.948   3.729
 4806SOL    HW215318   0.175   1.959   3.681
 4807SOL     OW15319   0.762   0.287   2.964
 4807SOL    HW115320   0.786   0.328   3.052
 4807SOL    HW215321   0.808   0.199   2.954
 4808SOL     OW15322   6.920   1.735   0.689
 4808SOL    HW115323   6.853   1.798   0.650
 4808SOL    HW215324   6.994   1.786   0.732
 4809SOL     OW15325   4.860   6.735   0.463
 4809SOL    HW115326   4.921   6.809   0.491
 4809SOL    HW215327   4.846   6.739   0.364
 4810SOL     OW15328   2.391   6.473   6.223
 4810SOL    HW115329   2.434   6.561   6.202
 4810SOL    HW215330   2.372   6.423   6.139
 4811SOL     OW15331   4.968   4.140   4.229
 4811SOL    HW115332   4.992   4.145   4.132
 4811SOL    HW215333   5.052   4.127   4.283
 4812SOL     OW15334   6.430   5.110   3.454
 4812SOL    HW115335   6.508   5.124   3.393
 4812SOL    HW215336   6.354   5.071   3.402
 4813SOL     OW15337   5.636   3.420   2.515
 4813SOL    HW115338   5.690   3.444   2.435
 4813SOL    HW215339   5.540   3.408   2.488
 4814SOL     OW15340   0.459   3.015   1.818
 4814SOL    HW115341   0.522   3.054   1.750
 4814SOL    HW215342   0.372   3.063   1.812
 4815SOL     OW15343   4.770   0.735   3.532
 4815SOL    HW115344   4.695   0.690   3.483
 4815SOL    HW215345   4.751   0.733   3.630
 4816SOL     OW15346   6.018   4.473   4.471
 4816SOL    HW115347   6.062   4.469   4.381
 4816SOL    HW215348   5.950   4.546   4.472
 4817SOL     OW15349   6.144   1.808   6.674
 4817SOL    HW115350   6.103   1.792   6.585
 4817SOL    HW215351   6.171   1.904   6.681
 4818SOL     OW15352   6.894   6.416   3.525
 4818SOL    HW115353   6.878   6.323   3.559
 4818SOL    HW215354   6.817   6.444   3.467
 4819SOL     OW15355   1.168   3.171   1.226
 4819SOL    HW115356   1.145   3.101   1.159
 4819SOL    HW215357   1.268   3.181   1.232
 4820SOL     OW15358   6.411   3.479   2.040
 4820SOL    HW115359   6.510   3.490   2.055
 4820SOL    HW215360   6.362   3.501   2.124
 4821SOL     OW15361   0.409   5.747   3.907
 4821SOL    HW115362   0.346   5.670   3.916
 4821SOL    HW215363   0.483   5.738   3.974
 4822SOL     OW15364   2.751   5.103   4.417
 4822SOL    HW115365   2.827   5.051   4.455
 4822SOL    HW215366   2.780   5.196   4.398
 4823SOL     OW15367   1.329   2.122   0.358
 4823SOL    HW115368   1.407   2.061   0.349
 4823SOL    HW215369   1.320   2.151   0.453
 4824SOL     OW15370   6.437   2.512   0.198
 4824SOL    HW115371   6.348   2.481   0.163
 4824SOL    HW215372   6.508   2.448   0.167
 4825SOL     OW15373   1.322   5.878   3.466
 4825SOL    HW115374   1.227   5.902   3.448
 4825SOL    HW215375   1.366   5.850   3.381
 4826SOL     OW15376   4.544   6.727   0.339
 4826SOL    HW115377   4.601   6.696   0.262
 4826SOL    HW215378   4.587   6.807   0.381
 4827SOL     OW15379   5.826   1.184   2.149
 4827SOL    HW115380   5.729   1.203   2.161
 4827SOL    HW215381   5.838   1.119   2.074
 4828SOL     OW15382   5.244   1.084   6.058
 4828SOL    HW115383   5.252   1.181   6.080
 4828SOL    HW215384   5.201   1.036   6.134
 4829SOL     OW15385   4.639   5.815   5.007
 4829SOL    HW115386   4.620   5.884   5.077
 4829SOL    HW215387   4.627   5.724   5.046
 4830SOL     OW15388   1.732   6.375   3.258
 4830SOL    HW115389   1.772   6.310   3.323
 4830SOL    HW215390   1.708   6.459   3.306
 4831SOL     OW15391   2.684   4.550   5.815
 4831SOL    HW115392   2.742   4.472   5.838
 4831SOL    HW215393   2.730   4.607   5.746
 4832SOL     OW15394   3.712   3.205   3.719
 4832SOL    HW115395   3.787   3.261   3.755
 4832SOL    HW215396   3.644   3.190   3.791
 4833SOL     OW15397   5.698   2.365   5.208
 4833SOL    HW115398   5.693   2.432   5.134
 4833SOL    HW215399   5.793   2.357   5.239
 4834SOL     OW15400   0.870   4.869   0.861
 4834SOL    HW115401   0.869   4.784   0.914
 4834SOL    HW215402   0.775   4.899   0.846
 4835SOL     OW15403   0.440   3.454   6.147
 4835SOL    HW115404   0.393   3.527   6.196
 4835SOL    HW215405   0.374   3.381   6.125
 4836SOL     OW15406   4.489   0.825   5.654
 4836SOL    HW115407   4.400   0.810   5.697
 4836SOL    HW215408   4.479   0.813   5.555
 4837SOL     OW15409   1.587   3.883   4.680
 4837SOL    HW115410   1.604   3.981   4.666
 4837SOL    HW215411   1.556   3.868   4.774
 4838SOL     OW15412   1.807   4.445   6.225
 4838SOL    HW115413   1.898   4.468   6.259
 4838SOL    HW215414   1.759   4.528   6.196
 4839SOL     OW15415   2.398   1.069   1.725
 4839SOL    HW115416   2.447   1.106   1.805
 4839SOL    HW215417   2.404   1.134   1.649
 4840SOL     OW15418   5.152   2.172   3.405
 4840SOL    HW115419   5.233   2.124   3.370
 4840SOL    HW215420   5.072   2.113   3.396
 4841SOL     OW15421   2.794   5.278   2.925
 4841SOL    HW115422   2.754   5.332   2.999
 4841SOL    HW215423   2.763   5.183   2.931
 4842SOL     OW15424   4.302   4.994   3.269
 4842SOL    HW115425   4.218   4.945   3.290
 4842SOL    HW215426   4.286   5.056   3.192
 4843SOL     OW15427   5.935   2.681   0.134
 4843SOL    HW115428   6.030   2.711   0.131
 4843SOL    HW215429   5.904   2.677   0.229
 4844SOL     OW15430   0.962   4.805   6.662
 4844SOL    HW115431   0.872   4.812   6.620
 4844SOL    HW215432   0.987   4.709   6.673
 4845SOL     OW15433   5.670   4.210   4.955
 4845SOL    HW115434   5.578   4.190   4.921
 4845SOL    HW215435   5.703   4.295   4.914
 4846SOL     OW15436   6.398   3.738   4.574
 4846SOL    HW115437   6.467   3.667   4.588
 4846SOL    HW215438   6.310   3.706   4.607
 4847SOL     OW15439   2.521   6.919   6.623
 4847SOL    HW115440   2.611   6.912   6.578
 4847SOL    HW215441   2.453   6.871   6.568
 4848SOL     OW15442   4.635   1.895   3.259
 4848SOL    HW115443   4.607   1.832   3.186
 4848SOL    HW215444   4.567   1.895   3.331
 4849SOL     OW15445   1.413   5.688   1.829
 4849SOL    HW115446   1.406   5.697   1.730
 4849SOL    HW215447   1.377   5.599   1.857
 4850SOL     OW15448   3.346   0.371   2.209
 4850SOL    HW115449   3.289   0.296   2.178
 4850SOL    HW215450   3.423   0.334   2.262
 4851SOL     OW15451   4.678   4.870   6.647
 4851SOL    HW115452   4.753   4.840   6.587
 4851SOL    HW215453   4.648   4.793   6.704
 4852SOL     OW15454   4.531   4.185   5.639
 4852SOL    HW115455   4.615   4.193   5.584
 4852SOL    HW215456   4.551   4.134   5.723
 4853SOL     OW15457   4.156   0.527   3.002
 4853SOL    HW115458   4.183   0.470   3.080
 4853SOL    HW215459   4.179   0.622   3.021
 4854SOL     OW15460   3.939   6.337   2.215
 4854SOL    HW115461   4.036   6.332   2.194
 4854SOL    HW215462   3.896   6.407   2.157
 4855SOL     OW15463   4.482   4.998   5.229
 4855SOL    HW115464   4.534   5.066   5.179
 4855SOL    HW215465   4.489   4.909   5.183
 4856SOL     OW15466   0.940   2.281   2.377
 4856SOL    HW115467   1.032   2.278   2.337
 4856SOL    HW215468   0.903   2.373   2.369
 4857SOL     OW15469   2.774   1.734   5.811
 4857SOL    HW115470   2.756   1.829   5.781
 4857SOL    HW215471   2.725   1.671   5.750
 4858SOL     OW15472   2.321   5.235   5.056
 4858SOL    HW115473   2.289   5.265   5.145
 4858SOL    HW215474   2.244   5.225   4.994
 4859SOL     OW15475   6.681   5.617   3.371
 4859SOL    HW115476   6.647   5.539   3.317
 4859SOL    HW215477   6.773   5.640   3.340
 4860SOL     OW15478   4.065   5.223   1.093
 4860SOL    HW115479   4.003   5.145   1.086
 4860SOL    HW215480   4.116   5.233   1.007
 4861SOL     OW15481   5.318   4.839   4.601
 4861SOL    HW115482   5.356   4.799   4.518
 4861SOL    HW215483   5.313   4.938   4.591
 4862SOL     OW15484   1.751   5.452   3.992
 4862SOL    HW115485   1.664   5.437   4.038
 4862SOL    HW215486   1.770   5.375   3.930
 4863SOL     OW15487   5.728   1.370   1.877
 4863SOL    HW115488   5.800   1.420   1.926
 4863SOL    HW215489   5.764   1.337   1.790
 4864SOL     OW15490   2.888   3.136   1.863
 4864SOL    HW115491   2.826   3.207   1.898
 4864SOL    HW215492   2.916   3.076   1.938
 4865SOL     OW15493   3.829   6.976   4.906
 4865SOL    HW115494   3.810   6.995   4.809
 4865SOL    HW215495   3.769   6.903   4.938
 4866SOL     OW15496   1.212   4.874   1.910
 4866SOL    HW115497   1.263   4.953   1.943
 4866SOL    HW215498   1.119   4.902   1.885
 4867SOL     OW15499   5.772   4.612   6.081
 4867SOL    HW115500   5.734   4.626   6.172
 4867SOL    HW215501   5.797   4.515   6.070
 4868SOL     OW15502   2.161   5.975   1.491
 4868SOL    HW115503   2.156   6.060   1.543
 4868SOL    HW215504   2.144   5.898   1.553
 4869SOL     OW15505   0.470   1.736   1.626
 4869SOL    HW115506   0.376   1.739   1.594
 4869SOL    HW215507   0.511   1.828   1.620
 4870SOL     OW15508   5.824   1.238   1.652
 4870SOL    HW115509   5.814   1.281   1.562
 4870SOL    HW215510   5.840   1.140   1.640
 4871SOL     OW15511   1.659   2.191   5.433
 4871SOL    HW115512   1.648   2.288   5.409
 4871SOL    HW215513   1.571   2.146   5.430
 4872SOL     OW15514   2.254   2.773   2.480
 4872SOL    HW115515   2.276   2.818   2.566
 4872SOL    HW215516   2.338   2.757   2.428
 4873SOL     OW15517   1.161   6.117   5.897
 4873SOL    HW115518   1.197   6.203   5.933
 4873SOL    HW215519   1.164   6.119   5.797
 4874SOL     OW15520   5.807   2.081   4.394
 4874SOL    HW115521   5.725   2.128   4.363
 4874SOL    HW215522   5.882   2.146   4.402
 4875SOL     OW15523   6.846   3.194   0.805
 4875SOL    HW115524   6.904   3.264   0.763
 4875SOL    HW215525   6.857   3.108   0.756
 4876SOL     OW15526   6.768   1.266   6.964
 4876SOL    HW115527   6.775   1.261   6.864
 4876SOL    HW215528   6.860   1.269   7.004
 4877SOL     OW15529   4.250   2.098   1.788
 4877SOL    HW115530   4.155   2.105   1.819
 4877SOL    HW215531   4.305   2.052   1.858
 4878SOL     OW15532   1.237   2.961   2.324
 4878SOL    HW115533   1.205   2.992   2.414
 4878SOL    HW215534   1.325   3.005   2.303
 4879SOL     OW15535   3.555   6.267   3.365
 4879SOL    HW115536   3.533   6.294   3.272
 4879SOL    HW215537   3.595   6.175   3.365
 4880SOL     OW15538   7.022   2.170   6.170
 4880SOL    HW115539   6.987   2.098   6.109
 4880SOL    HW215540   7.016   2.139   6.265
 4881SOL     OW15541   3.202   6.400   5.819
 4881SOL    HW115542   3.183   6.452   5.903
 4881SOL    HW215543   3.298   6.372   5.818
 4882SOL     OW15544   5.685   6.347   6.285
 4882SOL    HW115545   5.670   6.253   6.256
 4882SOL    HW215546   5.598   6.397   6.283
 4883SOL     OW15547   6.212   5.882   0.407
 4883SOL    HW115548   6.134   5.822   0.390
 4883SOL    HW215549   6.230   5.886   0.505
 4884SOL     OW15550   4.589   6.169   1.961
 4884SOL    HW115551   4.502   6.120   1.959
 4884SOL    HW215552   4.578   6.257   1.916
 4885SOL     OW15553   1.357   0.220   1.909
 4885SOL    HW115554   1.378   0.316   1.927
 4885SOL    HW215555   1.317   0.211   1.818
 4886SOL     OW15556   6.228   1.198   6.237
 4886SOL    HW115557   6.193   1.105   6.242
 4886SOL    HW215558   6.238   1.225   6.141
 4887SOL     OW15559   6.979   2.542   5.609
 4887SOL    HW115560   6.938   2.562   5.519
 4887SOL    HW215561   0.022   2.468   5.600
 4888SOL     OW15562   4.375   5.883   1.384
 4888SOL    HW115563   4.364   5.867   1.286
 4888SOL    HW215564   4.405   5.977   1.398
 4889SOL     OW15565   1.198   3.319   6.421
 4889SOL    HW115566   1.286   3.362   6.401
 4889SOL    HW215567   1.169   3.264   6.342
 4890SOL     OW15568   6.891   0.510   4.574
 4890SOL    HW115569   6.919   0.530   4.668
 4890SOL    HW215570   6.809   0.563   4.552
 4891SOL     OW15571   0.919   4.928   0.598
 4891SOL    HW115572   0.975   4.845   0.595
 4891SOL    HW215573   0.911   4.959   0.693
 4892SOL     OW15574   2.028   5.745   1.650
 4892SOL    HW115575   1.997   5.690   1.572
 4892SOL    HW215576   2.068   5.685   1.720
 4893SOL     OW15577   6.730   4.486   6.403
 4893SOL    HW115578   6.721   4.476   6.502
 4893SOL    HW215579   6.761   4.578   6.381
 4894SOL     OW15580   0.114   6.975   3.698
 4894SOL    HW115581   0.191   6.930   3.653
 4894SOL    HW215582   0.043   6.994   3.631
 4895SOL     OW15583   6.634   4.065   6.606
 4895SOL    HW115584   6.698   4.052   6.682
 4895SOL    HW215585   6.649   3.994   6.538
 4896SOL     OW15586   4.392   0.881   4.948
 4896SOL    HW115587   4.475   0.911   4.902
 4896SOL    HW215588   4.389   0.781   4.949
 4897SOL     OW15589   2.591   5.572   0.419
 4897SOL    HW115590   2.653   5.517   0.476
 4897SOL    HW215591   2.507   5.519   0.401
 4898SOL     OW15592   4.929   2.956   4.441
 4898SOL    HW115593   5.000   3.001   4.388
 4898SOL    HW215594   4.941   2.857   4.436
 4899SOL     OW15595   0.232   3.480   4.491
 4899SOL    HW115596   0.213   3.453   4.585
 4899SOL    HW215597   0.329   3.504   4.482
 4900SOL     OW15598   0.382   6.678   6.209
 4900SOL    HW115599   0.462   6.711   6.258
 4900SOL    HW215600   0.405   6.661   6.113
 4901SOL     OW15601   6.346   6.684   3.077
 4901SOL    HW115602   6.348   6.636   2.989
 4901SOL    HW215603   6.396   6.631   3.145
 4902SOL     OW15604   3.210   5.588   0.340
 4902SOL    HW115605   3.175   5.637   0.420
 4902SOL    HW215606   3.297   5.545   0.363
 4903SOL     OW15607   5.822   4.614   6.657
 4903SOL    HW115608   5.875   4.649   6.579
 4903SOL    HW215609   5.729   4.650   6.653
 4904SOL     OW15610   2.778   0.753   3.752
 4904SOL    HW115611   2.738   0.715   3.835
 4904SOL    HW215612   2.842   0.827   3.776
 4905SOL     OW15613   5.841   4.073   3.419
 4905SOL    HW115614   5.911   4.078   3.491
 4905SOL    HW215615   5.786   4.157   3.422
 4906SOL     OW15616   4.878   0.197   1.885
 4906SOL    HW115617   4.796   0.243   1.918
 4906SOL    HW215618   4.870   0.099   1.904
 4907SOL     OW15619   3.128   2.675   0.982
 4907SOL    HW115620   3.158   2.610   1.052
 4907SOL    HW215621   3.052   2.635   0.931
 4908SOL     OW15622   5.413   4.399   6.069
 4908SOL    HW115623   5.483   4.334   6.039
 4908SOL    HW215624   5.384   4.455   5.991
 4909SOL     OW15625   6.197   6.870   5.255
 4909SOL    HW115626   6.184   6.858   5.353
 4909SOL    HW215627   6.284   6.829   5.228
 4910SOL     OW15628   5.681   0.165   5.586
 4910SOL    HW115629   5.619   0.087   5.595
 4910SOL    HW215630   5.680   0.198   5.491
 4911SOL     OW15631   6.842   4.160   6.756
 4911SOL    HW115632   6.833   4.246   6.705
 4911SOL    HW215633   6.937   4.129   6.753
 4912SOL     OW15634   2.030   3.074   1.969
 4912SOL    HW115635   2.076   3.144   2.025
 4912SOL    HW215636   1.944   3.112   1.935
 4913SOL     OW15637   2.742   3.406   1.897
 4913SOL    HW115638   2.649   3.442   1.885
 4913SOL    HW215639   2.807   3.481   1.900
 4914SOL     OW15640   1.317   0.181   2.493
 4914SOL    HW115641   1.361   0.269   2.474
 4914SOL    HW215642   1.370   0.132   2.562
 4915SOL     OW15643   3.795   6.238   3.863
 4915SOL    HW115644   3.864   6.169   3.887
 4915SOL    HW215645   3.732   6.200   3.795
 4916SOL     OW15646   1.637   1.875   1.904
 4916SOL    HW115647   1.601   1.832   1.987
 4916SOL    HW215648   1.717   1.931   1.927
 4917SOL     OW15649   0.858   5.663   6.358
 4917SOL    HW115650   0.798   5.677   6.279
 4917SOL    HW215651   0.944   5.622   6.328
 4918SOL     OW15652   2.180   6.504   3.952
 4918SOL    HW115653   2.262   6.556   3.974
 4918SOL    HW215654   2.103   6.539   4.006
 4919SOL     OW15655   2.255   2.992   1.412
 4919SOL    HW115656   2.179   2.934   1.441
 4919SOL    HW215657   2.326   2.935   1.370
 4920SOL     OW15658   3.608   1.913   6.105
 4920SOL    HW115659   3.623   1.861   6.189
 4920SOL    HW215660   3.530   1.973   6.116
 4921SOL     OW15661   6.758   4.607   2.209
 4921SOL    HW115662   6.824   4.646   2.145
 4921SOL    HW215663   6.665   4.630   2.180
 4922SOL     OW15664   1.000   3.478   5.897
 4922SOL    HW115665   0.964   3.570   5.884
 4922SOL    HW215666   1.096   3.482   5.923
 4923SOL     OW15667   3.517   2.530   7.014
 4923SOL    HW115668   3.467   2.486   6.939
 4923SOL    HW215669   3.611   2.495   7.016
 4924SOL     OW15670   0.449   3.058   4.509
 4924SOL    HW115671   0.537   3.011   4.497
 4924SOL    HW215672   0.459   3.154   4.484
 4925SOL     OW15673   4.705   5.205   4.843
 4925SOL    HW115674   4.785   5.186   4.785
 4925SOL    HW215675   4.623   5.169   4.798
 4926SOL     OW15676   4.251   3.560   0.445
 4926SOL    HW115677   4.231   3.553   0.543
 4926SOL    HW215678   4.273   3.655   0.423
 4927SOL     OW15679   2.869   3.494   2.245
 4927SOL    HW115680   2.774   3.514   2.220
 4927SOL    HW215681   2.875   3.475   2.343
 4928SOL     OW15682   6.876   1.729   6.173
 4928SOL    HW115683   6.900   1.633   6.164
 4928SOL    HW215684   6.797   1.739   6.233
 4929SOL     OW15685   1.292   4.795   4.486
 4929SOL    HW115686   1.238   4.810   4.403
 4929SOL    HW215687   1.344   4.710   4.477
 4930SOL     OW15688   0.565   3.638   0.270
 4930SOL    HW115689   0.474   3.602   0.249
 4930SOL    HW215690   0.572   3.657   0.368
 4931SOL     OW15691   5.442   6.515   1.078
 4931SOL    HW115692   5.410   6.519   0.983
 4931SOL    HW215693   5.533   6.556   1.084
 4932SOL     OW15694   3.369   1.675   1.112
 4932SOL    HW115695   3.312   1.672   1.030
 4932SOL    HW215696   3.465   1.688   1.086
 4933SOL     OW15697   2.199   6.860   4.905
 4933SOL    HW115698   2.283   6.912   4.893
 4933SOL    HW215699   2.167   6.870   5.000
 4934SOL     OW15700   2.056   6.393   5.697
 4934SOL    HW115701   1.996   6.384   5.618
 4934SOL    HW215702   2.090   6.302   5.723
 4935SOL     OW15703   1.525   3.269   0.815
 4935SOL    HW115704   1.455   3.327   0.774
 4935SOL    HW215705   1.497   3.173   0.808
 4936SOL     OW15706   6.651   4.281   1.621
 4936SOL    HW115707   6.733   4.229   1.600
 4936SOL    HW215708   6.677   4.374   1.650
 4937SOL     OW15709   0.394   3.919   5.473
 4937SOL    HW115710   0.469   3.855   5.486
 4937SOL    HW215711   0.421   4.011   5.503
 4938SOL     OW15712   3.249   3.957   0.902
 4938SOL    HW115713   3.151   3.977   0.905
 4938SOL    HW215714   3.281   3.958   0.807
 4939SOL     OW15715   1.020   1.708   1.396
 4939SOL    HW115716   1.094   1.645   1.422
 4939SOL    HW215717   0.933   1.659   1.399
 4940SOL     OW15718   1.907   1.626   5.004
 4940SOL    HW115719   1.972   1.561   4.965
 4940SOL    HW215720   1.814   1.603   4.973
 4941SOL     OW15721   3.398   2.091   6.089
 4941SOL    HW115722   3.360   2.183   6.092
 4941SOL    HW215723   3.324   2.024   6.086
 4942SOL     OW15724   0.163   0.852   2.389
 4942SOL    HW115725   0.243   0.867   2.331
 4942SOL    HW215726   0.175   0.898   2.476
 4943SOL     OW15727   4.758   2.497   6.698
 4943SOL    HW115728   4.775   2.500   6.797
 4943SOL    HW215729   4.845   2.492   6.650
 4944SOL     OW15730   0.689   4.581   0.490
 4944SOL    HW115731   0.690   4.546   0.583
 4944SOL    HW215732   0.600   4.563   0.448
 4945SOL     OW15733   2.602   0.626   6.504
 4945SOL    HW115734   2.504   0.613   6.516
 4945SOL    HW215735   2.648   0.615   6.592
 4946SOL     OW15736   2.048   5.808   0.044
 4946SOL    HW115737   2.112   5.813   0.122
 4946SOL    HW215738   2.099   5.816   6.982
 4947SOL     OW15739   1.324   0.608   1.428
 4947SOL    HW115740   1.381   0.662   1.490
 4947SOL    HW215741   1.363   0.517   1.417
 4948SOL     OW15742   1.701   3.433   2.186
 4948SOL    HW115743   1.734   3.527   2.176
 4948SOL    HW215744   1.651   3.406   2.104
 4949SOL     OW15745   6.141   5.183   7.004
 4949SOL    HW115746   6.143   5.257   6.937
 4949SOL    HW215747   6.047   5.147   7.011
 4950SOL     OW15748   3.991   3.747   5.618
 4950SOL    HW115749   3.949   3.737   5.708
 4950SOL    HW215750   4.085   3.714   5.621
 4951SOL     OW15751   4.598   5.244   3.372
 4951SOL    HW115752   4.567   5.209   3.460
 4951SOL    HW215753   4.646   5.172   3.322
 4952SOL     OW15754   0.979   0.700   6.644
 4952SOL    HW115755   1.033   0.657   6.716
 4952SOL    HW215756   0.989   0.648   6.559
 4953SOL     OW15757   1.030   1.302   6.328
 4953SOL    HW115758   1.036   1.216   6.277
 4953SOL    HW215759   0.952   1.298   6.391
 4954SOL     OW15760   3.536   4.003   5.695
 4954SOL    HW115761   3.495   3.982   5.783
 4954SOL    HW215762   3.629   3.968   5.692
 4955SOL     OW15763   3.814   6.119   0.099
 4955SOL    HW115764   3.911   6.125   0.124
 4955SOL    HW215765   3.785   6.024   0.098
 4956SOL     OW15766   2.346   0.315   3.715
 4956SOL    HW115767   2.298   0.228   3.716
 4956SOL    HW215768   2.338   0.359   3.805
 4957SOL     OW15769   5.935   5.638   0.029
 4957SOL    HW115770   6.012   5.587   0.065
 4957SOL    HW215771   5.899   5.591   6.971
 4958SOL     OW15772   3.174   5.179   0.686
 4958SOL    HW115773   3.083   5.220   0.687
 4958SOL    HW215774   3.216   5.190   0.776
 4959SOL     OW15775   1.924   1.454   2.754
 4959SOL    HW115776   1.842   1.471   2.699
 4959SOL    HW215777   1.995   1.520   2.731
 4960SOL     OW15778   5.400   3.860   4.688
 4960SOL    HW115779   5.317   3.899   4.649
 4960SOL    HW215780   5.385   3.839   4.785
 4961SOL     OW15781   3.949   3.016   2.439
 4961SOL    HW115782   4.042   3.049   2.419
 4961SOL    HW215783   3.929   3.028   2.536
 4962SOL     OW15784   1.904   2.675   0.776
 4962SOL    HW115785   1.865   2.710   0.691
 4962SOL    HW215786   2.003   2.688   0.776
 4963SOL     OW15787   0.295   3.949   6.619
 4963SOL    HW115788   0.364   3.972   6.688
 4963SOL    HW215789   0.328   3.976   6.529
 4964SOL     OW15790   1.283   5.405   3.828
 4964SOL    HW115791   1.253   5.338   3.760
 4964SOL    HW215792   1.206   5.464   3.853
 4965SOL     OW15793   2.684   0.452   3.126
 4965SOL    HW115794   2.608   0.411   3.176
 4965SOL    HW215795   2.750   0.490   3.192
 4966SOL     OW15796   3.853   6.977   5.503
 4966SOL    HW115797   3.923   0.007   5.456
 4966SOL    HW215798   3.802   6.923   5.436
 4967SOL     OW15799   5.000   4.629   3.110
 4967SOL    HW115800   4.980   4.727   3.122
 4967SOL    HW215801   4.934   4.590   3.045
 4968SOL     OW15802   6.511   2.793   3.321
 4968SOL    HW115803   6.556   2.718   3.370
 4968SOL    HW215804   6.413   2.788   3.336
 4969SOL     OW15805   1.223   5.602   4.447
 4969SOL    HW115806   1.151   5.636   4.508
 4969SOL    HW215807   1.252   5.675   4.386
 4970SOL     OW15808   2.269   0.972   1.170
 4970SOL    HW115809   2.193   0.910   1.193
 4970SOL    HW215810   2.268   0.990   1.072
 4971SOL     OW15811   0.144   6.085   2.022
 4971SOL    HW115812   0.182   6.016   1.959
 4971SOL    HW215813   0.208   6.099   2.097
 4972SOL     OW15814   0.359   3.506   0.951
 4972SOL    HW115815   0.435   3.459   0.996
 4972SOL    HW215816   0.313   3.442   0.890
 4973SOL     OW15817   5.353   2.413   0.169
 4973SOL    HW115818   5.309   2.502   0.164
 4973SOL    HW215819   5.283   2.341   0.167
 4974SOL     OW15820   3.337   0.555   5.267
 4974SOL    HW115821   3.310   0.613   5.343
 4974SOL    HW215822   3.292   0.587   5.183
 4975SOL     OW15823   5.997   4.220   0.936
 4975SOL    HW115824   6.012   4.273   1.020
 4975SOL    HW215825   5.969   4.281   0.862
 4976SOL     OW15826   1.320   0.329   3.998
 4976SOL    HW115827   1.294   0.248   4.050
 4976SOL    HW215828   1.240   0.363   3.948
 4977SOL     OW15829   1.142   3.460   4.716
 4977SOL    HW115830   1.145   3.465   4.616
 4977SOL    HW215831   1.107   3.547   4.752
 4978SOL     OW15832   6.228   5.422   4.681
 4978SOL    HW115833   6.263   5.491   4.617
 4978SOL    HW215834   6.265   5.332   4.656
 4979SOL     OW15835   3.536   6.503   6.005
 4979SOL    HW115836   3.634   6.516   5.992
 4979SOL    HW215837   3.486   6.582   5.967
 4980SOL     OW15838   5.555   3.046   3.937
 4980SOL    HW115839   5.551   3.107   3.858
 4980SOL    HW215840   5.483   3.071   4.002
 4981SOL     OW15841   3.199   6.676   2.949
 4981SOL    HW115842   3.171   6.581   2.940
 4981SOL    HW215843   3.142   6.734   2.890
 4982SOL     OW15844   3.828   1.764   4.761
 4982SOL    HW115845   3.843   1.822   4.841
 4982SOL    HW215846   3.854   1.814   4.678
 4983SOL     OW15847   5.317   3.662   2.923
 4983SOL    HW115848   5.334   3.732   2.853
 4983SOL    HW215849   5.364   3.688   3.007
 4984SOL     OW15850   5.092   3.577   5.151
 4984SOL    HW115851   5.149   3.659   5.146
 4984SOL    HW215852   4.996   3.602   5.137
 4985SOL     OW15853   5.009   6.862   2.669
 4985SOL    HW115854   5.061   6.802   2.608
 4985SOL    HW215855   4.984   6.946   2.620
 4986SOL     OW15856   1.443   5.663   1.274
 4986SOL    HW115857   1.501   5.608   1.214
 4986SOL    HW215858   1.362   5.611   1.301
 4987SOL     OW15859   2.258   3.915   2.069
 4987SOL    HW115860   2.228   3.838   2.125
 4987SOL    HW215861   2.275   3.884   1.976
 4988SOL     OW15862   6.445   5.153   3.930
 4988SOL    HW115863   6.538   5.132   3.962
 4988SOL    HW215864   6.449   5.178   3.833
 4989SOL     OW15865   6.985   0.299   4.003
 4989SOL    HW115866   6.941   0.209   4.009
 4989SOL    HW215867   6.980   0.343   4.093
 4990SOL     OW15868   4.844   1.844   5.965
 4990SOL    HW115869   4.910   1.913   5.937
 4990SOL    HW215870   4.760   1.888   5.995
 4991SOL     OW15871   2.374   5.547   5.190
 4991SOL    HW115872   2.393   5.497   5.274
 4991SOL    HW215873   2.456   5.598   5.162
 4992SOL     OW15874   2.683   2.833   5.459
 4992SOL    HW115875   2.774   2.804   5.486
 4992SOL    HW215876   2.622   2.753   5.457
 4993SOL     OW15877   2.305   5.210   3.561
 4993SOL    HW115878   2.218   5.238   3.602
 4993SOL    HW215879   2.380   5.231   3.624
 4994SOL     OW15880   3.096   4.793   5.602
 4994SOL    HW115881   3.131   4.703   5.630
 4994SOL    HW215882   3.109   4.858   5.677
 4995SOL     OW15883   0.467   2.263   5.852
 4995SOL    HW115884   0.483   2.167   5.874
 4995SOL    HW215885   0.376   2.290   5.883
 4996SOL     OW15886   0.130   0.712   4.769
 4996SOL    HW115887   0.202   0.733   4.835
 4996SOL    HW215888   0.043   0.700   4.817
 4997SOL     OW15889   3.835   1.743   0.783
 4997SOL    HW115890   3.880   1.679   0.845
 4997SOL    HW215891   3.888   1.751   0.699
 4998SOL     OW15892   0.910   3.771   3.209
 4998SOL    HW115893   0.912   3.856   3.157
 4998SOL    HW215894   0.847   3.781   3.287
 4999SOL     OW15895   6.999   2.812   3.364
 4999SOL    HW115896   0.041   2.739   3.386
 4999SOL    HW215897   6.923   2.774   3.312
 5000SOL     OW15898   2.888   6.664   2.768
 5000SOL    HW115899   2.937   6.751   2.769
 5000SOL    HW215900   2.818   6.665   2.839
 5001SOL     OW15901   0.297   6.218   3.247
 5001SOL    HW115902   0.218   6.237   3.188
 5001SOL    HW215903   0.265   6.195   3.338
 5002SOL     OW15904   1.039   5.410   3.959
 5002SOL    HW115905   1.043   5.418   4.059
 5002SOL    HW215906   0.956   5.456   3.926
 5003SOL     OW15907   3.904   1.477   1.061
 5003SOL    HW115908   3.817   1.451   1.018
 5003SOL    HW215909   3.907   1.440   1.154
 5004SOL     OW15910   4.220   6.479   0.483
 5004SOL    HW115911   4.124   6.472   0.512
 5004SOL    HW215912   4.258   6.388   0.470
 5005SOL     OW15913   4.250   3.232   0.776
 5005SOL    HW115914   4.266   3.317   0.726
 5005SOL    HW215915   4.190   3.250   0.853
 5006SOL     OW15916   4.679   0.900   2.535
 5006SOL    HW115917   4.673   0.808   2.496
 5006SOL    HW215918   4.624   0.905   2.619
 5007SOL     OW15919   6.620   5.442   2.961
 5007SOL    HW115920   6.601   5.522   2.903
 5007SOL    HW215921   6.664   5.371   2.906
 5008SOL     OW15922   4.564   0.101   3.965
 5008SOL    HW115923   4.497   0.050   4.019
 5008SOL    HW215924   4.547   0.199   3.975
 5009SOL     OW15925   0.859   1.604   6.623
 5009SOL    HW115926   0.865   1.677   6.690
 5009SOL    HW215927   0.913   1.629   6.542
 5010SOL     OW15928   5.441   4.576   1.093
 5010SOL    HW115929   5.359   4.556   1.148
 5010SOL    HW215930   5.474   4.668   1.114
 5011SOL     OW15931   1.829   1.998   5.296
 5011SOL    HW115932   1.793   2.014   5.203
 5011SOL    HW215933   1.813   2.079   5.352
 5012SOL     OW15934   5.846   2.997   5.561
 5012SOL    HW115935   5.941   3.008   5.592
 5012SOL    HW215936   5.803   3.087   5.554
 5013SOL     OW15937   5.698   5.901   5.442
 5013SOL    HW115938   5.617   5.953   5.469
 5013SOL    HW215939   5.698   5.812   5.489
 5014SOL     OW15940   5.921   3.100   0.484
 5014SOL    HW115941   5.987   3.151   0.429
 5014SOL    HW215942   5.861   3.047   0.424
 5015SOL     OW15943   6.357   5.319   4.141
 5015SOL    HW115944   6.420   5.386   4.181
 5015SOL    HW215945   6.402   5.271   4.066
 5016SOL     OW15946   1.009   1.973   6.476
 5016SOL    HW115947   0.998   1.875   6.462
 5016SOL    HW215948   0.940   2.023   6.424
 5017SOL     OW15949   1.128   2.983   1.888
 5017SOL    HW115950   1.128   2.950   1.983
 5017SOL    HW215951   1.111   2.907   1.826
 5018SOL     OW15952   0.637   0.656   0.390
 5018SOL    HW115953   0.595   0.655   0.481
 5018SOL    HW215954   0.727   0.698   0.396
 5019SOL     OW15955   1.962   4.237   3.660
 5019SOL    HW115956   2.057   4.253   3.686
 5019SOL    HW215957   1.903   4.248   3.740
 5020SOL     OW15958   1.597   6.939   3.183
 5020SOL    HW115959   1.569   6.968   3.092
 5020SOL    HW215960   1.516   6.931   3.241
 5021SOL     OW15961   2.358   0.480   1.552
 5021SOL    HW115962   2.418   0.528   1.615
 5021SOL    HW215963   2.347   0.534   1.469
 5022SOL     OW15964   0.261   3.174   1.701
 5022SOL    HW115965   0.264   3.262   1.748
 5022SOL    HW215966   0.304   3.183   1.611
 5023SOL     OW15967   0.846   2.516   2.905
 5023SOL    HW115968   0.865   2.485   2.998
 5023SOL    HW215969   0.870   2.444   2.840
 5024SOL     OW15970   4.473   4.018   6.940
 5024SOL    HW115971   4.376   4.037   6.935
 5024SOL    HW215972   4.503   4.023   0.013
 5025SOL     OW15973   5.113   2.596   4.658
 5025SOL    HW115974   5.151   2.686   4.639
 5025SOL    HW215975   5.122   2.576   4.756
 5026SOL     OW15976   5.167   5.788   5.046
 5026SOL    HW115977   5.157   5.714   4.979
 5026SOL    HW215978   5.078   5.833   5.059
 5027SOL     OW15979   5.397   6.229   1.074
 5027SOL    HW115980   5.310   6.231   1.025
 5027SOL    HW215981   5.424   6.323   1.096
 5028SOL     OW15982   6.898   2.043   2.311
 5028SOL    HW115983   6.998   2.039   2.317
 5028SOL    HW215984   6.862   2.091   2.391
 5029SOL     OW15985   5.832   2.725   3.034
 5029SOL    HW115986   5.779   2.672   2.968
 5029SOL    HW215987   5.915   2.674   3.057
 5030SOL     OW15988   0.740   3.017   0.927
 5030SOL    HW115989   0.817   2.956   0.910
 5030SOL    HW215990   0.749   3.057   1.018
 5031SOL     OW15991   6.408   0.319   6.639
 5031SOL    HW115992   6.327   0.273   6.604
 5031SOL    HW215993   6.473   0.333   6.565
 5032SOL     OW15994   2.461   4.825   6.362
 5032SOL    HW115995   2.559   4.811   6.380
 5032SOL    HW215996   2.412   4.739   6.373
 5033SOL     OW15997   1.998   6.717   4.010
 5033SOL    HW115998   1.911   6.696   3.966
 5033SOL    HW215999   2.003   6.815   4.030
 5034SOL     OW16000   4.493   6.019   3.576
 5034SOL    HW116001   4.513   5.942   3.638
 5034SOL    HW216002   4.395   6.038   3.578
 5035SOL     OW16003   1.685   3.677   4.095
 5035SOL    HW116004   1.663   3.769   4.128
 5035SOL    HW216005   1.701   3.617   4.173
 5036SOL     OW16006   1.316   3.202   4.782
 5036SOL    HW116007   1.232   3.252   4.803
 5036SOL    HW216008   1.395   3.263   4.795
 5037SOL     OW16009   5.742   4.487   1.229
 5037SOL    HW116010   5.680   4.411   1.251
 5037SOL    HW216011   5.734   4.558   1.299
 5038SOL     OW16012   2.932   3.648   4.501
 5038SOL    HW116013   2.931   3.747   4.485
 5038SOL    HW216014   2.992   3.627   4.578
 5039SOL     OW16015   0.255   3.359   6.427
 5039SOL    HW116016   0.340   3.370   6.478
 5039SOL    HW216017   0.196   3.437   6.443
 5040SOL     OW16018   0.719   1.725   4.768
 5040SOL    HW116019   0.737   1.629   4.744
 5040SOL    HW216020   0.688   1.730   4.863
 5041SOL     OW16021   6.643   2.326   1.243
 5041SOL    HW116022   6.626   2.388   1.320
 5041SOL    HW216023   6.736   2.342   1.208
 5042SOL     OW16024   1.110   1.540   5.538
 5042SOL    HW116025   1.053   1.614   5.574
 5042SOL    HW216026   1.057   1.485   5.474
 5043SOL     OW16027   3.126   0.207   1.802
 5043SOL    HW116028   3.092   0.157   1.881
 5043SOL    HW216029   3.215   0.248   1.824
 5044SOL     OW16030   0.375   6.203   1.032
 5044SOL    HW116031   0.374   6.149   0.948
 5044SOL    HW216032   0.451   6.172   1.090
 5045SOL     OW16033   6.120   2.808   1.809
 5045SOL    HW116034   6.089   2.753   1.731
 5045SOL    HW216035   6.175   2.884   1.776
 5046SOL     OW16036   3.954   3.087   2.029
 5046SOL    HW116037   4.023   3.145   2.074
 5046SOL    HW216038   3.961   2.994   2.065
 5047SOL     OW16039   2.232   4.203   3.705
 5047SOL    HW116040   2.285   4.284   3.730
 5047SOL    HW216041   2.232   4.138   3.781
 5048SOL     OW16042   2.120   0.051   6.080
 5048SOL    HW116043   2.050   0.011   6.139
 5048SOL    HW216044   2.208   0.008   6.101
 5049SOL     OW16045   3.880   1.868   6.655
 5049SOL    HW116046   3.970   1.833   6.630
 5049SOL    HW216047   3.812   1.838   6.588
 5050SOL     OW16048   1.117   0.385   1.115
 5050SOL    HW116049   1.207   0.427   1.109
 5050SOL    HW216050   1.063   0.433   1.184
 5051SOL     OW16051   4.203   4.252   0.866
 5051SOL    HW116052   4.133   4.231   0.934
 5051SOL    HW216053   4.279   4.299   0.910
 5052SOL     OW16054   1.958   3.620   4.277
 5052SOL    HW116055   2.020   3.545   4.253
 5052SOL    HW216056   1.901   3.593   4.355
 5053SOL     OW16057   6.503   0.877   0.722
 5053SOL    HW116058   6.601   0.898   0.726
 5053SOL    HW216059   6.488   0.783   0.750
 5054SOL     OW16060   4.088   5.294   2.958
 5054SOL    HW116061   4.187   5.311   2.964
 5054SOL    HW216062   4.039   5.379   2.974
 5055SOL     OW16063   6.396   4.396   5.595
 5055SOL    HW116064   6.362   4.312   5.553
 5055SOL    HW216065   6.344   4.416   5.678
 5056SOL     OW16066   6.376   4.732   3.618
 5056SOL    HW116067   6.431   4.801   3.571
 5056SOL    HW216068   6.432   4.689   3.690
 5057SOL     OW16069   6.584   6.261   2.267
 5057SOL    HW116070   6.615   6.211   2.185
 5057SOL    HW216071   6.663   6.284   2.324
 5058SOL     OW16072   3.069   5.424   5.728
 5058SOL    HW116073   3.000   5.356   5.754
 5058SOL    HW216074   3.088   5.484   5.806
 5059SOL     OW16075   6.611   6.910   2.323
 5059SOL    HW116076   6.677   6.906   2.398
 5059SOL    HW216077   6.653   6.874   2.240
 5060SOL     OW16078   6.853   3.021   6.967
 5060SOL    HW116079   6.829   2.928   6.996
 5060SOL    HW216080   6.952   3.033   6.972
 5061SOL     OW16081   5.572   3.334   0.789
 5061SOL    HW116082   5.526   3.417   0.758
 5061SOL    HW216083   5.566   3.329   0.889
 5062SOL     OW16084   6.462   0.390   0.145
 5062SOL    HW116085   6.405   0.436   0.214
 5062SOL    HW216086   6.405   0.333   0.087
 5063SOL     OW16087   0.992   6.417   2.704
 5063SOL    HW116088   1.000   6.342   2.770
 5063SOL    HW216089   0.950   6.383   2.620
 5064SOL     OW16090   5.465   4.239   0.176
 5064SOL    HW116091   5.437   4.251   0.080
 5064SOL    HW216092   5.554   4.194   0.179
 5065SOL     OW16093   2.536   7.007   5.987
 5065SOL    HW116094   2.532   6.930   6.050
 5065SOL    HW216095   2.486   0.061   6.026
 5066SOL     OW16096   4.854   4.520   0.293
 5066SOL    HW116097   4.821   4.610   0.265
 5066SOL    HW216098   4.900   4.527   0.381
 5067SOL     OW16099   5.312   0.775   6.428
 5067SOL    HW116100   5.395   0.819   6.396
 5067SOL    HW216101   5.282   0.706   6.362
 5068SOL     OW16102   2.907   5.157   1.007
 5068SOL    HW116103   2.934   5.249   1.033
 5068SOL    HW216104   2.812   5.140   1.036
 5069SOL     OW16105   0.192   5.593   3.226
 5069SOL    HW116106   0.135   5.671   3.251
 5069SOL    HW216107   0.198   5.530   3.303
 5070SOL     OW16108   5.378   2.388   3.303
 5070SOL    HW116109   5.319   2.320   3.347
 5070SOL    HW216110   5.332   2.426   3.223
 5071SOL     OW16111   4.957   0.707   1.454
 5071SOL    HW116112   5.005   0.660   1.529
 5071SOL    HW216113   5.021   0.722   1.379
 5072SOL     OW16114   0.583   4.070   2.050
 5072SOL    HW116115   0.518   4.003   2.086
 5072SOL    HW216116   0.591   4.059   1.951
 5073SOL     OW16117   4.079   2.250   3.342
 5073SOL    HW116118   4.024   2.234   3.259
 5073SOL    HW216119   4.162   2.193   3.338
 5074SOL     OW16120   4.020   3.961   5.195
 5074SOL    HW116121   4.039   3.864   5.213
 5074SOL    HW216122   4.049   4.016   5.273
 5075SOL     OW16123   6.569   0.079   4.375
 5075SOL    HW116124   6.566   0.046   4.469
 5075SOL    HW216125   6.476   0.097   4.343
 5076SOL     OW16126   5.404   0.510   0.733
 5076SOL    HW116127   5.477   0.490   0.668
 5076SOL    HW216128   5.437   0.575   0.801
 5077SOL     OW16129   0.176   1.695   2.494
 5077SOL    HW116130   0.206   1.639   2.417
 5077SOL    HW216131   0.256   1.738   2.537
 5078SOL     OW16132   0.122   1.875   4.314
 5078SOL    HW116133   0.035   1.827   4.322
 5078SOL    HW216134   0.149   1.879   4.218
 5079SOL     OW16135   4.827   5.210   4.512
 5079SOL    HW116136   4.868   5.169   4.594
 5079SOL    HW216137   4.866   5.301   4.498
 5080SOL     OW16138   5.161   0.465   5.830
 5080SOL    HW116139   5.212   0.389   5.869
 5080SOL    HW216140   5.080   0.430   5.783
 5081SOL     OW16141   3.426   3.252   3.497
 5081SOL    HW116142   3.492   3.248   3.422
 5081SOL    HW216143   3.349   3.191   3.477
 5082SOL     OW16144   0.873   2.205   5.103
 5082SOL    HW116145   0.811   2.221   5.025
 5082SOL    HW216146   0.962   2.176   5.069
 5083SOL     OW16147   1.233   3.805   2.366
 5083SOL    HW116148   1.213   3.806   2.465
 5083SOL    HW216149   1.245   3.899   2.334
 5084SOL     OW16150   1.636   5.623   2.325
 5084SOL    HW116151   1.643   5.681   2.406
 5084SOL    HW216152   1.561   5.558   2.337
 5085SOL     OW16153   6.313   3.767   0.889
 5085SOL    HW116154   6.220   3.747   0.918
 5085SOL    HW216155   6.315   3.777   0.789
 5086SOL     OW16156   6.395   5.232   4.611
 5086SOL    HW116157   6.414   5.283   4.528
 5086SOL    HW216158   6.442   5.143   4.608
 5087SOL     OW16159   5.061   5.154   5.977
 5087SOL    HW116160   5.089   5.059   5.959
 5087SOL    HW216161   4.969   5.155   6.015
 5088SOL     OW16162   5.742   1.075   6.653
 5088SOL    HW116163   5.809   1.147   6.641
 5088SOL    HW216164   5.782   0.987   6.626
 5089SOL     OW16165   5.689   2.802   4.065
 5089SOL    HW116166   5.636   2.848   3.993
 5089SOL    HW216167   5.685   2.856   4.149
 5090SOL     OW16168   0.863   4.562   0.165
 5090SOL    HW116169   0.961   4.569   0.148
 5090SOL    HW216170   0.847   4.506   0.245
 5091SOL     OW16171   0.684   6.207   3.772
 5091SOL    HW116172   0.655   6.295   3.810
 5091SOL    HW216173   0.746   6.222   3.696
 5092SOL     OW16174   3.540   3.009   0.805
 5092SOL    HW116175   3.591   3.090   0.775
 5092SOL    HW216176   3.547   2.938   0.736
 5093SOL     OW16177   0.990   1.074   2.396
 5093SOL    HW116178   0.958   1.163   2.363
 5093SOL    HW216179   0.962   1.063   2.491
 5094SOL     OW16180   1.071   0.080   6.302
 5094SOL    HW116181   1.031   0.065   6.211
 5094SOL    HW216182   1.103   0.175   6.309
 5095SOL     OW16183   3.128   6.614   5.232
 5095SOL    HW116184   3.050   6.626   5.293
 5095SOL    HW216185   3.126   6.522   5.194
 5096SOL     OW16186   3.070   5.905   2.048
 5096SOL    HW116187   2.985   5.866   2.084
 5096SOL    HW216188   3.049   5.986   1.993
 5097SOL     OW16189   0.823   2.510   6.868
 5097SOL    HW116190   0.883   2.578   6.910
 5097SOL    HW216191   0.822   2.427   6.924
 5098SOL     OW16192   1.287   2.455   3.058
 5098SOL    HW116193   1.367   2.411   3.098
 5098SOL    HW216194   1.241   2.510   3.128
 5099SOL     OW16195   0.609   1.310   4.048
 5099SOL    HW116196   0.662   1.225   4.059
 5099SOL    HW216197   0.577   1.318   3.954
 5100SOL     OW16198   5.030   4.814   5.634
 5100SOL    HW116199   4.934   4.841   5.633
 5100SOL    HW216200   5.044   4.736   5.573
 5101SOL     OW16201   5.221   6.085   0.644
 5101SOL    HW116202   5.129   6.068   0.607
 5101SOL    HW216203   5.270   5.999   0.655
 5102SOL     OW16204   3.759   6.283   4.189
 5102SOL    HW116205   3.709   6.347   4.130
 5102SOL    HW216206   3.849   6.321   4.210
 5103SOL     OW16207   1.395   2.111   3.505
 5103SOL    HW116208   1.386   2.131   3.603
 5103SOL    HW216209   1.344   2.178   3.452
 5104SOL     OW16210   1.099   0.430   0.760
 5104SOL    HW116211   1.072   0.435   0.664
 5104SOL    HW216212   1.057   0.350   0.803
 5105SOL     OW16213   1.621   3.031   0.100
 5105SOL    HW116214   1.568   3.040   0.016
 5105SOL    HW216215   1.714   3.000   0.077
 5106SOL     OW16216   1.931   6.837   2.120
 5106SOL    HW116217   1.881   6.922   2.137
 5106SOL    HW216218   2.023   6.858   2.087
 5107SOL     OW16219   1.734   6.867   5.798
 5107SOL    HW116220   1.675   6.946   5.780
 5107SOL    HW216221   1.797   6.890   5.873
 5108SOL     OW16222   3.520   3.712   4.691
 5108SOL    HW116223   3.576   3.785   4.730
 5108SOL    HW216224   3.550   3.624   4.727
 5109SOL     OW16225   0.325   2.234   2.100
 5109SOL    HW116226   0.335   2.332   2.081
 5109SOL    HW216227   0.353   2.215   2.194
 5110SOL     OW16228   1.624   5.402   5.793
 5110SOL    HW116229   1.629   5.330   5.723
 5110SOL    HW216230   1.699   5.467   5.779
 5111SOL     OW16231   1.087   0.875   6.193
 5111SOL    HW116232   1.001   0.854   6.146
 5111SOL    HW216233   1.138   0.790   6.207
 5112SOL     OW16234   0.180   6.901   3.364
 5112SOL    HW116235   0.237   6.858   3.434
 5112SOL    HW216236   0.235   6.968   3.313
 5113SOL     OW16237   0.536   1.167   6.317
 5113SOL    HW116238   0.500   1.232   6.250
 5113SOL    HW216239   0.481   1.084   6.315
 5114SOL     OW16240   4.839   5.264   6.339
 5114SOL    HW116241   4.848   5.293   6.244
 5114SOL    HW216242   4.755   5.212   6.351
 5115SOL     OW16243   2.609   3.875   5.329
 5115SOL    HW116244   2.585   3.780   5.345
 5115SOL    HW216245   2.563   3.907   5.246
 5116SOL     OW16246   6.682   3.574   1.481
 5116SOL    HW116247   6.630   3.659   1.492
 5116SOL    HW216248   6.674   3.519   1.564
 5117SOL     OW16249   2.370   5.493   2.586
 5117SOL    HW116250   2.341   5.579   2.545
 5117SOL    HW216251   2.348   5.418   2.524
 5118SOL     OW16252   4.095   0.085   1.341
 5118SOL    HW116253   4.089   0.115   1.436
 5118SOL    HW216254   4.027   0.014   1.323
 5119SOL     OW16255   6.289   0.289   2.425
 5119SOL    HW116256   6.237   0.215   2.383
 5119SOL    HW216257   6.226   0.355   2.465
 5120SOL     OW16258   3.846   1.353   0.663
 5120SOL    HW116259   3.926   1.296   0.678
 5120SOL    HW216260   3.788   1.351   0.744
 5121SOL     OW16261   0.658   3.924   4.190
 5121SOL    HW116262   0.712   3.995   4.145
 5121SOL    HW216263   0.581   3.898   4.132
 5122SOL     OW16264   2.923   5.530   2.626
 5122SOL    HW116265   3.002   5.499   2.573
 5122SOL    HW216266   2.943   5.620   2.666
 5123SOL     OW16267   6.187   3.274   2.334
 5123SOL    HW116268   6.173   3.192   2.278
 5123SOL    HW216269   6.284   3.292   2.344
 5124SOL     OW16270   3.436   6.632   0.146
 5124SOL    HW116271   3.513   6.695   0.139
 5124SOL    HW216272   3.378   6.658   0.222
 5125SOL     OW16273   0.648   1.950   6.445
 5125SOL    HW116274   0.567   2.003   6.470
 5125SOL    HW216275   0.722   2.013   6.420
 5126SOL     OW16276   4.367   1.762   0.376
 5126SOL    HW116277   4.373   1.784   0.278
 5126SOL    HW216278   4.345   1.665   0.387
 5127SOL     OW16279   4.931   3.714   6.088
 5127SOL    HW116280   4.980   3.644   6.035
 5127SOL    HW216281   4.841   3.678   6.114
 5128SOL     OW16282   0.227   0.285   0.064
 5128SOL    HW116283   0.225   0.188   0.042
 5128SOL    HW216284   0.246   0.298   0.161
 5129SOL     OW16285   4.502   2.556   3.983
 5129SOL    HW116286   4.481   2.507   4.067
 5129SOL    HW216287   4.564   2.633   4.002
 5130SOL     OW16288   1.938   6.744   4.833
 5130SOL    HW116289   1.964   6.653   4.803
 5130SOL    HW216290   2.018   6.792   4.869
 5131SOL     OW16291   3.186   4.968   2.918
 5131SOL    HW116292   3.122   4.918   2.860
 5131SOL    HW216293   3.157   5.063   2.925
 5132SOL     OW16294   3.462   1.583   6.055
 5132SOL    HW116295   3.363   1.591   6.052
 5132SOL    HW216296   3.504   1.668   6.023
 5133SOL     OW16297   3.884   4.179   6.448
 5133SOL    HW116298   3.829   4.224   6.519
 5133SOL    HW216299   3.889   4.238   6.368
 5134SOL     OW16300   6.298   6.132   1.077
 5134SOL    HW116301   6.229   6.150   1.008
 5134SOL    HW216302   6.313   6.033   1.085
 5135SOL     OW16303   0.831   2.800   2.198
 5135SOL    HW116304   0.925   2.824   2.174
 5135SOL    HW216305   0.773   2.808   2.117
 5136SOL     OW16306   6.889   0.204   4.729
 5136SOL    HW116307   6.982   0.239   4.739
 5136SOL    HW216308   6.880   0.118   4.779
 5137SOL     OW16309   5.008   0.824   3.819
 5137SOL    HW116310   5.066   0.787   3.747
 5137SOL    HW216311   5.064   0.872   3.887
 5138SOL     OW16312   3.484   3.376   2.864
 5138SOL    HW116313   3.412   3.390   2.931
 5138SOL    HW216314   3.480   3.282   2.829
 5139SOL     OW16315   5.319   1.110   4.619
 5139SOL    HW116316   5.269   1.195   4.637
 5139SOL    HW216317   5.291   1.040   4.684
 5140SOL     OW16318   2.616   3.595   5.842
 5140SOL    HW116319   2.644   3.521   5.781
 5140SOL    HW216320   2.543   3.648   5.799
 5141SOL     OW16321   0.769   2.948   1.485
 5141SOL    HW116322   0.856   2.997   1.489
 5141SOL    HW216323   0.698   3.003   1.529
 5142SOL     OW16324   6.935   6.549   2.712
 5142SOL    HW116325   6.940   6.449   2.713
 5142SOL    HW216326   6.994   6.586   2.784
 5143SOL     OW16327   6.211   6.250   2.592
 5143SOL    HW116328   6.258   6.267   2.679
 5143SOL    HW216329   6.152   6.170   2.601
 5144SOL     OW16330   1.417   2.871   5.254
 5144SOL    HW116331   1.422   2.885   5.155
 5144SOL    HW216332   1.497   2.820   5.284
 5145SOL     OW16333   1.382   4.770   6.379
 5145SOL    HW116334   1.338   4.777   6.468
 5145SOL    HW216335   1.443   4.848   6.364
 5146SOL     OW16336   5.184   5.917   6.832
 5146SOL    HW116337   5.224   6.005   6.809
 5146SOL    HW216338   5.085   5.925   6.837
 5147SOL     OW16339   4.356   1.415   3.013
 5147SOL    HW116340   4.334   1.356   3.091
 5147SOL    HW216341   4.448   1.394   2.981
 5148SOL     OW16342   6.177   1.390   0.686
 5148SOL    HW116343   6.161   1.294   0.712
 5148SOL    HW216344   6.216   1.439   0.764
 5149SOL     OW16345   2.787   6.758   3.788
 5149SOL    HW116346   2.713   6.776   3.723
 5149SOL    HW216347   2.872   6.799   3.755
 5150SOL     OW16348   7.022   0.832   4.100
 5150SOL    HW116349   0.048   0.745   4.102
 5150SOL    HW216350   0.063   0.905   4.075
 5151SOL     OW16351   5.156   4.652   1.820
 5151SOL    HW116352   5.221   4.595   1.771
 5151SOL    HW216353   5.200   4.690   1.902
 5152SOL     OW16354   2.407   1.151   0.298
 5152SOL    HW116355   2.391   1.130   0.394
 5152SOL    HW216356   2.368   1.241   0.277
 5153SOL     OW16357   2.138   2.199   6.864
 5153SOL    HW116358   2.168   2.276   6.920
 5153SOL    HW216359   2.038   2.203   6.853
 5154SOL     OW16360   0.723   3.157   6.956
 5154SOL    HW116361   0.781   3.080   6.931
 5154SOL    HW216362   0.760   3.241   6.916
 5155SOL     OW16363   1.363   0.625   0.257
 5155SOL    HW116364   1.401   0.604   0.167
 5155SOL    HW216365   1.433   0.611   0.327
 5156SOL     OW16366   5.243   3.999   5.754
 5156SOL    HW116367   5.264   3.977   5.849
 5156SOL    HW216368   5.265   4.095   5.736
 5157SOL     OW16369   3.821   1.199   1.882
 5157SOL    HW116370   3.754   1.176   1.952
 5157SOL    HW216371   3.774   1.225   1.798
 5158SOL     OW16372   1.498   3.457   2.370
 5158SOL    HW116373   1.489   3.372   2.422
 5158SOL    HW216374   1.565   3.445   2.296
 5159SOL     OW16375   6.328   2.691   6.059
 5159SOL    HW116376   6.282   2.608   6.090
 5159SOL    HW216377   6.374   2.734   6.136
 5160SOL     OW16378   6.616   0.658   3.072
 5160SOL    HW116379   6.522   0.643   3.040
 5160SOL    HW216380   6.620   0.644   3.171
 5161SOL     OW16381   1.291   1.899   6.559
 5161SOL    HW116382   1.304   1.821   6.498
 5161SOL    HW216383   1.205   1.944   6.538
 5162SOL     OW16384   0.178   0.428   5.794
 5162SOL    HW116385   0.268   0.464   5.815
 5162SOL    HW216386   0.161   0.346   5.849
 5163SOL     OW16387   3.334   0.955   1.412
 5163SOL    HW116388   3.355   0.968   1.508
 5163SOL    HW216389   3.299   1.041   1.373
 5164SOL     OW16390   2.560   2.716   0.104
 5164SOL    HW116391   2.498   2.647   0.142
 5164SOL    HW216392   2.538   2.805   0.143
 5165SOL     OW16393   1.145   5.222   5.311
 5165SOL    HW116394   1.233   5.259   5.280
 5165SOL    HW216395   1.133   5.130   5.273
 5166SOL     OW16396   6.218   6.180   5.585
 5166SOL    HW116397   6.144   6.120   5.613
 5166SOL    HW216398   6.244   6.160   5.491
 5167SOL     OW16399   6.344   3.146   5.913
 5167SOL    HW116400   6.356   3.049   5.894
 5167SOL    HW216401   6.378   3.168   6.004
 5168SOL     OW16402   5.101   1.032   3.526
 5168SOL    HW116403   5.159   1.051   3.447
 5168SOL    HW216404   5.034   1.106   3.537
 5169SOL     OW16405   4.999   6.079   4.710
 5169SOL    HW116406   4.933   6.131   4.656
 5169SOL    HW216407   5.091   6.118   4.698
 5170SOL     OW16408   2.466   3.011   6.468
 5170SOL    HW116409   2.420   3.095   6.439
 5170SOL    HW216410   2.554   3.004   6.422
 5171SOL     OW16411   1.941   6.612   5.835
 5171SOL    HW116412   1.869   6.588   5.900
 5171SOL    HW216413   1.976   6.529   5.792
 5172SOL     OW16414   4.884   5.166   5.652
 5172SOL    HW116415   4.981   5.143   5.643
 5172SOL    HW216416   4.871   5.264   5.639
 5173SOL     OW16417   4.498   6.405   4.037
 5173SOL    HW116418   4.414   6.411   3.984
 5173SOL    HW216419   4.571   6.455   3.989
 5174SOL     OW16420   0.732   5.920   3.523
 5174SOL    HW116421   0.681   6.006   3.519
 5174SOL    HW216422   0.696   5.863   3.597
 5175SOL     OW16423   2.936   2.071   6.041
 5175SOL    HW116424   2.973   2.161   6.065
 5175SOL    HW216425   2.836   2.077   6.036
 5176SOL     OW16426   5.750   6.857   6.281
 5176SOL    HW116427   5.756   6.803   6.364
 5176SOL    HW216428   5.654   6.883   6.265
 5177SOL     OW16429   5.367   5.232   1.105
 5177SOL    HW116430   5.338   5.139   1.125
 5177SOL    HW216431   5.433   5.232   1.030
 5178SOL     OW16432   0.872   4.004   0.845
 5178SOL    HW116433   0.942   3.949   0.800
 5178SOL    HW216434   0.797   4.022   0.782
 5179SOL     OW16435   4.039   5.175   2.634
 5179SOL    HW116436   3.991   5.103   2.585
 5179SOL    HW216437   4.022   5.167   2.732
 5180SOL     OW16438   2.757   5.412   2.040
 5180SOL    HW116439   2.723   5.359   1.962
 5180SOL    HW216440   2.834   5.469   2.011
 5181SOL     OW16441   6.381   1.737   5.712
 5181SOL    HW116442   6.427   1.813   5.759
 5181SOL    HW216443   6.302   1.772   5.663
 5182SOL     OW16444   2.292   5.743   2.505
 5182SOL    HW116445   2.202   5.786   2.497
 5182SOL    HW216446   2.340   5.748   2.418
 5183SOL     OW16447   5.658   1.760   3.285
 5183SOL    HW116448   5.640   1.733   3.380
 5183SOL    HW216449   5.704   1.849   3.285
 5184SOL     OW16450   2.809   1.592   2.074
 5184SOL    HW116451   2.748   1.588   2.153
 5184SOL    HW216452   2.823   1.687   2.048
 5185SOL     OW16453   6.536   0.628   1.555
 5185SOL    HW116454   6.476   0.611   1.633
 5185SOL    HW216455   6.611   0.687   1.583
 5186SOL     OW16456   5.859   2.386   6.429
 5186SOL    HW116457   5.863   2.468   6.372
 5186SOL    HW216458   5.872   2.305   6.371
 5187SOL     OW16459   1.386   4.924   5.181
 5187SOL    HW116460   1.367   4.831   5.150
 5187SOL    HW216461   1.334   4.943   5.264
 5188SOL     OW16462   0.374   0.439   1.668
 5188SOL    HW116463   0.355   0.508   1.597
 5188SOL    HW216464   0.465   0.456   1.706
 5189SOL     OW16465   5.224   6.170   6.353
 5189SOL    HW116466   5.150   6.140   6.414
 5189SOL    HW216467   5.273   6.090   6.319
 5190SOL     OW16468   1.257   5.402   0.562
 5190SOL    HW116469   1.250   5.306   0.589
 5190SOL    HW216470   1.353   5.427   0.551
 5191SOL     OW16471   3.210   3.814   1.145
 5191SOL    HW116472   3.263   3.876   1.087
 5191SOL    HW216473   3.148   3.761   1.088
 5192SOL     OW16474   0.604   4.501   2.777
 5192SOL    HW116475   0.537   4.571   2.754
 5192SOL    HW216476   0.597   4.425   2.713
 5193SOL     OW16477   3.792   0.240   4.441
 5193SOL    HW116478   3.736   0.319   4.413
 5193SOL    HW216479   3.888   0.267   4.441
 5194SOL     OW16480   4.192   1.378   5.526
 5194SOL    HW116481   4.136   1.406   5.604
 5194SOL    HW216482   4.136   1.383   5.442
 5195SOL     OW16483   2.280   1.067   4.906
 5195SOL    HW116484   2.358   1.123   4.933
 5195SOL    HW216485   2.310   0.972   4.894
 5196SOL     OW16486   6.032   6.302   2.813
 5196SOL    HW116487   6.070   6.339   2.728
 5196SOL    HW216488   6.011   6.376   2.876
 5197SOL     OW16489   1.931   4.012   5.910
 5197SOL    HW116490   2.014   4.056   5.875
 5197SOL    HW216491   1.851   4.059   5.873
 5198SOL     OW16492   6.592   5.866   3.873
 5198SOL    HW116493   6.641   5.784   3.842
 5198SOL    HW216494   6.509   5.879   3.819
 5199SOL     OW16495   0.761   5.411   1.423
 5199SOL    HW116496   0.780   5.417   1.325
 5199SOL    HW216497   0.666   5.385   1.437
 5200SOL     OW16498   6.993   4.068   5.489
 5200SOL    HW116499   6.953   3.978   5.508
 5200SOL    HW216500   0.036   4.091   5.561
 5201SOL     OW16501   1.014   5.612   4.647
 5201SOL    HW116502   1.008   5.695   4.703
 5201SOL    HW216503   1.061   5.541   4.699
 5202SOL     OW16504   0.424   5.002   1.626
 5202SOL    HW116505   0.328   5.026   1.641
 5202SOL    HW216506   0.445   5.010   1.528
 5203SOL     OW16507   6.700   3.430   6.694
 5203SOL    HW116508   6.660   3.395   6.609
 5203SOL    HW216509   6.698   3.358   6.764
 5204SOL     OW16510   5.432   5.453   6.441
 5204SOL    HW116511   5.410   5.368   6.488
 5204SOL    HW216512   5.373   5.464   6.362
 5205SOL     OW16513   2.412   5.870   0.474
 5205SOL    HW116514   2.468   5.810   0.530
 5205SOL    HW216515   2.439   5.860   0.378
 5206SOL     OW16516   0.352   4.438   4.778
 5206SOL    HW116517   0.279   4.445   4.846
 5206SOL    HW216518   0.429   4.387   4.817
 5207SOL     OW16519   1.408   6.418   2.647
 5207SOL    HW116520   1.402   6.327   2.606
 5207SOL    HW216521   1.363   6.484   2.587
 5208SOL     OW16522   4.714   2.179   0.295
 5208SOL    HW116523   4.790   2.114   0.293
 5208SOL    HW216524   4.708   2.227   0.207
 5209SOL     OW16525   6.339   5.483   3.399
 5209SOL    HW116526   6.413   5.452   3.338
 5209SOL    HW216527   6.377   5.537   3.473
 5210SOL     OW16528   5.029   3.375   3.503
 5210SOL    HW116529   5.002   3.444   3.436
 5210SOL    HW216530   5.096   3.313   3.463
 5211SOL     OW16531   3.013   3.973   1.862
 5211SOL    HW116532   3.097   3.982   1.916
 5211SOL    HW216533   2.955   4.053   1.875
 5212SOL     OW16534   0.824   0.131   6.384
 5212SOL    HW116535   0.795   0.038   6.405
 5212SOL    HW216536   0.916   0.129   6.345
 5213SOL     OW16537   4.827   1.751   6.588
 5213SOL    HW116538   4.838   1.848   6.607
 5213SOL    HW216539   4.761   1.712   6.652
 5214SOL     OW16540   5.063   2.229   6.966
 5214SOL    HW116541   5.070   2.228   0.043
 5214SOL    HW216542   4.967   2.235   6.939
 5215SOL     OW16543   5.995   5.501   4.518
 5215SOL    HW116544   5.994   5.447   4.434
 5215SOL    HW216545   6.068   5.469   4.578
 5216SOL     OW16546   3.357   6.135   1.357
 5216SOL    HW116547   3.274   6.187   1.335
 5216SOL    HW216548   3.333   6.039   1.370
 5217SOL     OW16549   2.922   5.591   3.870
 5217SOL    HW116550   2.828   5.623   3.877
 5217SOL    HW216551   2.928   5.495   3.898
 5218SOL     OW16552   0.810   0.402   3.691
 5218SOL    HW116553   0.847   0.416   3.599
 5218SOL    HW216554   0.724   0.452   3.701
 5219SOL     OW16555   3.046   6.735   1.311
 5219SOL    HW116556   3.067   6.735   1.213
 5219SOL    HW216557   2.953   6.768   1.324
 5220SOL     OW16558   0.732   6.322   2.297
 5220SOL    HW116559   0.716   6.419   2.281
 5220SOL    HW216560   0.798   6.287   2.230
 5221SOL     OW16561   4.571   0.390   0.403
 5221SOL    HW116562   4.501   0.460   0.389
 5221SOL    HW216563   4.530   0.310   0.448
 5222SOL     OW16564   6.615   5.470   2.291
 5222SOL    HW116565   6.606   5.496   2.195
 5222SOL    HW216566   6.529   5.430   2.322
 5223SOL     OW16567   4.321   6.842   1.454
 5223SOL    HW116568   4.232   6.818   1.493
 5223SOL    HW216569   4.356   6.925   1.498
 5224SOL     OW16570   5.414   0.611   3.863
 5224SOL    HW116571   5.509   0.641   3.856
 5224SOL    HW216572   5.355   0.675   3.813
 5225SOL     OW16573   0.210   6.813   5.560
 5225SOL    HW116574   0.139   6.792   5.627
 5225SOL    HW216575   0.194   6.762   5.476
 5226SOL     OW16576   2.330   0.874   3.747
 5226SOL    HW116577   2.411   0.875   3.805
 5226SOL    HW216578   2.265   0.942   3.779
 5227SOL     OW16579   5.785   3.718   4.431
 5227SOL    HW116580   5.757   3.743   4.524
 5227SOL    HW216581   5.878   3.683   4.433
 5228SOL     OW16582   5.022   6.663   2.107
 5228SOL    HW116583   5.018   6.642   2.205
 5228SOL    HW216584   5.047   6.759   2.094
 5229SOL     OW16585   0.796   3.928   3.714
 5229SOL    HW116586   0.894   3.925   3.731
 5229SOL    HW216587   0.765   4.023   3.709
 5230SOL     OW16588   0.553   1.283   6.580
 5230SOL    HW116589   0.498   1.231   6.646
 5230SOL    HW216590   0.551   1.235   6.492
 5231SOL     OW16591   3.011   3.916   3.156
 5231SOL    HW116592   3.099   3.908   3.202
 5231SOL    HW216593   3.025   3.936   3.059
 5232SOL     OW16594   5.542   2.962   4.505
 5232SOL    HW116595   5.622   2.985   4.449
 5232SOL    HW216596   5.546   3.013   4.591
 5233SOL     OW16597   0.773   6.921   2.522
 5233SOL    HW116598   0.863   6.903   2.562
 5233SOL    HW216599   0.717   6.971   2.587
 5234SOL     OW16600   3.343   4.199   1.219
 5234SOL    HW116601   3.343   4.235   1.126
 5234SOL    HW216602   3.371   4.272   1.283
 5235SOL     OW16603   0.869   1.559   1.708
 5235SOL    HW116604   0.779   1.593   1.732
 5235SOL    HW216605   0.938   1.629   1.729
 5236SOL     OW16606   6.245   3.149   0.516
 5236SOL    HW116607   6.230   3.051   0.532
 5236SOL    HW216608   6.343   3.166   0.502
 5237SOL     OW16609   1.523   2.077   2.567
 5237SOL    HW116610   1.600   2.079   2.503
 5237SOL    HW216611   1.496   2.171   2.588
 5238SOL     OW16612   1.863   3.395   1.355
 5238SOL    HW116613   1.775   3.356   1.329
 5238SOL    HW216614   1.928   3.321   1.375
 5239SOL     OW16615   2.931   3.253   5.272
 5239SOL    HW116616   2.875   3.220   5.348
 5239SOL    HW216617   3.010   3.193   5.261
 5240SOL     OW16618   3.836   1.748   3.885
 5240SOL    HW116619   3.886   1.754   3.799
 5240SOL    HW216620   3.783   1.663   3.887
 5241SOL     OW16621   4.748   5.702   5.414
 5241SOL    HW116622   4.764   5.790   5.458
 5241SOL    HW216623   4.829   5.644   5.424
 5242SOL     OW16624   3.407   0.576   5.917
 5242SOL    HW116625   3.419   0.506   5.847
 5242SOL    HW216626   3.371   0.660   5.874
 5243SOL     OW16627   1.596   4.011   0.420
 5243SOL    HW116628   1.578   3.952   0.499
 5243SOL    HW216629   1.649   4.091   0.449
 5244SOL     OW16630   6.164   3.177   6.495
 5244SOL    HW116631   6.073   3.145   6.521
 5244SOL    HW216632   6.179   3.268   6.534
 5245SOL     OW16633   4.616   4.442   5.970
 5245SOL    HW116634   4.610   4.353   6.015
 5245SOL    HW216635   4.553   4.445   5.892
 5246SOL     OW16636   1.310   3.547   3.603
 5246SOL    HW116637   1.383   3.479   3.604
 5246SOL    HW216638   1.265   3.546   3.514
 5247SOL     OW16639   0.656   4.181   0.023
 5247SOL    HW116640   0.652   4.275   0.057
 5247SOL    HW216641   0.563   4.147   0.008
 5248SOL     OW16642   5.009   1.305   0.411
 5248SOL    HW116643   4.994   1.401   0.389
 5248SOL    HW216644   4.937   1.272   0.471
 5249SOL     OW16645   0.694   5.205   0.317
 5249SOL    HW116646   0.697   5.124   0.374
 5249SOL    HW216647   0.688   5.178   0.221
 5250SOL     OW16648   1.349   1.627   5.619
 5250SOL    HW116649   1.364   1.726   5.613
 5250SOL    HW216650   1.264   1.603   5.572
 5251SOL     OW16651   0.754   2.381   1.581
 5251SOL    HW116652   0.757   2.477   1.609
 5251SOL    HW216653   0.665   2.361   1.540
 5252SOL     OW16654   5.274   5.730   1.428
 5252SOL    HW116655   5.373   5.719   1.430
 5252SOL    HW216656   5.251   5.827   1.425
 5253SOL     OW16657   6.032   3.101   3.988
 5253SOL    HW116658   6.052   3.198   3.971
 5253SOL    HW216659   6.110   3.046   3.961
 5254SOL     OW16660   5.253   0.670   4.650
 5254SOL    HW116661   5.316   0.593   4.662
 5254SOL    HW216662   5.303   0.748   4.611
 5255SOL     OW16663   2.295   6.038   2.764
 5255SOL    HW116664   2.390   6.009   2.777
 5255SOL    HW216665   2.234   5.961   2.785
 5256SOL     OW16666   4.907   5.987   2.290
 5256SOL    HW116667   5.007   5.989   2.297
 5256SOL    HW216668   4.867   6.038   2.365
 5257SOL     OW16669   2.620   1.630   2.652
 5257SOL    HW116670   2.655   1.631   2.559
 5257SOL    HW216671   2.569   1.715   2.669
 5258SOL     OW16672   5.297   1.886   1.470
 5258SOL    HW116673   5.384   1.838   1.469
 5258SOL    HW216674   5.233   1.841   1.408
 5259SOL     OW16675   5.977   5.345   1.602
 5259SOL    HW116676   6.074   5.347   1.624
 5259SOL    HW216677   5.931   5.277   1.659
 5260SOL     OW16678   5.278   2.909   1.980
 5260SOL    HW116679   5.271   2.974   1.903
 5260SOL    HW216680   5.199   2.919   2.039
 5261SOL     OW16681   2.271   2.775   4.840
 5261SOL    HW116682   2.297   2.852   4.898
 5261SOL    HW216683   2.341   2.704   4.846
 5262SOL     OW16684   1.179   0.409   1.595
 5262SOL    HW116685   1.082   0.427   1.581
 5262SOL    HW216686   1.233   0.467   1.534
 5263SOL     OW16687   1.516   0.007   6.479
 5263SOL    HW116688   1.586   0.046   6.539
 5263SOL    HW216689   1.524   6.930   6.480
 5264SOL     OW16690   1.286   0.631   0.668
 5264SOL    HW116691   1.214   0.563   0.682
 5264SOL    HW216692   1.375   0.587   0.682
 5265SOL     OW16693   5.364   5.124   3.877
 5265SOL    HW116694   5.395   5.121   3.972
 5265SOL    HW216695   5.297   5.052   3.861
 5266SOL     OW16696   1.457   6.602   1.424
 5266SOL    HW116697   1.442   6.575   1.329
 5266SOL    HW216698   1.374   6.583   1.478
 5267SOL     OW16699   3.755   3.579   4.848
 5267SOL    HW116700   3.849   3.602   4.873
 5267SOL    HW216701   3.692   3.612   4.918
 5268SOL     OW16702   5.640   5.006   6.169
 5268SOL    HW116703   5.562   5.064   6.144
 5268SOL    HW216704   5.639   4.923   6.114
 5269SOL     OW16705   2.897   5.401   5.198
 5269SOL    HW116706   2.827   5.470   5.180
 5269SOL    HW216707   2.939   5.419   5.287
 5270SOL     OW16708   6.983   1.556   2.640
 5270SOL    HW116709   0.043   1.598   2.604
 5270SOL    HW216710   6.904   1.587   2.587
 5271SOL     OW16711   5.350   3.771   4.942
 5271SOL    HW116712   5.437   3.723   4.931
 5271SOL    HW216713   5.323   3.769   5.039
 5272SOL     OW16714   2.258   2.508   3.649
 5272SOL    HW116715   2.235   2.438   3.581
 5272SOL    HW216716   2.223   2.478   3.738
 5273SOL     OW16717   6.951   1.187   5.635
 5273SOL    HW116718   6.854   1.185   5.662
 5273SOL    HW216719   6.989   1.278   5.651
 5274SOL     OW16720   0.692   4.948   4.882
 5274SOL    HW116721   0.601   4.970   4.845
 5274SOL    HW216722   0.742   5.032   4.900
 5275SOL     OW16723   2.444   6.597   0.209
 5275SOL    HW116724   2.456   6.674   0.147
 5275SOL    HW216725   2.368   6.540   0.176
 5276SOL     OW16726   0.150   0.799   0.347
 5276SOL    HW116727   0.152   0.899   0.353
 5276SOL    HW216728   0.241   0.766   0.322
 5277SOL     OW16729   0.804   0.797   1.420
 5277SOL    HW116730   0.780   0.761   1.510
 5277SOL    HW216731   0.722   0.800   1.363
 5278SOL     OW16732   6.668   4.761   6.386
 5278SOL    HW116733   6.741   4.816   6.426
 5278SOL    HW216734   6.591   4.820   6.363
 5279SOL     OW16735   2.396   6.103   0.199
 5279SOL    HW116736   2.305   6.142   0.216
 5279SOL    HW216737   2.449   6.104   0.283
 5280SOL     OW16738   4.894   6.366   5.894
 5280SOL    HW116739   4.826   6.423   5.940
 5280SOL    HW216740   4.860   6.342   5.803
 5281SOL     OW16741   1.996   6.362   4.861
 5281SOL    HW116742   2.026   6.425   4.932
 5281SOL    HW216743   2.040   6.273   4.875
 5282SOL     OW16744   6.862   5.887   0.901
 5282SOL    HW116745   6.936   5.833   0.940
 5282SOL    HW216746   6.823   5.838   0.823
 5283SOL     OW16747   1.643   0.348   4.129
 5283SOL    HW116748   1.577   0.413   4.168
 5283SOL    HW216749   1.705   0.398   4.069
 5284SOL     OW16750   4.865   3.058   2.229
 5284SOL    HW116751   4.894   2.963   2.241
 5284SOL    HW216752   4.829   3.071   2.137
 5285SOL     OW16753   2.149   1.482   4.006
 5285SOL    HW116754   2.206   1.528   3.938
 5285SOL    HW216755   2.053   1.492   3.981
 5286SOL     OW16756   0.608   3.146   1.573
 5286SOL    HW116757   0.538   3.212   1.548
 5286SOL    HW216758   0.672   3.187   1.638
 5287SOL     OW16759   0.426   5.476   2.331
 5287SOL    HW116760   0.474   5.485   2.418
 5287SOL    HW216761   0.493   5.472   2.257
 5288SOL     OW16762   4.355   0.758   1.569
 5288SOL    HW116763   4.256   0.774   1.575
 5288SOL    HW216764   4.375   0.663   1.593
 5289SOL     OW16765   1.796   5.118   6.471
 5289SOL    HW116766   1.734   5.157   6.539
 5289SOL    HW216767   1.883   5.097   6.515
 5290SOL     OW16768   1.651   2.766   5.326
 5290SOL    HW116769   1.701   2.851   5.309
 5290SOL    HW216770   1.647   2.750   5.424
 5291SOL     OW16771   2.943   5.991   4.678
 5291SOL    HW116772   2.979   5.915   4.625
 5291SOL    HW216773   2.994   6.000   4.763
 5292SOL     OW16774   0.741   4.404   4.590
 5292SOL    HW116775   0.723   4.460   4.671
 5292SOL    HW216776   0.717   4.309   4.609
 5293SOL     OW16777   2.364   0.395   3.462
 5293SOL    HW116778   2.386   0.375   3.558
 5293SOL    HW216779   2.359   0.494   3.450
 5294SOL     OW16780   5.080   0.379   4.915
 5294SOL    HW116781   5.035   0.447   4.857
 5294SOL    HW216782   5.076   0.289   4.870
 5295SOL     OW16783   2.113   0.353   1.049
 5295SOL    HW116784   2.154   0.265   1.024
 5295SOL    HW216785   2.180   0.426   1.037
 5296SOL     OW16786   4.354   5.158   2.352
 5296SOL    HW116787   4.444   5.184   2.319
 5296SOL    HW216788   4.308   5.237   2.390
 5297SOL     OW16789   3.815   4.989   5.931
 5297SOL    HW116790   3.848   5.078   5.898
 5297SOL    HW216791   3.765   4.943   5.858
 5298SOL     OW16792   3.422   1.143   7.006
 5298SOL    HW116793   3.405   1.059   6.955
 5298SOL    HW216794   3.410   1.126   0.081
 5299SOL     OW16795   1.495   0.303   1.028
 5299SOL    HW116796   1.444   0.389   1.033
 5299SOL    HW216797   1.469   0.254   0.944
 5300SOL     OW16798   2.990   4.842   0.086
 5300SOL    HW116799   2.909   4.813   0.036
 5300SOL    HW216800   3.010   4.938   0.065
 5301SOL     OW16801   6.489   0.023   5.876
 5301SOL    HW116802   6.409   0.047   5.931
 5301SOL    HW216803   6.463   0.021   5.779
 5302SOL     OW16804   4.976   5.201   3.587
 5302SOL    HW116805   4.903   5.269   3.582
 5302SOL    HW216806   4.936   5.109   3.590
 5303SOL     OW16807   1.391   6.570   5.185
 5303SOL    HW116808   1.412   6.499   5.252
 5303SOL    HW216809   1.439   6.655   5.210
 5304SOL     OW16810   0.132   0.204   3.427
 5304SOL    HW116811   0.062   0.143   3.466
 5304SOL    HW216812   0.223   0.168   3.449
 5305SOL     OW16813   6.464   5.311   4.900
 5305SOL    HW116814   6.478   5.405   4.931
 5305SOL    HW216815   6.438   5.311   4.803
 5306SOL     OW16816   0.982   1.784   6.820
 5306SOL    HW116817   1.081   1.798   6.815
 5306SOL    HW216818   0.944   1.837   6.896
 5307SOL     OW16819   1.063   0.956   1.711
 5307SOL    HW116820   1.148   1.007   1.698
 5307SOL    HW216821   1.073   0.892   1.787
 5308SOL     OW16822   2.052   4.348   2.770
 5308SOL    HW116823   2.048   4.316   2.864
 5308SOL    HW216824   1.959   4.361   2.735
 5309SOL     OW16825   5.791   6.348   3.153
 5309SOL    HW116826   5.740   6.276   3.106
 5309SOL    HW216827   5.782   6.337   3.252
 5310SOL     OW16828   6.196   1.574   3.028
 5310SOL    HW116829   6.162   1.567   2.934
 5310SOL    HW216830   6.149   1.648   3.076
 5311SOL     OW16831   5.784   0.126   0.449
 5311SOL    HW116832   5.749   0.127   0.543
 5311SOL    HW216833   5.711   0.100   0.386
 5312SOL     OW16834   5.705   6.615   1.110
 5312SOL    HW116835   5.734   6.611   1.206
 5312SOL    HW216836   5.762   6.681   1.061
 5313SOL     OW16837   1.423   6.547   5.793
 5313SOL    HW116838   1.438   6.454   5.827
 5313SOL    HW216839   1.328   6.557   5.764
 5314SOL     OW16840   5.582   1.847   2.332
 5314SOL    HW116841   5.511   1.778   2.315
 5314SOL    HW216842   5.539   1.937   2.338
 5315SOL     OW16843   4.148   2.258   3.622
 5315SOL    HW116844   4.244   2.250   3.596
 5315SOL    HW216845   4.093   2.279   3.542
 5316SOL     OW16846   0.354   2.809   4.978
 5316SOL    HW116847   0.303   2.895   4.976
 5316SOL    HW216848   0.290   2.733   4.973
 5317SOL     OW16849   5.497   2.979   1.464
 5317SOL    HW116850   5.409   3.025   1.477
 5317SOL    HW216851   5.528   2.942   1.551
 5318SOL     OW16852   6.890   4.653   5.865
 5318SOL    HW116853   6.819   4.682   5.802
 5318SOL    HW216854   6.956   4.727   5.878
 5319SOL     OW16855   4.229   5.813   2.511
 5319SOL    HW116856   4.157   5.752   2.543
 5319SOL    HW216857   4.190   5.902   2.488
 5320SOL     OW16858   4.500   5.786   0.295
 5320SOL    HW116859   4.543   5.814   0.209
 5320SOL    HW216860   4.488   5.687   0.296
 5321SOL     OW16861   1.329   4.211   5.392
 5321SOL    HW116862   1.379   4.285   5.347
 5321SOL    HW216863   1.362   4.201   5.486
 5322SOL     OW16864   4.294   6.043   1.724
 5322SOL    HW116865   4.327   6.040   1.819
 5322SOL    HW216866   4.322   5.960   1.676
 5323SOL     OW16867   3.901   0.316   6.105
 5323SOL    HW116868   3.902   0.406   6.149
 5323SOL    HW216869   3.808   0.279   6.107
 5324SOL     OW16870   1.296   1.389   1.840
 5324SOL    HW116871   1.362   1.340   1.897
 5324SOL    HW216872   1.205   1.381   1.881
 5325SOL     OW16873   2.190   2.976   4.307
 5325SOL    HW116874   2.196   2.884   4.346
 5325SOL    HW216875   2.281   3.009   4.285
 5326SOL     OW16876   6.395   0.073   1.310
 5326SOL    HW116877   6.463   0.101   1.378
 5326SOL    HW216878   6.440   0.024   1.236
 5327SOL     OW16879   0.245   2.412   5.961
 5327SOL    HW116880   0.273   2.500   5.924
 5327SOL    HW216881   0.146   2.404   5.956
 5328SOL     OW16882   3.597   5.181   0.835
 5328SOL    HW116883   3.662   5.243   0.879
 5328SOL    HW216884   3.644   5.098   0.806
 5329SOL     OW16885   2.911   6.000   6.611
 5329SOL    HW116886   2.926   6.099   6.611
 5329SOL    HW216887   2.930   5.963   6.702
 5330SOL     OW16888   2.662   5.649   1.091
 5330SOL    HW116889   2.711   5.628   1.176
 5330SOL    HW216890   2.726   5.688   1.025
 5331SOL     OW16891   6.340   1.689   6.361
 5331SOL    HW116892   6.247   1.720   6.343
 5331SOL    HW216893   6.348   1.593   6.332
 5332SOL     OW16894   0.968   4.665   2.441
 5332SOL    HW116895   1.030   4.735   2.405
 5332SOL    HW216896   1.003   4.574   2.421
 5333SOL     OW16897   1.024   6.453   4.590
 5333SOL    HW116898   1.084   6.377   4.612
 5333SOL    HW216899   0.971   6.431   4.508
 5334SOL     OW16900   3.231   6.875   5.417
 5334SOL    HW116901   3.159   6.926   5.465
 5334SOL    HW216902   3.190   6.802   5.363
 5335SOL     OW16903   6.493   6.495   0.708
 5335SOL    HW116904   6.580   6.465   0.747
 5335SOL    HW216905   6.420   6.479   0.774
 5336SOL     OW16906   1.125   4.144   1.272
 5336SOL    HW116907   1.094   4.230   1.312
 5336SOL    HW216908   1.094   4.139   1.177
 5337SOL     OW16909   5.349   4.978   1.469
 5337SOL    HW116910   5.299   4.970   1.555
 5337SOL    HW216911   5.441   4.940   1.481
 5338SOL     OW16912   5.404   2.686   0.936
 5338SOL    HW116913   5.402   2.779   0.973
 5338SOL    HW216914   5.342   2.628   0.988
 5339SOL     OW16915   6.687   0.139   2.120
 5339SOL    HW116916   6.634   0.056   2.102
 5339SOL    HW216917   6.707   0.184   2.033
 5340SOL     OW16918   4.993   2.522   0.086
 5340SOL    HW116919   4.900   2.523   0.049
 5340SOL    HW216920   5.042   2.442   0.051
 5341SOL     OW16921   4.781   0.094   0.996
 5341SOL    HW116922   4.771   0.179   0.945
 5341SOL    HW216923   4.695   0.073   1.042
 5342SOL     OW16924   2.368   0.272   5.865
 5342SOL    HW116925   2.317   0.315   5.939
 5342SOL    HW216926   2.374   0.335   5.787
 5343SOL     OW16927   3.437   4.240   0.902
 5343SOL    HW116928   3.379   4.262   0.823
 5343SOL    HW216929   3.454   4.141   0.904
 5344SOL     OW16930   2.042   2.451   2.770
 5344SOL    HW116931   2.012   2.525   2.710
 5344SOL    HW216932   2.048   2.485   2.864
 5345SOL     OW16933   4.784   0.049   3.354
 5345SOL    HW116934   4.824   0.064   3.264
 5345SOL    HW216935   4.849   0.076   3.425
 5346SOL     OW16936   3.127   0.364   3.820
 5346SOL    HW116937   3.103   0.438   3.883
 5346SOL    HW216938   3.089   0.384   3.729
 5347SOL     OW16939   6.599   1.144   1.828
 5347SOL    HW116940   6.612   1.241   1.806
 5347SOL    HW216941   6.642   1.124   1.916
 5348SOL     OW16942   6.718   1.670   6.910
 5348SOL    HW116943   6.773   1.675   6.993
 5348SOL    HW216944   6.760   1.606   6.846
 5349SOL     OW16945   5.573   0.625   1.102
 5349SOL    HW116946   5.590   0.553   1.034
 5349SOL    HW216947   5.504   0.687   1.067
 5350SOL     OW16948   2.741   0.555   6.743
 5350SOL    HW116949   2.831   0.535   6.703
 5350SOL    HW216950   2.744   0.536   6.841
 5351SOL     OW16951   4.964   1.297   2.402
 5351SOL    HW116952   4.887   1.277   2.341
 5351SOL    HW216953   5.027   1.219   2.402
 5352SOL     OW16954   3.577   0.851   3.640
 5352SOL    HW116955   3.588   0.751   3.636
 5352SOL    HW216956   3.533   0.882   3.556
 5353SOL     OW16957   6.357   0.314   6.206
 5353SOL    HW116958   6.448   0.274   6.216
 5353SOL    HW216959   6.295   0.246   6.167
 5354SOL     OW16960   1.029   3.410   1.204
 5354SOL    HW116961   0.962   3.403   1.129
 5354SOL    HW216962   1.084   3.327   1.207
 5355SOL     OW16963   4.547   1.120   5.519
 5355SOL    HW116964   4.504   1.157   5.601
 5355SOL    HW216965   4.559   1.021   5.530
 5356SOL     OW16966   6.635   3.242   1.557
 5356SOL    HW116967   6.680   3.206   1.474
 5356SOL    HW216968   6.552   3.291   1.531
 5357SOL     OW16969   4.135   5.758   0.223
 5357SOL    HW116970   4.053   5.806   0.193
 5357SOL    HW216971   4.213   5.785   0.166
 5358SOL     OW16972   5.394   4.161   1.519
 5358SOL    HW116973   5.324   4.095   1.547
 5358SOL    HW216974   5.374   4.250   1.561
 5359SOL     OW16975   3.209   0.641   5.494
 5359SOL    HW116976   3.149   0.720   5.484
 5359SOL    HW216977   3.163   0.570   5.547
 5360SOL     OW16978   4.341   2.245   0.260
 5360SOL    HW116979   4.277   2.237   0.336
 5360SOL    HW216980   4.292   2.235   0.174
 5361SOL     OW16981   0.909   1.001   6.464
 5361SOL    HW116982   0.874   0.959   6.547
 5361SOL    HW216983   1.008   0.989   6.459
 5362SOL     OW16984   4.313   5.859   3.828
 5362SOL    HW116985   4.269   5.825   3.744
 5362SOL    HW216986   4.295   5.957   3.838
 5363SOL     OW16987   1.045   5.762   4.939
 5363SOL    HW116988   0.968   5.699   4.950
 5363SOL    HW216989   1.130   5.711   4.935
 5364SOL     OW16990   1.250   5.804   6.436
 5364SOL    HW116991   1.261   5.730   6.369
 5364SOL    HW216992   1.164   5.851   6.418
 5365SOL     OW16993   4.037   2.375   5.810
 5365SOL    HW116994   4.112   2.373   5.876
 5365SOL    HW216995   4.026   2.468   5.775
 5366SOL     OW16996   3.881   3.728   5.848
 5366SOL    HW116997   3.893   3.632   5.874
 5366SOL    HW216998   3.797   3.763   5.889
 5367SOL     OW16999   0.515   4.697   0.754
 5367SOL    HW117000   0.427   4.690   0.706
 5367SOL    HW217001   0.508   4.651   0.842
 5368SOL     OW17002   0.936   6.975   3.682
 5368SOL    HW117003   0.958   0.002   3.766
 5368SOL    HW217004   0.856   7.017   3.639
 5369SOL     OW17005   1.845   3.492   2.624
 5369SOL    HW117006   1.894   3.511   2.709
 5369SOL    HW217007   1.755   3.535   2.627
 5370SOL     OW17008   3.633   2.787   1.768
 5370SOL    HW117009   3.634   2.862   1.835
 5370SOL    HW217010   3.693   2.810   1.692
 5371SOL     OW17011   2.128   4.268   4.993
 5371SOL    HW117012   2.174   4.355   4.977
 5371SOL    HW217013   2.194   4.201   5.026
 5372SOL     OW17014   3.550   6.384   2.590
 5372SOL    HW117015   3.509   6.321   2.656
 5372SOL    HW217016   3.631   6.427   2.630
 5373SOL     OW17017   2.525   4.979   3.599
 5373SOL    HW117018   2.466   5.032   3.660
 5373SOL    HW217019   2.617   5.018   3.598
 5374SOL     OW17020   2.956   2.415   0.604
 5374SOL    HW117021   2.971   2.431   0.506
 5374SOL    HW217022   3.024   2.349   0.637
 5375SOL     OW17023   1.300   4.269   4.736
 5375SOL    HW117024   1.299   4.271   4.636
 5375SOL    HW217025   1.363   4.339   4.771
 5376SOL     OW17026   3.019   4.831   6.132
 5376SOL    HW117027   3.053   4.925   6.129
 5376SOL    HW217028   2.936   4.824   6.077
 5377SOL     OW17029   0.611   1.989   1.675
 5377SOL    HW117030   0.533   2.011   1.617
 5377SOL    HW217031   0.593   2.018   1.769
 5378SOL     OW17032   4.903   0.381   6.529
 5378SOL    HW117033   4.829   0.330   6.573
 5378SOL    HW217034   4.968   0.412   6.598
 5379SOL     OW17035   0.280   0.023   0.156
 5379SOL    HW117036   0.216   6.970   0.148
 5379SOL    HW217037   0.316   0.028   0.249
 5380SOL     OW17038   2.342   1.556   5.055
 5380SOL    HW117039   2.370   1.643   5.014
 5380SOL    HW217040   2.256   1.526   5.015
 5381SOL     OW17041   6.169   3.730   1.883
 5381SOL    HW117042   6.133   3.665   1.951
 5381SOL    HW217043   6.104   3.737   1.807
 5382SOL     OW17044   1.830   6.463   1.326
 5382SOL    HW117045   1.874   6.423   1.406
 5382SOL    HW217046   1.742   6.418   1.309
 5383SOL     OW17047   2.332   2.313   4.675
 5383SOL    HW117048   2.278   2.238   4.636
 5383SOL    HW217049   2.398   2.345   4.606
 5384SOL     OW17050   5.278   6.255   4.701
 5384SOL    HW117051   5.372   6.256   4.736
 5384SOL    HW217052   5.252   6.347   4.673
 5385SOL     OW17053   3.502   4.094   2.197
 5385SOL    HW117054   3.493   4.099   2.296
 5385SOL    HW217055   3.548   4.177   2.164
 5386SOL     OW17056   5.770   6.669   5.768
 5386SOL    HW117057   5.812   6.702   5.852
 5386SOL    HW217058   5.825   6.593   5.731
 5387SOL     OW17059   4.327   4.868   0.830
 5387SOL    HW117060   4.249   4.895   0.887
 5387SOL    HW217061   4.378   4.950   0.804
 5388SOL     OW17062   5.816   6.214   3.431
 5388SOL    HW117063   5.886   6.144   3.423
 5388SOL    HW217064   5.842   6.279   3.502
 5389SOL     OW17065   5.861   3.359   1.359
 5389SOL    HW117066   5.863   3.342   1.261
 5389SOL    HW217067   5.883   3.275   1.408
 5390SOL     OW17068   6.353   4.953   6.606
 5390SOL    HW117069   6.289   5.023   6.574
 5390SOL    HW217070   6.411   4.992   6.678
 5391SOL     OW17071   3.538   4.532   0.206
 5391SOL    HW117072   3.466   4.466   0.184
 5391SOL    HW217073   3.503   4.599   0.271
 5392SOL     OW17074   0.493   2.789   3.521
 5392SOL    HW117075   0.486   2.697   3.561
 5392SOL    HW217076   0.539   2.783   3.432
 5393SOL     OW17077   6.702   6.776   6.514
 5393SOL    HW117078   6.656   6.776   6.425
 5393SOL    HW217079   6.646   6.825   6.581
 5394SOL     OW17080   2.096   3.731   6.361
 5394SOL    HW117081   2.185   3.735   6.316
 5394SOL    HW217082   2.038   3.663   6.316
 5395SOL     OW17083   4.865   0.414   1.282
 5395SOL    HW117084   4.828   0.475   1.353
 5395SOL    HW217085   4.789   0.377   1.228
 5396SOL     OW17086   4.688   2.254   1.083
 5396SOL    HW117087   4.664   2.344   1.116
 5396SOL    HW217088   4.687   2.188   1.158
 5397SOL     OW17089   1.111   2.460   1.494
 5397SOL    HW117090   1.051   2.439   1.571
 5397SOL    HW217091   1.206   2.443   1.521
 5398SOL     OW17092   3.004   3.742   2.330
 5398SOL    HW117093   2.973   3.662   2.279
 5398SOL    HW217094   3.035   3.713   2.421
 5399SOL     OW17095   0.419   5.323   0.283
 5399SOL    HW117096   0.508   5.287   0.311
 5399SOL    HW217097   0.417   5.331   0.183
 5400SOL     OW17098   2.572   3.743   6.616
 5400SOL    HW117099   2.594   3.645   6.617
 5400SOL    HW217100   2.481   3.757   6.654
 5401SOL     OW17101   6.274   1.761   0.718
 5401SOL    HW117102   6.297   1.852   0.683
 5401SOL    HW217103   6.357   1.705   0.721
 5402SOL     OW17104   1.063   5.900   2.012
 5402SOL    HW117105   1.120   5.923   1.933
 5402SOL    HW217106   0.987   5.842   1.983
 5403SOL     OW17107   6.690   2.528   6.294
 5403SOL    HW117108   6.730   2.607   6.342
 5403SOL    HW217109   6.741   2.512   6.209
 5404SOL     OW17110   0.752   2.772   2.852
 5404SOL    HW117111   0.785   2.678   2.862
 5404SOL    HW217112   0.659   2.779   2.887
 5405SOL     OW17113   6.257   4.253   5.191
 5405SOL    HW117114   6.285   4.242   5.287
 5405SOL    HW217115   6.167   4.297   5.187
 5406SOL     OW17116   1.545   0.007   2.931
 5406SOL    HW117117   1.552   6.987   2.841
 5406SOL    HW217118   1.598   0.091   2.932
 5407SOL     OW17119   4.092   3.367   6.152
 5407SOL    HW117120   4.177   3.362   6.099
 5407SOL    HW217121   4.112   3.347   6.248
 5408SOL     OW17122   4.293   0.854   6.791
 5408SOL    HW117123   4.222   0.816   6.731
 5408SOL    HW217124   4.267   0.839   6.886
 5409SOL     OW17125   4.626   0.612   1.482
 5409SOL    HW117126   4.649   0.668   1.562
 5409SOL    HW217127   4.620   0.670   1.401
 5410SOL     OW17128   1.463   2.739   3.115
 5410SOL    HW117129   1.493   2.708   3.025
 5410SOL    HW217130   1.541   2.776   3.166
 5411SOL     OW17131   2.675   4.712   4.825
 5411SOL    HW117132   2.660   4.806   4.854
 5411SOL    HW217133   2.741   4.667   4.885
 5412SOL     OW17134   6.486   1.697   2.379
 5412SOL    HW117135   6.492   1.656   2.288
 5412SOL    HW217136   6.497   1.625   2.448
 5413SOL     OW17137   1.387   6.931   2.336
 5413SOL    HW117138   1.334   7.016   2.328
 5413SOL    HW217139   1.426   6.908   2.247
 5414SOL     OW17140   4.364   0.430   6.112
 5414SOL    HW117141   4.433   0.357   6.122
 5414SOL    HW217142   4.278   0.400   6.152
 5415SOL     OW17143   6.238   3.215   2.830
 5415SOL    HW117144   6.197   3.303   2.805
 5415SOL    HW217145   6.210   3.145   2.765
 5416SOL     OW17146   4.104   4.971   4.285
 5416SOL    HW117147   4.036   5.019   4.230
 5416SOL    HW217148   4.080   4.978   4.382
 5417SOL     OW17149   3.068   6.615   5.666
 5417SOL    HW117150   3.041   6.693   5.722
 5417SOL    HW217151   3.138   6.562   5.713
 5418SOL     OW17152   3.557   1.336   3.487
 5418SOL    HW117153   3.595   1.296   3.570
 5418SOL    HW217154   3.459   1.316   3.481
 5419SOL     OW17155   3.281   4.434   0.110
 5419SOL    HW117156   3.223   4.467   0.184
 5419SOL    HW217157   3.295   4.336   0.119
 5420SOL     OW17158   1.324   2.444   2.795
 5420SOL    HW117159   1.321   2.538   2.761
 5420SOL    HW217160   1.277   2.439   2.883
 5421SOL     OW17161   2.505   2.744   0.622
 5421SOL    HW117162   2.450   2.800   0.684
 5421SOL    HW217163   2.601   2.748   0.650
 5422SOL     OW17164   0.453   3.272   0.323
 5422SOL    HW117165   0.368   3.223   0.307
 5422SOL    HW217166   0.519   3.248   0.251
 5423SOL     OW17167   3.849   3.187   6.179
 5423SOL    HW117168   3.753   3.203   6.160
 5423SOL    HW217169   3.903   3.266   6.148
 5424SOL     OW17170   5.699   3.247   5.538
 5424SOL    HW117171   5.740   3.264   5.628
 5424SOL    HW217172   5.620   3.187   5.549
 5425SOL     OW17173   5.257   1.694   4.728
 5425SOL    HW117174   5.171   1.642   4.730
 5425SOL    HW217175   5.241   1.782   4.684
 5426SOL     OW17176   0.474   6.930   4.939
 5426SOL    HW117177   0.401   6.890   4.882
 5426SOL    HW217178   0.516   7.005   4.890
 5427SOL     OW17179   3.643   6.803   0.456
 5427SOL    HW117180   3.682   6.711   0.456
 5427SOL    HW217181   3.716   6.870   0.468
 5428SOL     OW17182   1.945   0.567   0.433
 5428SOL    HW117183   1.952   0.640   0.366
 5428SOL    HW217184   2.028   0.564   0.489
 5429SOL     OW17185   1.078   2.419   5.938
 5429SOL    HW117186   1.044   2.468   6.018
 5429SOL    HW217187   1.136   2.479   5.883
 5430SOL     OW17188   2.228   2.755   5.344
 5430SOL    HW117189   2.149   2.751   5.283
 5430SOL    HW217190   2.311   2.740   5.292
 5431SOL     OW17191   3.434   5.841   4.229
 5431SOL    HW117192   3.533   5.837   4.218
 5431SOL    HW217193   3.391   5.852   4.139
 5432SOL     OW17194   6.105   4.607   1.252
 5432SOL    HW117195   6.037   4.609   1.325
 5432SOL    HW217196   6.091   4.685   1.191
 5433SOL     OW17197   1.528   1.767   3.631
 5433SOL    HW117198   1.471   1.799   3.557
 5433SOL    HW217199   1.471   1.733   3.706
 5434SOL     OW17200   2.450   6.355   5.522
 5434SOL    HW117201   2.489   6.286   5.583
 5434SOL    HW217202   2.496   6.351   5.433
 5435SOL     OW17203   4.752   1.292   2.187
 5435SOL    HW117204   4.678   1.329   2.242
 5435SOL    HW217205   4.810   1.367   2.154
 5436SOL     OW17206   5.220   4.133   2.941
 5436SOL    HW117207   5.155   4.171   3.006
 5436SOL    HW217208   5.178   4.128   2.850
 5437SOL     OW17209   4.004   4.860   6.125
 5437SOL    HW117210   4.051   4.931   6.178
 5437SOL    HW217211   3.948   4.901   6.054
 5438SOL     OW17212   6.383   1.048   0.535
 5438SOL    HW117213   6.447   0.994   0.590
 5438SOL    HW217214   6.289   1.024   0.560
 5439SOL     OW17215   1.704   2.339   0.645
 5439SOL    HW117216   1.697   2.239   0.649
 5439SOL    HW217217   1.616   2.380   0.671
 5440SOL     OW17218   2.327   0.477   0.947
 5440SOL    HW117219   2.288   0.563   0.914
 5440SOL    HW217220   2.425   0.475   0.929
 5441SOL     OW17221   3.728   1.888   5.039
 5441SOL    HW117222   3.785   1.965   5.009
 5441SOL    HW217223   3.719   1.890   5.139
 5442SOL     OW17224   3.686   1.232   1.640
 5442SOL    HW117225   3.761   1.215   1.575
 5442SOL    HW217226   3.672   1.330   1.650
 5443SOL     OW17227   1.135   6.541   5.707
 5443SOL    HW117228   1.084   6.483   5.770
 5443SOL    HW217229   1.071   6.594   5.651
 5444SOL     OW17230   0.449   0.170   3.569
 5444SOL    HW117231   0.423   0.234   3.497
 5444SOL    HW217232   0.449   0.217   3.658
 5445SOL     OW17233   6.059   3.594   2.106
 5445SOL    HW117234   6.034   3.498   2.095
 5445SOL    HW217235   6.141   3.601   2.162
 5446SOL     OW17236   6.194   6.531   5.865
 5446SOL    HW117237   6.203   6.625   5.899
 5446SOL    HW217238   6.199   6.532   5.765
 5447SOL     OW17239   3.379   2.816   1.184
 5447SOL    HW117240   3.421   2.861   1.262
 5447SOL    HW217241   3.366   2.719   1.204
 5448SOL     OW17242   5.255   1.621   6.634
 5448SOL    HW117243   5.256   1.674   6.719
 5448SOL    HW217244   5.254   1.683   6.556
 5449SOL     OW17245   0.080   2.744   6.936
 5449SOL    HW117246   0.180   2.739   6.936
 5449SOL    HW217247   0.049   2.782   6.849
 5450SOL     OW17248   2.229   6.277   0.770
 5450SOL    HW117249   2.194   6.370   0.780
 5450SOL    HW217250   2.162   6.212   0.807
 5451SOL     OW17251   2.797   0.335   2.431
 5451SOL    HW117252   2.861   0.412   2.437
 5451SOL    HW217253   2.705   0.366   2.454
 5452SOL     OW17254   2.779   4.049   5.713
 5452SOL    HW117255   2.702   3.999   5.674
 5452SOL    HW217256   2.865   4.011   5.678
 5453SOL     OW17257   0.263   5.372   5.659
 5453SOL    HW117258   0.176   5.422   5.659
 5453SOL    HW217259   0.339   5.437   5.657
 5454SOL     OW17260   0.603   3.923   5.682
 5454SOL    HW117261   0.681   3.872   5.645
 5454SOL    HW217262   0.633   3.981   5.757
 5455SOL     OW17263   6.260   1.878   0.991
 5455SOL    HW117264   6.262   1.841   0.898
 5455SOL    HW217265   6.178   1.934   1.003
 5456SOL     OW17266   3.757   0.062   1.322
 5456SOL    HW117267   3.830   0.001   1.292
 5456SOL    HW217268   3.671   0.035   1.277
 5457SOL     OW17269   6.289   3.562   1.224
 5457SOL    HW117270   6.252   3.491   1.285
 5457SOL    HW217271   6.281   3.651   1.269
 5458SOL     OW17272   1.513   4.103   6.239
 5458SOL    HW117273   1.418   4.083   6.261
 5458SOL    HW217274   1.518   4.151   6.151
 5459SOL     OW17275   2.055   4.071   6.195
 5459SOL    HW117276   2.009   3.983   6.204
 5459SOL    HW217277   2.025   4.116   6.111
 5460SOL     OW17278   4.040   0.246   4.259
 5460SOL    HW117279   4.025   0.342   4.237
 5460SOL    HW217280   4.126   0.215   4.218
 5461SOL     OW17281   3.992   6.699   4.800
 5461SOL    HW117282   3.902   6.731   4.772
 5461SOL    HW217283   4.062   6.740   4.741
 5462SOL     OW17284   0.004   0.937   1.907
 5462SOL    HW117285   0.023   0.904   2.000
 5462SOL    HW217286   6.978   0.867   1.856
 5463SOL     OW17287   6.925   3.307   1.073
 5463SOL    HW117288   6.896   3.402   1.064
 5463SOL    HW217289   6.867   3.249   1.017
 5464SOL     OW17290   1.539   6.320   4.549
 5464SOL    HW117291   1.629   6.282   4.524
 5464SOL    HW217292   1.517   6.295   4.643
 5465SOL     OW17293   2.609   5.789   6.962
 5465SOL    HW117294   2.603   5.790   6.862
 5465SOL    HW217295   2.523   5.824   7.001
 5466SOL     OW17296   4.984   6.617   4.087
 5466SOL    HW117297   4.947   6.621   4.180
 5466SOL    HW217298   4.990   6.522   4.058
 5467SOL     OW17299   6.332   1.544   1.526
 5467SOL    HW117300   6.348   1.484   1.604
 5467SOL    HW217301   6.342   1.493   1.441
 5468SOL     OW17302   4.504   1.376   6.749
 5468SOL    HW117303   4.571   1.316   6.791
 5468SOL    HW217304   4.489   1.350   6.654
 5469SOL     OW17305   4.702   4.689   1.311
 5469SOL    HW117306   4.645   4.680   1.392
 5469SOL    HW217307   4.663   4.757   1.249
 5470SOL     OW17308   0.331   4.696   3.627
 5470SOL    HW117309   0.285   4.691   3.715
 5470SOL    HW217310   0.293   4.626   3.566
 5471SOL     OW17311   6.630   3.922   2.222
 5471SOL    HW117312   6.621   4.020   2.205
 5471SOL    HW217313   6.720   3.904   2.263
 5472SOL     OW17314   3.668   5.248   5.600
 5472SOL    HW117315   3.620   5.162   5.585
 5472SOL    HW217316   3.615   5.323   5.560
 5473SOL     OW17317   2.107   4.560   3.790
 5473SOL    HW117318   2.049   4.523   3.717
 5473SOL    HW217319   2.081   4.519   3.877
 5474SOL     OW17320   0.882   6.072   2.992
 5474SOL    HW117321   0.874   6.070   3.092
 5474SOL    HW217322   0.938   6.151   2.965
 5475SOL     OW17323   3.393   2.070   1.371
 5475SOL    HW117324   3.460   2.132   1.411
 5475SOL    HW217325   3.374   2.098   1.276
 5476SOL     OW17326   2.422   3.164   6.706
 5476SOL    HW117327   2.327   3.194   6.716
 5476SOL    HW217328   2.427   3.092   6.637
 5477SOL     OW17329   2.199   2.523   2.266
 5477SOL    HW117330   2.204   2.623   2.271
 5477SOL    HW217331   2.275   2.484   2.319
 5478SOL     OW17332   0.356   5.457   5.067
 5478SOL    HW117333   0.295   5.380   5.085
 5478SOL    HW217334   0.304   5.536   5.034
 5479SOL     OW17335   4.208   6.720   5.721
 5479SOL    HW117336   4.149   6.798   5.740
 5479SOL    HW217337   4.298   6.735   5.761
 5480SOL     OW17338   0.026   2.237   5.906
 5480SOL    HW117339   7.021   2.216   5.999
 5480SOL    HW217340   0.104   2.180   5.881
 5481SOL     OW17341   4.553   6.606   2.994
 5481SOL    HW117342   4.589   6.560   2.912
 5481SOL    HW217343   4.544   6.704   2.976
 5482SOL     OW17344   1.606   6.010   2.014
 5482SOL    HW117345   1.621   5.973   2.106
 5482SOL    HW217346   1.693   6.012   1.964
 5483SOL     OW17347   0.822   2.376   6.640
 5483SOL    HW117348   0.817   2.411   6.734
 5483SOL    HW217349   0.807   2.451   6.576
 5484SOL     OW17350   5.077   0.252   5.196
 5484SOL    HW117351   5.116   0.296   5.116
 5484SOL    HW217352   5.147   0.196   5.241
 5485SOL     OW17353   3.500   0.634   4.581
 5485SOL    HW117354   3.420   0.652   4.524
 5485SOL    HW217355   3.490   0.680   4.669
 5486SOL     OW17356   2.553   5.614   4.280
 5486SOL    HW117357   2.533   5.618   4.378
 5486SOL    HW217358   2.474   5.576   4.231
 5487SOL     OW17359   3.935   5.958   5.211
 5487SOL    HW117360   3.993   5.942   5.131
 5487SOL    HW217361   3.945   6.053   5.241
 5488SOL     OW17362   4.881   2.032   6.405
 5488SOL    HW117363   4.790   2.005   6.436
 5488SOL    HW217364   4.939   2.049   6.484
 5489SOL     OW17365   6.681   2.376   3.791
 5489SOL    HW117366   6.626   2.404   3.713
 5489SOL    HW217367   6.621   2.342   3.864
 5490SOL     OW17368   0.639   5.007   1.987
 5490SOL    HW117369   0.731   5.046   1.984
 5490SOL    HW217370   0.641   4.921   2.038
 5491SOL     OW17371   0.082   4.064   0.687
 5491SOL    HW117372   0.108   3.999   0.616
 5491SOL    HW217373   7.007   4.083   0.680
 5492SOL     OW17374   1.012   1.887   0.275
 5492SOL    HW117375   1.083   1.925   0.215
 5492SOL    HW217376   1.020   1.787   0.276
 5493SOL     OW17377   4.152   3.698   6.001
 5493SOL    HW117378   4.066   3.646   6.002
 5493SOL    HW217379   4.160   3.746   5.913
 5494SOL     OW17380   5.777   2.192   4.963
 5494SOL    HW117381   5.810   2.101   4.987
 5494SOL    HW217382   5.841   2.261   4.998
 5495SOL     OW17383   5.824   0.973   0.423
 5495SOL    HW117384   5.913   0.962   0.379
 5495SOL    HW217385   5.824   1.058   0.477
 5496SOL     OW17386   4.155   6.382   6.092
 5496SOL    HW117387   4.078   6.352   6.036
 5496SOL    HW217388   4.180   6.309   6.156
 5497SOL     OW17389   0.968   0.321   6.113
 5497SOL    HW117390   0.971   0.394   6.181
 5497SOL    HW217391   1.060   0.307   6.074
 5498SOL     OW17392   0.003   5.767   1.923
 5498SOL    HW117393   0.087   5.725   1.890
 5498SOL    HW217394   7.010   5.852   1.872
 5499SOL     OW17395   2.162   0.095   3.384
 5499SOL    HW117396   2.147   0.073   3.480
 5499SOL    HW217397   2.121   0.184   3.363
 5500SOL     OW17398   0.905   6.081   1.601
 5500SOL    HW117399   0.842   6.034   1.538
 5500SOL    HW217400   0.999   6.054   1.580
 5501SOL     OW17401   5.195   3.471   0.755
 5501SOL    HW117402   5.230   3.428   0.839
 5501SOL    HW217403   5.102   3.502   0.770
 5502SOL     OW17404   4.675   3.599   0.423
 5502SOL    HW117405   4.708   3.584   0.330
 5502SOL    HW217406   4.599   3.538   0.442
 5503SOL     OW17407   6.007   2.814   1.184
 5503SOL    HW117408   6.024   2.871   1.264
 5503SOL    HW217409   5.917   2.837   1.146
 5504SOL     OW17410   3.357   2.372   6.868
 5504SOL    HW117411   3.379   2.339   6.776
 5504SOL    HW217412   3.298   2.453   6.861
 5505SOL     OW17413   2.579   5.272   2.446
 5505SOL    HW117414   2.615   5.179   2.443
 5505SOL    HW217415   2.614   5.318   2.528
 5506SOL     OW17416   6.578   2.784   6.798
 5506SOL    HW117417   6.564   2.730   6.715
 5506SOL    HW217418   6.592   2.723   6.875
 5507SOL     OW17419   4.178   6.060   6.739
 5507SOL    HW117420   4.125   6.051   6.655
 5507SOL    HW217421   4.183   6.156   6.766
 5508SOL     OW17422   6.831   2.716   6.440
 5508SOL    HW117423   6.887   2.668   6.508
 5508SOL    HW217424   6.882   2.794   6.404
 5509SOL     OW17425   6.082   4.257   0.219
 5509SOL    HW117426   6.157   4.284   0.280
 5509SOL    HW217427   6.020   4.195   0.267
 5510SOL     OW17428   5.576   6.421   6.746
 5510SOL    HW117429   5.665   6.392   6.711
 5510SOL    HW217430   5.583   6.438   6.844
 5511SOL     OW17431   0.870   2.728   6.299
 5511SOL    HW117432   0.826   2.730   6.209
 5511SOL    HW217433   0.860   2.816   6.344
 5512SOL     OW17434   3.336   0.072   2.125
 5512SOL    HW117435   3.386   0.124   2.055
 5512SOL    HW217436   3.364   6.999   2.122
 5513SOL     OW17437   4.136   4.635   6.596
 5513SOL    HW117438   4.189   4.718   6.615
 5513SOL    HW217439   4.072   4.654   6.521
 5514SOL     OW17440   3.905   1.828   6.915
 5514SOL    HW117441   3.866   1.748   6.959
 5514SOL    HW217442   3.879   1.829   6.819
 5515SOL     OW17443   3.372   4.945   2.558
 5515SOL    HW117444   3.300   4.899   2.507
 5515SOL    HW217445   3.332   5.011   2.621
 5516SOL     OW17446   0.723   3.149   6.036
 5516SOL    HW117447   0.637   3.121   6.079
 5516SOL    HW217448   0.741   3.245   6.056
 5517SOL     OW17449   0.977   2.051   4.445
 5517SOL    HW117450   0.950   1.961   4.481
 5517SOL    HW217451   0.981   2.117   4.520
 5518SOL     OW17452   4.081   4.081   5.636
 5518SOL    HW117453   4.007   4.024   5.671
 5518SOL    HW217454   4.072   4.174   5.673
 5519SOL     OW17455   5.334   2.720   5.527
 5519SOL    HW117456   5.249   2.762   5.560
 5519SOL    HW217457   5.378   2.671   5.602
 5520SOL     OW17458   4.735   5.668   1.685
 5520SOL    HW117459   4.669   5.683   1.758
 5520SOL    HW217460   4.769   5.573   1.689
 5521SOL     OW17461   4.844   6.974   1.988
 5521SOL    HW117462   4.900   6.993   2.068
 5521SOL    HW217463   4.800   6.884   1.998
 5522SOL     OW17464   5.059   6.203   6.766
 5522SOL    HW117465   4.959   6.206   6.758
 5522SOL    HW217466   5.084   6.178   6.859
 5523SOL     OW17467   5.339   1.594   0.415
 5523SOL    HW117468   5.430   1.564   0.443
 5523SOL    HW217469   5.307   1.666   0.476
 5524SOL     OW17470   1.969   1.961   2.618
 5524SOL    HW117471   1.996   1.969   2.522
 5524SOL    HW217472   2.049   1.975   2.676
 5525SOL     OW17473   6.349   1.030   0.910
 5525SOL    HW117474   6.396   0.969   0.846
 5525SOL    HW217475   6.365   1.000   1.004
 5526SOL     OW17476   5.042   4.163   3.973
 5526SOL    HW117477   5.126   4.110   3.969
 5526SOL    HW217478   5.010   4.181   3.880
 5527SOL     OW17479   6.494   0.081   2.837
 5527SOL    HW117480   6.414   0.109   2.889
 5527SOL    HW217481   6.465   0.049   2.746
 5528SOL     OW17482   2.214   1.371   0.282
 5528SOL    HW117483   2.204   1.414   0.192
 5528SOL    HW217484   2.130   1.322   0.305
 5529SOL     OW17485   3.519   0.634   1.973
 5529SOL    HW117486   3.555   0.569   2.040
 5529SOL    HW217487   3.573   0.718   1.975
 5530SOL     OW17488   0.948   1.662   1.071
 5530SOL    HW117489   0.911   1.652   1.163
 5530SOL    HW217490   0.949   1.573   1.025
 5531SOL     OW17491   1.087   4.319   6.988
 5531SOL    HW117492   1.089   4.378   0.045
 5531SOL    HW217493   1.010   4.255   6.996
 5532SOL     OW17494   0.266   4.710   6.180
 5532SOL    HW117495   0.203   4.785   6.201
 5532SOL    HW217496   0.301   4.671   6.265
 5533SOL     OW17497   3.381   1.278   3.833
 5533SOL    HW117498   3.434   1.200   3.867
 5533SOL    HW217499   3.349   1.332   3.910
 5534SOL     OW17500   1.496   0.501   4.326
 5534SOL    HW117501   1.488   0.402   4.338
 5534SOL    HW217502   1.410   0.545   4.354
 5535SOL     OW17503   0.850   1.574   2.245
 5535SOL    HW117504   0.859   1.595   2.343
 5535SOL    HW217505   0.760   1.603   2.213
 5536SOL     OW17506   4.421   0.542   4.735
 5536SOL    HW117507   4.442   0.445   4.744
 5536SOL    HW217508   4.355   0.569   4.805
 5537SOL     OW17509   2.698   2.262   2.672
 5537SOL    HW117510   2.708   2.253   2.771
 5537SOL    HW217511   2.781   2.233   2.626
 5538SOL     OW17512   3.635   5.651   3.897
 5538SOL    HW117513   3.550   5.630   3.848
 5538SOL    HW217514   3.697   5.572   3.891
 5539SOL     OW17515   2.553   3.821   0.182
 5539SOL    HW117516   2.569   3.888   0.254
 5539SOL    HW217517   2.468   3.843   0.134
 5540SOL     OW17518   3.831   5.641   1.207
 5540SOL    HW117519   3.893   5.592   1.145
 5540SOL    HW217520   3.869   5.732   1.226
 5541SOL     OW17521   4.505   0.588   6.685
 5541SOL    HW117522   4.539   0.678   6.659
 5541SOL    HW217523   4.577   0.536   6.730
 5542SOL     OW17524   5.564   3.606   6.696
 5542SOL    HW117525   5.658   3.578   6.713
 5542SOL    HW217526   5.561   3.706   6.685
 5543SOL     OW17527   0.772   2.738   5.269
 5543SOL    HW117528   0.822   2.722   5.184
 5543SOL    HW217529   0.807   2.820   5.314
 5544SOL     OW17530   5.467   6.719   0.202
 5544SOL    HW117531   5.383   6.694   0.153
 5544SOL    HW217532   5.498   6.641   0.256
 5545SOL     OW17533   2.668   2.421   2.023
 5545SOL    HW117534   2.762   2.389   2.019
 5545SOL    HW217535   2.651   2.485   1.947
 5546SOL     OW17536   3.139   5.817   4.545
 5546SOL    HW117537   3.178   5.861   4.464
 5546SOL    HW217538   3.213   5.780   4.602
 5547SOL     OW17539   2.802   5.036   3.664
 5547SOL    HW117540   2.810   5.025   3.763
 5547SOL    HW217541   2.855   4.966   3.618
 5548SOL     OW17542   6.520   1.564   4.368
 5548SOL    HW117543   6.539   1.619   4.449
 5548SOL    HW217544   6.596   1.571   4.304
 5549SOL     OW17545   3.726   4.892   5.670
 5549SOL    HW117546   3.749   4.797   5.653
 5549SOL    HW217547   3.633   4.910   5.636
 5550SOL     OW17548   3.083   6.134   2.475
 5550SOL    HW117549   3.007   6.069   2.478
 5550SOL    HW217550   3.107   6.152   2.380
 5551SOL     OW17551   0.598   1.332   2.542
 5551SOL    HW117552   0.570   1.328   2.447
 5551SOL    HW217553   0.538   1.394   2.592
 5552SOL     OW17554   2.134   2.720   1.798
 5552SOL    HW117555   2.205   2.708   1.728
 5552SOL    HW217556   2.177   2.730   1.887
 5553SOL     OW17557   4.651   6.835   6.202
 5553SOL    HW117558   4.576   6.797   6.255
 5553SOL    HW217559   4.619   6.861   6.111
 5554SOL     OW17560   3.308   0.211   5.911
 5554SOL    HW117561   3.387   0.186   5.856
 5554SOL    HW217562   3.334   0.215   6.008
 5555SOL     OW17563   1.407   5.757   1.543
 5555SOL    HW117564   1.312   5.782   1.559
 5555SOL    HW217565   1.415   5.706   1.457
 5556SOL     OW17566   0.160   1.146   4.921
 5556SOL    HW117567   0.091   1.147   4.993
 5556SOL    HW217568   0.154   1.231   4.868
 5557SOL     OW17569   3.453   0.840   2.524
 5557SOL    HW117570   3.425   0.933   2.549
 5557SOL    HW217571   3.417   0.818   2.433
 5558SOL     OW17572   5.636   2.737   6.630
 5558SOL    HW117573   5.638   2.674   6.708
 5558SOL    HW217574   5.585   2.694   6.555
 5559SOL     OW17575   3.723   1.300   0.935
 5559SOL    HW117576   3.652   1.338   0.993
 5559SOL    HW217577   3.746   1.208   0.966
 5560SOL     OW17578   0.239   2.305   4.610
 5560SOL    HW117579   0.288   2.389   4.588
 5560SOL    HW217580   0.196   2.269   4.527
 5561SOL     OW17581   1.716   4.626   2.347
 5561SOL    HW117582   1.725   4.634   2.447
 5561SOL    HW217583   1.642   4.562   2.326
 5562SOL     OW17584   4.733   2.625   0.280
 5562SOL    HW117585   4.745   2.713   0.235
 5562SOL    HW217586   4.685   2.562   0.219
 5563SOL     OW17587   3.851   4.486   1.173
 5563SOL    HW117588   3.833   4.400   1.124
 5563SOL    HW217589   3.897   4.465   1.260
 5564SOL     OW17590   6.502   0.820   2.318
 5564SOL    HW117591   6.490   0.753   2.392
 5564SOL    HW217592   6.600   0.829   2.298
 5565SOL     OW17593   1.925   2.806   5.879
 5565SOL    HW117594   1.965   2.716   5.863
 5565SOL    HW217595   1.901   2.848   5.792
 5566SOL     OW17596   2.204   4.177   0.703
 5566SOL    HW117597   2.270   4.248   0.725
 5566SOL    HW217598   2.229   4.092   0.749
 5567SOL     OW17599   1.358   5.706   3.174
 5567SOL    HW117600   1.267   5.682   3.207
 5567SOL    HW217601   1.349   5.762   3.092
 5568SOL     OW17602   4.243   2.900   6.579
 5568SOL    HW117603   4.342   2.914   6.581
 5568SOL    HW217604   4.204   2.925   6.668
 5569SOL     OW17605   4.429   1.143   6.038
 5569SOL    HW117606   4.396   1.066   5.984
 5569SOL    HW217607   4.404   1.229   5.994
 5570SOL     OW17608   1.840   1.879   5.559
 5570SOL    HW117609   1.846   1.812   5.485
 5570SOL    HW217610   1.911   1.948   5.548
 5571SOL     OW17611   0.481   4.646   6.784
 5571SOL    HW117612   0.446   4.613   6.872
 5571SOL    HW217613   0.550   4.582   6.750
 5572SOL     OW17614   1.083   3.699   5.308
 5572SOL    HW117615   1.095   3.600   5.316
 5572SOL    HW217616   1.133   3.744   5.383
 5573SOL     OW17617   6.957   3.900   6.612
 5573SOL    HW117618   6.892   3.879   6.686
 5573SOL    HW217619   0.019   3.933   6.652
 5574SOL     OW17620   2.263   6.137   4.639
 5574SOL    HW117621   2.192   6.149   4.709
 5574SOL    HW217622   2.349   6.111   4.683
 5575SOL     OW17623   0.936   1.333   2.791
 5575SOL    HW117624   0.943   1.237   2.763
 5575SOL    HW217625   1.027   1.375   2.788
 5576SOL     OW17626   5.287   6.829   6.398
 5576SOL    HW117627   5.213   6.783   6.447
 5576SOL    HW217628   5.307   6.916   6.442
 5577SOL     OW17629   1.493   5.139   5.063
 5577SOL    HW117630   1.572   5.133   5.002
 5577SOL    HW217631   1.466   5.047   5.092
 5578SOL     OW17632   4.406   1.859   6.357
 5578SOL    HW117633   4.486   1.832   6.303
 5578SOL    HW217634   4.323   1.841   6.304
 5579SOL     OW17635   4.780   4.845   2.021
 5579SOL    HW117636   4.848   4.840   1.947
 5579SOL    HW217637   4.786   4.763   2.077
 5580SOL     OW17638   6.422   1.317   2.090
 5580SOL    HW117639   6.384   1.229   2.120
 5580SOL    HW217640   6.450   1.310   1.994
 5581SOL     OW17641   3.661   3.201   0.671
 5581SOL    HW117642   3.579   3.166   0.625
 5581SOL    HW217643   3.675   3.297   0.647
 5582SOL     OW17644   2.902   3.701   5.266
 5582SOL    HW117645   2.911   3.794   5.231
 5582SOL    HW217646   2.838   3.650   5.208
 5583SOL     OW17647   4.306   1.142   6.281
 5583SOL    HW117648   4.328   1.145   6.184
 5583SOL    HW217649   4.257   1.226   6.307
 5584SOL     OW17650   5.064   3.527   4.526
 5584SOL    HW117651   5.028   3.520   4.619
 5584SOL    HW217652   5.001   3.483   4.462
 5585SOL     OW17653   7.002   0.847   3.555
 5585SOL    HW117654   6.963   0.843   3.647
 5585SOL    HW217655   6.943   0.901   3.496
 5586SOL     OW17656   1.659   0.911   0.221
 5586SOL    HW117657   1.572   0.908   0.271
 5586SOL    HW217658   1.688   1.006   0.209
 5587SOL     OW17659   3.942   0.021   3.412
 5587SOL    HW117660   3.962   0.063   3.501
 5587SOL    HW217661   4.009   0.050   3.345
 5588SOL     OW17662   4.536   5.516   0.351
 5588SOL    HW117663   4.584   5.432   0.377
 5588SOL    HW217664   4.457   5.493   0.294
 5589SOL     OW17665   1.329   2.619   6.255
 5589SOL    HW117666   1.403   2.685   6.242
 5589SOL    HW217667   1.360   2.528   6.230
 5590SOL     OW17668   5.761   0.402   3.706
 5590SOL    HW117669   5.849   0.389   3.751
 5590SOL    HW217670   5.710   0.475   3.753
 5591SOL     OW17671   5.247   1.353   6.133
 5591SOL    HW117672   5.202   1.440   6.116
 5591SOL    HW217673   5.304   1.360   6.215
 5592SOL     OW17674   1.028   3.282   2.680
 5592SOL    HW117675   1.091   3.327   2.617
 5592SOL    HW217676   0.968   3.350   2.723
 5593SOL     OW17677   2.525   3.360   5.336
 5593SOL    HW117678   2.589   3.284   5.345
 5593SOL    HW217679   2.446   3.330   5.282
 5594SOL     OW17680   2.659   1.082   5.875
 5594SOL    HW117681   2.747   1.126   5.893
 5594SOL    HW217682   2.675   0.992   5.834
 5595SOL     OW17683   6.776   3.588   1.004
 5595SOL    HW117684   6.752   3.598   1.100
 5595SOL    HW217685   6.694   3.561   0.952
 5596SOL     OW17686   5.173   3.786   4.032
 5596SOL    HW117687   5.084   3.827   4.054
 5596SOL    HW217688   5.227   3.851   3.979
 5597SOL     OW17689   0.561   2.163   6.907
 5597SOL    HW117690   0.503   2.153   6.988
 5597SOL    HW217691   0.648   2.205   6.934
 5598SOL     OW17692   6.545   0.231   3.223
 5598SOL    HW117693   6.480   0.156   3.210
 5598SOL    HW217694   6.582   0.259   3.134
 5599SOL     OW17695   4.838   3.018   2.649
 5599SOL    HW117696   4.813   2.997   2.743
 5599SOL    HW217697   4.931   3.055   2.646
 5600SOL     OW17698   2.136   3.276   2.117
 5600SOL    HW117699   2.144   3.290   2.216
 5600SOL    HW217700   2.147   3.364   2.071
 5601SOL     OW17701   5.252   2.557   6.577
 5601SOL    HW117702   5.331   2.583   6.522
 5601SOL    HW217703   5.255   2.606   6.664
 5602SOL     OW17704   5.435   1.111   2.858
 5602SOL    HW117705   5.404   1.049   2.931
 5602SOL    HW217706   5.355   1.144   2.807
 5603SOL     OW17707   3.836   1.252   6.537
 5603SOL    HW117708   3.907   1.318   6.512
 5603SOL    HW217709   3.795   1.214   6.453
 5604SOL     OW17710   1.917   4.037   4.020
 5604SOL    HW117711   1.874   3.989   3.944
 5604SOL    HW217712   2.013   4.012   4.026
 5605SOL     OW17713   3.071   6.759   4.418
 5605SOL    HW117714   3.162   6.769   4.377
 5605SOL    HW217715   3.007   6.821   4.372
 5606SOL     OW17716   4.186   4.472   1.082
 5606SOL    HW117717   4.135   4.389   1.106
 5606SOL    HW217718   4.137   4.523   1.012
 5607SOL     OW17719   1.461   1.929   1.528
 5607SOL    HW117720   1.363   1.923   1.509
 5607SOL    HW217721   1.485   2.025   1.546
 5608SOL     OW17722   6.799   6.572   3.728
 5608SOL    HW117723   6.830   6.545   3.637
 5608SOL    HW217724   6.706   6.538   3.743
 5609SOL     OW17725   0.370   1.115   0.517
 5609SOL    HW117726   0.349   1.122   0.615
 5609SOL    HW217727   0.427   1.034   0.501
 5610SOL     OW17728   5.218   6.460   6.388
 5610SOL    HW117729   5.232   6.362   6.405
 5610SOL    HW217730   5.130   6.473   6.343
 5611SOL     OW17731   0.304   4.155   1.862
 5611SOL    HW117732   0.287   4.138   1.959
 5611SOL    HW217733   0.216   4.169   1.815
 5612SOL     OW17734   5.334   1.889   1.079
 5612SOL    HW117735   5.271   1.813   1.098
 5612SOL    HW217736   5.416   1.853   1.035
 5613SOL     OW17737   6.872   5.456   5.263
 5613SOL    HW117738   6.918   5.470   5.175
 5613SOL    HW217739   6.775   5.439   5.248
 5614SOL     OW17740   5.578   2.504   4.553
 5614SOL    HW117741   5.551   2.560   4.631
 5614SOL    HW217742   5.532   2.415   4.559
 5615SOL     OW17743   0.831   3.426   2.822
 5615SOL    HW117744   0.787   3.503   2.869
 5615SOL    HW217745   0.816   3.342   2.874
 5616SOL     OW17746   1.747   3.113   2.183
 5616SOL    HW117747   1.774   3.158   2.268
 5616SOL    HW217748   1.746   3.014   2.197
 5617SOL     OW17749   0.515   5.226   5.085
 5617SOL    HW117750   0.491   5.130   5.093
 5617SOL    HW217751   0.436   5.283   5.109
 5618SOL     OW17752   5.132   1.125   3.272
 5618SOL    HW117753   5.198   1.167   3.210
 5618SOL    HW217754   5.046   1.110   3.225
 5619SOL     OW17755   3.749   4.135   3.584
 5619SOL    HW117756   3.808   4.215   3.589
 5619SOL    HW217757   3.774   4.071   3.657
 5620SOL     OW17758   5.025   4.541   5.536
 5620SOL    HW117759   5.004   4.527   5.633
 5620SOL    HW217760   5.098   4.479   5.508
 5621SOL     OW17761   0.319   3.507   0.267
 5621SOL    HW117762   0.221   3.492   0.279
 5621SOL    HW217763   0.370   3.429   0.304
 5622SOL     OW17764   5.490   5.643   4.141
 5622SOL    HW117765   5.459   5.700   4.064
 5622SOL    HW217766   5.475   5.692   4.227
 5623SOL     OW17767   4.630   4.352   3.487
 5623SOL    HW117768   4.623   4.353   3.586
 5623SOL    HW217769   4.618   4.444   3.451
 5624SOL     OW17770   4.897   3.797   4.103
 5624SOL    HW117771   4.884   3.703   4.134
 5624SOL    HW217772   4.893   3.858   4.182
 5625SOL     OW17773   3.929   0.224   6.438
 5625SOL    HW117774   3.855   0.200   6.376
 5625SOL    HW217775   3.898   0.297   6.500
 5626SOL     OW17776   1.584   4.272   5.995
 5626SOL    HW117777   1.575   4.197   5.929
 5626SOL    HW217778   1.679   4.280   6.024
 5627SOL     OW17779   0.563   5.367   0.653
 5627SOL    HW117780   0.637   5.373   0.719
 5627SOL    HW217781   0.536   5.271   0.642
 5628SOL     OW17782   1.039   2.595   6.635
 5628SOL    HW117783   0.944   2.595   6.607
 5628SOL    HW217784   1.053   2.526   6.706
 5629SOL     OW17785   0.779   3.466   5.337
 5629SOL    HW117786   0.735   3.382   5.368
 5629SOL    HW217787   0.878   3.457   5.343
 5630SOL     OW17788   1.012   4.511   6.666
 5630SOL    HW117789   1.102   4.507   6.710
 5630SOL    HW217790   0.999   4.429   6.610
 5631SOL     OW17791   2.635   0.890   3.560
 5631SOL    HW117792   2.617   0.977   3.606
 5631SOL    HW217793   2.674   0.825   3.626
 5632SOL     OW17794   2.817   6.417   6.335
 5632SOL    HW117795   2.752   6.484   6.370
 5632SOL    HW217796   2.783   6.378   6.249
 5633SOL     OW17797   1.788   5.375   5.076
 5633SOL    HW117798   1.859   5.411   5.016
 5633SOL    HW217799   1.750   5.291   5.036
 5634SOL     OW17800   1.975   0.310   1.298
 5634SOL    HW117801   2.031   0.337   1.220
 5634SOL    HW217802   1.970   0.386   1.363
 5635SOL     OW17803   4.322   0.788   2.985
 5635SOL    HW117804   4.279   0.833   3.063
 5635SOL    HW217805   4.302   0.839   2.901
 5636SOL     OW17806   4.959   0.535   4.701
 5636SOL    HW117807   4.869   0.508   4.667
 5636SOL    HW217808   5.012   0.576   4.626
 5637SOL     OW17809   5.937   0.050   5.565
 5637SOL    HW117810   5.957   0.137   5.519
 5637SOL    HW217811   5.838   0.039   5.572
 5638SOL     OW17812   1.581   6.577   7.005
 5638SOL    HW117813   1.612   6.485   6.979
 5638SOL    HW217814   1.538   6.572   0.072
 5639SOL     OW17815   3.805   6.984   1.696
 5639SOL    HW117816   3.770   0.047   1.661
 5639SOL    HW217817   3.733   6.915   1.693
 5640SOL     OW17818   4.604   6.494   4.290
 5640SOL    HW117819   4.614   6.592   4.274
 5640SOL    HW217820   4.533   6.457   4.231
 5641SOL     OW17821   6.604   4.625   3.790
 5641SOL    HW117822   6.587   4.686   3.867
 5641SOL    HW217823   6.628   4.534   3.823
 5642SOL     OW17824   2.230   2.122   6.308
 5642SOL    HW117825   2.163   2.048   6.305
 5642SOL    HW217826   2.283   2.115   6.393
 5643SOL     OW17827   5.026   2.420   3.421
 5643SOL    HW117828   4.956   2.425   3.493
 5643SOL    HW217829   5.069   2.330   3.424
 5644SOL     OW17830   2.705   0.806   5.734
 5644SOL    HW117831   2.676   0.711   5.745
 5644SOL    HW217832   2.764   0.814   5.654
 5645SOL     OW17833   6.404   6.000   4.464
 5645SOL    HW117834   6.502   6.001   4.483
 5645SOL    HW217835   6.388   6.027   4.369
 5646SOL     OW17836   6.729   0.883   2.548
 5646SOL    HW117837   6.734   0.862   2.451
 5646SOL    HW217838   6.810   0.846   2.594
 5647SOL     OW17839   5.872   3.398   6.536
 5647SOL    HW117840   5.866   3.474   6.601
 5647SOL    HW217841   5.804   3.329   6.559
 5648SOL     OW17842   1.722   1.703   4.122
 5648SOL    HW117843   1.727   1.707   4.022
 5648SOL    HW217844   1.667   1.780   4.155
 5649SOL     OW17845   6.877   0.614   4.845
 5649SOL    HW117846   6.790   0.572   4.823
 5649SOL    HW217847   6.866   0.713   4.852
 5650SOL     OW17848   6.002   4.732   5.976
 5650SOL    HW117849   5.927   4.692   6.028
 5650SOL    HW217850   6.076   4.665   5.967
 5651SOL     OW17851   5.902   0.599   3.109
 5651SOL    HW117852   5.957   0.631   3.032
 5651SOL    HW217853   5.841   0.672   3.139
 5652SOL     OW17854   4.126   4.120   6.638
 5652SOL    HW117855   4.111   4.186   6.564
 5652SOL    HW217856   4.121   4.028   6.601
 5653SOL     OW17857   2.297   6.575   5.827
 5653SOL    HW117858   2.260   6.652   5.878
 5653SOL    HW217859   2.223   6.510   5.807
 5654SOL     OW17860   2.704   6.620   0.268
 5654SOL    HW117861   2.727   6.656   0.358
 5654SOL    HW217862   2.608   6.636   0.248
 5655SOL     OW17863   5.914   5.412   2.001
 5655SOL    HW117864   5.986   5.373   2.059
 5655SOL    HW217865   5.855   5.471   2.056
 5656SOL     OW17866   2.645   4.537   6.377
 5656SOL    HW117867   2.641   4.535   6.277
 5656SOL    HW217868   2.725   4.488   6.409
 5657SOL     OW17869   5.358   5.619   2.111
 5657SOL    HW117870   5.442   5.605   2.057
 5657SOL    HW217871   5.309   5.532   2.119
 5658SOL     OW17872   4.404   6.712   6.264
 5658SOL    HW117873   4.350   6.787   6.303
 5658SOL    HW217874   4.349   6.663   6.197
 5659SOL     OW17875   2.885   3.458   2.524
 5659SOL    HW117876   2.837   3.426   2.606
 5659SOL    HW217877   2.927   3.546   2.542
 5660SOL     OW17878   0.553   4.531   1.881
 5660SOL    HW117879   0.551   4.493   1.973
 5660SOL    HW217880   0.551   4.456   1.814
 5661SOL     OW17881   5.903   5.635   4.884
 5661SOL    HW117882   5.913   5.728   4.846
 5661SOL    HW217883   5.808   5.621   4.912
 5662SOL     OW17884   1.593   4.218   4.898
 5662SOL    HW117885   1.524   4.183   4.834
 5662SOL    HW217886   1.664   4.150   4.911
 5663SOL     OW17887   2.517   3.681   0.471
 5663SOL    HW117888   2.514   3.743   0.549
 5663SOL    HW217889   2.459   3.717   0.398
 5664SOL     OW17890   6.517   6.967   1.119
 5664SOL    HW117891   6.550   6.875   1.141
 5664SOL    HW217892   6.454   6.961   1.041
 5665SOL     OW17893   1.174   0.672   5.896
 5665SOL    HW117894   1.185   0.615   5.815
 5665SOL    HW217895   1.152   0.766   5.869
 5666SOL     OW17896   5.079   6.052   6.538
 5666SOL    HW117897   5.032   5.968   6.568
 5666SOL    HW217898   5.051   6.128   6.596
 5667SOL     OW17899   5.050   4.675   3.728
 5667SOL    HW117900   5.094   4.635   3.647
 5667SOL    HW217901   4.981   4.612   3.763
 5668SOL     OW17902   6.506   2.651   6.562
 5668SOL    HW117903   6.411   2.670   6.538
 5668SOL    HW217904   6.566   2.680   6.487
 5669SOL     OW17905   0.849   2.021   5.598
 5669SOL    HW117906   0.904   2.086   5.651
 5669SOL    HW217907   0.763   2.003   5.647
 5670SOL     OW17908   1.377   2.653   2.226
 5670SOL    HW117909   1.341   2.700   2.306
 5670SOL    HW217910   1.407   2.720   2.158
 5671SOL     OW17911   0.428   0.511   6.069
 5671SOL    HW117912   0.518   0.473   6.090
 5671SOL    HW217913   0.427   0.543   5.974
 5672SOL     OW17914   4.364   4.606   5.598
 5672SOL    HW117915   4.272   4.643   5.589
 5672SOL    HW217916   4.428   4.659   5.543
 5673SOL     OW17917   1.945   6.306   0.996
 5673SOL    HW117918   1.970   6.210   1.009
 5673SOL    HW217919   1.859   6.310   0.945
 5674SOL     OW17920   0.736   2.984   0.483
 5674SOL    HW117921   0.723   2.907   0.546
 5674SOL    HW217922   0.690   2.965   0.397
 5675SOL     OW17923   4.013   1.438   5.730
 5675SOL    HW117924   3.955   1.513   5.762
 5675SOL    HW217925   3.962   1.352   5.738
 5676SOL     OW17926   2.275   6.271   1.961
 5676SOL    HW117927   2.268   6.175   1.985
 5676SOL    HW217928   2.362   6.308   1.994
 5677SOL     OW17929   5.880   0.257   3.021
 5677SOL    HW117930   5.838   0.167   3.016
 5677SOL    HW217931   5.943   0.261   3.099
 5678SOL     OW17932   1.405   5.678   2.686
 5678SOL    HW117933   1.352   5.605   2.731
 5678SOL    HW217934   1.342   5.749   2.654
 5679SOL     OW17935   3.997   5.669   5.520
 5679SOL    HW117936   4.010   5.768   5.509
 5679SOL    HW217937   3.903   5.650   5.545
 5680SOL     OW17938   1.153   0.334   6.445
 5680SOL    HW117939   1.210   0.273   6.499
 5680SOL    HW217940   1.190   0.427   6.450
 5681SOL     OW17941   3.280   3.536   0.199
 5681SOL    HW117942   3.295   3.448   0.245
 5681SOL    HW217943   3.344   3.604   0.234
 5682SOL     OW17944   2.249   4.092   4.576
 5682SOL    HW117945   2.241   4.084   4.476
 5682SOL    HW217946   2.344   4.110   4.601
 5683SOL     OW17947   3.317   3.658   5.042
 5683SOL    HW117948   3.255   3.706   4.980
 5683SOL    HW217949   3.279   3.568   5.064
 5684SOL     OW17950   3.236   4.102   2.447
 5684SOL    HW117951   3.174   4.090   2.369
 5684SOL    HW217952   3.184   4.101   2.532
 5685SOL     OW17953   0.092   7.004   1.741
 5685SOL    HW117954   0.125   0.008   1.651
 5685SOL    HW217955   0.162   6.949   1.787
 5686SOL     OW17956   3.811   4.783   6.544
 5686SOL    HW117957   3.836   4.727   6.465
 5686SOL    HW217958   3.876   4.859   6.553
 5687SOL     OW17959   4.707   6.538   5.973
 5687SOL    HW117960   4.616   6.546   5.932
 5687SOL    HW217961   4.700   6.499   6.065
 5688SOL     OW17962   5.463   1.144   2.350
 5688SOL    HW117963   5.525   1.068   2.333
 5688SOL    HW217964   5.372   1.109   2.370
 5689SOL     OW17965   3.820   2.881   5.285
 5689SOL    HW117966   3.898   2.942   5.299
 5689SOL    HW217967   3.761   2.918   5.213
 5690SOL     OW17968   3.532   0.743   3.315
 5690SOL    HW117969   3.490   0.734   3.225
 5690SOL    HW217970   3.537   0.840   3.340
 5691SOL     OW17971   3.242   0.325   4.501
 5691SOL    HW117972   3.212   0.231   4.484
 5691SOL    HW217973   3.287   0.331   4.590
 5692SOL     OW17974   5.723   2.909   0.360
 5692SOL    HW117975   5.691   2.866   0.445
 5692SOL    HW217976   5.795   2.853   0.319
 5693SOL     OW17977   5.535   3.203   1.701
 5693SOL    HW117978   5.524   3.267   1.777
 5693SOL    HW217979   5.550   3.254   1.616
 5694SOL     OW17980   1.983   2.734   5.209
 5694SOL    HW117981   1.906   2.682   5.247
 5694SOL    HW217982   1.996   2.708   5.113
 5695SOL     OW17983   1.826   3.232   3.462
 5695SOL    HW117984   1.810   3.134   3.447
 5695SOL    HW217985   1.924   3.251   3.461
 5696SOL     OW17986   3.277   1.468   6.712
 5696SOL    HW117987   3.286   1.566   6.694
 5696SOL    HW217988   3.299   1.416   6.629
 5697SOL     OW17989   6.882   3.884   0.995
 5697SOL    HW117990   6.799   3.938   0.981
 5697SOL    HW217991   6.861   3.787   0.985
 5698SOL     OW17992   1.785   4.593   4.272
 5698SOL    HW117993   1.884   4.606   4.274
 5698SOL    HW217994   1.744   4.656   4.207
 5699SOL     OW17995   0.871   2.209   5.379
 5699SOL    HW117996   0.836   2.131   5.430
 5699SOL    HW217997   0.887   2.183   5.284
 5700SOL     OW17998   1.474   5.197   4.256
 5700SOL    HW117999   1.423   5.266   4.309
 5700SOL    HW218000   1.464   5.216   4.158
 5701SOL     OW18001   4.840   2.286   2.438
 5701SOL    HW118002   4.880   2.338   2.514
 5701SOL    HW218003   4.857   2.188   2.452
 5702SOL     OW18004   4.060   0.576   6.974
 5702SOL    HW118005   4.144   0.545   6.930
 5702SOL    HW218006   4.070   0.672   7.002
 5703SOL     OW18007   4.965   3.867   2.506
 5703SOL    HW118008   4.893   3.874   2.437
 5703SOL    HW218009   4.970   3.774   2.540
 5704SOL     OW18010   5.324   3.510   3.229
 5704SOL    HW118011   5.303   3.412   3.234
 5704SOL    HW218012   5.369   3.529   3.142
 5705SOL     OW18013   6.654   1.046   4.093
 5705SOL    HW118014   6.555   1.044   4.107
 5705SOL    HW218015   6.699   0.987   4.160
 5706SOL     OW18016   1.971   1.539   5.506
 5706SOL    HW118017   2.022   1.472   5.452
 5706SOL    HW218018   1.921   1.600   5.444
 5707SOL     OW18019   4.370   0.772   1.282
 5707SOL    HW118020   4.360   0.785   1.380
 5707SOL    HW218021   4.439   0.835   1.246
 5708SOL     OW18022   1.124   6.748   0.356
 5708SOL    HW118023   1.154   6.672   0.298
 5708SOL    HW218024   1.174   6.747   0.442
 5709SOL     OW18025   0.514   3.060   0.773
 5709SOL    HW118026   0.604   3.034   0.808
 5709SOL    HW218027   0.524   3.136   0.709
 5710SOL     OW18028   3.466   5.039   6.642
 5710SOL    HW118029   3.465   5.096   6.561
 5710SOL    HW218030   3.430   4.948   6.619
 5711SOL     OW18031   4.643   1.303   4.863
 5711SOL    HW118032   4.738   1.318   4.836
 5711SOL    HW218033   4.618   1.366   4.937
 5712SOL     OW18034   5.206   6.830   5.975
 5712SOL    HW118035   5.140   6.848   6.049
 5712SOL    HW218036   5.186   6.742   5.934
 5713SOL     OW18037   0.333   3.556   2.426
 5713SOL    HW118038   0.253   3.568   2.368
 5713SOL    HW218039   0.306   3.569   2.522
 5714SOL     OW18040   2.582   0.568   1.195
 5714SOL    HW118041   2.485   0.564   1.218
 5714SOL    HW218042   2.599   0.514   1.112
 5715SOL     OW18043   0.771   5.951   4.106
 5715SOL    HW118044   0.814   5.932   4.018
 5715SOL    HW218045   0.746   6.047   4.111
 5716SOL     OW18046   1.326   2.698   4.984
 5716SOL    HW118047   1.339   2.797   4.970
 5716SOL    HW218048   1.415   2.655   5.001
 5717SOL     OW18049   0.398   4.681   5.471
 5717SOL    HW118050   0.329   4.693   5.543
 5717SOL    HW218051   0.476   4.632   5.507
 5718SOL     OW18052   3.043   5.720   5.898
 5718SOL    HW118053   3.091   5.659   5.961
 5718SOL    HW218054   2.953   5.683   5.878
 5719SOL     OW18055   1.820   1.114   6.902
 5719SOL    HW118056   1.893   1.165   6.948
 5719SOL    HW218057   1.732   1.141   6.941
 5720SOL     OW18058   1.967   5.800   4.163
 5720SOL    HW118059   1.897   5.838   4.101
 5720SOL    HW218060   2.039   5.757   4.110
 5721SOL     OW18061   6.293   5.428   6.914
 5721SOL    HW118062   6.333   5.339   6.936
 5721SOL    HW218063   6.358   5.481   6.859
 5722SOL     OW18064   5.265   0.903   4.428
 5722SOL    HW118065   5.292   0.987   4.476
 5722SOL    HW218066   5.212   0.927   4.347
 5723SOL     OW18067   6.600   5.061   1.101
 5723SOL    HW118068   6.680   5.025   1.150
 5723SOL    HW218069   6.594   5.159   1.115
 5724SOL     OW18070   4.601   2.913   6.118
 5724SOL    HW118071   4.630   3.003   6.150
 5724SOL    HW218072   4.632   2.900   6.024
 5725SOL     OW18073   6.130   6.888   5.537
 5725SOL    HW118074   6.066   6.962   5.561
 5725SOL    HW218075   6.209   6.892   5.598
 5726SOL     OW18076   4.177   5.473   5.572
 5726SOL    HW118077   4.197   5.430   5.483
 5726SOL    HW218078   4.111   5.547   5.559
 5727SOL     OW18079   5.193   3.094   3.513
 5727SOL    HW118080   5.155   3.004   3.492
 5727SOL    HW218081   5.265   3.085   3.582
 5728SOL     OW18082   3.675   1.210   5.246
 5728SOL    HW118083   3.742   1.249   5.310
 5728SOL    HW218084   3.687   1.252   5.156
 5729SOL     OW18085   2.406   2.194   3.739
 5729SOL    HW118086   2.364   2.218   3.651
 5729SOL    HW218087   2.367   2.108   3.772
 5730SOL     OW18088   3.994   4.614   0.259
 5730SOL    HW118089   4.011   4.712   0.272
 5730SOL    HW218090   3.913   4.602   0.201
 5731SOL     OW18091   4.404   1.163   5.065
 5731SOL    HW118092   4.387   1.079   5.014
 5731SOL    HW218093   4.407   1.240   5.002
 5732SOL     OW18094   6.659   3.622   4.566
 5732SOL    HW118095   6.735   3.563   4.537
 5732SOL    HW218096   6.685   3.669   4.651
 5733SOL     OW18097   2.157   6.507   0.935
 5733SOL    HW118098   2.167   6.599   0.973
 5733SOL    HW218099   2.088   6.456   0.987
 5734SOL     OW18100   1.573   0.265   5.720
 5734SOL    HW118101   1.637   0.192   5.743
 5734SOL    HW218102   1.588   0.293   5.625
 5735SOL     OW18103   5.149   1.175   0.854
 5735SOL    HW118104   5.083   1.119   0.803
 5735SOL    HW218105   5.147   1.149   0.951
 5736SOL     OW18106   4.251   3.580   6.445
 5736SOL    HW118107   4.263   3.502   6.507
 5736SOL    HW218108   4.158   3.615   6.454
 5737SOL     OW18109   5.487   5.393   2.465
 5737SOL    HW118110   5.519   5.317   2.522
 5737SOL    HW218111   5.513   5.377   2.370
 5738SOL     OW18112   3.616   1.741   1.002
 5738SOL    HW118113   3.664   1.769   0.919
 5738SOL    HW218114   3.641   1.804   1.077
 5739SOL     OW18115   2.205   1.129   6.012
 5739SOL    HW118116   2.128   1.194   6.012
 5739SOL    HW218117   2.274   1.159   6.077
 5740SOL     OW18118   5.136   2.730   2.573
 5740SOL    HW118119   5.169   2.683   2.491
 5740SOL    HW218120   5.040   2.754   2.560
 5741SOL     OW18121   1.292   3.550   4.233
 5741SOL    HW118122   1.376   3.528   4.282
 5741SOL    HW218123   1.213   3.517   4.286
 5742SOL     OW18124   6.403   4.460   2.301
 5742SOL    HW118125   6.316   4.496   2.266
 5742SOL    HW218126   6.422   4.371   2.259
 5743SOL     OW18127   3.348   6.566   6.517
 5743SOL    HW118128   3.373   6.546   6.612
 5743SOL    HW218129   3.415   6.524   6.455
 5744SOL     OW18130   5.330   5.501   3.778
 5744SOL    HW118131   5.385   5.471   3.856
 5744SOL    HW218132   5.251   5.441   3.768
 5745SOL     OW18133   1.985   3.960   2.435
 5745SOL    HW118134   2.045   4.035   2.407
 5745SOL    HW218135   1.961   3.905   2.355
 5746SOL     OW18136   5.194   0.730   3.631
 5746SOL    HW118137   5.291   0.738   3.610
 5746SOL    HW218138   5.142   0.728   3.545
 5747SOL     OW18139   1.254   6.377   1.773
 5747SOL    HW118140   1.341   6.328   1.772
 5747SOL    HW218141   1.206   6.358   1.859
 5748SOL     OW18142   6.498   0.048   0.475
 5748SOL    HW118143   6.494   6.987   0.530
 5748SOL    HW218144   6.574   0.105   0.508
 5749SOL     OW18145   1.870   6.199   6.044
 5749SOL    HW118146   1.945   6.143   6.079
 5749SOL    HW218147   1.847   6.269   6.112
 5750SOL     OW18148   5.836   2.377   4.095
 5750SOL    HW118149   5.795   2.439   4.163
 5750SOL    HW218150   5.869   2.430   4.017
 5751SOL     OW18151   6.968   3.840   4.198
 5751SOL    HW118152   6.970   3.919   4.258
 5751SOL    HW218153   0.020   3.777   4.223
 5752SOL     OW18154   5.777   1.526   6.606
 5752SOL    HW118155   5.849   1.457   6.616
 5752SOL    HW218156   5.818   1.613   6.581
 5753SOL     OW18157   3.790   3.411   3.924
 5753SOL    HW118158   3.873   3.388   3.974
 5753SOL    HW218159   3.711   3.370   3.970
 5754SOL     OW18160   6.080   0.468   0.897
 5754SOL    HW118161   6.086   0.417   0.811
 5754SOL    HW218162   6.068   0.565   0.876
 5755SOL     OW18163   0.664   3.836   6.302
 5755SOL    HW118164   0.746   3.807   6.253
 5755SOL    HW218165   0.631   3.761   6.359
 5756SOL     OW18166   5.818   6.669   1.747
 5756SOL    HW118167   5.821   6.769   1.758
 5756SOL    HW218168   5.823   6.625   1.836
 5757SOL     OW18169   1.360   2.311   4.518
 5757SOL    HW118170   1.392   2.270   4.433
 5757SOL    HW218171   1.438   2.327   4.579
 5758SOL     OW18172   6.251   6.933   2.976
 5758SOL    HW118173   6.238   6.940   2.878
 5758SOL    HW218174   6.303   6.849   2.997
 5759SOL     OW18175   2.899   6.402   2.903
 5759SOL    HW118176   2.942   6.434   2.818
 5759SOL    HW218177   2.825   6.464   2.928
 5760SOL     OW18178   0.694   2.289   0.232
 5760SOL    HW118179   0.718   2.225   0.305
 5760SOL    HW218180   0.688   2.382   0.269
 5761SOL     OW18181   6.682   6.746   4.997
 5761SOL    HW118182   6.718   6.770   5.088
 5761SOL    HW218183   6.613   6.813   4.970
 5762SOL     OW18184   0.952   6.392   5.867
 5762SOL    HW118185   0.947   6.302   5.911
 5762SOL    HW218186   0.977   6.461   5.935
 5763SOL     OW18187   4.690   0.545   0.145
 5763SOL    HW118188   4.598   0.564   0.111
 5763SOL    HW218189   4.685   0.510   0.239
 5764SOL     OW18190   3.984   6.403   4.236
 5764SOL    HW118191   4.074   6.359   4.230
 5764SOL    HW218192   3.976   6.451   4.323
 5765SOL     OW18193   6.709   6.912   2.604
 5765SOL    HW118194   6.755   6.853   2.671
 5765SOL    HW218195   6.734   7.007   2.620
 5766SOL     OW18196   1.107   0.944   4.614
 5766SOL    HW118197   1.159   0.985   4.690
 5766SOL    HW218198   1.166   0.937   4.534
 5767SOL     OW18199   6.101   6.885   0.552
 5767SOL    HW118200   6.094   6.956   0.622
 5767SOL    HW218201   6.119   6.797   0.596
 5768SOL     OW18202   1.658   0.339   4.640
 5768SOL    HW118203   1.707   0.350   4.726
 5768SOL    HW218204   1.675   0.247   4.604
 5769SOL     OW18205   1.054   1.949   6.102
 5769SOL    HW118206   1.127   1.953   6.034
 5769SOL    HW218207   1.066   2.023   6.169
 5770SOL     OW18208   1.228   3.755   2.635
 5770SOL    HW118209   1.170   3.673   2.627
 5770SOL    HW218210   1.261   3.763   2.729
 5771SOL     OW18211   2.605   6.348   3.066
 5771SOL    HW118212   2.550   6.288   3.007
 5771SOL    HW218213   2.632   6.429   3.014
 5772SOL     OW18214   2.656   0.702   3.361
 5772SOL    HW118215   2.721   0.715   3.436
 5772SOL    HW218216   2.572   0.662   3.397
 5773SOL     OW18217   6.266   0.527   4.651
 5773SOL    HW118218   6.190   0.490   4.705
 5773SOL    HW218219   6.230   0.581   4.575
 5774SOL     OW18220   1.045   5.953   3.398
 5774SOL    HW118221   1.033   5.998   3.486
 5774SOL    HW218222   0.998   6.005   3.327
 5775SOL     OW18223   5.403   4.469   2.673
 5775SOL    HW118224   5.403   4.477   2.773
 5775SOL    HW218225   5.312   4.489   2.637
 5776SOL     OW18226   3.948   0.507   4.135
 5776SOL    HW118227   4.033   0.559   4.142
 5776SOL    HW218228   3.940   0.469   4.043
 5777SOL     OW18229   0.669   0.440   1.584
 5777SOL    HW118230   0.647   0.465   1.678
 5777SOL    HW218231   0.768   0.449   1.570
 5778SOL     OW18232   0.367   0.960   0.106
 5778SOL    HW118233   0.312   0.897   0.050
 5778SOL    HW218234   0.369   1.050   0.063
 5779SOL     OW18235   5.790   1.458   0.368
 5779SOL    HW118236   5.771   1.451   0.270
 5779SOL    HW218237   5.800   1.366   0.406
 5780SOL     OW18238   5.343   5.134   4.572
 5780SOL    HW118239   5.308   5.225   4.549
 5780SOL    HW218240   5.312   5.109   4.664
 5781SOL     OW18241   1.327   5.736   5.826
 5781SOL    HW118242   1.306   5.722   5.729
 5781SOL    HW218243   1.419   5.773   5.835
 5782SOL     OW18244   5.444   0.811   1.344
 5782SOL    HW118245   5.499   0.729   1.330
 5782SOL    HW218246   5.446   0.867   1.260
 5783SOL     OW18247   2.313   2.441   6.720
 5783SOL    HW118248   2.371   2.466   6.642
 5783SOL    HW218249   2.364   2.455   6.805
 5784SOL     OW18250   6.885   6.237   0.361
 5784SOL    HW118251   6.877   6.294   0.279
 5784SOL    HW218252   6.849   6.145   0.342
 5785SOL     OW18253   1.696   1.151   2.203
 5785SOL    HW118254   1.701   1.244   2.239
 5785SOL    HW218255   1.759   1.142   2.126
 5786SOL     OW18256   5.518   4.841   2.370
 5786SOL    HW118257   5.418   4.849   2.374
 5786SOL    HW218258   5.548   4.852   2.276
 5787SOL     OW18259   1.973   2.862   6.288
 5787SOL    HW118260   2.029   2.782   6.314
 5787SOL    HW218261   1.989   2.936   6.354
 5788SOL     OW18262   3.291   0.857   3.844
 5788SOL    HW118263   3.365   0.904   3.892
 5788SOL    HW218264   3.328   0.783   3.789
 5789SOL     OW18265   3.469   4.774   5.978
 5789SOL    HW118266   3.380   4.820   5.975
 5789SOL    HW218267   3.461   4.692   6.035
 5790SOL     OW18268   1.636   3.294   4.050
 5790SOL    HW118269   1.595   3.367   3.995
 5790SOL    HW218270   1.735   3.294   4.037
 5791SOL     OW18271   0.974   1.291   3.560
 5791SOL    HW118272   0.925   1.340   3.488
 5791SOL    HW218273   0.908   1.246   3.621
 5792SOL     OW18274   0.629   1.792   3.392
 5792SOL    HW118275   0.555   1.781   3.458
 5792SOL    HW218276   0.689   1.867   3.420
 5793SOL     OW18277   6.090   1.553   5.416
 5793SOL    HW118278   6.121   1.572   5.323
 5793SOL    HW218279   6.034   1.471   5.418
 5794SOL     OW18280   0.220   4.235   6.611
 5794SOL    HW118281   0.240   4.151   6.662
 5794SOL    HW218282   0.134   4.223   6.562
 5795SOL     OW18283   6.603   4.702   6.976
 5795SOL    HW118284   6.621   4.604   6.972
 5795SOL    HW218285   6.608   4.740   6.884
 5796SOL     OW18286   2.785   2.169   0.528
 5796SOL    HW118287   2.827   2.191   0.440
 5796SOL    HW218288   2.804   2.243   0.593
 5797SOL     OW18289   3.151   3.549   5.534
 5797SOL    HW118290   3.158   3.507   5.443
 5797SOL    HW218291   3.235   3.600   5.553
 5798SOL     OW18292   6.594   4.770   4.057
 5798SOL    HW118293   6.505   4.786   4.100
 5798SOL    HW218294   6.630   4.682   4.088
 5799SOL     OW18295   5.466   0.516   4.608
 5799SOL    HW118296   5.490   0.425   4.574
 5799SOL    HW218297   5.492   0.585   4.540
 5800SOL     OW18298   5.746   6.771   6.561
 5800SOL    HW118299   5.653   6.738   6.573
 5800SOL    HW218300   5.809   6.693   6.561
 5801SOL     OW18301   1.518   1.294   1.987
 5801SOL    HW118302   1.538   1.237   2.066
 5801SOL    HW218303   1.600   1.302   1.930
 5802SOL     OW18304   0.169   2.736   4.579
 5802SOL    HW118305   0.214   2.809   4.632
 5802SOL    HW218306   0.169   2.760   4.482
 5803SOL     OW18307   1.242   5.086   1.187
 5803SOL    HW118308   1.207   5.003   1.230
 5803SOL    HW218309   1.313   5.127   1.244
 5804SOL     OW18310   0.085   3.152   6.499
 5804SOL    HW118311   0.032   3.191   6.574
 5804SOL    HW218312   0.138   3.224   6.454
 5805SOL     OW18313   4.719   3.191   6.834
 5805SOL    HW118314   4.681   3.273   6.877
 5805SOL    HW218315   4.699   3.111   6.890
 5806SOL     OW18316   5.899   6.530   6.255
 5806SOL    HW118317   5.948   6.489   6.178
 5806SOL    HW218318   5.851   6.459   6.307
 5807SOL     OW18319   2.683   4.093   1.688
 5807SOL    HW118320   2.653   4.043   1.607
 5807SOL    HW218321   2.746   4.166   1.661
 5808SOL     OW18322   6.536   1.605   3.718
 5808SOL    HW118323   6.572   1.532   3.659
 5808SOL    HW218324   6.441   1.624   3.693
 5809SOL     OW18325   1.003   3.576   3.978
 5809SOL    HW118326   1.058   3.525   3.912
 5809SOL    HW218327   1.060   3.645   4.023
 5810SOL     OW18328   3.300   1.776   2.332
 5810SOL    HW118329   3.372   1.719   2.292
 5810SOL    HW218330   3.211   1.741   2.304
 5811SOL     OW18331   2.682   0.074   1.435
 5811SOL    HW118332   2.702   0.140   1.363
 5811SOL    HW218333   2.596   0.099   1.480
 5812SOL     OW18334   4.193   0.832   4.383
 5812SOL    HW118335   4.274   0.873   4.341
 5812SOL    HW218336   4.111   0.872   4.341
 5813SOL     OW18337   1.774   2.051   5.012
 5813SOL    HW118338   1.743   2.145   5.027
 5813SOL    HW218339   1.712   2.006   4.946
 5814SOL     OW18340   0.773   5.150   1.530
 5814SOL    HW118341   0.781   5.248   1.509
 5814SOL    HW218342   0.748   5.139   1.626
 5815SOL     OW18343   4.111   6.471   4.860
 5815SOL    HW118344   4.049   6.546   4.839
 5815SOL    HW218345   4.201   6.490   4.822
 5816SOL     OW18346   5.122   5.999   0.210
 5816SOL    HW118347   5.039   5.945   0.219
 5816SOL    HW218348   5.201   5.939   0.207
 5817SOL     OW18349   5.831   2.614   6.270
 5817SOL    HW118350   5.920   2.659   6.280
 5817SOL    HW218351   5.831   2.559   6.186
 5818SOL     OW18352   6.121   6.645   4.996
 5818SOL    HW118353   6.095   6.565   4.941
 5818SOL    HW218354   6.221   6.650   5.002
 5819SOL     OW18355   6.550   0.388   1.376
 5819SOL    HW118356   6.548   0.474   1.426
 5819SOL    HW218357   6.576   0.314   1.439
 5820SOL     OW18358   5.151   4.877   1.667
 5820SOL    HW118359   5.136   4.794   1.721
 5820SOL    HW218360   5.112   4.864   1.575
 5821SOL     OW18361   3.066   6.859   2.766
 5821SOL    HW118362   3.115   6.852   2.679
 5821SOL    HW218363   3.031   6.952   2.777
 5822SOL     OW18364   0.422   0.637   2.474
 5822SOL    HW118365   0.351   0.567   2.484
 5822SOL    HW218366   0.458   0.635   2.381
 5823SOL     OW18367   1.421   2.809   3.827
 5823SOL    HW118368   1.413   2.884   3.761
 5823SOL    HW218369   1.346   2.816   3.893
 5824SOL     OW18370   4.736   0.392   3.745
 5824SOL    HW118371   4.645   0.363   3.776
 5824SOL    HW218372   4.744   0.491   3.754
 5825SOL     OW18373   3.195   1.374   1.547
 5825SOL    HW118374   3.194   1.384   1.647
 5825SOL    HW218375   3.256   1.442   1.507
 5826SOL     OW18376   0.449   6.641   3.128
 5826SOL    HW118377   0.502   6.564   3.090
 5826SOL    HW218378   0.357   6.610   3.150
 5827SOL     OW18379   2.055   4.729   5.663
 5827SOL    HW118380   1.974   4.746   5.607
 5827SOL    HW218381   2.031   4.740   5.759
 5828SOL     OW18382   6.192   1.610   1.189
 5828SOL    HW118383   6.264   1.669   1.153
 5828SOL    HW218384   6.106   1.661   1.195
 5829SOL     OW18385   1.971   0.836   1.657
 5829SOL    HW118386   1.907   0.821   1.733
 5829SOL    HW218387   2.022   0.921   1.673
 5830SOL     OW18388   1.194   0.920   5.817
 5830SOL    HW118389   1.125   0.992   5.806
 5830SOL    HW218390   1.252   0.941   5.896
 5831SOL     OW18391   5.736   5.515   2.816
 5831SOL    HW118392   5.810   5.471   2.767
 5831SOL    HW218393   5.723   5.471   2.905
 5832SOL     OW18394   3.846   3.547   4.234
 5832SOL    HW118395   3.747   3.545   4.227
 5832SOL    HW218396   3.877   3.642   4.243
 5833SOL     OW18397   3.037   3.280   4.893
 5833SOL    HW118398   3.136   3.292   4.904
 5833SOL    HW218399   3.017   3.244   4.802
 5834SOL     OW18400   5.509   1.185   6.539
 5834SOL    HW118401   5.593   1.148   6.580
 5834SOL    HW218402   5.508   1.162   6.441
 5835SOL     OW18403   5.484   2.821   3.822
 5835SOL    HW118404   5.495   2.811   3.724
 5835SOL    HW218405   5.516   2.912   3.851
 5836SOL     OW18406   3.489   6.861   3.920
 5836SOL    HW118407   3.518   6.768   3.893
 5836SOL    HW218408   3.391   6.871   3.903
 5837SOL     OW18409   4.251   3.953   6.458
 5837SOL    HW118410   4.315   3.878   6.474
 5837SOL    HW218411   4.209   3.943   6.368
 5838SOL     OW18412   0.350   1.109   6.055
 5838SOL    HW118413   0.424   1.100   5.988
 5838SOL    HW218414   0.262   1.105   6.009
 5839SOL     OW18415   6.759   2.456   2.027
 5839SOL    HW118416   6.708   2.396   2.089
 5839SOL    HW218417   6.761   2.549   2.064
 5840SOL     OW18418   3.151   6.255   0.572
 5840SOL    HW118419   3.114   6.200   0.647
 5840SOL    HW218420   3.082   6.321   0.543
 5841SOL     OW18421   6.310   2.007   3.592
 5841SOL    HW118422   6.302   1.918   3.637
 5841SOL    HW218423   6.352   2.072   3.655
 5842SOL     OW18424   3.622   2.270   1.013
 5842SOL    HW118425   3.672   2.255   0.928
 5842SOL    HW218426   3.686   2.273   1.090
 5843SOL     OW18427   0.264   2.535   1.499
 5843SOL    HW118428   0.320   2.506   1.421
 5843SOL    HW218429   0.316   2.600   1.555
 5844SOL     OW18430   1.594   6.210   5.984
 5844SOL    HW118431   1.687   6.179   6.007
 5844SOL    HW218432   1.541   6.220   6.068
 5845SOL     OW18433   2.044   3.095   4.588
 5845SOL    HW118434   2.124   3.104   4.647
 5845SOL    HW218435   1.961   3.112   4.641
 5846SOL     OW18436   0.529   3.726   6.783
 5846SOL    HW118437   0.509   3.822   6.763
 5846SOL    HW218438   0.546   3.716   6.881
 5847SOL     OW18439   1.129   2.460   4.647
 5847SOL    HW118440   1.038   2.418   4.650
 5847SOL    HW218441   1.177   2.432   4.564
 5848SOL     OW18442   1.124   4.438   3.803
 5848SOL    HW118443   1.151   4.375   3.730
 5848SOL    HW218444   1.082   4.520   3.763
 5849SOL     OW18445   2.433   0.165   6.157
 5849SOL    HW118446   2.457   0.256   6.190
 5849SOL    HW218447   2.383   0.116   6.228
 5850SOL     OW18448   0.733   4.580   3.182
 5850SOL    HW118449   0.789   4.522   3.241
 5850SOL    HW218450   0.639   4.582   3.218
 5851SOL     OW18451   6.538   2.978   1.605
 5851SOL    HW118452   6.573   3.065   1.571
 5851SOL    HW218453   6.591   2.903   1.566
 5852SOL     OW18454   4.297   6.153   3.125
 5852SOL    HW118455   4.235   6.167   3.202
 5852SOL    HW218456   4.267   6.075   3.071
 5853SOL     OW18457   5.041   3.888   5.310
 5853SOL    HW118458   4.979   3.875   5.233
 5853SOL    HW218459   4.999   3.850   5.393
 5854SOL     OW18460   1.542   1.464   6.874
 5854SOL    HW118461   1.618   1.484   6.812
 5854SOL    HW218462   1.487   1.547   6.887
 5855SOL     OW18463   1.667   1.891   4.814
 5855SOL    HW118464   1.732   1.908   4.740
 5855SOL    HW218465   1.637   1.796   4.811
 5856SOL     OW18466   1.087   6.431   3.146
 5856SOL    HW118467   1.162   6.405   3.206
 5856SOL    HW218468   1.002   6.433   3.198
 5857SOL     OW18469   0.712   2.275   4.900
 5857SOL    HW118470   0.714   2.201   4.832
 5857SOL    HW218471   0.618   2.304   4.914
 5858SOL     OW18472   3.128   0.076   3.836
 5858SOL    HW118473   3.120   0.174   3.858
 5858SOL    HW218474   3.098   0.022   3.914
 5859SOL     OW18475   6.027   4.963   1.982
 5859SOL    HW118476   5.939   4.987   1.940
 5859SOL    HW218477   6.010   4.906   2.063
 5860SOL     OW18478   6.768   4.798   0.689
 5860SOL    HW118479   6.790   4.873   0.752
 5860SOL    HW218480   6.853   4.750   0.664
 5861SOL     OW18481   5.964   1.943   4.159
 5861SOL    HW118482   5.910   2.006   4.104
 5861SOL    HW218483   6.051   1.985   4.183
 5862SOL     OW18484   5.790   5.413   4.214
 5862SOL    HW118485   5.810   5.397   4.117
 5862SOL    HW218486   5.846   5.354   4.271
 5863SOL     OW18487   2.581   1.531   0.766
 5863SOL    HW118488   2.570   1.432   0.766
 5863SOL    HW218489   2.670   1.555   0.729
 5864SOL     OW18490   4.719   5.020   0.426
 5864SOL    HW118491   4.755   4.972   0.345
 5864SOL    HW218492   4.620   5.005   0.432
 5865SOL     OW18493   4.393   0.581   3.637
 5865SOL    HW118494   4.456   0.613   3.565
 5865SOL    HW218495   4.338   0.505   3.601
 5866SOL     OW18496   3.675   1.766   6.347
 5866SOL    HW118497   3.618   1.835   6.393
 5866SOL    HW218498   3.695   1.691   6.410
 5867SOL     OW18499   6.822   2.856   1.557
 5867SOL    HW118500   6.845   2.953   1.571
 5867SOL    HW218501   6.898   2.799   1.588
 5868SOL     OW18502   0.378   6.078   5.427
 5868SOL    HW118503   0.328   6.064   5.342
 5868SOL    HW218504   0.424   5.993   5.453
 5869SOL     OW18505   2.327   5.070   4.684
 5869SOL    HW118506   2.380   5.103   4.606
 5869SOL    HW218507   2.387   5.018   4.745
 5870SOL     OW18508   5.266   6.093   4.020
 5870SOL    HW118509   5.238   6.140   3.936
 5870SOL    HW218510   5.271   5.995   4.003
 5871SOL     OW18511   3.372   4.514   1.053
 5871SOL    HW118512   3.408   4.441   0.994
 5871SOL    HW218513   3.439   4.588   1.060
 5872SOL     OW18514   4.160   5.737   3.655
 5872SOL    HW118515   4.180   5.650   3.612
 5872SOL    HW218516   4.119   5.721   3.745
 5873SOL     OW18517   2.221   2.984   1.024
 5873SOL    HW118518   2.224   3.084   1.030
 5873SOL    HW218519   2.126   2.953   1.035
 5874SOL     OW18520   0.673   4.260   6.351
 5874SOL    HW118521   0.634   4.213   6.273
 5874SOL    HW218522   0.600   4.300   6.406
 5875SOL     OW18523   4.091   2.477   1.333
 5875SOL    HW118524   4.048   2.544   1.272
 5875SOL    HW218525   4.051   2.484   1.425
 5876SOL     OW18526   4.192   4.152   6.073
 5876SOL    HW118527   4.111   4.115   6.028
 5876SOL    HW218528   4.274   4.114   6.030
 5877SOL     OW18529   5.411   6.650   3.054
 5877SOL    HW118530   5.403   6.743   3.020
 5877SOL    HW218531   5.434   6.651   3.151
 5878SOL     OW18532   4.867   3.206   2.957
 5878SOL    HW118533   4.885   3.108   2.950
 5878SOL    HW218534   4.888   3.251   2.869
 5879SOL     OW18535   3.247   4.863   5.355
 5879SOL    HW118536   3.198   4.810   5.424
 5879SOL    HW218537   3.186   4.932   5.316
 5880SOL     OW18538   6.172   2.115   0.536
 5880SOL    HW118539   6.097   2.052   0.517
 5880SOL    HW218540   6.257   2.064   0.550
 5881SOL     OW18541   0.906   5.631   3.149
 5881SOL    HW118542   0.822   5.676   3.179
 5881SOL    HW218543   0.960   5.696   3.095
 5882SOL     OW18544   1.395   5.724   5.522
 5882SOL    HW118545   1.342   5.785   5.464
 5882SOL    HW218546   1.491   5.725   5.492
 5883SOL     OW18547   0.120   5.887   6.954
 5883SOL    HW118548   0.215   5.888   6.920
 5883SOL    HW218549   0.103   5.802   7.003
 5884SOL     OW18550   0.837   0.768   1.705
 5884SOL    HW118551   0.898   0.845   1.690
 5884SOL    HW218552   0.796   0.775   1.796
 5885SOL     OW18553   0.127   5.557   1.544
 5885SOL    HW118554   0.161   5.480   1.491
 5885SOL    HW218555   0.151   5.545   1.641
 5886SOL     OW18556   1.601   4.446   3.337
 5886SOL    HW118557   1.524   4.397   3.296
 5886SOL    HW218558   1.678   4.383   3.348
 5887SOL     OW18559   2.093   3.588   0.943
 5887SOL    HW118560   2.044   3.632   0.867
 5887SOL    HW218561   2.029   3.534   0.997
 5888SOL     OW18562   3.058   6.141   1.855
 5888SOL    HW118563   3.024   6.217   1.910
 5888SOL    HW218564   3.023   6.148   1.762
 5889SOL     OW18565   4.824   1.287   1.739
 5889SOL    HW118566   4.844   1.198   1.698
 5889SOL    HW218567   4.758   1.276   1.813
 5890SOL     OW18568   2.377   4.496   2.899
 5890SOL    HW118569   2.332   4.508   2.810
 5890SOL    HW218570   2.330   4.423   2.950
 5891SOL     OW18571   2.542   3.056   6.979
 5891SOL    HW118572   2.493   3.079   6.895
 5891SOL    HW218573   2.640   3.047   6.960
 5892SOL     OW18574   0.498   2.622   1.655
 5892SOL    HW118575   0.569   2.676   1.610
 5892SOL    HW218576   0.514   2.621   1.753
 5893SOL     OW18577   0.171   6.499   1.332
 5893SOL    HW118578   0.213   6.436   1.398
 5893SOL    HW218579   0.191   6.468   1.239
 5894SOL     OW18580   2.928   5.030   6.925
 5894SOL    HW118581   3.011   5.008   6.875
 5894SOL    HW218582   2.949   5.098   6.996
 5895SOL     OW18583   5.989   2.782   4.074
 5895SOL    HW118584   6.036   2.733   4.147
 5895SOL    HW218585   5.892   2.790   4.096
 5896SOL     OW18586   5.212   2.330   0.954
 5896SOL    HW118587   5.302   2.319   0.912
 5896SOL    HW218588   5.178   2.241   0.985
 5897SOL     OW18589   3.496   3.777   6.919
 5897SOL    HW118590   3.497   3.865   6.872
 5897SOL    HW218591   3.416   3.725   6.891
 5898SOL     OW18592   4.001   0.712   6.678
 5898SOL    HW118593   3.933   0.679   6.744
 5898SOL    HW218594   3.982   0.808   6.656
 5899SOL     OW18595   0.686   0.395   0.363
 5899SOL    HW118596   0.734   0.373   0.278
 5899SOL    HW218597   0.659   0.491   0.362
 5900SOL     OW18598   5.537   6.212   2.762
 5900SOL    HW118599   5.596   6.139   2.798
 5900SOL    HW218600   5.594   6.288   2.732
 5901SOL     OW18601   1.793   0.419   4.854
 5901SOL    HW118602   1.737   0.457   4.927
 5901SOL    HW218603   1.816   0.491   4.789
 5902SOL     OW18604   4.436   3.675   5.873
 5902SOL    HW118605   4.363   3.698   5.809
 5902SOL    HW218606   4.520   3.654   5.823
 5903SOL     OW18607   5.640   0.764   5.779
 5903SOL    HW118608   5.585   0.691   5.738
 5903SOL    HW218609   5.713   0.723   5.833
 5904SOL     OW18610   0.286   5.181   2.075
 5904SOL    HW118611   0.200   5.193   2.025
 5904SOL    HW218612   0.271   5.198   2.172
 5905SOL     OW18613   6.219   1.876   4.766
 5905SOL    HW118614   6.222   1.939   4.844
 5905SOL    HW218615   6.265   1.791   4.789
 5906SOL     OW18616   4.087   0.075   4.651
 5906SOL    HW118617   4.152   0.138   4.693
 5906SOL    HW218618   4.127   7.007   4.646
 5907SOL     OW18619   0.697   3.439   6.066
 5907SOL    HW118620   0.773   3.436   6.131
 5907SOL    HW218621   0.610   3.434   6.116
 5908SOL     OW18622   4.751   3.182   6.478
 5908SOL    HW118623   4.728   3.179   6.380
 5908SOL    HW218624   4.707   3.260   6.521
 5909SOL     OW18625   6.977   5.232   3.311
 5909SOL    HW118626   0.006   5.155   3.275
 5909SOL    HW218627   6.949   5.291   3.236
 5910SOL     OW18628   2.212   4.200   2.122
 5910SOL    HW118629   2.248   4.108   2.109
 5910SOL    HW218630   2.267   4.247   2.191
 5911SOL     OW18631   6.706   1.437   5.573
 5911SOL    HW118632   6.676   1.350   5.535
 5911SOL    HW218633   6.630   1.501   5.577
 5912SOL     OW18634   0.356   3.774   6.074
 5912SOL    HW118635   0.354   3.708   5.998
 5912SOL    HW218636   0.414   3.851   6.049
 5913SOL     OW18637   1.596   2.890   4.968
 5913SOL    HW118638   1.689   2.924   4.981
 5913SOL    HW218639   1.592   2.792   4.991
 5914SOL     OW18640   0.959   5.574   0.168
 5914SOL    HW118641   0.902   5.507   0.215
 5914SOL    HW218642   1.022   5.525   0.106
 5915SOL     OW18643   5.747   4.159   4.548
 5915SOL    HW118644   5.835   4.128   4.584
 5915SOL    HW218645   5.736   4.127   4.454
 5916SOL     OW18646   3.324   0.888   6.804
 5916SOL    HW118647   3.285   0.830   6.732
 5916SOL    HW218648   3.253   0.909   6.872
 5917SOL     OW18649   3.786   3.661   2.076
 5917SOL    HW118650   3.714   3.595   2.058
 5917SOL    HW218651   3.812   3.706   1.991
 5918SOL     OW18652   3.025   1.993   4.063
 5918SOL    HW118653   3.111   1.942   4.051
 5918SOL    HW218654   2.995   2.027   3.973
 5919SOL     OW18655   1.708   1.969   6.025
 5919SOL    HW118656   1.664   1.949   5.937
 5919SOL    HW218657   1.639   1.975   6.097
 5920SOL     OW18658   2.339   3.944   6.786
 5920SOL    HW118659   2.308   3.964   6.693
 5920SOL    HW218660   2.401   4.017   6.816
 5921SOL     OW18661   3.952   6.350   4.649
 5921SOL    HW118662   3.860   6.318   4.672
 5921SOL    HW218663   4.004   6.365   4.733
 5922SOL     OW18664   6.827   5.023   2.379
 5922SOL    HW118665   6.917   4.995   2.413
 5922SOL    HW218666   6.833   5.044   2.282
 5923SOL     OW18667   0.794   0.364   3.263
 5923SOL    HW118668   0.834   0.353   3.354
 5923SOL    HW218669   0.745   0.451   3.258
 5924SOL     OW18670   5.573   2.023   4.873
 5924SOL    HW118671   5.590   1.937   4.921
 5924SOL    HW218672   5.647   2.087   4.893
 5925SOL     OW18673   6.632   6.588   0.412
 5925SOL    HW118674   6.613   6.545   0.324
 5925SOL    HW218675   6.573   6.548   0.482
 5926SOL     OW18676   3.297   6.648   2.056
 5926SOL    HW118677   3.347   6.564   2.076
 5926SOL    HW218678   3.203   6.640   2.089
 5927SOL     OW18679   2.171   5.375   0.957
 5927SOL    HW118680   2.123   5.288   0.950
 5927SOL    HW218681   2.232   5.387   0.878
 5928SOL     OW18682   6.729   6.381   0.824
 5928SOL    HW118683   6.681   6.362   0.910
 5928SOL    HW218684   6.741   6.296   0.773
 5929SOL     OW18685   0.195   6.969   5.835
 5929SOL    HW118686   0.169   6.959   5.931
 5929SOL    HW218687   0.141   6.905   5.780
 5930SOL     OW18688   6.486   1.494   4.802
 5930SOL    HW118689   6.406   1.528   4.851
 5930SOL    HW218690   6.555   1.464   4.868
 5931SOL     OW18691   6.033   4.520   0.239
 5931SOL    HW118692   6.064   4.429   0.213
 5931SOL    HW218693   5.993   4.517   0.331
 5932SOL     OW18694   2.529   0.341   0.492
 5932SOL    HW118695   2.618   0.302   0.469
 5932SOL    HW218696   2.526   0.437   0.467
 5933SOL     OW18697   5.554   2.101   3.232
 5933SOL    HW118698   5.527   2.153   3.151
 5933SOL    HW218699   5.654   2.095   3.236
 5934SOL     OW18700   4.186   3.278   1.861
 5934SOL    HW118701   4.164   3.273   1.958
 5934SOL    HW218702   4.275   3.234   1.845
 5935SOL     OW18703   3.742   3.235   2.620
 5935SOL    HW118704   3.648   3.204   2.607
 5935SOL    HW218705   3.751   3.328   2.584
 5936SOL     OW18706   6.392   5.887   6.965
 5936SOL    HW118707   6.307   5.871   7.016
 5936SOL    HW218708   6.369   5.914   6.871
 5937SOL     OW18709   0.704   4.068   0.655
 5937SOL    HW118710   0.656   4.108   0.578
 5937SOL    HW218711   0.691   4.126   0.736
 5938SOL     OW18712   2.643   5.214   1.080
 5938SOL    HW118713   2.670   5.242   1.173
 5938SOL    HW218714   2.543   5.205   1.076
 5939SOL     OW18715   0.647   0.053   2.248
 5939SOL    HW118716   0.690   0.104   2.173
 5939SOL    HW218717   0.647   0.109   2.330
 5940SOL     OW18718   4.233   4.664   3.128
 5940SOL    HW118719   4.213   4.704   3.217
 5940SOL    HW218720   4.147   4.634   3.085
 5941SOL     OW18721   6.456   2.584   4.012
 5941SOL    HW118722   6.401   2.525   3.952
 5941SOL    HW218723   6.397   2.625   4.081
 5942SOL     OW18724   6.822   1.858   4.614
 5942SOL    HW118725   6.903   1.842   4.670
 5942SOL    HW218726   6.814   1.955   4.593
 5943SOL     OW18727   1.823   6.010   1.140
 5943SOL    HW118728   1.889   6.078   1.174
 5943SOL    HW218729   1.746   6.004   1.203
 5944SOL     OW18730   5.336   2.624   2.942
 5944SOL    HW118731   5.270   2.698   2.942
 5944SOL    HW218732   5.293   2.541   2.980
 5945SOL     OW18733   6.468   6.120   5.775
 5945SOL    HW118734   6.378   6.077   5.762
 5945SOL    HW218735   6.539   6.057   5.743
 5946SOL     OW18736   4.067   2.483   5.379
 5946SOL    HW118737   3.977   2.522   5.399
 5946SOL    HW218738   4.099   2.515   5.290
 5947SOL     OW18739   5.774   3.642   2.624
 5947SOL    HW118740   5.846   3.673   2.562
 5947SOL    HW218741   5.734   3.557   2.590
 5948SOL     OW18742   2.770   5.952   3.098
 5948SOL    HW118743   2.750   5.864   3.054
 5948SOL    HW218744   2.723   5.956   3.186
 5949SOL     OW18745   4.788   4.022   2.818
 5949SOL    HW118746   4.835   3.937   2.838
 5949SOL    HW218747   4.774   4.074   2.902
 5950SOL     OW18748   0.068   1.770   4.765
 5950SOL    HW118749   0.017   1.792   4.848
 5950SOL    HW218750   0.161   1.743   4.790
 5951SOL     OW18751   2.103   0.375   3.353
 5951SOL    HW118752   2.122   0.424   3.268
 5951SOL    HW218753   2.187   0.363   3.404
 5952SOL     OW18754   0.590   6.461   4.467
 5952SOL    HW118755   0.516   6.394   4.477
 5952SOL    HW218756   0.590   6.523   4.545
 5953SOL     OW18757   0.889   3.477   6.254
 5953SOL    HW118758   0.966   3.412   6.246
 5953SOL    HW218759   0.858   3.479   6.349
 5954SOL     OW18760   1.568   4.475   6.538
 5954SOL    HW118761   1.473   4.467   6.509
 5954SOL    HW218762   1.625   4.417   6.480
 5955SOL     OW18763   3.762   5.079   2.018
 5955SOL    HW118764   3.742   5.120   1.929
 5955SOL    HW218765   3.817   5.142   2.072
 5956SOL     OW18766   0.346   1.825   0.390
 5956SOL    HW118767   0.341   1.913   0.439
 5956SOL    HW218768   0.355   1.843   0.292
 5957SOL     OW18769   4.247   6.618   6.059
 5957SOL    HW118770   4.213   6.524   6.055
 5957SOL    HW218771   4.180   6.679   6.018
 5958SOL     OW18772   1.299   5.800   2.436
 5958SOL    HW118773   1.227   5.868   2.425
 5958SOL    HW218774   1.388   5.844   2.425
 5959SOL     OW18775   1.551   0.667   5.793
 5959SOL    HW118776   1.472   0.606   5.787
 5959SOL    HW218777   1.551   0.711   5.883
 5960SOL     OW18778   3.633   5.774   5.101
 5960SOL    HW118779   3.583   5.694   5.067
 5960SOL    HW218780   3.584   5.813   5.179
 5961SOL     OW18781   2.839   1.019   5.341
 5961SOL    HW118782   2.784   1.097   5.371
 5961SOL    HW218783   2.892   1.044   5.261
 5962SOL     OW18784   5.445   4.358   2.943
 5962SOL    HW118785   5.383   4.287   2.978
 5962SOL    HW218786   5.526   4.363   3.001
 5963SOL     OW18787   4.203   4.342   1.709
 5963SOL    HW118788   4.159   4.259   1.674
 5963SOL    HW218789   4.269   4.317   1.780
 5964SOL     OW18790   1.303   3.548   4.963
 5964SOL    HW118791   1.240   3.611   4.918
 5964SOL    HW218792   1.255   3.463   4.986
 5965SOL     OW18793   1.851   2.406   4.664
 5965SOL    HW118794   1.849   2.505   4.679
 5965SOL    HW218795   1.882   2.359   4.747
 5966SOL     OW18796   1.423   5.663   4.645
 5966SOL    HW118797   1.371   5.594   4.595
 5966SOL    HW218798   1.390   5.754   4.620
 5967SOL     OW18799   4.852   5.660   1.030
 5967SOL    HW118800   4.886   5.584   0.974
 5967SOL    HW218801   4.920   5.685   1.098
 5968SOL     OW18802   1.795   2.111   4.013
 5968SOL    HW118803   1.697   2.132   4.008
 5968SOL    HW218804   1.834   2.151   4.096
 5969SOL     OW18805   0.973   2.257   2.816
 5969SOL    HW118806   0.980   2.300   2.726
 5969SOL    HW218807   1.053   2.199   2.832
 5970SOL     OW18808   2.245   4.053   3.445
 5970SOL    HW118809   2.238   4.080   3.541
 5970SOL    HW218810   2.220   3.956   3.436
 5971SOL     OW18811   3.177   5.643   3.741
 5971SOL    HW118812   3.092   5.627   3.792
 5971SOL    HW218813   3.220   5.556   3.719
 5972SOL     OW18814   5.873   6.947   1.715
 5972SOL    HW118815   5.914   0.014   1.697
 5972SOL    HW218816   5.786   6.940   1.666
 5973SOL     OW18817   2.400   4.686   3.088
 5973SOL    HW118818   2.377   4.627   3.011
 5973SOL    HW218819   2.403   4.781   3.058
 5974SOL     OW18820   1.251   4.273   6.466
 5974SOL    HW118821   1.237   4.218   6.383
 5974SOL    HW218822   1.275   4.366   6.439
 5975SOL     OW18823   2.074   2.419   6.550
 5975SOL    HW118824   2.126   2.432   6.634
 5975SOL    HW218825   2.069   2.505   6.499
 5976SOL     OW18826   3.564   3.576   4.168
 5976SOL    HW118827   3.581   3.620   4.080
 5976SOL    HW218828   3.494   3.626   4.218
 5977SOL     OW18829   0.335   3.883   2.462
 5977SOL    HW118830   0.351   3.791   2.496
 5977SOL    HW218831   0.247   3.917   2.495
 5978SOL     OW18832   5.311   5.254   1.440
 5978SOL    HW118833   5.319   5.156   1.452
 5978SOL    HW218834   5.336   5.279   1.347
 5979SOL     OW18835   0.944   1.355   1.554
 5979SOL    HW118836   1.026   1.314   1.593
 5979SOL    HW218837   0.920   1.437   1.606
 5980SOL     OW18838   6.203   2.596   5.118
 5980SOL    HW118839   6.186   2.579   5.021
 5980SOL    HW218840   6.260   2.523   5.155
 5981SOL     OW18841   3.405   2.000   0.554
 5981SOL    HW118842   3.305   1.993   0.562
 5981SOL    HW218843   3.434   2.092   0.579
 5982SOL     OW18844   6.391   2.781   0.008
 5982SOL    HW118845   6.389   2.749   6.937
 5982SOL    HW218846   6.331   2.860   0.018
 5983SOL     OW18847   0.672   0.578   4.236
 5983SOL    HW118848   0.752   0.524   4.263
 5983SOL    HW218849   0.590   0.535   4.273
 5984SOL     OW18850   0.633   0.297   6.286
 5984SOL    HW118851   0.669   0.345   6.206
 5984SOL    HW218852   0.691   0.218   6.306
 5985SOL     OW18853   5.849   3.242   3.651
 5985SOL    HW118854   5.901   3.285   3.725
 5985SOL    HW218855   5.898   3.254   3.565
 5986SOL     OW18856   3.396   3.441   2.204
 5986SOL    HW118857   3.385   3.481   2.113
 5986SOL    HW218858   3.329   3.482   2.266
 5987SOL     OW18859   3.781   0.013   5.178
 5987SOL    HW118860   3.827   0.018   5.089
 5987SOL    HW218861   3.779   6.941   5.209
 5988SOL     OW18862   3.560   6.875   6.100
 5988SOL    HW118863   3.643   6.911   6.058
 5988SOL    HW218864   3.573   6.867   6.199
 5989SOL     OW18865   3.078   1.720   6.701
 5989SOL    HW118866   3.033   1.759   6.621
 5989SOL    HW218867   3.177   1.724   6.689
 5990SOL     OW18868   2.805   6.379   3.655
 5990SOL    HW118869   2.888   6.359   3.707
 5990SOL    HW218870   2.828   6.443   3.581
 5991SOL     OW18871   3.646   4.922   3.096
 5991SOL    HW118872   3.599   4.920   3.008
 5991SOL    HW218873   3.637   5.013   3.137
 5992SOL     OW18874   3.949   1.866   4.546
 5992SOL    HW118875   3.996   1.793   4.594
 5992SOL    HW218876   3.993   1.882   4.457
 5993SOL     OW18877   2.802   5.414   4.376
 5993SOL    HW118878   2.740   5.489   4.400
 5993SOL    HW218879   2.896   5.440   4.399
 5994SOL     OW18880   6.243   2.106   0.191
 5994SOL    HW118881   6.318   2.087   0.255
 5994SOL    HW218882   6.228   2.205   0.187
 5995SOL     OW18883   0.220   3.858   1.750
 5995SOL    HW118884   0.293   3.868   1.683
 5995SOL    HW218885   0.257   3.816   1.833
 5996SOL     OW18886   1.461   5.875   6.098
 5996SOL    HW118887   1.363   5.890   6.096
 5996SOL    HW218888   1.495   5.868   6.004
 5997SOL     OW18889   0.691   0.210   1.372
 5997SOL    HW118890   0.779   0.221   1.419
 5997SOL    HW218891   0.668   0.294   1.324
 5998SOL     OW18892   5.163   3.220   3.030
 5998SOL    HW118893   5.223   3.257   2.959
 5998SOL    HW218894   5.068   3.230   3.003
 5999SOL     OW18895   2.103   2.998   3.004
 5999SOL    HW118896   2.091   3.026   3.099
 5999SOL    HW218897   2.084   3.075   2.943
 6000SOL     OW18898   5.272   1.054   3.735
 6000SOL    HW118899   5.210   1.043   3.657
 6000SOL    HW218900   5.228   1.015   3.817
 6001SOL     OW18901   5.542   1.282   0.267
 6001SOL    HW118902   5.443   1.292   0.257
 6001SOL    HW218903   5.567   1.185   0.264
 6002SOL     OW18904   2.518   0.216   2.384
 6002SOL    HW118905   2.499   0.214   2.285
 6002SOL    HW218906   2.535   0.310   2.413
 6003SOL     OW18907   5.027   4.457   3.986
 6003SOL    HW118908   5.031   4.359   3.969
 6003SOL    HW218909   4.956   4.498   3.928
 6004SOL     OW18910   0.683   3.670   2.012
 6004SOL    HW118911   0.670   3.740   2.082
 6004SOL    HW218912   0.773   3.681   1.970
 6005SOL     OW18913   2.445   6.382   2.335
 6005SOL    HW118914   2.442   6.298   2.389
 6005SOL    HW218915   2.448   6.359   2.238
 6006SOL     OW18916   1.933   6.086   6.571
 6006SOL    HW118917   1.927   5.987   6.583
 6006SOL    HW218918   2.024   6.110   6.536
 6007SOL     OW18919   5.669   3.746   4.685
 6007SOL    HW118920   5.580   3.787   4.660
 6007SOL    HW218921   5.680   3.750   4.784
 6008SOL     OW18922   4.847   3.980   1.962
 6008SOL    HW118923   4.799   4.032   2.034
 6008SOL    HW218924   4.782   3.959   1.889
 6009SOL     OW18925   3.630   1.513   4.636
 6009SOL    HW118926   3.530   1.517   4.637
 6009SOL    HW218927   3.666   1.590   4.688
 6010SOL     OW18928   2.068   5.055   3.476
 6010SOL    HW118929   2.052   5.148   3.507
 6010SOL    HW218930   2.167   5.038   3.469
 6011SOL     OW18931   6.316   2.321   1.811
 6011SOL    HW118932   6.407   2.303   1.773
 6011SOL    HW218933   6.258   2.241   1.799
 6012SOL     OW18934   0.798   2.509   0.926
 6012SOL    HW118935   0.880   2.463   0.893
 6012SOL    HW218936   0.723   2.493   0.862
 6013SOL     OW18937   5.525   0.561   2.527
 6013SOL    HW118938   5.514   0.532   2.433
 6013SOL    HW218939   5.472   0.644   2.544
 6014SOL     OW18940   6.379   1.342   0.492
 6014SOL    HW118941   6.394   1.248   0.522
 6014SOL    HW218942   6.295   1.377   0.531
 6015SOL     OW18943   6.350   6.925   4.704
 6015SOL    HW118944   6.436   6.914   4.654
 6015SOL    HW218945   6.309   7.013   4.680
 6016SOL     OW18946   1.170   0.111   5.502
 6016SOL    HW118947   1.243   0.169   5.465
 6016SOL    HW218948   1.126   0.158   5.578
 6017SOL     OW18949   0.112   3.578   2.285
 6017SOL    HW118950   0.035   3.627   2.325
 6017SOL    HW218951   0.088   3.549   2.192
 6018SOL     OW18952   3.496   5.066   1.499
 6018SOL    HW118953   3.584   5.114   1.491
 6018SOL    HW218954   3.451   5.095   1.583
 6019SOL     OW18955   6.454   6.959   3.730
 6019SOL    HW118956   6.398   6.885   3.767
 6019SOL    HW218957   6.538   6.921   3.691
 6020SOL     OW18958   2.407   6.378   2.729
 6020SOL    HW118959   2.365   6.325   2.655
 6020SOL    HW218960   2.396   6.330   2.815
 6021SOL     OW18961   3.248   0.215   3.217
 6021SOL    HW118962   3.323   0.175   3.269
 6021SOL    HW218963   3.212   0.148   3.152
 6022SOL     OW18964   3.542   2.150   5.850
 6022SOL    HW118965   3.640   2.138   5.862
 6022SOL    HW218966   3.495   2.134   5.936
 6023SOL     OW18967   0.353   2.093   1.641
 6023SOL    HW118968   0.253   2.087   1.643
 6023SOL    HW218969   0.380   2.189   1.645
 6024SOL     OW18970   6.188   5.007   2.542
 6024SOL    HW118971   6.260   4.949   2.579
 6024SOL    HW218972   6.208   5.027   2.446
 6025SOL     OW18973   4.343   2.282   2.671
 6025SOL    HW118974   4.311   2.294   2.765
 6025SOL    HW218975   4.275   2.231   2.619
 6026SOL     OW18976   0.974   4.178   5.674
 6026SOL    HW118977   0.896   4.165   5.614
 6026SOL    HW218978   0.948   4.236   5.751
 6027SOL     OW18979   4.221   4.267   0.127
 6027SOL    HW118980   4.313   4.304   0.133
 6027SOL    HW218981   4.207   4.225   0.038
 6028SOL     OW18982   0.952   4.020   5.996
 6028SOL    HW118983   0.975   4.017   6.093
 6028SOL    HW218984   1.020   3.968   5.943
 6029SOL     OW18985   1.263   5.265   1.689
 6029SOL    HW118986   1.339   5.218   1.645
 6029SOL    HW218987   1.211   5.316   1.621
 6030SOL     OW18988   1.884   6.429   1.834
 6030SOL    HW118989   1.974   6.435   1.791
 6030SOL    HW218990   1.887   6.360   1.906
 6031SOL     OW18991   4.402   0.755   4.580
 6031SOL    HW118992   4.448   0.705   4.506
 6031SOL    HW218993   4.382   0.693   4.655
 6032SOL     OW18994   1.441   2.415   2.006
 6032SOL    HW118995   1.392   2.351   2.064
 6032SOL    HW218996   1.498   2.365   1.940
 6033SOL     OW18997   0.367   6.766   4.503
 6033SOL    HW118998   0.352   6.842   4.440
 6033SOL    HW218999   0.312   6.688   4.475
 6034SOL     OW19000   2.432   4.428   4.371
 6034SOL    HW119001   2.493   4.439   4.450
 6034SOL    HW219002   2.342   4.466   4.394
 6035SOL     OW19003   4.692   0.319   4.199
 6035SOL    HW119004   4.766   0.289   4.139
 6035SOL    HW219005   4.728   0.384   4.266
 6036SOL     OW19006   5.672   0.799   5.101
 6036SOL    HW119007   5.718   0.880   5.137
 6036SOL    HW219008   5.739   0.742   5.053
 6037SOL     OW19009   0.525   5.898   4.802
 6037SOL    HW119010   0.535   5.849   4.716
 6037SOL    HW219011   0.607   5.886   4.858
 6038SOL     OW19012   0.424   3.972   6.371
 6038SOL    HW119013   0.400   4.045   6.307
 6038SOL    HW219014   0.497   3.915   6.331
 6039SOL     OW19015   3.216   3.485   3.922
 6039SOL    HW119016   3.229   3.518   4.016
 6039SOL    HW219017   3.176   3.394   3.925
 6040SOL     OW19018   1.351   0.894   0.288
 6040SOL    HW119019   1.311   0.915   0.377
 6040SOL    HW219020   1.354   0.795   0.275
 6041SOL     OW19021   0.365   3.112   6.834
 6041SOL    HW119022   0.442   3.134   6.894
 6041SOL    HW219023   0.360   3.179   6.760
 6042SOL     OW19024   5.341   5.923   4.792
 6042SOL    HW119025   5.284   6.005   4.795
 6042SOL    HW219026   5.296   5.854   4.737
 6043SOL     OW19027   6.833   5.008   3.382
 6043SOL    HW119028   6.877   5.097   3.369
 6043SOL    HW219029   6.855   4.974   3.474
 6044SOL     OW19030   1.704   0.910   0.573
 6044SOL    HW119031   1.711   1.002   0.610
 6044SOL    HW219032   1.608   0.887   0.557
 6045SOL     OW19033   6.276   3.946   6.538
 6045SOL    HW119034   6.269   3.970   6.635
 6045SOL    HW219035   6.307   4.026   6.487
 6046SOL     OW19036   1.132   3.812   0.065
 6046SOL    HW119037   1.138   3.716   0.093
 6046SOL    HW219038   1.111   3.868   0.145
 6047SOL     OW19039   1.301   6.128   5.214
 6047SOL    HW119040   1.334   6.181   5.292
 6047SOL    HW219041   1.263   6.190   5.145
 6048SOL     OW19042   4.943   6.139   3.910
 6048SOL    HW119043   4.866   6.183   3.956
 6048SOL    HW219044   4.981   6.201   3.841
 6049SOL     OW19045   6.732   5.712   0.287
 6049SOL    HW119046   6.722   5.763   0.202
 6049SOL    HW219047   6.706   5.616   0.271
 6050SOL     OW19048   5.413   4.292   5.180
 6050SOL    HW119049   5.400   4.195   5.201
 6050SOL    HW219050   5.510   4.310   5.165
 6051SOL     OW19051   2.847   2.006   3.509
 6051SOL    HW119052   2.940   1.980   3.536
 6051SOL    HW219053   2.789   2.008   3.590
 6052SOL     OW19054   0.502   1.848   6.950
 6052SOL    HW119055   0.482   1.854   6.852
 6052SOL    HW219056   0.600   1.858   6.965
 6053SOL     OW19057   1.249   0.581   6.434
 6053SOL    HW119058   1.206   0.641   6.366
 6053SOL    HW219059   1.343   0.610   6.450
 6054SOL     OW19060   0.629   4.121   6.118
 6054SOL    HW119061   0.582   4.089   6.036
 6054SOL    HW219062   0.680   4.045   6.159
 6055SOL     OW19063   5.615   6.945   2.755
 6055SOL    HW119064   5.661   6.859   2.736
 6055SOL    HW219065   5.531   6.952   2.700
 6056SOL     OW19066   5.249   2.975   6.254
 6056SOL    HW119067   5.282   2.904   6.193
 6056SOL    HW219068   5.165   3.015   6.218
 6057SOL     OW19069   4.760   0.841   6.841
 6057SOL    HW119070   4.837   0.798   6.887
 6057SOL    HW219071   4.778   0.847   6.743
 6058SOL     OW19072   5.217   2.299   5.629
 6058SOL    HW119073   5.309   2.263   5.611
 6058SOL    HW219074   5.217   2.347   5.716
 6059SOL     OW19075   0.077   6.253   6.690
 6059SOL    HW119076   0.023   6.325   6.645
 6059SOL    HW219077   0.165   6.290   6.718
 6060SOL     OW19078   3.194   5.089   6.466
 6060SOL    HW119079   3.155   5.177   6.494
 6060SOL    HW219080   3.294   5.097   6.460
 6061SOL     OW19081   2.182   1.518   0.051
 6061SOL    HW119082   2.273   1.554   0.031
 6061SOL    HW219083   2.155   1.455   7.001
 6062SOL     OW19084   1.110   0.363   3.255
 6062SOL    HW119085   1.121   0.462   3.251
 6062SOL    HW219086   1.029   0.340   3.308
 6063SOL     OW19087   5.892   6.314   0.041
 6063SOL    HW119088   5.939   6.377   0.103
 6063SOL    HW219089   5.827   6.259   0.093
 6064SOL     OW19090   1.124   5.586   2.463
 6064SOL    HW119091   1.194   5.656   2.467
 6064SOL    HW219092   1.057   5.601   2.537
 6065SOL     OW19093   5.286   0.351   0.971
 6065SOL    HW119094   5.344   0.335   1.051
 6065SOL    HW219095   5.262   0.264   0.929
 6066SOL     OW19096   4.600   2.431   5.611
 6066SOL    HW119097   4.544   2.366   5.664
 6066SOL    HW219098   4.640   2.498   5.673
 6067SOL     OW19099   4.718   1.549   7.022
 6067SOL    HW119100   4.715   1.608   0.080
 6067SOL    HW219101   4.813   1.543   6.989
 6068SOL     OW19102   4.894   0.918   5.512
 6068SOL    HW119103   4.887   0.902   5.611
 6068SOL    HW219104   4.989   0.908   5.483
 6069SOL     OW19105   6.956   5.640   3.650
 6069SOL    HW119106   0.015   5.694   3.634
 6069SOL    HW219107   6.970   5.547   3.616
 6070SOL     OW19108   4.989   3.445   1.182
 6070SOL    HW119109   4.920   3.490   1.125
 6070SOL    HW219110   4.973   3.346   1.181
 6071SOL     OW19111   4.860   0.338   5.318
 6071SOL    HW119112   4.797   0.270   5.281
 6071SOL    HW219113   4.954   0.314   5.293
 6072SOL     OW19114   6.305   1.336   1.710
 6072SOL    HW119115   6.235   1.393   1.753
 6072SOL    HW219116   6.262   1.255   1.670
 6073SOL     OW19117   6.166   1.129   1.279
 6073SOL    HW119118   6.241   1.063   1.268
 6073SOL    HW219119   6.101   1.095   1.347
 6074SOL     OW19120   0.395   0.652   5.759
 6074SOL    HW119121   0.449   0.737   5.758
 6074SOL    HW219122   0.344   0.645   5.673
 6075SOL     OW19123   5.292   3.566   5.715
 6075SOL    HW119124   5.328   3.645   5.664
 6075SOL    HW219125   5.213   3.529   5.666
 6076SOL     OW19126   2.983   0.352   3.592
 6076SOL    HW119127   2.952   0.257   3.586
 6076SOL    HW219128   3.048   0.371   3.519
 6077SOL     OW19129   5.081   4.923   3.617
 6077SOL    HW119130   5.136   4.921   3.533
 6077SOL    HW219131   5.089   4.836   3.664
 6078SOL     OW19132   2.145   4.787   4.452
 6078SOL    HW119133   2.192   4.785   4.541
 6078SOL    HW219134   2.053   4.824   4.463
 6079SOL     OW19135   3.113   1.991   0.470
 6079SOL    HW119136   3.013   1.988   0.458
 6079SOL    HW219137   3.157   1.952   0.389
 6080SOL     OW19138   5.969   3.563   3.569
 6080SOL    HW119139   5.901   3.560   3.642
 6080SOL    HW219140   5.993   3.659   3.549
 6081SOL     OW19141   0.950   4.538   1.881
 6081SOL    HW119142   1.017   4.512   1.812
 6081SOL    HW219143   0.907   4.624   1.855
 6082SOL     OW19144   4.746   1.620   5.292
 6082SOL    HW119145   4.693   1.605   5.208
 6082SOL    HW219146   4.760   1.533   5.339
 6083SOL     OW19147   1.921   6.701   6.518
 6083SOL    HW119148   1.904   6.775   6.584
 6083SOL    HW219149   1.890   6.614   6.557
 6084SOL     OW19150   0.303   5.999   6.137
 6084SOL    HW119151   0.228   6.051   6.178
 6084SOL    HW219152   0.374   5.984   6.205
 6085SOL     OW19153   5.387   5.024   1.775
 6085SOL    HW119154   5.295   4.984   1.776
 6085SOL    HW219155   5.448   4.966   1.720
 6086SOL     OW19156   3.409   2.027   2.036
 6086SOL    HW119157   3.416   1.936   1.994
 6086SOL    HW219158   3.463   2.092   1.983
 6087SOL     OW19159   3.666   0.952   0.505
 6087SOL    HW119160   3.655   1.050   0.489
 6087SOL    HW219161   3.608   0.924   0.581
 6088SOL     OW19162   0.744   0.780   4.859
 6088SOL    HW119163   0.758   0.708   4.927
 6088SOL    HW219164   0.701   0.859   4.902
 6089SOL     OW19165   6.924   3.752   1.440
 6089SOL    HW119166   6.962   3.693   1.368
 6089SOL    HW219167   6.833   3.720   1.465
 6090SOL     OW19168   6.927   6.536   4.346
 6090SOL    HW119169   6.940   6.445   4.308
 6090SOL    HW219170   6.896   6.529   4.441
 6091SOL     OW19171   7.008   2.048   1.958
 6091SOL    HW119172   0.046   1.979   1.920
 6091SOL    HW219173   6.958   2.009   2.036
 6092SOL     OW19174   0.546   3.627   1.189
 6092SOL    HW119175   0.557   3.694   1.115
 6092SOL    HW219176   0.522   3.538   1.151
 6093SOL     OW19177   0.535   4.336   0.585
 6093SOL    HW119178   0.455   4.397   0.586
 6093SOL    HW219179   0.608   4.377   0.639
 6094SOL     OW19180   0.519   1.210   0.992
 6094SOL    HW119181   0.592   1.143   0.977
 6094SOL    HW219182   0.559   1.297   1.022
 6095SOL     OW19183   0.296   3.858   5.227
 6095SOL    HW119184   0.209   3.906   5.235
 6095SOL    HW219185   0.345   3.864   5.314
 6096SOL     OW19186   5.718   1.861   2.567
 6096SOL    HW119187   5.679   1.784   2.517
 6096SOL    HW219188   5.776   1.915   2.507
 6097SOL     OW19189   3.890   1.598   2.391
 6097SOL    HW119190   3.900   1.692   2.426
 6097SOL    HW219191   3.845   1.541   2.460
 6098SOL     OW19192   0.578   0.826   6.774
 6098SOL    HW119193   0.532   0.782   6.851
 6098SOL    HW219194   0.629   0.905   6.806
 6099SOL     OW19195   5.969   4.114   4.692
 6099SOL    HW119196   6.018   4.201   4.694
 6099SOL    HW219197   6.034   4.040   4.676
 6100SOL     OW19198   0.014   3.066   1.219
 6100SOL    HW119199   0.038   3.005   1.295
 6100SOL    HW219200   0.035   3.022   1.132
 6101SOL     OW19201   5.969   6.345   3.922
 6101SOL    HW119202   6.033   6.390   3.984
 6101SOL    HW219203   5.877   6.350   3.961
 6102SOL     OW19204   3.377   6.083   4.656
 6102SOL    HW119205   3.456   6.029   4.684
 6102SOL    HW219206   3.379   6.173   4.701
 6103SOL     OW19207   5.310   1.784   5.145
 6103SOL    HW119208   5.363   1.762   5.063
 6103SOL    HW219209   5.370   1.823   5.214
 6104SOL     OW19210   2.137   3.224   1.420
 6104SOL    HW119211   2.197   3.145   1.405
 6104SOL    HW219212   2.149   3.258   1.513
 6105SOL     OW19213   3.556   4.966   4.619
 6105SOL    HW119214   3.545   4.918   4.705
 6105SOL    HW219215   3.469   4.969   4.570
 6106SOL     OW19216   2.194   5.234   4.114
 6106SOL    HW119217   2.132   5.189   4.050
 6106SOL    HW219218   2.219   5.171   4.187
 6107SOL     OW19219   2.140   4.955   6.081
 6107SOL    HW119220   2.056   4.997   6.046
 6107SOL    HW219221   2.217   5.017   6.064
 6108SOL     OW19222   5.458   2.196   5.172
 6108SOL    HW119223   5.508   2.275   5.207
 6108SOL    HW219224   5.495   2.170   5.082
 6109SOL     OW19225   0.238   4.572   1.701
 6109SOL    HW119226   0.309   4.556   1.633
 6109SOL    HW219227   0.259   4.657   1.751
 6110SOL     OW19228   3.420   2.123   3.916
 6110SOL    HW119229   3.510   2.118   3.872
 6110SOL    HW219230   3.349   2.127   3.847
 6111SOL     OW19231   0.895   4.537   3.442
 6111SOL    HW119232   0.930   4.572   3.528
 6111SOL    HW219233   0.878   4.439   3.451
 6112SOL     OW19234   1.480   0.776   1.093
 6112SOL    HW119235   1.427   0.847   1.046
 6112SOL    HW219236   1.525   0.816   1.173
 6113SOL     OW19237   1.165   4.615   5.974
 6113SOL    HW119238   1.230   4.691   5.981
 6113SOL    HW219239   1.162   4.582   5.880
 6114SOL     OW19240   3.430   4.469   1.306
 6114SOL    HW119241   3.507   4.533   1.319
 6114SOL    HW219242   3.392   4.482   1.215
 6115SOL     OW19243   0.146   4.330   2.270
 6115SOL    HW119244   0.185   4.415   2.306
 6115SOL    HW219245   0.132   4.265   2.345
 6116SOL     OW19246   4.171   2.608   0.922
 6116SOL    HW119247   4.120   2.535   0.969
 6116SOL    HW219248   4.214   2.571   0.840
 6117SOL     OW19249   5.545   6.028   3.968
 6117SOL    HW119250   5.533   5.936   4.005
 6117SOL    HW219251   5.456   6.074   3.965
 6118SOL     OW19252   6.315   0.123   3.563
 6118SOL    HW119253   6.351   0.090   3.650
 6118SOL    HW219254   6.387   0.169   3.512
 6119SOL     OW19255   5.632   5.123   5.136
 6119SOL    HW119256   5.694   5.201   5.129
 6119SOL    HW219257   5.561   5.130   5.066
 6120SOL     OW19258   2.199   1.993   2.723
 6120SOL    HW119259   2.264   1.948   2.785
 6120SOL    HW219260   2.235   2.082   2.696
 6121SOL     OW19261   6.956   1.982   3.239
 6121SOL    HW119262   7.002   1.902   3.200
 6121SOL    HW219263   0.001   2.044   3.279
 6122SOL     OW19264   3.820   5.429   3.854
 6122SOL    HW119265   3.824   5.432   3.954
 6122SOL    HW219266   3.893   5.485   3.816
 6123SOL     OW19267   6.344   1.801   2.852
 6123SOL    HW119268   6.320   1.846   2.938
 6123SOL    HW219269   6.366   1.871   2.784
 6124SOL     OW19270   2.839   0.468   5.047
 6124SOL    HW119271   2.856   0.505   4.955
 6124SOL    HW219272   2.812   0.372   5.040
 6125SOL     OW19273   1.324   4.204   2.721
 6125SOL    HW119274   1.234   4.184   2.760
 6125SOL    HW219275   1.318   4.285   2.663
 6126SOL     OW19276   3.545   6.594   3.256
 6126SOL    HW119277   3.610   6.553   3.192
 6126SOL    HW219278   3.502   6.522   3.311
 6127SOL     OW19279   1.889   5.680   1.169
 6127SOL    HW119280   1.864   5.776   1.163
 6127SOL    HW219281   1.815   5.628   1.213
 6128SOL     OW19282   5.322   4.135   1.886
 6128SOL    HW119283   5.236   4.150   1.934
 6128SOL    HW219284   5.342   4.037   1.884
 6129SOL     OW19285   6.637   3.659   3.499
 6129SOL    HW119286   6.677   3.743   3.537
 6129SOL    HW219287   6.541   3.674   3.477
 6130SOL     OW19288   5.764   3.300   2.797
 6130SOL    HW119289   5.711   3.353   2.863
 6130SOL    HW219290   5.737   3.324   2.704
 6131SOL     OW19291   0.204   1.342   5.324
 6131SOL    HW119292   0.107   1.366   5.311
 6131SOL    HW219293   0.212   1.245   5.346
 6132SOL     OW19294   0.092   2.530   0.307
 6132SOL    HW119295   0.029   2.452   0.314
 6132SOL    HW219296   0.169   2.516   0.369
 6133SOL     OW19297   1.496   4.879   0.321
 6133SOL    HW119298   1.474   4.922   0.409
 6133SOL    HW219299   1.585   4.912   0.289
 6134SOL     OW19300   4.708   4.211   6.117
 6134SOL    HW119301   4.653   4.143   6.167
 6134SOL    HW219302   4.805   4.187   6.126
 6135SOL     OW19303   6.015   6.680   2.142
 6135SOL    HW119304   6.109   6.709   2.161
 6135SOL    HW219305   5.990   6.706   2.049
 6136SOL     OW19306   1.197   1.986   2.680
 6136SOL    HW119307   1.240   2.041   2.752
 6136SOL    HW219308   1.235   1.894   2.681
 6137SOL     OW19309   3.391   0.235   6.178
 6137SOL    HW119310   3.363   0.158   6.237
 6137SOL    HW219311   3.355   0.320   6.216
 6138SOL     OW19312   4.567   0.840   2.762
 6138SOL    HW119313   4.487   0.780   2.761
 6138SOL    HW219314   4.640   0.797   2.815
 6139SOL     OW19315   2.425   6.181   3.690
 6139SOL    HW119316   2.336   6.180   3.736
 6139SOL    HW219317   2.412   6.191   3.592
 6140SOL     OW19318   2.344   5.981   1.269
 6140SOL    HW119319   2.272   5.986   1.339
 6140SOL    HW219320   2.344   6.065   1.215
 6141SOL     OW19321   0.850   6.123   4.802
 6141SOL    HW119322   0.836   6.053   4.872
 6141SOL    HW219323   0.847   6.214   4.843
 6142SOL     OW19324   6.959   2.985   4.334
 6142SOL    HW119325   6.937   2.890   4.310
 6142SOL    HW219326   6.915   3.008   4.421
 6143SOL     OW19327   6.316   5.818   6.487
 6143SOL    HW119328   6.265   5.889   6.438
 6143SOL    HW219329   6.277   5.729   6.466
 6144SOL     OW19330   0.188   5.693   4.722
 6144SOL    HW119331   0.138   5.619   4.677
 6144SOL    HW219332   0.205   5.767   4.658
 6145SOL     OW19333   6.034   5.172   3.833
 6145SOL    HW119334   5.943   5.185   3.872
 6145SOL    HW219335   6.089   5.253   3.849
 6146SOL     OW19336   5.876   1.823   3.727
 6146SOL    HW119337   5.890   1.921   3.744
 6146SOL    HW219338   5.924   1.798   3.643
 6147SOL     OW19339   1.294   3.775   3.776
 6147SOL    HW119340   1.280   3.704   3.707
 6147SOL    HW219341   1.391   3.782   3.798
 6148SOL     OW19342   5.840   6.620   3.281
 6148SOL    HW119343   5.802   6.561   3.210
 6148SOL    HW219344   5.793   6.708   3.279
 6149SOL     OW19345   1.160   5.984   4.783
 6149SOL    HW119346   1.214   5.929   4.720
 6149SOL    HW219347   1.106   5.923   4.842
 6150SOL     OW19348   4.600   6.722   6.585
 6150SOL    HW119349   4.503   6.747   6.575
 6150SOL    HW219350   4.656   6.803   6.569
 6151SOL     OW19351   3.926   0.258   4.921
 6151SOL    HW119352   3.947   0.161   4.910
 6151SOL    HW219353   3.834   0.276   4.888
 6152SOL     OW19354   6.564   3.797   5.966
 6152SOL    HW119355   6.517   3.801   6.054
 6152SOL    HW219356   6.499   3.814   5.892
 6153SOL     OW19357   3.705   5.482   5.884
 6153SOL    HW119358   3.799   5.453   5.865
 6153SOL    HW219359   3.687   5.568   5.837
 6154SOL     OW19360   5.206   2.631   3.408
 6154SOL    HW119361   5.149   2.550   3.419
 6154SOL    HW219362   5.177   2.682   3.328
 6155SOL     OW19363   2.889   4.774   4.681
 6155SOL    HW119364   2.812   4.752   4.741
 6155SOL    HW219365   2.955   4.830   4.730
 6156SOL     OW19366   5.966   0.606   4.299
 6156SOL    HW119367   5.867   0.591   4.299
 6156SOL    HW219368   5.992   0.659   4.380
 6157SOL     OW19369   1.372   0.388   4.704
 6157SOL    HW119370   1.468   0.359   4.697
 6157SOL    HW219371   1.369   0.488   4.711
 6158SOL     OW19372   4.886   6.530   6.922
 6158SOL    HW119373   4.969   6.577   6.894
 6158SOL    HW219374   4.908   6.465   6.995
 6159SOL     OW19375   5.063   3.836   6.284
 6159SOL    HW119376   5.047   3.806   6.189
 6159SOL    HW219377   4.987   3.807   6.341
 6160SOL     OW19378   6.129   5.400   0.392
 6160SOL    HW119379   6.208   5.341   0.407
 6160SOL    HW219380   6.083   5.417   0.480
 6161SOL     OW19381   5.631   0.237   6.393
 6161SOL    HW119382   5.581   0.264   6.475
 6161SOL    HW219383   5.577   0.172   6.341
 6162SOL     OW19384   5.760   5.810   3.510
 6162SOL    HW119385   5.691   5.741   3.530
 6162SOL    HW219386   5.735   5.859   3.427
 6163SOL     OW19387   6.846   4.373   3.155
 6163SOL    HW119388   6.746   4.371   3.167
 6163SOL    HW219389   6.884   4.283   3.173
 6164SOL     OW19390   4.672   3.479   1.074
 6164SOL    HW119391   4.712   3.419   1.005
 6164SOL    HW219392   4.572   3.474   1.069
 6165SOL     OW19393   3.523   0.135   0.989
 6165SOL    HW119394   3.519   0.069   1.064
 6165SOL    HW219395   3.609   0.123   0.940
 6166SOL     OW19396   3.347   0.903   0.460
 6166SOL    HW119397   3.402   0.860   0.531
 6166SOL    HW219398   3.283   0.968   0.501
 6167SOL     OW19399   0.171   4.963   3.561
 6167SOL    HW119400   0.227   4.898   3.509
 6167SOL    HW219401   0.084   4.920   3.585
 6168SOL     OW19402   7.008   2.678   1.697
 6168SOL    HW119403   0.051   2.609   1.727
 6168SOL    HW219404   0.003   2.764   1.744
 6169SOL     OW19405   1.321   4.308   1.076
 6169SOL    HW119406   1.352   4.264   1.160
 6169SOL    HW219407   1.293   4.239   1.010
 6170SOL     OW19408   5.797   2.009   3.345
 6170SOL    HW119409   5.874   2.060   3.383
 6170SOL    HW219410   5.730   1.993   3.417
 6171SOL     OW19411   5.491   2.352   6.232
 6171SOL    HW119412   5.507   2.383   6.326
 6171SOL    HW219413   5.492   2.431   6.171
 6172SOL     OW19414   6.943   4.936   3.629
 6172SOL    HW119415   6.928   4.859   3.691
 6172SOL    HW219416   6.967   5.017   3.682
 6173SOL     OW19417   5.443   6.463   2.792
 6173SOL    HW119418   5.516   6.500   2.734
 6173SOL    HW219419   5.427   6.367   2.768
 6174SOL     OW19420   0.412   2.085   3.420
 6174SOL    HW119421   0.421   2.121   3.327
 6174SOL    HW219422   0.316   2.066   3.439
 6175SOL     OW19423   4.448   2.638   6.283
 6175SOL    HW119424   4.507   2.602   6.210
 6175SOL    HW219425   4.466   2.588   6.368
 6176SOL     OW19426   2.667   5.080   6.024
 6176SOL    HW119427   2.736   5.123   6.083
 6176SOL    HW219428   2.593   5.044   6.080
 6177SOL     OW19429   5.869   5.201   1.787
 6177SOL    HW119430   5.889   5.208   1.885
 6177SOL    HW219431   5.878   5.106   1.758
 6178SOL     OW19432   4.256   4.698   1.830
 6178SOL    HW119433   4.335   4.637   1.837
 6178SOL    HW219434   4.174   4.644   1.809
 6179SOL     OW19435   4.932   5.488   4.524
 6179SOL    HW119436   4.884   5.528   4.446
 6179SOL    HW219437   4.901   5.532   4.609
 6180SOL     OW19438   1.511   3.395   6.881
 6180SOL    HW119439   1.441   3.441   6.936
 6180SOL    HW219440   1.516   3.299   6.907
 6181SOL     OW19441   6.915   6.507   0.189
 6181SOL    HW119442   6.997   6.483   0.138
 6181SOL    HW219443   6.940   6.538   0.281
 6182SOL     OW19444   2.731   2.708   6.095
 6182SOL    HW119445   2.673   2.774   6.046
 6182SOL    HW219446   2.825   2.714   6.061
 6183SOL     OW19447   0.524   0.652   0.665
 6183SOL    HW119448   0.571   0.587   0.725
 6183SOL    HW219449   0.488   0.727   0.720
 6184SOL     OW19450   3.431   6.243   5.250
 6184SOL    HW119451   3.345   6.201   5.221
 6184SOL    HW219452   3.419   6.342   5.256
 6185SOL     OW19453   3.222   3.000   3.717
 6185SOL    HW119454   3.286   2.962   3.650
 6185SOL    HW219455   3.231   2.951   3.804
 6186SOL     OW19456   1.020   1.392   1.896
 6186SOL    HW119457   0.973   1.430   1.815
 6186SOL    HW219458   0.983   1.435   1.978
 6187SOL     OW19459   3.599   2.414   5.618
 6187SOL    HW119460   3.639   2.505   5.628
 6187SOL    HW219461   3.589   2.372   5.708
 6188SOL     OW19462   1.106   1.432   5.857
 6188SOL    HW119463   1.172   1.366   5.821
 6188SOL    HW219464   1.108   1.430   5.957
 6189SOL     OW19465   7.007   5.487   0.876
 6189SOL    HW119466   6.923   5.477   0.930
 6189SOL    HW219467   7.005   5.424   0.798
 6190SOL     OW19468   0.895   3.194   4.024
 6190SOL    HW119469   0.829   3.245   3.968
 6190SOL    HW219470   0.847   3.126   4.079
 6191SOL     OW19471   3.088   4.806   0.365
 6191SOL    HW119472   3.120   4.714   0.389
 6191SOL    HW219473   3.071   4.810   0.267
 6192SOL     OW19474   2.578   1.973   1.244
 6192SOL    HW119475   2.492   1.951   1.292
 6192SOL    HW219476   2.590   1.911   1.167
 6193SOL     OW19477   4.424   5.349   6.747
 6193SOL    HW119478   4.445   5.407   6.668
 6193SOL    HW219479   4.489   5.274   6.752
 6194SOL     OW19480   5.849   6.795   6.002
 6194SOL    HW119481   5.800   6.789   6.089
 6194SOL    HW219482   5.937   6.841   6.015
 6195SOL     OW19483   5.157   5.203   5.659
 6195SOL    HW119484   5.151   5.222   5.757
 6195SOL    HW219485   5.205   5.278   5.613
 6196SOL     OW19486   6.380   3.787   2.987
 6196SOL    HW119487   6.349   3.806   2.894
 6196SOL    HW219488   6.387   3.688   3.000
 6197SOL     OW19489   0.650   5.568   0.489
 6197SOL    HW119490   0.750   5.574   0.486
 6197SOL    HW219491   0.623   5.504   0.560
 6198SOL     OW19492   6.476   1.958   5.972
 6198SOL    HW119493   6.393   2.008   5.950
 6198SOL    HW219494   6.453   1.868   6.007
 6199SOL     OW19495   2.320   0.024   6.363
 6199SOL    HW119496   2.374   6.963   6.362
 6199SOL    HW219497   2.243   0.014   6.427
 6200SOL     OW19498   1.977   0.079   6.490
 6200SOL    HW119499   2.008   0.172   6.467
 6200SOL    HW219500   2.056   0.025   6.520
 6201SOL     OW19501   0.996   4.664   3.676
 6201SOL    HW119502   0.923   4.726   3.703
 6201SOL    HW219503   1.068   4.716   3.629
 6202SOL     OW19504   5.226   1.337   1.215
 6202SOL    HW119505   5.305   1.287   1.179
 6202SOL    HW219506   5.250   1.433   1.228
 6203SOL     OW19507   0.349   1.141   2.415
 6203SOL    HW119508   0.253   1.118   2.433
 6203SOL    HW219509   0.355   1.236   2.382
 6204SOL     OW19510   1.155   6.156   4.552
 6204SOL    HW119511   1.079   6.145   4.488
 6204SOL    HW219512   1.133   6.108   4.638
 6205SOL     OW19513   0.227   4.452   3.484
 6205SOL    HW119514   0.138   4.461   3.440
 6205SOL    HW219515   0.265   4.362   3.463
 6206SOL     OW19516   5.356   2.137   3.926
 6206SOL    HW119517   5.270   2.154   3.878
 6206SOL    HW219518   5.344   2.061   3.990
 6207SOL     OW19519   1.833   5.517   3.401
 6207SOL    HW119520   1.772   5.516   3.322
 6207SOL    HW219521   1.815   5.599   3.456
 6208SOL     OW19522   3.801   4.499   6.083
 6208SOL    HW119523   3.880   4.519   6.025
 6208SOL    HW219524   3.716   4.515   6.032
 6209SOL     OW19525   3.400   1.096   2.630
 6209SOL    HW119526   3.482   1.142   2.666
 6209SOL    HW219527   3.356   1.154   2.562
 6210SOL     OW19528   5.423   0.263   4.441
 6210SOL    HW119529   5.506   0.209   4.441
 6210SOL    HW219530   5.345   0.205   4.466
 6211SOL     OW19531   5.323   2.881   5.179
 6211SOL    HW119532   5.369   2.852   5.264
 6211SOL    HW219533   5.225   2.893   5.196
 6212SOL     OW19534   4.907   4.239   4.599
 6212SOL    HW119535   4.868   4.147   4.600
 6212SOL    HW219536   4.834   4.307   4.597
 6213SOL     OW19537   5.375   5.819   0.730
 6213SOL    HW119538   5.377   5.725   0.763
 6213SOL    HW219539   5.374   5.882   0.808
 6214SOL     OW19540   6.453   6.378   5.887
 6214SOL    HW119541   6.358   6.411   5.889
 6214SOL    HW219542   6.456   6.288   5.843
 6215SOL     OW19543   5.734   2.588   5.033
 6215SOL    HW119544   5.744   2.672   5.085
 6215SOL    HW219545   5.638   2.575   5.009
 6216SOL     OW19546   5.475   2.838   5.979
 6216SOL    HW119547   5.516   2.893   5.905
 6216SOL    HW219548   5.538   2.836   6.057
 6217SOL     OW19549   0.436   4.285   2.294
 6217SOL    HW119550   0.469   4.334   2.374
 6217SOL    HW219551   0.462   4.189   2.300
 6218SOL     OW19552   5.237   6.880   1.535
 6218SOL    HW119553   5.184   6.941   1.593
 6218SOL    HW219554   5.287   6.933   1.467
 6219SOL     OW19555   2.620   0.783   0.388
 6219SOL    HW119556   2.666   0.749   0.470
 6219SOL    HW219557   2.675   0.762   0.308
 6220SOL     OW19558   2.885   0.652   2.788
 6220SOL    HW119559   2.839   0.680   2.703
 6220SOL    HW219560   2.837   0.692   2.866
 6221SOL     OW19561   4.710   5.157   5.114
 6221SOL    HW119562   4.722   5.182   5.018
 6221SOL    HW219563   4.787   5.100   5.143
 6222SOL     OW19564   0.409   1.023   2.184
 6222SOL    HW119565   0.430   1.102   2.126
 6222SOL    HW219566   0.401   1.052   2.279
 6223SOL     OW19567   6.399   5.283   3.671
 6223SOL    HW119568   6.438   5.361   3.623
 6223SOL    HW219569   6.408   5.201   3.614
 6224SOL     OW19570   4.058   0.048   0.049
 6224SOL    HW119571   4.025   6.977   0.039
 6224SOL    HW219572   4.158   0.049   0.039
 6225SOL     OW19573   5.700   5.529   6.364
 6225SOL    HW119574   5.609   5.493   6.383
 6225SOL    HW219575   5.768   5.474   6.413
 6226SOL     OW19576   1.492   1.012   3.994
 6226SOL    HW119577   1.552   0.988   3.917
 6226SOL    HW219578   1.472   0.930   4.047
 6227SOL     OW19579   2.309   4.207   6.259
 6227SOL    HW119580   2.271   4.299   6.247
 6227SOL    HW219581   2.235   4.141   6.266
 6228SOL     OW19582   0.787   2.766   4.091
 6228SOL    HW119583   0.870   2.715   4.069
 6228SOL    HW219584   0.716   2.702   4.121
 6229SOL     OW19585   0.304   4.668   4.610
 6229SOL    HW119586   0.257   4.645   4.525
 6229SOL    HW219587   0.349   4.586   4.646
 6230SOL     OW19588   1.081   0.683   1.000
 6230SOL    HW119589   1.131   0.605   0.964
 6230SOL    HW219590   1.109   0.700   1.095
 6231SOL     OW19591   1.678   5.196   5.599
 6231SOL    HW119592   1.725   5.223   5.514
 6231SOL    HW219593   1.580   5.192   5.583
 6232SOL     OW19594   4.001   1.028   6.242
 6232SOL    HW119595   4.058   0.946   6.245
 6232SOL    HW219596   4.053   1.105   6.280
 6233SOL     OW19597   6.716   4.393   1.121
 6233SOL    HW119598   6.766   4.327   1.177
 6233SOL    HW219599   6.718   4.482   1.166
 6234SOL     OW19600   4.844   5.050   2.932
 6234SOL    HW119601   4.823   5.101   2.848
 6234SOL    HW219602   4.781   4.973   2.940
 6235SOL     OW19603   1.038   0.976   1.379
 6235SOL    HW119604   0.950   0.929   1.385
 6235SOL    HW219605   1.022   1.072   1.355
 6236SOL     OW19606   6.228   6.153   1.447
 6236SOL    HW119607   6.178   6.128   1.364
 6236SOL    HW219608   6.318   6.110   1.446
 6237SOL     OW19609   4.613   1.244   3.175
 6237SOL    HW119610   4.630   1.149   3.201
 6237SOL    HW219611   4.637   1.304   3.251
 6238SOL     OW19612   2.064   6.757   3.594
 6238SOL    HW119613   2.114   6.672   3.609
 6238SOL    HW219614   2.096   6.800   3.509
 6239SOL     OW19615   3.948   1.575   4.308
 6239SOL    HW119616   3.889   1.648   4.274
 6239SOL    HW219617   3.899   1.488   4.307
 6240SOL     OW19618   4.106   3.340   4.370
 6240SOL    HW119619   4.026   3.283   4.389
 6240SOL    HW219620   4.130   3.331   4.273
 6241SOL     OW19621   4.078   0.236   3.159
 6241SOL    HW119622   4.117   0.207   3.246
 6241SOL    HW219623   4.151   0.255   3.094
 6242SOL     OW19624   3.061   2.048   4.564
 6242SOL    HW119625   3.104   2.076   4.478
 6242SOL    HW219626   2.966   2.024   4.548
 6243SOL     OW19627   3.238   0.399   0.306
 6243SOL    HW119628   3.336   0.381   0.298
 6243SOL    HW219629   3.221   0.498   0.301
 6244SOL     OW19630   5.112   2.495   1.737
 6244SOL    HW119631   5.165   2.415   1.710
 6244SOL    HW219632   5.081   2.544   1.656
 6245SOL     OW19633   6.975   4.925   1.516
 6245SOL    HW119634   6.963   4.827   1.535
 6245SOL    HW219635   0.004   4.936   1.432
 6246SOL     OW19636   0.944   5.843   5.379
 6246SOL    HW119637   0.868   5.900   5.409
 6246SOL    HW219638   0.989   5.886   5.300
 6247SOL     OW19639   5.886   5.301   2.323
 6247SOL    HW119640   5.968   5.308   2.267
 6247SOL    HW219641   5.903   5.242   2.402
 6248SOL     OW19642   4.559   2.483   5.976
 6248SOL    HW119643   4.487   2.513   5.913
 6248SOL    HW219644   4.649   2.502   5.936
 6249SOL     OW19645   5.697   2.394   2.985
 6249SOL    HW119646   5.639   2.463   2.942
 6249SOL    HW219647   5.738   2.336   2.915
 6250SOL     OW19648   5.004   6.930   5.186
 6250SOL    HW119649   5.001   6.895   5.093
 6250SOL    HW219650   5.092   6.974   5.202
 6251SOL     OW19651   2.932   0.924   3.849
 6251SOL    HW119652   2.967   0.905   3.940
 6251SOL    HW219653   2.964   1.014   3.818
 6252SOL     OW19654   2.368   4.504   0.424
 6252SOL    HW119655   2.347   4.602   0.430
 6252SOL    HW219656   2.355   4.462   0.514
 6253SOL     OW19657   4.897   6.165   3.580
 6253SOL    HW119658   4.917   6.173   3.482
 6253SOL    HW219659   4.937   6.243   3.628
 6254SOL     OW19660   6.890   6.747   1.674
 6254SOL    HW119661   6.864   6.663   1.722
 6254SOL    HW219662   6.966   6.729   1.613
 6255SOL     OW19663   2.706   0.807   0.994
 6255SOL    HW119664   2.697   0.782   1.090
 6255SOL    HW219665   2.762   0.740   0.946
 6256SOL     OW19666   0.079   4.503   2.006
 6256SOL    HW119667   0.105   4.419   2.053
 6256SOL    HW219668   0.154   4.569   2.011
 6257SOL     OW19669   3.948   4.207   0.576
 6257SOL    HW119670   3.978   4.273   0.645
 6257SOL    HW219671   4.015   4.204   0.501
 6258SOL     OW19672   4.299   5.058   3.560
 6258SOL    HW119673   4.354   5.133   3.597
 6258SOL    HW219674   4.317   5.048   3.462
 6259SOL     OW19675   5.040   0.139   4.738
 6259SOL    HW119676   4.945   0.151   4.709
 6259SOL    HW219677   5.063   0.042   4.742
 6260SOL     OW19678   3.774   2.367   6.745
 6260SOL    HW119679   3.787   2.420   6.661
 6260SOL    HW219680   3.750   2.429   6.820
 6261SOL     OW19681   4.527   6.429   1.598
 6261SOL    HW119682   4.529   6.528   1.581
 6261SOL    HW219683   4.529   6.381   1.510
 6262SOL     OW19684   6.104   1.592   3.589
 6262SOL    HW119685   6.065   1.656   3.523
 6262SOL    HW219686   6.199   1.572   3.563
 6263SOL     OW19687   5.906   6.237   5.837
 6263SOL    HW119688   5.951   6.314   5.792
 6263SOL    HW219689   5.833   6.271   5.897
 6264SOL     OW19690   1.067   6.390   1.160
 6264SOL    HW119691   1.147   6.364   1.106
 6264SOL    HW219692   1.025   6.471   1.121
 6265SOL     OW19693   3.849   6.229   6.697
 6265SOL    HW119694   3.929   6.287   6.714
 6265SOL    HW219695   3.862   6.141   6.744
 6266SOL     OW19696   2.691   5.045   3.221
 6266SOL    HW119697   2.718   5.021   3.128
 6266SOL    HW219698   2.764   5.099   3.265
 6267SOL     OW19699   0.584   6.614   4.240
 6267SOL    HW119700   0.656   6.605   4.171
 6267SOL    HW219701   0.588   6.536   4.302
 6268SOL     OW19702   3.392   2.140   1.123
 6268SOL    HW119703   3.399   2.049   1.082
 6268SOL    HW219704   3.479   2.188   1.114
 6269SOL     OW19705   0.006   5.841   0.307
 6269SOL    HW119706   0.080   5.807   0.248
 6269SOL    HW219707   6.951   5.778   0.302
 6270SOL     OW19708   1.245   6.026   0.723
 6270SOL    HW119709   1.267   5.941   0.772
 6270SOL    HW219710   1.173   6.008   0.656
 6271SOL     OW19711   6.620   3.515   5.925
 6271SOL    HW119712   6.704   3.503   5.871
 6271SOL    HW219713   6.615   3.609   5.958
 6272SOL     OW19714   6.767   0.723   0.949
 6272SOL    HW119715   6.688   0.731   1.011
 6272SOL    HW219716   6.803   0.814   0.930
 6273SOL     OW19717   0.408   6.473   2.539
 6273SOL    HW119718   0.369   6.445   2.451
 6273SOL    HW219719   0.488   6.531   2.522
 6274SOL     OW19720   3.442   6.142   3.905
 6274SOL    HW119721   3.385   6.063   3.929
 6274SOL    HW219722   3.415   6.176   3.815
 6275SOL     OW19723   3.204   5.401   1.406
 6275SOL    HW119724   3.197   5.306   1.377
 6275SOL    HW219725   3.266   5.408   1.484
 6276SOL     OW19726   1.789   4.434   2.704
 6276SOL    HW119727   1.746   4.520   2.677
 6276SOL    HW219728   1.780   4.421   2.803
 6277SOL     OW19729   5.497   2.041   1.247
 6277SOL    HW119730   5.545   2.111   1.194
 6277SOL    HW219731   5.444   1.983   1.185
 6278SOL     OW19732   3.940   3.109   7.010
 6278SOL    HW119733   3.850   3.080   6.980
 6278SOL    HW219734   3.954   3.205   6.985
 6279SOL     OW19735   0.813   6.057   1.849
 6279SOL    HW119736   0.825   5.958   1.860
 6279SOL    HW219737   0.841   6.084   1.757
 6280SOL     OW19738   4.984   0.730   6.950
 6280SOL    HW119739   4.964   0.776   0.014
 6280SOL    HW219740   5.060   0.666   6.963
 6281SOL     OW19741   6.009   3.962   6.308
 6281SOL    HW119742   6.060   3.887   6.265
 6281SOL    HW219743   6.066   4.004   6.379
 6282SOL     OW19744   0.181   4.650   5.702
 6282SOL    HW119745   0.113   4.580   5.679
 6282SOL    HW219746   0.203   4.644   5.799
 6283SOL     OW19747   2.724   6.498   4.195
 6283SOL    HW119748   2.693   6.560   4.123
 6283SOL    HW219749   2.823   6.507   4.205
 6284SOL     OW19750   1.914   4.138   6.438
 6284SOL    HW119751   1.961   4.124   6.351
 6284SOL    HW219752   1.837   4.200   6.423
 6285SOL     OW19753   1.587   4.258   4.107
 6285SOL    HW119754   1.527   4.209   4.044
 6285SOL    HW219755   1.555   4.353   4.117
 6286SOL     OW19756   1.071   3.449   0.245
 6286SOL    HW119757   0.990   3.428   0.299
 6286SOL    HW219758   1.133   3.371   0.245
 6287SOL     OW19759   3.912   5.376   4.813
 6287SOL    HW119760   3.904   5.335   4.722
 6287SOL    HW219761   3.944   5.471   4.804
 6288SOL     OW19762   3.385   3.978   5.942
 6288SOL    HW119763   3.438   4.044   5.996
 6288SOL    HW219764   3.291   4.012   5.932
 6289SOL     OW19765   2.813   5.360   5.908
 6289SOL    HW119766   2.786   5.456   5.909
 6289SOL    HW219767   2.791   5.318   5.996
 6290SOL     OW19768   6.296   0.720   3.246
 6290SOL    HW119769   6.328   0.664   3.168
 6290SOL    HW219770   6.279   0.813   3.215
 6291SOL     OW19771   3.118   3.291   1.927
 6291SOL    HW119772   3.043   3.230   1.903
 6291SOL    HW219773   3.164   3.257   2.009
 6292SOL     OW19774   0.635   4.152   5.186
 6292SOL    HW119775   0.657   4.110   5.098
 6292SOL    HW219776   0.621   4.081   5.255
 6293SOL     OW19777   2.967   1.360   0.625
 6293SOL    HW119778   2.906   1.428   0.586
 6293SOL    HW219779   3.056   1.401   0.645
 6294SOL     OW19780   1.243   0.003   2.040
 6294SOL    HW119781   1.298   0.075   1.998
 6294SOL    HW219782   1.219   0.029   2.133
 6295SOL     OW19783   4.552   3.012   5.565
 6295SOL    HW119784   4.582   3.078   5.634
 6295SOL    HW219785   4.481   2.953   5.603
 6296SOL     OW19786   6.754   1.982   0.303
 6296SOL    HW119787   6.854   1.971   0.302
 6296SOL    HW219788   6.712   1.904   0.256
 6297SOL     OW19789   0.313   1.340   4.609
 6297SOL    HW119790   0.255   1.290   4.546
 6297SOL    HW219791   0.368   1.407   4.559
 6298SOL     OW19792   0.004   0.872   6.808
 6298SOL    HW119793   6.948   0.895   6.865
 6298SOL    HW219794   0.088   0.883   6.862
 6299SOL     OW19795   3.070   1.904   3.626
 6299SOL    HW119796   3.166   1.873   3.633
 6299SOL    HW219797   3.010   1.825   3.633
 6300SOL     OW19798   2.912   2.564   0.843
 6300SOL    HW119799   2.924   2.510   0.759
 6300SOL    HW219800   2.826   2.616   0.836
 6301SOL     OW19801   4.399   5.948   0.702
 6301SOL    HW119802   4.357   6.010   0.769
 6301SOL    HW219803   4.425   5.863   0.747
 6302SOL     OW19804   1.565   3.867   0.655
 6302SOL    HW119805   1.515   3.893   0.737
 6302SOL    HW219806   1.569   3.767   0.648
 6303SOL     OW19807   6.577   4.575   4.835
 6303SOL    HW119808   6.578   4.523   4.920
 6303SOL    HW219809   6.521   4.528   4.767
 6304SOL     OW19810   2.000   2.714   4.945
 6304SOL    HW119811   1.932   2.698   4.874
 6304SOL    HW219812   2.086   2.745   4.904
 6305SOL     OW19813   1.078   5.961   5.156
 6305SOL    HW119814   1.066   5.902   5.076
 6305SOL    HW219815   1.169   6.002   5.154
 6306SOL     OW19816   1.344   4.230   3.907
 6306SOL    HW119817   1.258   4.250   3.861
 6306SOL    HW219818   1.334   4.247   4.006
 6307SOL     OW19819   3.483   3.132   2.649
 6307SOL    HW119820   3.516   3.038   2.637
 6307SOL    HW219821   3.383   3.132   2.648
 6308SOL     OW19822   1.123   0.744   1.277
 6308SOL    HW119823   1.095   0.831   1.318
 6308SOL    HW219824   1.198   0.705   1.329
 6309SOL     OW19825   1.869   5.987   5.382
 6309SOL    HW119826   1.855   6.030   5.472
 6309SOL    HW219827   1.876   6.057   5.312
 6310SOL     OW19828   0.961   6.702   2.165
 6310SOL    HW119829   0.941   6.688   2.068
 6310SOL    HW219830   1.059   6.691   2.180
 6311SOL     OW19831   5.870   1.416   5.959
 6311SOL    HW119832   5.787   1.447   5.912
 6311SOL    HW219833   5.866   1.316   5.969
 6312SOL     OW19834   4.301   5.089   1.558
 6312SOL    HW119835   4.324   5.134   1.471
 6312SOL    HW219836   4.376   5.028   1.584
 6313SOL     OW19837   5.231   4.858   3.392
 6313SOL    HW119838   5.330   4.860   3.404
 6313SOL    HW219839   5.203   4.934   3.334
 6314SOL     OW19840   1.917   5.923   3.253
 6314SOL    HW119841   1.946   5.997   3.314
 6314SOL    HW219842   1.984   5.849   3.257
 6315SOL     OW19843   1.937   2.289   3.060
 6315SOL    HW119844   1.933   2.200   3.016
 6315SOL    HW219845   2.029   2.327   3.050
 6316SOL     OW19846   4.712   0.715   5.315
 6316SOL    HW119847   4.782   0.656   5.273
 6316SOL    HW219848   4.753   0.764   5.392
 6317SOL     OW19849   4.849   3.830   3.223
 6317SOL    HW119850   4.797   3.872   3.297
 6317SOL    HW219851   4.937   3.877   3.213
 6318SOL     OW19852   5.525   6.479   0.299
 6318SOL    HW119853   5.491   6.412   0.364
 6318SOL    HW219854   5.568   6.432   0.222
 6319SOL     OW19855   4.840   2.427   4.159
 6319SOL    HW119856   4.872   2.366   4.231
 6319SOL    HW219857   4.884   2.517   4.170
 6320SOL     OW19858   5.903   2.176   6.248
 6320SOL    HW119859   5.844   2.105   6.209
 6320SOL    HW219860   5.978   2.133   6.298
 6321SOL     OW19861   0.782   3.415   0.288
 6321SOL    HW119862   0.730   3.498   0.266
 6321SOL    HW219863   0.792   3.407   0.387
 6322SOL     OW19864   1.636   1.153   2.924
 6322SOL    HW119865   1.596   1.244   2.937
 6322SOL    HW219866   1.598   1.111   2.842
 6323SOL     OW19867   1.769   6.026   0.885
 6323SOL    HW119868   1.678   6.069   0.882
 6323SOL    HW219869   1.789   5.995   0.978
 6324SOL     OW19870   4.971   4.190   1.798
 6324SOL    HW119871   4.961   4.105   1.850
 6324SOL    HW219872   4.985   4.267   1.862
 6325SOL     OW19873   0.696   3.287   3.832
 6325SOL    HW119874   0.747   3.326   3.755
 6325SOL    HW219875   0.602   3.270   3.805
 6326SOL     OW19876   5.483   5.571   4.773
 6326SOL    HW119877   5.385   5.591   4.782
 6326SOL    HW219878   5.499   5.524   4.686
 6327SOL     OW19879   0.854   0.767   2.695
 6327SOL    HW119880   0.826   0.763   2.791
 6327SOL    HW219881   0.780   0.732   2.637
 6328SOL     OW19882   4.014   3.626   4.647
 6328SOL    HW119883   4.057   3.537   4.632
 6328SOL    HW219884   4.031   3.655   4.742
 6329SOL     OW19885   0.399   3.282   4.834
 6329SOL    HW119886   0.383   3.376   4.866
 6329SOL    HW219887   0.319   3.226   4.853
 6330SOL     OW19888   4.192   1.671   3.120
 6330SOL    HW119889   4.183   1.581   3.077
 6330SOL    HW219890   4.276   1.714   3.087
 6331SOL     OW19891   1.725   3.090   3.781
 6331SOL    HW119892   1.792   3.163   3.786
 6331SOL    HW219893   1.675   3.097   3.694
 6332SOL     OW19894   4.222   2.185   0.022
 6332SOL    HW119895   4.307   2.216   7.004
 6332SOL    HW219896   4.178   2.119   6.985
 6333SOL     OW19897   5.796   1.616   6.970
 6333SOL    HW119898   5.896   1.626   6.970
 6333SOL    HW219899   5.771   1.536   0.002
 6334SOL     OW19900   2.637   0.943   2.131
 6334SOL    HW119901   2.673   0.990   2.211
 6334SOL    HW219902   2.560   0.885   2.158
 6335SOL     OW19903   5.698   2.178   5.423
 6335SOL    HW119904   5.796   2.188   5.442
 6335SOL    HW219905   5.677   2.217   5.333
 6336SOL     OW19906   1.030   5.897   5.755
 6336SOL    HW119907   1.027   5.798   5.761
 6336SOL    HW219908   0.970   5.937   5.825
 6337SOL     OW19909   6.420   0.360   5.842
 6337SOL    HW119910   6.439   0.327   5.934
 6337SOL    HW219911   6.423   0.460   5.841
 6338SOL     OW19912   1.091   0.623   2.313
 6338SOL    HW119913   1.005   0.650   2.269
 6338SOL    HW219914   1.166   0.676   2.273
 6339SOL     OW19915   0.413   4.068   3.598
 6339SOL    HW119916   0.475   4.083   3.521
 6339SOL    HW219917   0.364   3.982   3.586
 6340SOL     OW19918   2.451   5.431   7.015
 6340SOL    HW119919   2.432   5.340   6.977
 6340SOL    HW219920   2.497   5.487   6.946
 6341SOL     OW19921   1.085   4.456   2.977
 6341SOL    HW119922   1.003   4.500   2.941
 6341SOL    HW219923   1.095   4.365   2.939
 6342SOL     OW19924   2.446   6.753   1.213
 6342SOL    HW119925   2.399   6.800   1.288
 6342SOL    HW219926   2.438   6.654   1.226
 6343SOL     OW19927   1.811   4.159   0.240
 6343SOL    HW119928   1.764   4.078   0.205
 6343SOL    HW219929   1.819   4.227   0.167
 6344SOL     OW19930   1.860   1.384   3.878
 6344SOL    HW119931   1.801   1.460   3.850
 6344SOL    HW219932   1.815   1.332   3.951
 6345SOL     OW19933   6.958   3.208   3.666
 6345SOL    HW119934   7.010   3.256   3.735
 6345SOL    HW219935   6.932   3.117   3.700
 6346SOL     OW19936   0.553   4.519   3.960
 6346SOL    HW119937   0.538   4.421   3.975
 6346SOL    HW219938   0.631   4.549   4.015
 6347SOL     OW19939   1.697   1.616   2.297
 6347SOL    HW119940   1.740   1.532   2.267
 6347SOL    HW219941   1.623   1.595   2.361
 6348SOL     OW19942   0.872   2.712   0.387
 6348SOL    HW119943   0.952   2.655   0.407
 6348SOL    HW219944   0.894   2.776   0.314
 6349SOL     OW19945   6.226   1.434   0.964
 6349SOL    HW119946   6.319   1.401   0.977
 6349SOL    HW219947   6.200   1.494   1.040
 6350SOL     OW19948   0.521   6.931   1.465
 6350SOL    HW119949   0.562   6.953   1.376
 6350SOL    HW219950   0.457   7.002   1.491
 6351SOL     OW19951   6.442   2.338   2.065
 6351SOL    HW119952   6.344   2.316   2.060
 6351SOL    HW219953   6.468   2.393   1.986
 6352SOL     OW19954   3.913   0.808   5.073
 6352SOL    HW119955   3.978   0.883   5.063
 6352SOL    HW219956   3.952   0.725   5.033
 6353SOL     OW19957   3.957   5.851   6.053
 6353SOL    HW119958   3.978   5.889   6.143
 6353SOL    HW219959   3.943   5.926   5.987
 6354SOL     OW19960   5.874   4.860   3.263
 6354SOL    HW119961   5.814   4.934   3.233
 6354SOL    HW219962   5.902   4.876   3.358
 6355SOL     OW19963   4.647   6.540   6.806
 6355SOL    HW119964   4.628   6.611   6.737
 6355SOL    HW219965   4.744   6.543   6.831
 6356SOL     OW19966   0.164   6.735   6.390
 6356SOL    HW119967   0.240   6.698   6.337
 6356SOL    HW219968   0.190   6.824   6.428
 6357SOL     OW19969   5.001   2.010   3.213
 6357SOL    HW119970   5.066   2.037   3.142
 6357SOL    HW219971   4.922   2.071   3.211
 6358SOL     OW19972   1.485   0.990   4.941
 6358SOL    HW119973   1.546   1.062   4.975
 6358SOL    HW219974   1.476   0.919   5.010
 6359SOL     OW19975   6.699   4.411   0.818
 6359SOL    HW119976   6.648   4.497   0.806
 6359SOL    HW219977   6.733   4.406   0.912
 6360SOL     OW19978   2.980   3.001   0.867
 6360SOL    HW119979   2.916   3.051   0.924
 6360SOL    HW219980   3.068   2.993   0.914
 6361SOL     OW19981   6.900   2.027   2.823
 6361SOL    HW119982   6.970   1.957   2.835
 6361SOL    HW219983   6.847   2.007   2.740
 6362SOL     OW19984   1.808   5.536   0.354
 6362SOL    HW119985   1.725   5.590   0.363
 6362SOL    HW219986   1.791   5.459   0.293
 6363SOL     OW19987   0.467   1.960   1.401
 6363SOL    HW119988   0.369   1.980   1.398
 6363SOL    HW219989   0.488   1.883   1.341
 6364SOL     OW19990   2.864   2.285   3.498
 6364SOL    HW119991   2.817   2.327   3.419
 6364SOL    HW219992   2.835   2.190   3.507
 6365SOL     OW19993   6.058   6.793   1.865
 6365SOL    HW119994   5.984   6.847   1.825
 6365SOL    HW219995   6.107   6.849   1.932
 6366SOL     OW19996   6.239   1.685   5.185
 6366SOL    HW119997   6.325   1.647   5.220
 6366SOL    HW219998   6.236   1.783   5.204
 6367SOL     OW19999   1.803   3.722   4.686
 6367SOL    HW120000   1.876   3.775   4.642
 6367SOL    HW220001   1.719   3.776   4.687
 6368SOL     OW20002   5.198   3.471   4.850
 6368SOL    HW120003   5.196   3.447   4.947
 6368SOL    HW220004   5.106   3.499   4.821
 6369SOL     OW20005   3.021   4.157   0.895
 6369SOL    HW120006   3.050   4.244   0.934
 6369SOL    HW220007   2.936   4.126   0.939
 6370SOL     OW20008   6.483   3.161   4.741
 6370SOL    HW120009   6.401   3.109   4.719
 6370SOL    HW220010   6.489   3.241   4.681
 6371SOL     OW20011   5.724   4.584   0.989
 6371SOL    HW120012   5.796   4.653   0.979
 6371SOL    HW220013   5.720   4.553   1.084
 6372SOL     OW20014   5.529   1.207   1.980
 6372SOL    HW120015   5.607   1.266   1.956
 6372SOL    HW220016   5.445   1.246   1.942
 6373SOL     OW20017   5.521   1.760   1.441
 6373SOL    HW120018   5.558   1.827   1.377
 6373SOL    HW220019   5.594   1.704   1.478
 6374SOL     OW20020   3.691   3.529   6.101
 6374SOL    HW120021   3.773   3.587   6.102
 6374SOL    HW220022   3.611   3.586   6.080
 6375SOL     OW20023   5.077   1.016   1.875
 6375SOL    HW120024   4.996   0.956   1.876
 6375SOL    HW220025   5.083   1.062   1.787
 6376SOL     OW20026   3.130   6.740   6.776
 6376SOL    HW120027   3.108   6.693   6.690
 6376SOL    HW220028   3.072   6.821   6.786
 6377SOL     OW20029   6.969   1.399   0.249
 6377SOL    HW120030   6.994   1.341   0.171
 6377SOL    HW220031   0.012   1.473   0.258
 6378SOL     OW20032   5.936   3.419   3.043
 6378SOL    HW120033   5.953   3.321   3.032
 6378SOL    HW220034   5.945   3.464   2.954
 6379SOL     OW20035   2.572   4.533   6.973
 6379SOL    HW120036   2.556   4.461   6.906
 6379SOL    HW220037   2.520   4.513   0.033
 6380SOL     OW20038   1.881   2.679   4.684
 6380SOL    HW120039   1.809   2.707   4.620
 6380SOL    HW220040   1.969   2.717   4.653
 6381SOL     OW20041   3.589   4.693   0.976
 6381SOL    HW120042   3.671   4.639   0.960
 6381SOL    HW220043   3.569   4.749   0.896
 6382SOL     OW20044   1.836   1.414   0.915
 6382SOL    HW120045   1.879   1.504   0.922
 6382SOL    HW220046   1.800   1.401   0.823
 6383SOL     OW20047   2.842   1.825   1.913
 6383SOL    HW120048   2.942   1.820   1.914
 6383SOL    HW220049   2.814   1.921   1.908
 6384SOL     OW20050   0.309   1.450   2.388
 6384SOL    HW120051   0.391   1.436   2.332
 6384SOL    HW220052   0.331   1.433   2.484
 6385SOL     OW20053   0.350   3.776   1.974
 6385SOL    HW120054   0.358   3.840   2.050
 6385SOL    HW220055   0.440   3.762   1.932
 6386SOL     OW20056   2.864   4.748   1.046
 6386SOL    HW120057   2.950   4.701   1.066
 6386SOL    HW220058   2.875   4.802   0.963
 6387SOL     OW20059   6.401   1.480   5.799
 6387SOL    HW120060   6.356   1.418   5.734
 6387SOL    HW220061   6.403   1.572   5.762
 6388SOL     OW20062   6.668   4.957   2.582
 6388SOL    HW120063   6.710   5.000   2.502
 6388SOL    HW220064   6.739   4.927   2.646
 6389SOL     OW20065   6.751   0.085   0.579
 6389SOL    HW120066   6.760   0.017   0.652
 6389SOL    HW220067   6.755   0.177   0.618
 6390SOL     OW20068   4.422   6.108   0.165
 6390SOL    HW120069   4.510   6.077   0.201
 6390SOL    HW220070   4.407   6.066   0.075
 6391SOL     OW20071   0.789   2.033   4.715
 6391SOL    HW120072   0.770   1.969   4.790
 6391SOL    HW220073   0.726   2.016   4.640
 6392SOL     OW20074   4.482   6.318   2.966
 6392SOL    HW120075   4.523   6.396   3.014
 6392SOL    HW220076   4.412   6.276   3.025
 6393SOL     OW20077   2.389   3.974   0.387
 6393SOL    HW120078   2.473   3.980   0.441
 6393SOL    HW220079   2.311   4.003   0.443
 6394SOL     OW20080   1.707   5.177   1.811
 6394SOL    HW120081   1.787   5.217   1.766
 6394SOL    HW220082   1.712   5.194   1.909
 6395SOL     OW20083   1.013   3.816   5.063
 6395SOL    HW120084   1.054   3.907   5.063
 6395SOL    HW220085   1.042   3.766   5.145
 6396SOL     OW20086   1.106   4.022   4.002
 6396SOL    HW120087   1.140   3.930   4.023
 6396SOL    HW220088   1.141   4.086   4.071
 6397SOL     OW20089   0.842   3.669   4.528
 6397SOL    HW120090   0.784   3.646   4.607
 6397SOL    HW220091   0.786   3.667   4.445
 6398SOL     OW20092   0.435   6.989   2.454
 6398SOL    HW120093   0.482   7.012   2.540
 6398SOL    HW220094   0.500   6.947   2.391
 6399SOL     OW20095   2.488   0.185   6.512
 6399SOL    HW120096   2.500   0.223   6.604
 6399SOL    HW220097   2.436   0.099   6.519
 6400SOL     OW20098   1.055   6.268   2.914
 6400SOL    HW120099   1.138   6.221   2.883
 6400SOL    HW220100   1.080   6.351   2.964
 6401SOL     OW20101   3.896   4.978   1.079
 6401SOL    HW120102   3.831   4.989   1.154
 6401SOL    HW220103   3.894   4.884   1.046
 6402SOL     OW20104   3.146   3.244   6.066
 6402SOL    HW120105   3.154   3.293   5.979
 6402SOL    HW220106   3.059   3.268   6.110
 6403SOL     OW20107   3.738   5.353   6.193
 6403SOL    HW120108   3.676   5.412   6.246
 6403SOL    HW220109   3.693   5.266   6.175
 6404SOL     OW20110   5.196   6.035   6.060
 6404SOL    HW120111   5.275   5.999   6.109
 6404SOL    HW220112   5.227   6.095   5.986
 6405SOL     OW20113   4.685   0.986   3.253
 6405SOL    HW120114   4.613   0.917   3.239
 6405SOL    HW220115   4.707   0.992   3.350
 6406SOL     OW20116   0.368   3.314   2.545
 6406SOL    HW120117   0.394   3.396   2.495
 6406SOL    HW220118   0.287   3.274   2.503
 6407SOL     OW20119   0.391   6.997   2.846
 6407SOL    HW120120   0.372   0.068   2.874
 6407SOL    HW220121   0.447   6.952   2.916
 6408SOL     OW20122   0.024   0.827   2.141
 6408SOL    HW120123   0.060   0.827   2.234
 6408SOL    HW220124   0.036   0.736   2.100
 6409SOL     OW20125   6.469   4.165   4.118
 6409SOL    HW120126   6.438   4.198   4.208
 6409SOL    HW220127   6.565   4.189   4.105
 6410SOL     OW20128   1.728   0.492   0.070
 6410SOL    HW120129   1.741   0.403   0.113
 6410SOL    HW220130   1.741   0.483   6.994
 6411SOL     OW20131   1.157   2.403   4.132
 6411SOL    HW120132   1.091   2.414   4.207
 6411SOL    HW220133   1.139   2.317   4.084
 6412SOL     OW20134   4.514   0.269   0.115
 6412SOL    HW120135   4.485   0.302   0.205
 6412SOL    HW220136   4.555   0.178   0.124
 6413SOL     OW20137   4.796   5.748   3.450
 6413SOL    HW120138   4.709   5.702   3.429
 6413SOL    HW220139   4.859   5.736   3.374
 6414SOL     OW20140   3.620   0.391   6.889
 6414SOL    HW120141   3.693   0.400   6.957
 6414SOL    HW220142   3.634   0.458   6.816
 6415SOL     OW20143   0.007   1.885   3.615
 6415SOL    HW120144   0.045   1.872   3.523
 6415SOL    HW220145   7.022   1.796   3.660
 6416SOL     OW20146   2.849   4.023   0.685
 6416SOL    HW120147   2.932   4.041   0.738
 6416SOL    HW220148   2.866   4.045   0.589
 6417SOL     OW20149   4.815   3.468   5.745
 6417SOL    HW120150   4.900   3.517   5.723
 6417SOL    HW220151   4.781   3.422   5.663
 6418SOL     OW20152   4.654   5.723   0.031
 6418SOL    HW120153   4.732   5.663   0.045
 6418SOL    HW220154   4.577   5.671   7.018
 6419SOL     OW20155   1.737   0.045   6.656
 6419SOL    HW120156   1.773   6.996   6.716
 6419SOL    HW220157   1.810   0.077   6.595
 6420SOL     OW20158   2.297   4.943   3.329
 6420SOL    HW120159   2.361   4.868   3.344
 6420SOL    HW220160   2.206   4.915   3.359
 6421SOL     OW20161   4.984   6.639   1.597
 6421SOL    HW120162   5.078   6.669   1.606
 6421SOL    HW220163   4.922   6.717   1.604
 6422SOL     OW20164   1.130   0.485   5.625
 6422SOL    HW120165   1.226   0.465   5.645
 6422SOL    HW220166   1.123   0.570   5.573
 6423SOL     OW20167   1.211   3.826   4.424
 6423SOL    HW120168   1.310   3.814   4.418
 6423SOL    HW220169   1.167   3.737   4.415
 6424SOL     OW20170   5.960   4.159   5.502
 6424SOL    HW120171   6.025   4.235   5.503
 6424SOL    HW220172   5.884   4.181   5.442
 6425SOL     OW20173   0.770   0.331   4.365
 6425SOL    HW120174   0.761   0.406   4.431
 6425SOL    HW220175   0.738   0.246   4.407
 6426SOL     OW20176   2.977   5.314   3.990
 6426SOL    HW120177   2.899   5.287   4.046
 6426SOL    HW220178   3.042   5.239   3.984
 6427SOL     OW20179   3.161   3.585   3.206
 6427SOL    HW120180   3.087   3.530   3.245
 6427SOL    HW220181   3.216   3.624   3.280
 6428SOL     OW20182   6.494   3.327   6.518
 6428SOL    HW120183   6.497   3.242   6.466
 6428SOL    HW220184   6.416   3.324   6.581
 6429SOL     OW20185   2.741   1.617   4.092
 6429SOL    HW120186   2.821   1.665   4.056
 6429SOL    HW220187   2.769   1.546   4.156
 6430SOL     OW20188   6.604   1.314   4.150
 6430SOL    HW120189   6.553   1.303   4.236
 6430SOL    HW220190   6.646   1.227   4.125
 6431SOL     OW20191   3.581   5.124   3.283
 6431SOL    HW120192   3.538   5.043   3.322
 6431SOL    HW220193   3.575   5.200   3.347
 6432SOL     OW20194   4.110   3.561   0.007
 6432SOL    HW120195   4.177   3.632   0.024
 6432SOL    HW220196   4.077   3.524   0.095
 6433SOL     OW20197   3.973   5.457   6.155
 6433SOL    HW120198   4.020   5.412   6.079
 6433SOL    HW220199   3.890   5.405   6.179
 6434SOL     OW20200   6.221   4.700   6.685
 6434SOL    HW120201   6.252   4.771   6.622
 6434SOL    HW220202   6.143   4.732   6.737
 6435SOL     OW20203   4.321   1.140   0.769
 6435SOL    HW120204   4.345   1.198   0.691
 6435SOL    HW220205   4.375   1.056   0.768
 6436SOL     OW20206   0.918   1.766   3.742
 6436SOL    HW120207   0.891   1.712   3.662
 6436SOL    HW220208   0.966   1.707   3.806
 6437SOL     OW20209   0.897   2.923   6.591
 6437SOL    HW120210   0.889   2.823   6.586
 6437SOL    HW220211   0.923   2.958   6.501
 6438SOL     OW20212   1.138   5.748   1.651
 6438SOL    HW120213   1.116   5.666   1.703
 6438SOL    HW220214   1.061   5.771   1.591
 6439SOL     OW20215   4.381   5.933   2.703
 6439SOL    HW120216   4.343   5.877   2.629
 6439SOL    HW220217   4.470   5.897   2.730
 6440SOL     OW20218   2.350   2.362   5.233
 6440SOL    HW120219   2.291   2.367   5.314
 6440SOL    HW220220   2.329   2.437   5.171
 6441SOL     OW20221   1.401   1.610   1.717
 6441SOL    HW120222   1.368   1.530   1.768
 6441SOL    HW220223   1.501   1.610   1.716
 6442SOL     OW20224   2.886   2.191   4.218
 6442SOL    HW120225   2.889   2.266   4.153
 6442SOL    HW220226   2.959   2.126   4.198
 6443SOL     OW20227   2.291   2.129   5.870
 6443SOL    HW120228   2.220   2.071   5.828
 6443SOL    HW220229   2.352   2.164   5.799
 6444SOL     OW20230   6.644   4.398   5.441
 6444SOL    HW120231   6.552   4.411   5.477
 6444SOL    HW220232   6.663   4.468   5.371
 6445SOL     OW20233   3.124   3.146   3.487
 6445SOL    HW120234   3.051   3.211   3.509
 6445SOL    HW220235   3.139   3.086   3.565
 6446SOL     OW20236   0.616   6.911   1.840
 6446SOL    HW120237   0.656   6.850   1.772
 6446SOL    HW220238   0.644   7.005   1.821
 6447SOL     OW20239   0.366   3.994   1.507
 6447SOL    HW120240   0.339   4.059   1.435
 6447SOL    HW220241   0.385   3.905   1.466
 6448SOL     OW20242   4.040   4.121   1.606
 6448SOL    HW120243   4.026   4.027   1.574
 6448SOL    HW220244   3.967   4.145   1.670
 6449SOL     OW20245   4.559   6.018   6.786
 6449SOL    HW120246   4.490   5.948   6.802
 6449SOL    HW220247   4.600   6.046   6.873
 6450SOL     OW20248   4.202   3.745   0.956
 6450SOL    HW120249   4.151   3.722   1.039
 6450SOL    HW220250   4.268   3.817   0.976
 6451SOL     OW20251   4.167   3.514   1.708
 6451SOL    HW120252   4.154   3.425   1.753
 6451SOL    HW220253   4.164   3.586   1.777
 6452SOL     OW20254   4.519   1.865   4.159
 6452SOL    HW120255   4.489   1.772   4.139
 6452SOL    HW220256   4.603   1.885   4.108
 6453SOL     OW20257   3.241   1.014   3.118
 6453SOL    HW120258   3.224   1.087   3.185
 6453SOL    HW220259   3.204   1.041   3.030
 6454SOL     OW20260   4.596   3.320   5.605
 6454SOL    HW120261   4.501   3.348   5.616
 6454SOL    HW220262   4.619   3.319   5.508
 6455SOL     OW20263   6.970   3.187   5.504
 6455SOL    HW120264   6.881   3.147   5.486
 6455SOL    HW220265   6.988   3.185   5.602
 6456SOL     OW20266   6.268   1.918   3.087
 6456SOL    HW120267   6.173   1.944   3.104
 6456SOL    HW220268   6.316   1.907   3.174
 6457SOL     OW20269   1.505   6.100   3.421
 6457SOL    HW120270   1.532   6.127   3.513
 6457SOL    HW220271   1.422   6.043   3.427
 6458SOL     OW20272   0.951   0.019   4.499
 6458SOL    HW120273   0.974   6.960   4.552
 6458SOL    HW220274   0.929   7.016   4.405
 6459SOL     OW20275   0.062   3.050   3.254
 6459SOL    HW120276   0.025   2.961   3.281
 6459SOL    HW220277   0.069   3.109   3.334
 6460SOL     OW20278   1.419   5.205   5.538
 6460SOL    HW120279   1.431   5.215   5.439
 6460SOL    HW220280   1.373   5.119   5.558
 6461SOL     OW20281   6.905   0.164   2.283
 6461SOL    HW120282   6.827   0.141   2.224
 6461SOL    HW220283   6.933   0.083   2.335
 6462SOL     OW20284   2.789   4.288   5.829
 6462SOL    HW120285   2.769   4.203   5.781
 6462SOL    HW220286   2.823   4.267   5.920
 6463SOL     OW20287   4.874   3.242   1.819
 6463SOL    HW120288   4.824   3.185   1.885
 6463SOL    HW220289   4.856   3.208   1.727
 6464SOL     OW20290   0.605   3.328   3.281
 6464SOL    HW120291   0.670   3.344   3.207
 6464SOL    HW220292   0.531   3.269   3.249
 6465SOL     OW20293   2.012   1.232   2.557
 6465SOL    HW120294   1.979   1.312   2.607
 6465SOL    HW220295   2.109   1.217   2.579
 6466SOL     OW20296   6.460   5.218   6.967
 6466SOL    HW120297   6.430   5.159   0.019
 6466SOL    HW220298   6.556   5.198   6.945
 6467SOL     OW20299   2.787   3.401   5.682
 6467SOL    HW120300   2.812   3.491   5.644
 6467SOL    HW220301   2.828   3.329   5.626
 6468SOL     OW20302   0.982   0.767   0.111
 6468SOL    HW120303   0.978   0.683   0.056
 6468SOL    HW220304   1.026   0.748   0.199
 6469SOL     OW20305   3.159   0.862   0.861
 6469SOL    HW120306   3.141   0.773   0.903
 6469SOL    HW220307   3.094   0.929   0.897
 6470SOL     OW20308   6.311   0.590   6.158
 6470SOL    HW120309   6.364   0.649   6.219
 6470SOL    HW220310   6.324   0.494   6.184
 6471SOL     OW20311   0.563   6.462   5.315
 6471SOL    HW120312   0.559   6.411   5.402
 6471SOL    HW220313   0.614   6.409   5.248
 6472SOL     OW20314   0.961   6.145   0.745
 6472SOL    HW120315   1.037   6.104   0.796
 6472SOL    HW220316   0.989   6.234   0.709
 6473SOL     OW20317   2.970   1.437   3.744
 6473SOL    HW120318   2.979   1.515   3.807
 6473SOL    HW220319   3.019   1.457   3.659
 6474SOL     OW20320   3.922   0.591   4.642
 6474SOL    HW120321   4.005   0.646   4.650
 6474SOL    HW220322   3.947   0.497   4.620
 6475SOL     OW20323   5.878   6.081   4.017
 6475SOL    HW120324   5.882   6.131   3.930
 6475SOL    HW220325   5.878   5.983   3.999
 6476SOL     OW20326   5.203   4.096   4.366
 6476SOL    HW120327   5.287   4.134   4.406
 6476SOL    HW220328   5.226   4.013   4.315
 6477SOL     OW20329   1.391   6.788   1.192
 6477SOL    HW120330   1.470   6.816   1.247
 6477SOL    HW220331   1.338   6.869   1.167
 6478SOL     OW20332   1.969   6.442   6.943
 6478SOL    HW120333   1.916   6.373   6.992
 6478SOL    HW220334   1.934   6.533   6.965
 6479SOL     OW20335   4.587   5.220   4.394
 6479SOL    HW120336   4.677   5.205   4.435
 6479SOL    HW220337   4.537   5.134   4.391
 6480SOL     OW20338   2.560   0.572   5.070
 6480SOL    HW120339   2.516   0.587   5.158
 6480SOL    HW220340   2.659   0.569   5.082
 6481SOL     OW20341   4.031   3.868   1.535
 6481SOL    HW120342   3.997   3.775   1.527
 6481SOL    HW220343   4.111   3.870   1.595
 6482SOL     OW20344   5.177   3.227   3.908
 6482SOL    HW120345   5.082   3.254   3.892
 6482SOL    HW220346   5.197   3.143   3.859
 6483SOL     OW20347   1.734   6.387   5.597
 6483SOL    HW120348   1.753   6.462   5.659
 6483SOL    HW220349   1.654   6.336   5.629
 6484SOL     OW20350   3.765   0.605   3.525
 6484SOL    HW120351   3.765   0.505   3.523
 6484SOL    HW220352   3.681   0.639   3.484
 6485SOL     OW20353   2.277   4.635   5.239
 6485SOL    HW120354   2.354   4.571   5.237
 6485SOL    HW220355   2.191   4.585   5.233
 6486SOL     OW20356   6.723   4.145   2.540
 6486SOL    HW120357   6.698   4.218   2.604
 6486SOL    HW220358   6.642   4.116   2.489
 6487SOL     OW20359   6.190   5.561   4.905
 6487SOL    HW120360   6.181   5.505   4.823
 6487SOL    HW220361   6.110   5.620   4.915
 6488SOL     OW20362   3.397   4.878   3.372
 6488SOL    HW120363   3.455   4.804   3.339
 6488SOL    HW220364   3.318   4.889   3.311
 6489SOL     OW20365   6.180   3.741   5.333
 6489SOL    HW120366   6.100   3.693   5.369
 6489SOL    HW220367   6.190   3.720   5.236
 6490SOL     OW20368   1.467   3.415   6.362
 6490SOL    HW120369   1.464   3.437   6.460
 6490SOL    HW220370   1.561   3.422   6.330
 6491SOL     OW20371   0.914   6.941   2.289
 6491SOL    HW120372   0.928   6.849   2.253
 6491SOL    HW220373   0.852   6.938   2.367
 6492SOL     OW20374   4.082   3.361   3.218
 6492SOL    HW120375   3.995   3.348   3.171
 6492SOL    HW220376   4.082   3.450   3.263
 6493SOL     OW20377   1.872   4.773   3.846
 6493SOL    HW120378   1.789   4.829   3.841
 6493SOL    HW220379   1.866   4.700   3.779
 6494SOL     OW20380   0.008   0.939   1.524
 6494SOL    HW120381   6.961   0.880   1.563
 6494SOL    HW220382   6.989   1.025   1.495
 6495SOL     OW20383   5.882   6.554   2.580
 6495SOL    HW120384   5.925   6.512   2.499
 6495SOL    HW220385   5.926   6.641   2.600
 6496SOL     OW20386   2.926   2.768   1.173
 6496SOL    HW120387   2.995   2.718   1.121
 6496SOL    HW220388   2.953   2.774   1.269
 6497SOL     OW20389   6.792   2.701   0.612
 6497SOL    HW120390   6.753   2.771   0.553
 6497SOL    HW220391   6.810   2.619   0.559
 6498SOL     OW20392   2.583   4.963   4.583
 6498SOL    HW120393   2.520   4.905   4.531
 6498SOL    HW220394   2.631   5.024   4.521
 6499SOL     OW20395   5.443   2.202   2.985
 6499SOL    HW120396   5.428   2.112   2.943
 6499SOL    HW220397   5.494   2.261   2.923
 6500SOL     OW20398   1.786   3.514   2.992
 6500SOL    HW120399   1.738   3.428   2.977
 6500SOL    HW220400   1.777   3.541   3.088
 6501SOL     OW20401   6.513   1.476   2.536
 6501SOL    HW120402   6.535   1.393   2.485
 6501SOL    HW220403   6.433   1.460   2.593
 6502SOL     OW20404   0.847   3.039   2.522
 6502SOL    HW120405   0.792   2.975   2.470
 6502SOL    HW220406   0.788   3.108   2.564
 6503SOL     OW20407   0.376   2.875   5.950
 6503SOL    HW120408   0.412   2.937   5.880
 6503SOL    HW220409   0.354   2.787   5.907
 6504SOL     OW20410   4.211   6.280   5.760
 6504SOL    HW120411   4.225   6.372   5.798
 6504SOL    HW220412   4.122   6.276   5.715
 6505SOL     OW20413   0.969   6.992   6.736
 6505SOL    HW120414   0.894   6.955   6.682
 6505SOL    HW220415   0.984   0.064   6.712
 6506SOL     OW20416   0.733   4.636   2.297
 6506SOL    HW120417   0.809   4.671   2.352
 6506SOL    HW220418   0.767   4.604   2.209
 6507SOL     OW20419   5.413   5.144   0.617
 6507SOL    HW120420   5.458   5.203   0.549
 6507SOL    HW220421   5.316   5.138   0.596
 6508SOL     OW20422   0.274   0.993   4.735
 6508SOL    HW120423   0.262   1.038   4.647
 6508SOL    HW220424   0.220   1.039   4.804
 6509SOL     OW20425   2.678   1.875   6.637
 6509SOL    HW120426   2.718   1.955   6.682
 6509SOL    HW220427   2.618   1.827   6.701
 6510SOL     OW20428   4.053   5.102   3.887
 6510SOL    HW120429   4.087   5.127   3.796
 6510SOL    HW220430   4.091   5.014   3.913
 6511SOL     OW20431   3.637   3.158   0.299
 6511SOL    HW120432   3.557   3.132   0.244
 6511SOL    HW220433   3.714   3.099   0.276
 6512SOL     OW20434   5.336   1.554   2.128
 6512SOL    HW120435   5.255   1.511   2.169
 6512SOL    HW220436   5.418   1.510   2.164
 6513SOL     OW20437   3.561   4.974   1.786
 6513SOL    HW120438   3.631   4.918   1.830
 6513SOL    HW220439   3.478   4.920   1.773
 6514SOL     OW20440   5.238   5.409   5.495
 6514SOL    HW120441   5.294   5.491   5.489
 6514SOL    HW220442   5.243   5.358   5.409
 6515SOL     OW20443   0.861   5.384   2.177
 6515SOL    HW120444   0.891   5.323   2.104
 6515SOL    HW220445   0.911   5.362   2.261
 6516SOL     OW20446   5.531   1.386   3.645
 6516SOL    HW120447   5.580   1.473   3.636
 6516SOL    HW220448   5.495   1.378   3.738
 6517SOL     OW20449   6.862   4.157   0.683
 6517SOL    HW120450   6.812   4.227   0.733
 6517SOL    HW220451   6.810   4.130   0.602
 6518SOL     OW20452   1.116   2.095   1.849
 6518SOL    HW120453   1.156   2.018   1.899
 6518SOL    HW220454   1.018   2.101   1.870
 6519SOL     OW20455   1.567   2.412   3.412
 6519SOL    HW120456   1.548   2.480   3.483
 6519SOL    HW220457   1.647   2.358   3.440
 6520SOL     OW20458   6.069   6.619   6.793
 6520SOL    HW120459   6.128   6.700   6.784
 6520SOL    HW220460   6.013   6.628   6.876
 6521SOL     OW20461   1.513   4.454   4.756
 6521SOL    HW120462   1.585   4.505   4.711
 6521SOL    HW220463   1.553   4.379   4.809
 6522SOL     OW20464   2.297   3.238   5.241
 6522SOL    HW120465   2.241   3.280   5.170
 6522SOL    HW220466   2.320   3.144   5.215
 6523SOL     OW20467   4.835   6.452   0.548
 6523SOL    HW120468   4.884   6.499   0.475
 6523SOL    HW220469   4.805   6.363   0.516
 6524SOL     OW20470   3.843   1.969   0.969
 6524SOL    HW120471   3.910   2.043   0.962
 6524SOL    HW220472   3.844   1.915   0.885
 6525SOL     OW20473   2.876   4.821   3.532
 6525SOL    HW120474   2.962   4.846   3.487
 6525SOL    HW220475   2.807   4.800   3.463
 6526SOL     OW20476   6.256   6.652   0.674
 6526SOL    HW120477   6.295   6.655   0.582
 6526SOL    HW220478   6.326   6.673   0.741
 6527SOL     OW20479   5.490   2.189   0.726
 6527SOL    HW120480   5.529   2.101   0.697
 6527SOL    HW220481   5.549   2.263   0.695
 6528SOL     OW20482   4.708   6.792   0.686
 6528SOL    HW120483   4.755   6.775   0.600
 6528SOL    HW220484   4.668   6.884   0.684
 6529SOL     OW20485   3.996   6.414   1.339
 6529SOL    HW120486   3.910   6.463   1.353
 6529SOL    HW220487   4.045   6.453   1.261
 6530SOL     OW20488   0.187   2.916   4.352
 6530SOL    HW120489   0.226   2.970   4.427
 6530SOL    HW220490   0.090   2.940   4.340
 6531SOL     OW20491   2.887   3.469   4.052
 6531SOL    HW120492   2.901   3.472   4.151
 6531SOL    HW220493   2.866   3.376   4.024
 6532SOL     OW20494   0.883   5.947   6.627
 6532SOL    HW120495   0.818   5.983   6.559
 6532SOL    HW220496   0.868   5.849   6.639
 6533SOL     OW20497   5.645   4.769   1.352
 6533SOL    HW120498   5.736   4.805   1.331
 6533SOL    HW220499   5.584   4.784   1.274
 6534SOL     OW20500   6.296   3.038   4.569
 6534SOL    HW120501   6.293   3.020   4.471
 6534SOL    HW220502   6.261   2.959   4.619
 6535SOL     OW20503   5.664   3.226   6.596
 6535SOL    HW120504   5.607   3.144   6.604
 6535SOL    HW220505   5.651   3.284   6.676
 6536SOL     OW20506   6.648   6.016   5.314
 6536SOL    HW120507   6.597   6.019   5.228
 6536SOL    HW220508   6.606   5.951   5.376
 6537SOL     OW20509   6.552   5.462   4.288
 6537SOL    HW120510   6.629   5.455   4.224
 6537SOL    HW220511   6.537   5.558   4.311
 6538SOL     OW20512   1.125   4.069   3.122
 6538SOL    HW120513   1.061   4.079   3.199
 6538SOL    HW220514   1.101   3.987   3.069
 6539SOL     OW20515   5.559   6.348   5.323
 6539SOL    HW120516   5.548   6.311   5.415
 6539SOL    HW220517   5.556   6.448   5.327
 6540SOL     OW20518   1.041   2.433   5.297
 6540SOL    HW120519   1.109   2.417   5.226
 6540SOL    HW220520   0.964   2.369   5.284
 6541SOL     OW20521   3.432   1.877   5.633
 6541SOL    HW120522   3.344   1.913   5.603
 6541SOL    HW220523   3.463   1.927   5.714
 6542SOL     OW20524   1.628   4.738   1.754
 6542SOL    HW120525   1.652   4.720   1.658
 6542SOL    HW220526   1.708   4.769   1.804
 6543SOL     OW20527   3.779   1.867   4.128
 6543SOL    HW120528   3.764   1.964   4.149
 6543SOL    HW220529   3.808   1.858   4.033
 6544SOL     OW20530   1.492   0.734   1.623
 6544SOL    HW120531   1.507   0.820   1.576
 6544SOL    HW220532   1.437   0.750   1.705
 6545SOL     OW20533   6.412   4.669   0.428
 6545SOL    HW120534   6.368   4.647   0.516
 6545SOL    HW220535   6.511   4.660   0.437
 6546SOL     OW20536   4.280   5.451   3.792
 6546SOL    HW120537   4.217   5.415   3.723
 6546SOL    HW220538   4.278   5.391   3.872
 6547SOL     OW20539   0.461   6.835   5.202
 6547SOL    HW120540   0.506   6.878   5.280
 6547SOL    HW220541   0.472   6.893   5.121
 6548SOL     OW20542   1.714   1.148   5.321
 6548SOL    HW120543   1.716   1.126   5.418
 6548SOL    HW220544   1.789   1.103   5.274
 6549SOL     OW20545   1.896   1.704   2.482
 6549SOL    HW120546   1.805   1.664   2.468
 6549SOL    HW220547   1.886   1.799   2.510
 6550SOL     OW20548   5.513   0.070   1.857
 6550SOL    HW120549   5.529   7.014   1.798
 6550SOL    HW220550   5.428   0.115   1.830
 6551SOL     OW20551   2.348   5.819   1.056
 6551SOL    HW120552   2.289   5.739   1.069
 6551SOL    HW220553   2.349   5.874   1.140
 6552SOL     OW20554   2.455   3.595   6.958
 6552SOL    HW120555   2.399   3.601   6.876
 6552SOL    HW220556   2.437   3.673   7.017
 6553SOL     OW20557   0.055   1.827   3.041
 6553SOL    HW120558   0.040   1.740   2.994
 6553SOL    HW220559   0.151   1.853   3.033
 6554SOL     OW20560   2.256   1.880   3.983
 6554SOL    HW120561   2.354   1.875   4.003
 6554SOL    HW220562   2.218   1.963   4.023
 6555SOL     OW20563   2.218   3.675   1.806
 6555SOL    HW120564   2.308   3.676   1.762
 6555SOL    HW220565   2.216   3.604   1.876
 6556SOL     OW20566   4.913   3.009   3.365
 6556SOL    HW120567   4.899   3.092   3.312
 6556SOL    HW220568   4.924   3.032   3.462
 6557SOL     OW20569   1.783   6.607   2.258
 6557SOL    HW120570   1.785   6.692   2.206
 6557SOL    HW220571   1.730   6.621   2.342
 6558SOL     OW20572   4.962   5.777   0.542
 6558SOL    HW120573   5.056   5.744   0.551
 6558SOL    HW220574   4.960   5.876   0.559
 6559SOL     OW20575   0.108   1.830   6.114
 6559SOL    HW120576   0.156   1.848   6.200
 6559SOL    HW220577   0.017   1.794   6.134
 6560SOL     OW20578   6.453   4.578   6.359
 6560SOL    HW120579   6.490   4.664   6.396
 6560SOL    HW220580   6.511   4.502   6.388
 6561SOL     OW20581   2.605   4.972   6.954
 6561SOL    HW120582   2.682   4.912   6.932
 6561SOL    HW220583   2.631   5.036   0.002
 6562SOL     OW20584   4.564   2.744   1.298
 6562SOL    HW120585   4.536   2.674   1.364
 6562SOL    HW220586   4.519   2.728   1.211
 6563SOL     OW20587   5.846   4.338   6.050
 6563SOL    HW120588   5.885   4.298   5.967
 6563SOL    HW220589   5.832   4.267   6.118
 6564SOL     OW20590   5.937   3.871   2.104
 6564SOL    HW120591   6.002   3.799   2.128
 6564SOL    HW220592   5.892   3.847   2.018
 6565SOL     OW20593   5.547   5.229   1.683
 6565SOL    HW120594   5.486   5.165   1.729
 6565SOL    HW220595   5.635   5.232   1.731
 6566SOL     OW20596   5.405   6.003   4.267
 6566SOL    HW120597   5.317   6.032   4.229
 6566SOL    HW220598   5.411   6.033   4.362
 6567SOL     OW20599   2.674   0.825   2.430
 6567SOL    HW120600   2.659   0.821   2.529
 6567SOL    HW220601   2.611   0.762   2.384
 6568SOL     OW20602   5.153   1.577   0.246
 6568SOL    HW120603   5.074   1.620   0.288
 6568SOL    HW220604   5.227   1.571   0.313
 6569SOL     OW20605   1.506   3.648   3.390
 6569SOL    HW120606   1.531   3.554   3.366
 6569SOL    HW220607   1.409   3.663   3.367
 6570SOL     OW20608   4.278   0.310   2.564
 6570SOL    HW120609   4.294   0.403   2.533
 6570SOL    HW220610   4.205   0.309   2.632
 6571SOL     OW20611   2.460   6.750   2.926
 6571SOL    HW120612   2.447   6.693   2.844
 6571SOL    HW220613   2.451   6.846   2.902
 6572SOL     OW20614   0.989   6.474   3.672
 6572SOL    HW120615   0.917   6.533   3.709
 6572SOL    HW220616   1.016   6.507   3.582
 6573SOL     OW20617   1.091   2.853   3.650
 6573SOL    HW120618   1.002   2.889   3.623
 6573SOL    HW220619   1.161   2.887   3.586
 6574SOL     OW20620   1.042   4.724   1.479
 6574SOL    HW120621   1.082   4.634   1.492
 6574SOL    HW220622   1.022   4.738   1.382
 6575SOL     OW20623   6.996   1.251   4.126
 6575SOL    HW120624   6.926   1.235   4.196
 6575SOL    HW220625   7.001   1.348   4.104
 6576SOL     OW20626   4.255   0.892   2.743
 6576SOL    HW120627   4.177   0.842   2.706
 6576SOL    HW220628   4.321   0.910   2.670
 6577SOL     OW20629   2.865   0.789   5.527
 6577SOL    HW120630   2.863   0.706   5.471
 6577SOL    HW220631   2.830   0.866   5.473
 6578SOL     OW20632   0.853   5.981   0.045
 6578SOL    HW120633   0.775   6.041   0.029
 6578SOL    HW220634   0.864   5.966   0.143
 6579SOL     OW20635   1.917   2.016   2.987
 6579SOL    HW120636   2.006   1.976   3.008
 6579SOL    HW220637   1.874   1.965   2.913
 6580SOL     OW20638   2.964   2.624   0.010
 6580SOL    HW120639   3.025   2.699   0.036
 6580SOL    HW220640   2.927   2.582   0.093
 6581SOL     OW20641   0.979   2.311   1.696
 6581SOL    HW120642   0.893   2.316   1.644
 6581SOL    HW220643   1.037   2.239   1.657
 6582SOL     OW20644   3.476   6.348   3.107
 6582SOL    HW120645   3.555   6.340   3.046
 6582SOL    HW220646   3.421   6.427   3.080
 6583SOL     OW20647   2.260   4.498   0.908
 6583SOL    HW120648   2.200   4.486   0.987
 6583SOL    HW220649   2.329   4.567   0.929
 6584SOL     OW20650   4.755   3.877   5.463
 6584SOL    HW120651   4.794   3.796   5.419
 6584SOL    HW220652   4.655   3.871   5.462
 6585SOL     OW20653   5.143   6.905   2.002
 6585SOL    HW120654   5.095   6.959   1.933
 6585SOL    HW220655   5.211   6.962   2.048
 6586SOL     OW20656   6.840   1.811   6.488
 6586SOL    HW120657   6.828   1.851   6.579
 6586SOL    HW220658   6.751   1.794   6.446
 6587SOL     OW20659   2.715   4.940   5.427
 6587SOL    HW120660   2.670   4.965   5.342
 6587SOL    HW220661   2.780   4.865   5.409
 6588SOL     OW20662   1.450   2.439   0.578
 6588SOL    HW120663   1.360   2.399   0.598
 6588SOL    HW220664   1.449   2.480   0.487
 6589SOL     OW20665   5.908   0.347   1.088
 6589SOL    HW120666   5.995   0.363   1.041
 6589SOL    HW220667   5.832   0.370   1.027
 6590SOL     OW20668   0.939   6.114   4.323
 6590SOL    HW120669   0.870   6.074   4.383
 6590SOL    HW220670   0.899   6.188   4.270
 6591SOL     OW20671   6.519   3.413   3.392
 6591SOL    HW120672   6.471   3.500   3.381
 6591SOL    HW220673   6.473   3.343   3.337
 6592SOL     OW20674   0.323   0.152   4.618
 6592SOL    HW120675   0.367   0.193   4.539
 6592SOL    HW220676   0.245   0.209   4.646
 6593SOL     OW20677   0.920   0.243   3.483
 6593SOL    HW120678   0.851   0.195   3.537
 6593SOL    HW220679   1.011   0.216   3.514
 6594SOL     OW20680   5.377   6.972   6.674
 6594SOL    HW120681   5.332   0.032   6.641
 6594SOL    HW220682   5.468   6.995   6.710
 6595SOL     OW20683   0.788   6.980   4.914
 6595SOL    HW120684   0.884   6.965   4.938
 6595SOL    HW220685   0.752   6.898   4.870
 6596SOL     OW20686   4.844   0.548   3.247
 6596SOL    HW120687   4.760   0.551   3.301
 6596SOL    HW220688   4.865   0.639   3.213
 6597SOL     OW20689   1.031   5.405   1.519
 6597SOL    HW120690   0.996   5.498   1.528
 6597SOL    HW220691   1.004   5.368   1.430
 6598SOL     OW20692   1.567   5.235   1.599
 6598SOL    HW120693   1.610   5.207   1.685
 6598SOL    HW220694   1.532   5.154   1.551
 6599SOL     OW20695   0.389   6.175   6.771
 6599SOL    HW120696   0.422   6.106   6.836
 6599SOL    HW220697   0.362   6.130   6.686
 6600SOL     OW20698   5.317   0.371   5.115
 6600SOL    HW120699   5.253   0.413   5.050
 6600SOL    HW220700   5.379   0.441   5.150
 6601SOL     OW20701   0.856   2.470   3.497
 6601SOL    HW120702   0.841   2.375   3.470
 6601SOL    HW220703   0.809   2.488   3.583
 6602SOL     OW20704   6.317   6.249   0.630
 6602SOL    HW120705   6.339   6.347   0.628
 6602SOL    HW220706   6.346   6.207   0.543
 6603SOL     OW20707   6.981   4.726   2.598
 6603SOL    HW120708   6.911   4.678   2.546
 6603SOL    HW220709   7.012   4.805   2.547
 6604SOL     OW20710   2.266   4.917   2.169
 6604SOL    HW120711   2.354   4.957   2.194
 6604SOL    HW220712   2.274   4.870   2.082
 6605SOL     OW20713   0.072   5.752   0.825
 6605SOL    HW120714   0.061   5.655   0.804
 6605SOL    HW220715   0.060   5.806   0.742
 6606SOL     OW20716   1.245   5.002   3.129
 6606SOL    HW120717   1.324   5.034   3.075
 6606SOL    HW220718   1.227   4.906   3.107
 6607SOL     OW20719   0.261   2.668   4.286
 6607SOL    HW120720   0.244   2.766   4.288
 6607SOL    HW220721   0.341   2.649   4.228
 6608SOL     OW20722   1.846   0.379   5.244
 6608SOL    HW120723   1.825   0.473   5.219
 6608SOL    HW220724   1.940   0.373   5.279
 6609SOL     OW20725   2.377   1.965   0.331
 6609SOL    HW120726   2.386   2.049   0.279
 6609SOL    HW220727   2.289   1.922   0.309
 6610SOL     OW20728   3.241   5.910   0.700
 6610SOL    HW120729   3.279   5.921   0.792
 6610SOL    HW220730   3.153   5.958   0.694
 6611SOL     OW20731   2.644   1.201   5.406
 6611SOL    HW120732   2.565   1.143   5.382
 6611SOL    HW220733   2.613   1.295   5.421
 6612SOL     OW20734   6.134   0.415   0.020
 6612SOL    HW120735   6.091   0.460   6.965
 6612SOL    HW220736   6.211   0.360   7.012
 6613SOL     OW20737   5.047   6.721   0.984
 6613SOL    HW120738   5.041   6.670   0.898
 6613SOL    HW220739   5.115   6.678   1.044
 6614SOL     OW20740   4.659   5.286   0.407
 6614SOL    HW120741   4.682   5.189   0.397
 6614SOL    HW220742   4.686   5.318   0.498
 6615SOL     OW20743   3.730   5.699   6.067
 6615SOL    HW120744   3.721   5.616   6.013
 6615SOL    HW220745   3.822   5.737   6.054
 6616SOL     OW20746   4.004   2.252   6.720
 6616SOL    HW120747   3.909   2.284   6.724
 6616SOL    HW220748   4.062   2.327   6.689
 6617SOL     OW20749   3.672   1.474   4.323
 6617SOL    HW120750   3.599   1.449   4.388
 6617SOL    HW220751   3.645   1.557   4.274
 6618SOL     OW20752   6.508   2.454   3.523
 6618SOL    HW120753   6.512   2.452   3.423
 6618SOL    HW220754   6.515   2.548   3.555
 6619SOL     OW20755   4.546   4.856   3.336
 6619SOL    HW120756   4.452   4.889   3.337
 6619SOL    HW220757   4.547   4.758   3.354
 6620SOL     OW20758   1.211   3.190   3.673
 6620SOL    HW120759   1.281   3.195   3.744
 6620SOL    HW220760   1.227   3.110   3.615
 6621SOL     OW20761   3.650   3.663   3.172
 6621SOL    HW120762   3.596   3.579   3.174
 6621SOL    HW220763   3.730   3.651   3.114
 6622SOL     OW20764   6.707   5.274   1.772
 6622SOL    HW120765   6.784   5.318   1.818
 6622SOL    HW220766   6.720   5.175   1.773
 6623SOL     OW20767   3.376   3.188   4.393
 6623SOL    HW120768   3.452   3.253   4.387
 6623SOL    HW220769   3.290   3.236   4.378
 6624SOL     OW20770   2.490   2.588   2.366
 6624SOL    HW120771   2.454   2.494   2.368
 6624SOL    HW220772   2.575   2.590   2.314
 6625SOL     OW20773   0.984   5.211   6.277
 6625SOL    HW120774   1.031   5.122   6.281
 6625SOL    HW220775   1.048   5.280   6.244
 6626SOL     OW20776   3.701   5.704   5.689
 6626SOL    HW120777   3.651   5.683   5.605
 6626SOL    HW220778   3.735   5.798   5.684
 6627SOL     OW20779   2.903   0.307   4.338
 6627SOL    HW120780   2.932   0.300   4.433
 6627SOL    HW220781   2.966   0.254   4.280
 6628SOL     OW20782   3.629   6.079   4.090
 6628SOL    HW120783   3.582   6.112   4.008
 6628SOL    HW220784   3.691   6.150   4.124
 6629SOL     OW20785   4.903   6.053   5.126
 6629SOL    HW120786   4.870   6.121   5.061
 6629SOL    HW220787   4.948   6.100   5.202
 6630SOL     OW20788   1.865   6.928   0.394
 6630SOL    HW120789   1.799   7.000   0.416
 6630SOL    HW220790   1.955   6.969   0.377
 6631SOL     OW20791   1.352   1.338   5.734
 6631SOL    HW120792   1.437   1.285   5.736
 6631SOL    HW220793   1.372   1.432   5.706
 6632SOL     OW20794   1.349   0.441   5.777
 6632SOL    HW120795   1.308   0.368   5.832
 6632SOL    HW220796   1.439   0.411   5.745
 6633SOL     OW20797   5.114   0.084   5.921
 6633SOL    HW120798   5.032   0.068   5.866
 6633SOL    HW220799   5.156   7.019   5.944
 6634SOL     OW20800   2.821   2.351   4.019
 6634SOL    HW120801   2.725   2.328   4.004
 6634SOL    HW220802   2.868   2.358   3.932
 6635SOL     OW20803   4.804   5.626   6.095
 6635SOL    HW120804   4.741   5.649   6.169
 6635SOL    HW220805   4.878   5.693   6.092
 6636SOL     OW20806   4.759   1.541   1.342
 6636SOL    HW120807   4.812   1.626   1.331
 6636SOL    HW220808   4.693   1.553   1.417
 6637SOL     OW20809   0.341   3.468   6.989
 6637SOL    HW120810   0.249   3.461   6.950
 6637SOL    HW220811   0.335   3.465   0.065
 6638SOL     OW20812   3.146   3.325   4.342
 6638SOL    HW120813   3.055   3.351   4.371
 6638SOL    HW220814   3.192   3.403   4.299
 6639SOL     OW20815   5.880   2.718   2.228
 6639SOL    HW120816   5.923   2.802   2.261
 6639SOL    HW220817   5.949   2.646   2.218
 6640SOL     OW20818   0.337   3.541   3.955
 6640SOL    HW120819   0.367   3.583   3.870
 6640SOL    HW220820   0.404   3.474   3.985
 6641SOL     OW20821   5.387   2.277   0.425
 6641SOL    HW120822   5.315   2.316   0.483
 6641SOL    HW220823   5.425   2.348   0.366
 6642SOL     OW20824   0.376   4.889   6.448
 6642SOL    HW120825   0.468   4.928   6.448
 6642SOL    HW220826   0.371   4.814   6.513
 6643SOL     OW20827   5.750   5.487   5.679
 6643SOL    HW120828   5.831   5.515   5.731
 6643SOL    HW220829   5.676   5.463   5.741
 6644SOL     OW20830   1.948   6.353   3.545
 6644SOL    HW120831   2.021   6.396   3.598
 6644SOL    HW220832   1.882   6.312   3.607
 6645SOL     OW20833   4.811   2.907   5.494
 6645SOL    HW120834   4.842   2.989   5.445
 6645SOL    HW220835   4.726   2.928   5.542
 6646SOL     OW20836   4.514   0.195   6.125
 6646SOL    HW120837   4.448   0.123   6.149
 6646SOL    HW220838   4.601   0.177   6.171
 6647SOL     OW20839   2.854   4.950   0.612
 6647SOL    HW120840   2.902   4.936   0.698
 6647SOL    HW220841   2.790   5.027   0.621
 6648SOL     OW20842   3.212   5.731   5.200
 6648SOL    HW120843   3.242   5.641   5.232
 6648SOL    HW220844   3.205   5.793   5.278
 6649SOL     OW20845   5.863   2.809   5.133
 6649SOL    HW120846   5.807   2.883   5.096
 6649SOL    HW220847   5.840   2.794   5.229
 6650SOL     OW20848   2.727   0.697   4.853
 6650SOL    HW120849   2.686   0.648   4.931
 6650SOL    HW220850   2.772   0.780   4.886
 6651SOL     OW20851   6.098   0.976   3.378
 6651SOL    HW120852   6.001   0.999   3.374
 6651SOL    HW220853   6.133   0.996   3.469
 6652SOL     OW20854   6.798   5.533   6.670
 6652SOL    HW120855   6.745   5.609   6.633
 6652SOL    HW220856   6.884   5.524   6.620
 6653SOL     OW20857   5.790   3.588   0.003
 6653SOL    HW120858   5.692   3.591   7.009
 6653SOL    HW220859   5.832   3.675   7.000
 6654SOL     OW20860   6.610   1.543   3.426
 6654SOL    HW120861   6.691   1.485   3.428
 6654SOL    HW220862   6.638   1.638   3.411
 6655SOL     OW20863   6.596   5.518   1.713
 6655SOL    HW120864   6.665   5.588   1.729
 6655SOL    HW220865   6.641   5.430   1.697
 6656SOL     OW20866   5.382   1.670   2.397
 6656SOL    HW120867   5.336   1.757   2.413
 6656SOL    HW220868   5.327   1.613   2.336
 6657SOL     OW20869   4.780   1.934   4.011
 6657SOL    HW120870   4.775   2.032   3.994
 6657SOL    HW220871   4.847   1.916   4.083
 6658SOL     OW20872   6.411   6.008   4.191
 6658SOL    HW120873   6.478   6.013   4.116
 6658SOL    HW220874   6.321   5.986   4.154
 6659SOL     OW20875   1.069   6.369   0.629
 6659SOL    HW120876   1.115   6.334   0.548
 6659SOL    HW220877   1.135   6.413   0.689
 6660SOL     OW20878   1.474   0.990   3.530
 6660SOL    HW120879   1.530   1.051   3.586
 6660SOL    HW220880   1.492   1.008   3.433
 6661SOL     OW20881   3.828   6.426   3.570
 6661SOL    HW120882   3.866   6.498   3.628
 6661SOL    HW220883   3.818   6.460   3.477
 6662SOL     OW20884   4.017   6.127   1.369
 6662SOL    HW120885   3.983   6.221   1.367
 6662SOL    HW220886   4.107   6.124   1.325
 6663SOL     OW20887   1.764   4.107   5.315
 6663SOL    HW120888   1.727   4.014   5.317
 6663SOL    HW220889   1.813   4.122   5.229
 6664SOL     OW20890   3.352   6.878   1.724
 6664SOL    HW120891   3.301   6.855   1.641
 6664SOL    HW220892   3.301   6.943   1.779
 6665SOL     OW20893   2.938   0.383   6.609
 6665SOL    HW120894   2.949   0.463   6.550
 6665SOL    HW220895   3.019   0.373   6.667
 6666SOL     OW20896   3.048   6.835   5.988
 6666SOL    HW120897   3.050   6.920   5.936
 6666SOL    HW220898   2.960   6.789   5.973
 6667SOL     OW20899   1.550   5.697   6.958
 6667SOL    HW120900   1.490   5.754   7.015
 6667SOL    HW220901   1.643   5.734   6.960
 6668SOL     OW20902   6.804   3.934   5.972
 6668SOL    HW120903   6.865   3.855   5.964
 6668SOL    HW220904   6.709   3.904   5.959
 6669SOL     OW20905   0.514   3.468   3.661
 6669SOL    HW120906   0.556   3.546   3.708
 6669SOL    HW220907   0.570   3.442   3.583
 6670SOL     OW20908   2.513   3.820   0.702
 6670SOL    HW120909   2.593   3.844   0.757
 6670SOL    HW220910   2.475   3.733   0.734
 6671SOL     OW20911   5.107   5.278   0.362
 6671SOL    HW120912   5.138   5.183   0.371
 6671SOL    HW220913   5.032   5.282   0.296
 6672SOL     OW20914   1.686   2.403   1.108
 6672SOL    HW120915   1.662   2.305   1.108
 6672SOL    HW220916   1.729   2.426   1.021
 6673SOL     OW20917   5.481   4.090   4.187
 6673SOL    HW120918   5.518   4.179   4.159
 6673SOL    HW220919   5.554   4.035   4.229
 6674SOL     OW20920   6.416   1.459   6.997
 6674SOL    HW120921   6.425   1.545   6.947
 6674SOL    HW220922   6.321   1.426   6.990
 6675SOL     OW20923   5.030   0.938   0.700
 6675SOL    HW120924   5.013   0.893   0.788
 6675SOL    HW220925   4.943   0.949   0.651
 6676SOL     OW20926   0.949   3.336   5.645
 6676SOL    HW120927   1.007   3.405   5.687
 6676SOL    HW220928   0.859   3.337   5.689
 6677SOL     OW20929   0.800   2.293   7.009
 6677SOL    HW120930   0.759   2.296   0.078
 6677SOL    HW220931   0.839   2.203   6.993
 6678SOL     OW20932   3.070   4.384   6.875
 6678SOL    HW120933   3.054   4.288   6.849
 6678SOL    HW220934   3.149   4.388   6.936
 6679SOL     OW20935   1.541   0.286   3.484
 6679SOL    HW120936   1.494   0.374   3.485
 6679SOL    HW220937   1.639   0.301   3.469
 6680SOL     OW20938   6.448   5.620   1.932
 6680SOL    HW120939   6.383   5.691   1.906
 6680SOL    HW220940   6.489   5.580   1.850
 6681SOL     OW20941   3.132   6.214   1.230
 6681SOL    HW120942   3.080   6.293   1.196
 6681SOL    HW220943   3.072   6.157   1.286
 6682SOL     OW20944   2.469   5.129   6.595
 6682SOL    HW120945   2.529   5.091   6.525
 6682SOL    HW220946   2.460   5.228   6.581
 6683SOL     OW20947   6.613   6.391   6.120
 6683SOL    HW120948   6.576   6.411   6.029
 6683SOL    HW220949   6.559   6.318   6.162
 6684SOL     OW20950   3.063   0.086   6.103
 6684SOL    HW120951   3.067   0.129   6.193
 6684SOL    HW220952   3.153   0.052   6.077
 6685SOL     OW20953   3.876   2.937   0.877
 6685SOL    HW120954   3.802   2.951   0.943
 6685SOL    HW220955   3.949   2.885   0.920
 6686SOL     OW20956   4.608   4.693   5.446
 6686SOL    HW120957   4.575   4.730   5.359
 6686SOL    HW220958   4.620   4.594   5.438
 6687SOL     OW20959   0.043   2.919   0.979
 6687SOL    HW120960   0.119   2.971   0.940
 6687SOL    HW220961   6.997   2.902   0.909
 6688SOL     OW20962   5.670   6.135   0.437
 6688SOL    HW120963   5.654   6.057   0.377
 6688SOL    HW220964   5.750   6.186   0.405
 6689SOL     OW20965   3.830   4.346   5.652
 6689SOL    HW120966   3.865   4.439   5.659
 6689SOL    HW220967   3.855   4.294   5.734
 6690SOL     OW20968   1.316   0.097   6.881
 6690SOL    HW120969   1.276   0.096   6.973
 6690SOL    HW220970   1.359   0.009   6.862
 6691SOL     OW20971   1.710   2.081   2.386
 6691SOL    HW120972   1.701   2.150   2.314
 6691SOL    HW220973   1.799   2.036   2.378
 6692SOL     OW20974   4.162   6.105   2.135
 6692SOL    HW120975   4.071   6.068   2.118
 6692SOL    HW220976   4.180   6.109   2.233
 6693SOL     OW20977   2.846   1.255   6.006
 6693SOL    HW120978   2.889   1.240   6.095
 6693SOL    HW220979   2.823   1.352   5.995
 6694SOL     OW20980   4.457   4.097   1.693
 6694SOL    HW120981   4.413   4.156   1.760
 6694SOL    HW220982   4.495   4.152   1.619
 6695SOL     OW20983   3.295   2.196   0.023
 6695SOL    HW120984   3.292   2.269   6.978
 6695SOL    HW220985   3.364   2.218   0.092
 6696SOL     OW20986   3.443   3.161   5.223
 6696SOL    HW120987   3.493   3.151   5.309
 6696SOL    HW220988   3.399   3.074   5.200
 6697SOL     OW20989   4.967   1.074   2.837
 6697SOL    HW120990   4.920   1.055   2.923
 6697SOL    HW220991   4.918   1.145   2.786
 6698SOL     OW20992   2.928   3.673   1.251
 6698SOL    HW120993   2.965   3.610   1.319
 6698SOL    HW220994   2.942   3.767   1.281
 6699SOL     OW20995   1.280   3.573   5.969
 6699SOL    HW120996   1.267   3.588   6.067
 6699SOL    HW220997   1.364   3.520   5.954
 6700SOL     OW20998   5.181   7.017   1.280
 6700SOL    HW120999   5.130   0.072   1.246
 6700SOL    HW221000   5.122   6.936   1.280
 6701SOL     OW21001   6.485   6.725   1.525
 6701SOL    HW121002   6.478   6.645   1.466
 6701SOL    HW221003   6.521   6.698   1.614
 6702SOL     OW21004   4.954   2.580   1.510
 6702SOL    HW121005   4.855   2.579   1.499
 6702SOL    HW221006   4.997   2.584   1.419
 6703SOL     OW21007   0.174   1.321   0.783
 6703SOL    HW121008   0.076   1.303   0.785
 6703SOL    HW221009   0.202   1.369   0.866
 6704SOL     OW21010   2.476   6.079   6.527
 6704SOL    HW121011   2.539   6.002   6.528
 6704SOL    HW221012   2.508   6.148   6.462
 6705SOL     OW21013   1.486   4.177   2.934
 6705SOL    HW121014   1.446   4.184   2.843
 6705SOL    HW221015   1.461   4.258   2.988
 6706SOL     OW21016   0.541   5.592   1.626
 6706SOL    HW121017   0.594   5.539   1.693
 6706SOL    HW221018   0.511   5.678   1.668
 6707SOL     OW21019   5.169   0.892   2.792
 6707SOL    HW121020   5.088   0.950   2.804
 6707SOL    HW221021   5.217   0.885   2.880
 6708SOL     OW21022   0.169   3.279   1.027
 6708SOL    HW121023   0.074   3.278   1.058
 6708SOL    HW221024   0.230   3.285   1.106
 6709SOL     OW21025   2.276   4.078   1.744
 6709SOL    HW121026   2.266   4.097   1.841
 6709SOL    HW221027   2.214   4.137   1.692
 6710SOL     OW21028   4.712   2.068   2.182
 6710SOL    HW121029   4.734   2.048   2.087
 6710SOL    HW221030   4.717   2.167   2.197
 6711SOL     OW21031   4.367   5.609   6.145
 6711SOL    HW121032   4.346   5.702   6.115
 6711SOL    HW221033   4.282   5.556   6.150
 6712SOL     OW21034   5.694   3.649   0.932
 6712SOL    HW121035   5.712   3.561   0.976
 6712SOL    HW221036   5.725   3.645   0.837
 6713SOL     OW21037   2.107   4.546   4.292
 6713SOL    HW121038   2.140   4.637   4.317
 6713SOL    HW221039   2.115   4.485   4.371
 6714SOL     OW21040   6.156   0.742   2.618
 6714SOL    HW121041   6.148   0.813   2.548
 6714SOL    HW221042   6.183   0.783   2.705
 6715SOL     OW21043   0.949   6.704   5.569
 6715SOL    HW121044   0.913   6.766   5.640
 6715SOL    HW221045   0.883   6.694   5.496
 6716SOL     OW21046   1.401   4.527   1.786
 6716SOL    HW121047   1.420   4.624   1.777
 6716SOL    HW221048   1.403   4.501   1.883
 6717SOL     OW21049   6.218   2.282   5.219
 6717SOL    HW121050   6.249   2.268   5.313
 6717SOL    HW221051   6.289   2.250   5.156
 6718SOL     OW21052   4.722   2.519   0.787
 6718SOL    HW121053   4.640   2.473   0.753
 6718SOL    HW221054   4.771   2.458   0.849
 6719SOL     OW21055   1.778   0.245   0.223
 6719SOL    HW121056   1.771   0.146   0.213
 6719SOL    HW221057   1.811   0.267   0.315
 6720SOL     OW21058   1.443   1.786   4.437
 6720SOL    HW121059   1.486   1.865   4.482
 6720SOL    HW221060   1.413   1.813   4.345
 6721SOL     OW21061   6.328   6.651   0.415
 6721SOL    HW121062   6.317   6.555   0.390
 6721SOL    HW221063   6.366   6.701   0.337
 6722SOL     OW21064   0.052   3.957   1.563
 6722SOL    HW121065   0.091   3.932   1.651
 6722SOL    HW221066   0.013   3.876   1.519
 6723SOL     OW21067   2.096   3.405   4.171
 6723SOL    HW121068   2.122   3.358   4.256
 6723SOL    HW221069   2.131   3.354   4.093
 6724SOL     OW21070   2.164   3.306   5.010
 6724SOL    HW121071   2.173   3.406   5.018
 6724SOL    HW221072   2.068   3.282   4.999
 6725SOL     OW21073   4.676   2.683   3.619
 6725SOL    HW121074   4.684   2.736   3.535
 6725SOL    HW221075   4.724   2.596   3.609
 6726SOL     OW21076   0.002   1.180   0.060
 6726SOL    HW121077   6.958   1.107   0.050
 6726SOL    HW221078   0.093   1.146   0.035
 6727SOL     OW21079   0.973   5.247   5.534
 6727SOL    HW121080   1.067   5.235   5.501
 6727SOL    HW221081   0.908   5.218   5.464
 6728SOL     OW21082   3.576   1.646   5.257
 6728SOL    HW121083   3.487   1.682   5.227
 6728SOL    HW221084   3.638   1.641   5.178
 6729SOL     OW21085   3.942   1.309   2.616
 6729SOL    HW121086   3.968   1.285   2.523
 6729SOL    HW221087   3.905   1.227   2.662
 6730SOL     OW21088   0.230   2.028   1.301
 6730SOL    HW121089   0.195   2.109   1.348
 6730SOL    HW221090   0.166   1.952   1.314
 6731SOL     OW21091   3.625   0.688   5.740
 6731SOL    HW121092   3.669   0.737   5.665
 6731SOL    HW221093   3.537   0.731   5.761
 6732SOL     OW21094   6.152   4.924   6.108
 6732SOL    HW121095   6.150   4.843   6.168
 6732SOL    HW221096   6.113   4.901   6.019
 6733SOL     OW21097   5.394   4.809   5.809
 6733SOL    HW121098   5.312   4.854   5.845
 6733SOL    HW221099   5.395   4.816   5.709
 6734SOL     OW21100   5.358   1.834   5.532
 6734SOL    HW121101   5.382   1.894   5.455
 6734SOL    HW221102   5.394   1.742   5.516
 6735SOL     OW21103   5.842   2.569   4.782
 6735SOL    HW121104   5.765   2.573   4.718
 6735SOL    HW221105   5.811   2.597   4.873
 6736SOL     OW21106   3.984   3.469   0.696
 6736SOL    HW121107   4.075   3.511   0.699
 6736SOL    HW221108   3.984   3.385   0.750
 6737SOL     OW21109   6.162   2.639   1.079
 6737SOL    HW121110   6.114   2.710   1.130
 6737SOL    HW221111   6.256   2.632   1.112
 6738SOL     OW21112   1.826   6.877   3.693
 6738SOL    HW121113   1.914   6.832   3.678
 6738SOL    HW221114   1.752   6.809   3.690
 6739SOL     OW21115   0.484   0.130   5.614
 6739SOL    HW121116   0.491   0.073   5.532
 6739SOL    HW221117   0.388   0.141   5.639
 6740SOL     OW21118   0.931   6.886   1.590
 6740SOL    HW121119   0.839   6.846   1.596
 6740SOL    HW221120   0.979   6.848   1.511
 6741SOL     OW21121   3.249   1.945   0.103
 6741SOL    HW121122   3.238   2.040   0.075
 6741SOL    HW221123   3.202   1.885   0.038
 6742SOL     OW21124   6.644   5.239   2.716
 6742SOL    HW121125   6.686   5.165   2.768
 6742SOL    HW221126   6.685   5.244   2.625
 6743SOL     OW21127   3.715   4.184   7.007
 6743SOL    HW121128   3.764   4.265   6.976
 6743SOL    HW221129   3.711   4.183   0.084
 6744SOL     OW21130   6.588   6.621   5.778
 6744SOL    HW121131   6.522   6.551   5.804
 6744SOL    HW221132   6.609   6.679   5.858
 6745SOL     OW21133   5.661   3.449   4.975
 6745SOL    HW121134   5.676   3.482   5.068
 6745SOL    HW221135   5.572   3.403   4.970
 6746SOL     OW21136   1.672   2.698   2.895
 6746SOL    HW121137   1.759   2.729   2.932
 6746SOL    HW221138   1.667   2.598   2.902
 6747SOL     OW21139   0.758   6.038   5.501
 6747SOL    HW121140   0.671   6.015   5.544
 6747SOL    HW221141   0.814   6.092   5.564
 6748SOL     OW21142   1.408   2.464   3.867
 6748SOL    HW121143   1.342   2.451   3.941
 6748SOL    HW221144   1.471   2.538   3.890
 6749SOL     OW21145   3.291   5.229   2.304
 6749SOL    HW121146   3.341   5.169   2.241
 6749SOL    HW221147   3.198   5.195   2.315
 6750SOL     OW21148   3.473   0.188   5.431
 6750SOL    HW121149   3.551   0.247   5.411
 6750SOL    HW221150   3.403   0.200   5.360
 6751SOL     OW21151   3.873   1.273   4.299
 6751SOL    HW121152   3.774   1.278   4.317
 6751SOL    HW221153   3.920   1.243   4.381
 6752SOL     OW21154   2.068   5.393   2.888
 6752SOL    HW121155   2.014   5.390   2.804
 6752SOL    HW221156   2.008   5.389   2.967
 6753SOL     OW21157   3.577   4.466   6.739
 6753SOL    HW121158   3.617   4.552   6.771
 6753SOL    HW221159   3.513   4.483   6.665
 6754SOL     OW21160   5.593   0.498   0.544
 6754SOL    HW121161   5.607   0.579   0.487
 6754SOL    HW221162   5.634   0.418   0.500
 6755SOL     OW21163   3.637   5.642   5.419
 6755SOL    HW121164   3.603   5.557   5.378
 6755SOL    HW221165   3.591   5.720   5.376
 6756SOL     OW21166   4.148   3.322   5.326
 6756SOL    HW121167   4.137   3.340   5.228
 6756SOL    HW221168   4.235   3.276   5.341
 6757SOL     OW21169   4.065   6.839   1.779
 6757SOL    HW121170   4.162   6.852   1.760
 6757SOL    HW221171   4.013   6.914   1.739
 6758SOL     OW21172   5.475   2.255   3.532
 6758SOL    HW121173   5.531   2.173   3.523
 6758SOL    HW221174   5.479   2.307   3.447
 6759SOL     OW21175   1.347   2.640   1.862
 6759SOL    HW121176   1.429   2.677   1.817
 6759SOL    HW221177   1.373   2.564   1.921
 6760SOL     OW21178   5.096   1.647   5.910
 6760SOL    HW121179   5.021   1.698   5.952
 6760SOL    HW221180   5.118   1.688   5.822
 6761SOL     OW21181   2.753   0.209   5.020
 6761SOL    HW121182   2.799   0.126   5.052
 6761SOL    HW221183   2.755   0.212   4.920
 6762SOL     OW21184   5.384   4.697   4.358
 6762SOL    HW121185   5.412   4.673   4.265
 6762SOL    HW221186   5.349   4.616   4.404
 6763SOL     OW21187   5.559   5.641   3.629
 6763SOL    HW121188   5.468   5.648   3.668
 6763SOL    HW221189   5.589   5.545   3.631
 6764SOL     OW21190   1.095   4.528   2.111
 6764SOL    HW121191   1.018   4.529   2.048
 6764SOL    HW221192   1.170   4.583   2.073
 6765SOL     OW21193   0.108   4.918   3.011
 6765SOL    HW121194   0.106   4.836   3.070
 6765SOL    HW221195   0.015   4.953   2.999
 6766SOL     OW21196   5.946   0.083   1.434
 6766SOL    HW121197   6.033   0.051   1.471
 6766SOL    HW221198   5.927   0.035   1.349
 6767SOL     OW21199   3.079   0.517   1.448
 6767SOL    HW121200   3.155   0.479   1.500
 6767SOL    HW221201   2.999   0.526   1.508
 6768SOL     OW21202   2.126   0.303   6.424
 6768SOL    HW121203   2.214   0.268   6.393
 6768SOL    HW221204   2.139   0.355   6.509
 6769SOL     OW21205   5.665   2.670   1.370
 6769SOL    HW121206   5.728   2.700   1.442
 6769SOL    HW221207   5.580   2.722   1.375
 6770SOL     OW21208   0.214   1.736   1.563
 6770SOL    HW121209   0.171   1.648   1.583
 6770SOL    HW221210   0.161   1.784   1.493
 6771SOL     OW21211   4.871   1.203   3.586
 6771SOL    HW121212   4.822   1.271   3.639
 6771SOL    HW221213   4.812   1.125   3.569
 6772SOL     OW21214   3.317   1.404   5.079
 6772SOL    HW121215   3.299   1.477   5.013
 6772SOL    HW221216   3.415   1.387   5.085
 6773SOL     OW21217   6.674   3.280   2.190
 6773SOL    HW121218   6.683   3.373   2.154
 6773SOL    HW221219   6.762   3.248   2.224
 6774SOL     OW21220   1.529   1.635   6.157
 6774SOL    HW121221   1.483   1.646   6.069
 6774SOL    HW221222   1.477   1.572   6.214
 6775SOL     OW21223   0.147   3.223   0.567
 6775SOL    HW121224   0.195   3.199   0.483
 6775SOL    HW221225   0.135   3.142   0.623
 6776SOL     OW21226   5.906   6.562   6.571
 6776SOL    HW121227   5.947   6.541   6.482
 6776SOL    HW221228   5.978   6.586   6.636
 6777SOL     OW21229   4.466   4.961   6.909
 6777SOL    HW121230   4.509   5.036   6.958
 6777SOL    HW221231   4.366   4.968   6.917
 6778SOL     OW21232   6.579   5.405   3.240
 6778SOL    HW121233   6.630   5.321   3.258
 6778SOL    HW221234   6.561   5.412   3.142
 6779SOL     OW21235   5.285   3.529   6.259
 6779SOL    HW121236   5.365   3.511   6.316
 6779SOL    HW221237   5.293   3.480   6.173
 6780SOL     OW21238   1.008   2.528   1.259
 6780SOL    HW121239   0.938   2.457   1.247
 6780SOL    HW221240   1.054   2.515   1.347
 6781SOL     OW21241   5.720   4.516   5.554
 6781SOL    HW121242   5.677   4.602   5.581
 6781SOL    HW221243   5.721   4.454   5.633
 6782SOL     OW21244   6.221   1.783   3.753
 6782SOL    HW121245   6.164   1.712   3.711
 6782SOL    HW221246   6.239   1.760   3.848
 6783SOL     OW21247   1.268   5.441   6.860
 6783SOL    HW121248   1.230   5.530   6.836
 6783SOL    HW221249   1.300   5.395   6.777
 6784SOL     OW21250   4.467   3.377   0.405
 6784SOL    HW121251   4.431   3.295   0.361
 6784SOL    HW221252   4.391   3.433   0.440
 6785SOL     OW21253   5.533   5.922   1.660
 6785SOL    HW121254   5.553   5.963   1.749
 6785SOL    HW221255   5.434   5.905   1.653
 6786SOL     OW21256   1.670   3.394   5.063
 6786SOL    HW121257   1.739   3.453   5.105
 6786SOL    HW221258   1.653   3.315   5.122
 6787SOL     OW21259   0.915   3.829   2.173
 6787SOL    HW121260   0.836   3.891   2.169
 6787SOL    HW221261   0.894   3.754   2.235
 6788SOL     OW21262   2.724   3.859   0.847
 6788SOL    HW121263   2.793   3.806   0.897
 6788SOL    HW221264   2.769   3.922   0.785
 6789SOL     OW21265   2.122   4.503   3.183
 6789SOL    HW121266   2.098   4.599   3.171
 6789SOL    HW221267   2.155   4.488   3.277
 6790SOL     OW21268   1.123   3.300   0.635
 6790SOL    HW121269   1.099   3.255   0.721
 6790SOL    HW221270   1.190   3.372   0.652
 6791SOL     OW21271   3.797   3.937   5.601
 6791SOL    HW121272   3.772   3.962   5.507
 6791SOL    HW221273   3.870   3.868   5.599
 6792SOL     OW21274   0.485   5.120   0.555
 6792SOL    HW121275   0.428   5.146   0.477
 6792SOL    HW221276   0.561   5.063   0.524
 6793SOL     OW21277   6.005   1.254   1.036
 6793SOL    HW121278   6.049   1.229   1.122
 6793SOL    HW221279   6.066   1.315   0.985
 6794SOL     OW21280   2.925   1.525   4.805
 6794SOL    HW121281   2.945   1.531   4.903
 6794SOL    HW221282   2.901   1.616   4.770
 6795SOL     OW21283   3.723   5.861   6.882
 6795SOL    HW121284   3.643   5.898   6.930
 6795SOL    HW221285   3.714   5.880   6.784
 6796SOL     OW21286   4.370   1.923   2.544
 6796SOL    HW121287   4.440   1.930   2.473
 6796SOL    HW221288   4.332   2.013   2.563
 6797SOL     OW21289   6.464   2.726   2.711
 6797SOL    HW121290   6.382   2.759   2.665
 6797SOL    HW221291   6.543   2.779   2.680
 6798SOL     OW21292   6.456   6.780   2.044
 6798SOL    HW121293   6.422   6.737   2.127
 6798SOL    HW221294   6.554   6.797   2.052
 6799SOL     OW21295   5.183   5.993   2.281
 6799SOL    HW121296   5.190   5.898   2.312
 6799SOL    HW221297   5.209   6.054   2.356
 6800SOL     OW21298   3.732   3.795   6.220
 6800SOL    HW121299   3.797   3.852   6.270
 6800SOL    HW221300   3.676   3.743   6.285
 6801SOL     OW21301   0.611   2.799   3.196
 6801SOL    HW121302   0.581   2.840   3.109
 6801SOL    HW221303   0.710   2.784   3.192
 6802SOL     OW21304   3.132   4.855   2.413
 6802SOL    HW121305   3.205   4.877   2.348
 6802SOL    HW221306   3.049   4.831   2.363
 6803SOL     OW21307   4.293   2.605   7.022
 6803SOL    HW121308   4.319   2.679   0.061
 6803SOL    HW221309   4.193   2.602   7.014
 6804SOL     OW21310   1.627   5.861   3.319
 6804SOL    HW121311   1.589   5.949   3.347
 6804SOL    HW221312   1.687   5.875   3.240
 6805SOL     OW21313   6.157   1.787   5.581
 6805SOL    HW121314   6.098   1.857   5.543
 6805SOL    HW221315   6.134   1.698   5.542
 6806SOL     OW21316   4.880   5.772   5.116
 6806SOL    HW121317   4.807   5.772   5.048
 6806SOL    HW221318   4.892   5.865   5.152
 6807SOL     OW21319   4.352   3.362   6.651
 6807SOL    HW121320   4.253   3.347   6.652
 6807SOL    HW221321   4.386   3.370   6.745
 6808SOL     OW21322   2.632   4.655   3.982
 6808SOL    HW121323   2.691   4.631   3.906
 6808SOL    HW221324   2.559   4.715   3.950
 6809SOL     OW21325   1.331   3.466   0.047
 6809SOL    HW121326   1.367   3.535   0.110
 6809SOL    HW221327   1.234   3.452   0.065
 6810SOL     OW21328   5.943   1.383   3.704
 6810SOL    HW121329   5.920   1.408   3.798
 6810SOL    HW221330   5.999   1.456   3.664
 6811SOL     OW21331   5.435   6.081   2.481
 6811SOL    HW121332   5.466   5.987   2.476
 6811SOL    HW221333   5.499   6.135   2.536
 6812SOL     OW21334   3.831   3.055   2.983
 6812SOL    HW121335   3.891   3.016   2.913
 6812SOL    HW221336   3.808   3.149   2.959
 6813SOL     OW21337   5.402   3.875   1.303
 6813SOL    HW121338   5.342   3.850   1.379
 6813SOL    HW221339   5.376   3.965   1.269
 6814SOL     OW21340   2.300   2.584   0.511
 6814SOL    HW121341   2.292   2.484   0.511
 6814SOL    HW221342   2.392   2.610   0.539
 6815SOL     OW21343   1.700   6.773   0.248
 6815SOL    HW121344   1.646   6.812   0.174
 6815SOL    HW221345   1.742   6.848   0.300
 6816SOL     OW21346   4.961   4.721   1.226
 6816SOL    HW121347   5.009   4.649   1.176
 6816SOL    HW221348   4.874   4.686   1.260
 6817SOL     OW21349   1.845   2.252   5.869
 6817SOL    HW121350   1.930   2.220   5.910
 6817SOL    HW221351   1.796   2.309   5.935
 6818SOL     OW21352   4.443   5.070   1.094
 6818SOL    HW121353   4.352   5.064   1.053
 6818SOL    HW221354   4.435   5.102   1.188
 6819SOL     OW21355   2.476   1.574   3.936
 6819SOL    HW121356   2.513   1.529   3.855
 6819SOL    HW221357   2.551   1.603   3.996
 6820SOL     OW21358   1.752   5.257   4.685
 6820SOL    HW121359   1.678   5.196   4.658
 6820SOL    HW221360   1.770   5.322   4.611
 6821SOL     OW21361   2.315   2.785   3.762
 6821SOL    HW121362   2.275   2.872   3.733
 6821SOL    HW221363   2.268   2.709   3.717
 6822SOL     OW21364   5.322   1.246   5.580
 6822SOL    HW121365   5.258   1.323   5.582
 6822SOL    HW221366   5.291   1.179   5.513
 6823SOL     OW21367   4.125   3.238   2.153
 6823SOL    HW121368   4.222   3.218   2.166
 6823SOL    HW221369   4.091   3.291   2.231
 6824SOL     OW21370   0.609   5.507   5.134
 6824SOL    HW121371   0.514   5.500   5.104
 6824SOL    HW221372   0.633   5.424   5.185
 6825SOL     OW21373   5.663   0.841   4.669
 6825SOL    HW121374   5.697   0.916   4.725
 6825SOL    HW221375   5.657   0.758   4.724
 6826SOL     OW21376   0.860   2.726   3.409
 6826SOL    HW121377   0.851   2.632   3.441
 6826SOL    HW221378   0.863   2.788   3.487
 6827SOL     OW21379   4.218   5.173   4.841
 6827SOL    HW121380   4.301   5.149   4.891
 6827SOL    HW221381   4.140   5.176   4.904
 6828SOL     OW21382   2.367   2.015   1.042
 6828SOL    HW121383   2.347   2.113   1.042
 6828SOL    HW221384   2.459   1.999   1.006
 6829SOL     OW21385   5.714   5.063   3.711
 6829SOL    HW121386   5.619   5.066   3.679
 6829SOL    HW221387   5.717   5.024   3.803
 6830SOL     OW21388   5.261   1.506   3.576
 6830SOL    HW121389   5.286   1.446   3.501
 6830SOL    HW221390   5.324   1.492   3.653
 6831SOL     OW21391   0.710   1.747   6.188
 6831SOL    HW121392   0.738   1.796   6.270
 6831SOL    HW221393   0.731   1.650   6.199
 6832SOL     OW21394   2.387   5.177   1.377
 6832SOL    HW121395   2.448   5.142   1.448
 6832SOL    HW221396   2.317   5.235   1.418
 6833SOL     OW21397   4.341   5.969   6.951
 6833SOL    HW121398   4.321   5.872   6.969
 6833SOL    HW221399   4.284   6.000   6.874
 6834SOL     OW21400   2.438   4.917   2.618
 6834SOL    HW121401   2.442   4.998   2.677
 6834SOL    HW221402   2.348   4.913   2.574
 6835SOL     OW21403   3.474   6.679   4.513
 6835SOL    HW121404   3.440   6.773   4.499
 6835SOL    HW221405   3.549   6.681   4.578
 6836SOL     OW21406   3.896   5.733   0.043
 6836SOL    HW121407   3.817   5.763   7.012
 6836SOL    HW221408   3.877   5.750   0.140
 6837SOL     OW21409   0.429   3.390   2.977
 6837SOL    HW121410   0.465   3.399   2.884
 6837SOL    HW221411   0.452   3.299   3.012
 6838SOL     OW21412   2.498   1.945   0.746
 6838SOL    HW121413   2.525   2.041   0.739
 6838SOL    HW221414   2.401   1.937   0.725
 6839SOL     OW21415   3.599   1.162   2.041
 6839SOL    HW121416   3.535   1.223   1.994
 6839SOL    HW221417   3.556   1.125   2.123
 6840SOL     OW21418   0.737   0.630   5.767
 6840SOL    HW121419   0.650   0.659   5.728
 6840SOL    HW221420   0.779   0.708   5.815
 6841SOL     OW21421   6.982   3.080   5.799
 6841SOL    HW121422   6.959   2.990   5.761
 6841SOL    HW221423   0.058   3.095   5.790
 6842SOL     OW21424   2.640   4.587   2.860
 6842SOL    HW121425   2.617   4.618   2.768
 6842SOL    HW221426   2.560   4.544   2.902
 6843SOL     OW21427   4.560   6.683   1.564
 6843SOL    HW121428   4.482   6.733   1.528
 6843SOL    HW221429   4.596   6.731   1.644
 6844SOL     OW21430   5.619   0.593   5.452
 6844SOL    HW121431   5.680   0.530   5.402
 6844SOL    HW221432   5.654   0.686   5.443
 6845SOL     OW21433   5.394   2.181   2.639
 6845SOL    HW121434   5.411   2.277   2.663
 6845SOL    HW221435   5.427   2.164   2.546
 6846SOL     OW21436   1.776   3.202   6.915
 6846SOL    HW121437   1.775   3.296   6.948
 6846SOL    HW221438   1.761   3.200   6.816
 6847SOL     OW21439   6.908   2.316   3.438
 6847SOL    HW121440   6.837   2.245   3.443
 6847SOL    HW221441   6.867   2.402   3.410
 6848SOL     OW21442   6.675   5.045   4.055
 6848SOL    HW121443   6.734   5.025   4.134
 6848SOL    HW221444   6.658   4.961   4.005
 6849SOL     OW21445   3.161   4.124   5.282
 6849SOL    HW121446   3.068   4.097   5.309
 6849SOL    HW221447   3.198   4.057   5.218
 6850SOL     OW21448   5.277   0.944   4.840
 6850SOL    HW121449   5.364   0.981   4.872
 6850SOL    HW221450   5.270   0.848   4.867
 6851SOL     OW21451   1.824   4.265   3.437
 6851SOL    HW121452   1.893   4.269   3.510
 6851SOL    HW221453   1.857   4.206   3.364
 6852SOL     OW21454   4.620   2.901   0.754
 6852SOL    HW121455   4.677   2.827   0.721
 6852SOL    HW221456   4.675   2.965   0.807
 6853SOL     OW21457   4.566   5.361   5.784
 6853SOL    HW121458   4.473   5.361   5.747
 6853SOL    HW221459   4.569   5.414   5.868
 6854SOL     OW21460   5.047   6.220   5.327
 6854SOL    HW121461   5.124   6.201   5.266
 6854SOL    HW221462   5.074   6.204   5.422
 6855SOL     OW21463   3.621   5.408   2.640
 6855SOL    HW121464   3.613   5.382   2.543
 6855SOL    HW221465   3.546   5.366   2.691
 6856SOL     OW21466   6.457   2.724   0.763
 6856SOL    HW121467   6.496   2.736   0.671
 6856SOL    HW221468   6.522   2.675   0.820
 6857SOL     OW21469   1.904   4.851   6.312
 6857SOL    HW121470   1.983   4.878   6.367
 6857SOL    HW221471   1.926   4.769   6.259
 6858SOL     OW21472   1.171   3.581   2.012
 6858SOL    HW121473   1.155   3.680   2.002
 6858SOL    HW221474   1.189   3.560   2.108
 6859SOL     OW21475   2.634   2.439   0.707
 6859SOL    HW121476   2.601   2.487   0.788
 6859SOL    HW221477   2.582   2.468   0.627
 6860SOL     OW21478   0.422   0.026   6.924
 6860SOL    HW121479   0.502   0.082   6.907
 6860SOL    HW221480   0.393   0.037   7.019
 6861SOL     OW21481   6.473   3.508   6.852
 6861SOL    HW121482   6.554   3.540   6.803
 6861SOL    HW221483   6.399   3.490   6.787
 6862SOL     OW21484   0.827   4.854   3.306
 6862SOL    HW121485   0.907   4.847   3.366
 6862SOL    HW221486   0.836   4.789   3.230
 6863SOL     OW21487   5.132   1.137   5.804
 6863SOL    HW121488   5.145   1.100   5.896
 6863SOL    HW221489   5.145   1.064   5.736
 6864SOL     OW21490   2.235   3.319   6.306
 6864SOL    HW121491   2.159   3.345   6.246
 6864SOL    HW221492   2.261   3.397   6.362
 6865SOL     OW21493   1.660   0.639   2.976
 6865SOL    HW121494   1.638   0.727   3.017
 6865SOL    HW221495   1.639   0.565   3.040
 6866SOL     OW21496   2.180   4.983   6.798
 6866SOL    HW121497   2.194   4.893   6.839
 6866SOL    HW221498   2.268   5.024   6.778
 6867SOL     OW21499   1.827   2.436   6.323
 6867SOL    HW121500   1.817   2.347   6.280
 6867SOL    HW221501   1.802   2.429   6.420
 6868SOL     OW21502   3.858   5.281   3.252
 6868SOL    HW121503   3.785   5.318   3.311
 6868SOL    HW221504   3.821   5.206   3.197
 6869SOL     OW21505   1.358   0.314   5.407
 6869SOL    HW121506   1.398   0.257   5.335
 6869SOL    HW221507   1.426   0.381   5.439
 6870SOL     OW21508   5.961   3.095   6.667
 6870SOL    HW121509   6.015   3.131   6.744
 6870SOL    HW221510   5.898   3.024   6.701
 6871SOL     OW21511   6.052   2.289   3.118
 6871SOL    HW121512   6.018   2.207   3.072
 6871SOL    HW221513   6.042   2.278   3.217
 6872SOL     OW21514   1.477   5.160   0.854
 6872SOL    HW121515   1.544   5.147   0.781
 6872SOL    HW221516   1.432   5.072   0.873
 6873SOL     OW21517   0.648   3.852   2.236
 6873SOL    HW121518   0.668   3.801   2.320
 6873SOL    HW221519   0.562   3.902   2.247
 6874SOL     OW21520   3.914   5.948   1.806
 6874SOL    HW121521   3.909   5.966   1.708
 6874SOL    HW221522   4.010   5.936   1.833
 6875SOL     OW21523   2.986   1.211   6.261
 6875SOL    HW121524   2.979   1.306   6.292
 6875SOL    HW221525   3.075   1.174   6.289
 6876SOL     OW21526   5.673   5.627   3.189
 6876SOL    HW121527   5.717   5.608   3.277
 6876SOL    HW221528   5.731   5.690   3.136
 6877SOL     OW21529   0.991   4.418   1.371
 6877SOL    HW121530   0.904   4.372   1.353
 6877SOL    HW221531   1.047   4.361   1.431
 6878SOL     OW21532   1.820   0.660   3.665
 6878SOL    HW121533   1.765   0.638   3.584
 6878SOL    HW221534   1.855   0.576   3.705
 6879SOL     OW21535   1.327   1.598   1.218
 6879SOL    HW121536   1.280   1.553   1.293
 6879SOL    HW221537   1.323   1.541   1.136
 6880SOL     OW21538   1.896   6.656   0.116
 6880SOL    HW121539   1.949   6.737   0.094
 6880SOL    HW221540   1.809   6.683   0.159
 6881SOL     OW21541   0.024   3.536   1.292
 6881SOL    HW121542   7.018   3.441   1.280
 6881SOL    HW221543   0.074   3.565   1.210
 6882SOL     OW21544   2.611   6.193   7.020
 6882SOL    HW121545   2.524   6.178   0.045
 6882SOL    HW221546   2.671   6.250   0.053
 6883SOL     OW21547   4.796   6.739   1.111
 6883SOL    HW121548   4.884   6.749   1.064
 6883SOL    HW221549   4.810   6.750   1.210
 6884SOL     OW21550   1.207   5.060   3.385
 6884SOL    HW121551   1.225   5.039   3.289
 6884SOL    HW221552   1.288   5.040   3.439
 6885SOL     OW21553   5.647   5.159   4.567
 6885SOL    HW121554   5.714   5.177   4.495
 6885SOL    HW221555   5.556   5.184   4.535
 6886SOL     OW21556   5.846   3.678   0.678
 6886SOL    HW121557   5.776   3.737   0.637
 6886SOL    HW221558   5.823   3.582   0.661
 6887SOL     OW21559   5.274   6.771   5.392
 6887SOL    HW121560   5.211   6.735   5.323
 6887SOL    HW221561   5.224   6.832   5.453
 6888SOL     OW21562   6.656   4.027   1.114
 6888SOL    HW121563   6.637   4.073   1.027
 6888SOL    HW221564   6.717   4.083   1.169
 6889SOL     OW21565   0.878   2.695   5.561
 6889SOL    HW121566   0.808   2.706   5.490
 6889SOL    HW221567   0.882   2.599   5.589
 6890SOL     OW21568   4.632   4.515   4.011
 6890SOL    HW121569   4.616   4.584   4.083
 6890SOL    HW221570   4.657   4.429   4.054
 6891SOL     OW21571   1.396   1.158   1.173
 6891SOL    HW121572   1.494   1.173   1.169
 6891SOL    HW221573   1.348   1.239   1.139
 6892SOL     OW21574   1.505   0.840   5.430
 6892SOL    HW121575   1.427   0.839   5.493
 6892SOL    HW221576   1.584   0.880   5.476
 6893SOL     OW21577   5.595   3.038   0.795
 6893SOL    HW121578   5.592   3.137   0.807
 6893SOL    HW221579   5.554   2.994   0.875
 6894SOL     OW21580   5.693   5.364   6.868
 6894SOL    HW121581   5.617   5.423   6.898
 6894SOL    HW221582   5.778   5.417   6.868
 6895SOL     OW21583   1.442   5.449   2.430
 6895SOL    HW121584   1.392   5.373   2.471
 6895SOL    HW221585   1.399   5.535   2.458
 6896SOL     OW21586   5.161   0.991   6.296
 6896SOL    HW121587   5.219   0.923   6.342
 6896SOL    HW221588   5.067   0.978   6.325
 6897SOL     OW21589   4.231   2.217   4.842
 6897SOL    HW121590   4.182   2.292   4.887
 6897SOL    HW221591   4.166   2.161   4.790
 6898SOL     OW21592   1.927   6.799   1.472
 6898SOL    HW121593   1.880   6.711   1.468
 6898SOL    HW221594   1.866   6.869   1.510
 6899SOL     OW21595   5.231   5.097   2.948
 6899SOL    HW121596   5.194   5.061   3.034
 6899SOL    HW221597   5.305   5.161   2.967
 6900SOL     OW21598   6.990   4.080   4.755
 6900SOL    HW121599   6.915   4.076   4.690
 6900SOL    HW221600   0.035   4.146   4.723
 6901SOL     OW21601   5.525   4.092   6.807
 6901SOL    HW121602   5.458   4.121   6.876
 6901SOL    HW221603   5.499   4.002   6.772
 6902SOL     OW21604   0.281   5.872   5.655
 6902SOL    HW121605   0.208   5.912   5.600
 6902SOL    HW221606   0.369   5.889   5.612
 6903SOL     OW21607   1.136   6.451   5.351
 6903SOL    HW121608   1.144   6.542   5.392
 6903SOL    HW221609   1.041   6.420   5.359
 6904SOL     OW21610   0.322   0.126   6.251
 6904SOL    HW121611   0.265   0.208   6.262
 6904SOL    HW221612   0.398   0.129   6.317
 6905SOL     OW21613   4.483   5.990   5.166
 6905SOL    HW121614   4.412   6.022   5.104
 6905SOL    HW221615   4.484   6.047   5.248
 6906SOL     OW21616   2.847   1.709   3.012
 6906SOL    HW121617   2.868   1.805   3.031
 6906SOL    HW221618   2.832   1.660   3.098
 6907SOL     OW21619   5.395   3.117   0.182
 6907SOL    HW121620   5.487   3.121   0.142
 6907SOL    HW221621   5.333   3.174   0.129
 6908SOL     OW21622   4.098   5.741   0.824
 6908SOL    HW121623   4.069   5.744   0.728
 6908SOL    HW221624   4.051   5.813   0.875
 6909SOL     OW21625   5.458   4.750   3.034
 6909SOL    HW121626   5.536   4.718   2.979
 6909SOL    HW221627   5.373   4.730   2.986
 6910SOL     OW21628   1.689   2.590   2.097
 6910SOL    HW121629   1.740   2.513   2.059
 6910SOL    HW221630   1.591   2.576   2.080
 6911SOL     OW21631   2.394   6.856   5.176
 6911SOL    HW121632   2.417   6.919   5.102
 6911SOL    HW221633   2.298   6.867   5.200
 6912SOL     OW21634   2.512   4.246   6.501
 6912SOL    HW121635   2.427   4.285   6.538
 6912SOL    HW221636   2.547   4.306   6.429
 6913SOL     OW21637   4.330   5.790   5.865
 6913SOL    HW121638   4.402   5.745   5.812
 6913SOL    HW221639   4.319   5.884   5.832
 6914SOL     OW21640   0.714   2.228   2.196
 6914SOL    HW121641   0.745   2.173   2.119
 6914SOL    HW221642   0.783   2.227   2.268
 6915SOL     OW21643   6.269   3.377   4.342
 6915SOL    HW121644   6.317   3.401   4.257
 6915SOL    HW221645   6.213   3.296   4.326
 6916SOL     OW21646   4.546   5.874   5.548
 6916SOL    HW121647   4.487   5.804   5.507
 6916SOL    HW221648   4.542   5.957   5.493
 6917SOL     OW21649   3.642   5.594   1.918
 6917SOL    HW121650   3.657   5.511   1.972
 6917SOL    HW221651   3.607   5.667   1.977
 6918SOL     OW21652   1.844   3.829   6.785
 6918SOL    HW121653   1.902   3.847   6.706
 6918SOL    HW221654   1.890   3.764   6.846
 6919SOL     OW21655   6.288   6.289   3.361
 6919SOL    HW121656   6.318   6.250   3.448
 6919SOL    HW221657   6.368   6.317   3.308
 6920SOL     OW21658   0.417   2.940   5.424
 6920SOL    HW121659   0.393   3.035   5.401
 6920SOL    HW221660   0.503   2.939   5.475
 6921SOL     OW21661   3.579   0.456   5.227
 6921SOL    HW121662   3.581   0.369   5.177
 6921SOL    HW221663   3.484   0.486   5.239
 6922SOL     OW21664   3.064   4.467   6.415
 6922SOL    HW121665   3.041   4.523   6.335
 6922SOL    HW221666   3.148   4.417   6.398
 6923SOL     OW21667   5.233   7.008   3.425
 6923SOL    HW121668   5.297   0.010   3.352
 6923SOL    HW221669   5.253   6.916   3.458
 6924SOL     OW21670   2.586   5.400   1.620
 6924SOL    HW121671   2.558   5.314   1.576
 6924SOL    HW221672   2.514   5.431   1.682
 6925SOL     OW21673   6.441   6.646   4.678
 6925SOL    HW121674   6.409   6.740   4.690
 6925SOL    HW221675   6.402   6.608   4.594
 6926SOL     OW21676   2.885   2.583   0.278
 6926SOL    HW121677   2.857   2.677   0.300
 6926SOL    HW221678   2.976   2.566   0.315
 6927SOL     OW21679   3.401   6.352   5.540
 6927SOL    HW121680   3.470   6.282   5.521
 6927SOL    HW221681   3.383   6.356   5.639
 6928SOL     OW21682   4.300   5.559   0.854
 6928SOL    HW121683   4.238   5.637   0.850
 6928SOL    HW221684   4.348   5.551   0.767
 6929SOL     OW21685   5.033   5.797   3.251
 6929SOL    HW121686   5.062   5.892   3.251
 6929SOL    HW221687   5.055   5.755   3.339
 6930SOL     OW21688   0.568   6.116   1.920
 6930SOL    HW121689   0.659   6.093   1.885
 6930SOL    HW221690   0.500   6.056   1.878
 6931SOL     OW21691   3.902   3.043   0.259
 6931SOL    HW121692   3.927   3.048   0.163
 6931SOL    HW221693   3.963   3.102   0.313
 6932SOL     OW21694   3.959   1.074   0.231
 6932SOL    HW121695   3.916   1.038   0.148
 6932SOL    HW221696   3.894   1.133   0.279
 6933SOL     OW21697   3.960   6.104   5.918
 6933SOL    HW121698   3.931   6.095   5.822
 6933SOL    HW221699   3.910   6.179   5.961
 6934SOL     OW21700   4.347   5.418   0.172
 6934SOL    HW121701   4.358   5.419   0.073
 6934SOL    HW221702   4.250   5.410   0.195
 6935SOL     OW21703   4.388   5.249   2.723
 6935SOL    HW121704   4.426   5.157   2.712
 6935SOL    HW221705   4.290   5.248   2.702
 6936SOL     OW21706   0.970   1.526   6.983
 6936SOL    HW121707   0.975   1.453   0.028
 6936SOL    HW221708   0.934   1.489   6.897
 6937SOL     OW21709   6.583   4.422   0.012
 6937SOL    HW121710   6.543   4.436   0.103
 6937SOL    HW221711   6.566   4.327   7.006
 6938SOL     OW21712   2.848   6.934   5.340
 6938SOL    HW121713   2.858   6.957   5.243
 6938SOL    HW221714   2.906   6.995   5.395
 6939SOL     OW21715   5.791   2.978   3.178
 6939SOL    HW121716   5.807   2.918   3.100
 6939SOL    HW221717   5.694   3.003   3.182
 6940SOL     OW21718   1.184   6.164   1.587
 6940SOL    HW121719   1.138   6.253   1.596
 6940SOL    HW221720   1.266   6.164   1.644
 6941SOL     OW21721   3.821   2.903   2.241
 6941SOL    HW121722   3.878   2.953   2.307
 6941SOL    HW221723   3.845   2.806   2.242
 6942SOL     OW21724   0.007   5.100   2.699
 6942SOL    HW121725   6.992   5.190   2.678
 6942SOL    HW221726   0.089   5.110   2.755
 6943SOL     OW21727   3.237   5.443   5.263
 6943SOL    HW121728   3.228   5.380   5.186
 6943SOL    HW221729   3.173   5.417   5.335
 6944SOL     OW21730   0.700   5.028   5.682
 6944SOL    HW121731   0.725   5.023   5.586
 6944SOL    HW221732   0.664   5.119   5.703
 6945SOL     OW21733   4.330   2.079   0.763
 6945SOL    HW121734   4.234   2.096   0.742
 6945SOL    HW221735   4.384   2.088   0.679
 6946SOL     OW21736   5.763   5.280   3.990
 6946SOL    HW121737   5.671   5.310   4.013
 6946SOL    HW221738   5.789   5.319   3.901
 6947SOL     OW21739   6.355   3.692   5.535
 6947SOL    HW121740   6.297   3.732   5.464
 6947SOL    HW221741   6.344   3.593   5.536
 6948SOL     OW21742   0.044   5.294   6.443
 6948SOL    HW121743   0.037   5.379   6.494
 6948SOL    HW221744   0.140   5.273   6.425
 6949SOL     OW21745   2.318   1.236   3.198
 6949SOL    HW121746   2.255   1.312   3.215
 6949SOL    HW221747   2.394   1.242   3.262
 6950SOL     OW21748   1.659   1.301   4.655
 6950SOL    HW121749   1.710   1.216   4.640
 6950SOL    HW221750   1.631   1.339   4.566
 6951SOL     OW21751   1.115   3.681   0.453
 6951SOL    HW121752   1.126   3.777   0.427
 6951SOL    HW221753   1.159   3.622   0.385
 6952SOL     OW21754   4.088   4.780   3.323
 6952SOL    HW121755   4.032   4.830   3.257
 6952SOL    HW221756   4.043   4.782   3.413
 6953SOL     OW21757   0.701   0.792   1.966
 6953SOL    HW121758   0.761   0.798   2.046
 6953SOL    HW221759   0.606   0.786   1.997
 6954SOL     OW21760   6.420   5.444   6.045
 6954SOL    HW121761   6.424   5.354   6.002
 6954SOL    HW221762   6.327   5.464   6.075
 6955SOL     OW21763   3.866   5.417   2.691
 6955SOL    HW121764   3.901   5.330   2.725
 6955SOL    HW221765   3.769   5.408   2.668
 6956SOL     OW21766   5.992   4.891   2.712
 6956SOL    HW121767   5.961   4.959   2.778
 6956SOL    HW221768   6.046   4.936   2.641
 6957SOL     OW21769   5.644   3.878   5.338
 6957SOL    HW121770   5.731   3.870   5.290
 6957SOL    HW221771   5.574   3.913   5.275
 6958SOL     OW21772   3.470   3.891   1.577
 6958SOL    HW121773   3.390   3.831   1.571
 6958SOL    HW221774   3.441   3.986   1.567
 6959SOL     OW21775   0.473   3.153   3.120
 6959SOL    HW121776   0.429   3.074   3.078
 6959SOL    HW221777   0.571   3.138   3.125
 6960SOL     OW21778   5.182   4.520   1.215
 6960SOL    HW121779   5.161   4.547   1.309
 6960SOL    HW221780   5.157   4.425   1.200
 6961SOL     OW21781   4.967   2.674   4.442
 6961SOL    HW121782   5.005   2.637   4.357
 6961SOL    HW221783   4.999   2.619   4.519
 6962SOL     OW21784   2.695   6.768   0.832
 6962SOL    HW121785   2.637   6.709   0.776
 6962SOL    HW221786   2.638   6.817   0.898
 6963SOL     OW21787   1.224   6.842   6.652
 6963SOL    HW121788   1.145   6.874   6.705
 6963SOL    HW221789   1.199   6.836   6.555
 6964SOL     OW21790   2.089   1.079   5.755
 6964SOL    HW121791   2.162   1.058   5.690
 6964SOL    HW221792   2.127   1.133   5.831
 6965SOL     OW21793   1.711   1.187   0.205
 6965SOL    HW121794   1.637   1.179   0.271
 6965SOL    HW221795   1.700   1.271   0.152
 6966SOL     OW21796   1.273   6.324   0.964
 6966SOL    HW121797   1.275   6.423   0.952
 6966SOL    HW221798   1.297   6.279   0.878
 6967SOL     OW21799   3.780   6.892   6.784
 6967SOL    HW121800   3.835   6.878   6.701
 6967SOL    HW221801   3.751   6.988   6.788
 6968SOL     OW21802   4.038   0.656   2.427
 6968SOL    HW121803   4.122   0.635   2.479
 6968SOL    HW221804   4.061   0.713   2.348
 6969SOL     OW21805   1.461   2.987   2.846
 6969SOL    HW121806   1.456   2.908   2.786
 6969SOL    HW221807   1.397   3.058   2.814
 6970SOL     OW21808   3.667   5.985   6.100
 6970SOL    HW121809   3.671   6.034   6.013
 6970SOL    HW221810   3.669   5.886   6.084
 6971SOL     OW21811   0.093   4.222   0.073
 6971SOL    HW121812   0.006   4.254   0.111
 6971SOL    HW221813   0.098   4.122   0.083
 6972SOL     OW21814   5.941   3.919   1.327
 6972SOL    HW121815   5.987   3.948   1.244
 6972SOL    HW221816   5.968   3.978   1.403
 6973SOL     OW21817   0.755   1.280   3.132
 6973SOL    HW121818   0.691   1.327   3.071
 6973SOL    HW221819   0.792   1.345   3.198
 6974SOL     OW21820   4.122   3.647   3.087
 6974SOL    HW121821   4.193   3.580   3.068
 6974SOL    HW221822   4.115   3.661   3.186
 6975SOL     OW21823   3.197   5.233   5.059
 6975SOL    HW121824   3.292   5.204   5.047
 6975SOL    HW221825   3.143   5.159   5.098
 6976SOL     OW21826   5.037   4.715   6.079
 6976SOL    HW121827   5.121   4.669   6.111
 6976SOL    HW221828   4.958   4.660   6.104
 6977SOL     OW21829   4.008   4.814   2.347
 6977SOL    HW121830   4.058   4.887   2.299
 6977SOL    HW221831   3.931   4.784   2.291
 6978SOL     OW21832   0.917   3.321   1.481
 6978SOL    HW121833   0.939   3.375   1.400
 6978SOL    HW221834   0.956   3.230   1.471
 6979SOL     OW21835   0.609   3.813   2.602
 6979SOL    HW121836   0.596   3.741   2.534
 6979SOL    HW221837   0.618   3.772   2.692
 6980SOL     OW21838   2.473   4.452   3.197
 6980SOL    HW121839   2.540   4.453   3.122
 6980SOL    HW221840   2.431   4.542   3.205
 6981SOL     OW21841   4.131   2.957   6.846
 6981SOL    HW121842   4.059   2.981   6.911
 6981SOL    HW221843   4.216   3.002   6.872
 6982SOL     OW21844   6.778   6.523   1.816
 6982SOL    HW121845   6.687   6.540   1.778
 6982SOL    HW221846   6.770   6.464   1.896
 6983SOL     OW21847   6.894   0.773   3.801
 6983SOL    HW121848   6.842   0.689   3.815
 6983SOL    HW221849   6.921   0.810   3.890
 6984SOL     OW21850   1.633   4.350   3.632
 6984SOL    HW121851   1.672   4.343   3.541
 6984SOL    HW221852   1.575   4.271   3.650
 6985SOL     OW21853   5.449   3.585   1.095
 6985SOL    HW121854   5.354   3.602   1.071
 6985SOL    HW221855   5.470   3.488   1.084
 6986SOL     OW21856   4.134   5.872   5.067
 6986SOL    HW121857   4.152   5.842   4.973
 6986SOL    HW221858   4.127   5.792   5.127
 6987SOL     OW21859   0.153   1.457   6.919
 6987SOL    HW121860   0.107   1.409   6.844
 6987SOL    HW221861   0.220   1.397   6.962
 6988SOL     OW21862   1.266   0.668   6.158
 6988SOL    HW121863   1.230   0.682   6.065
 6988SOL    HW221864   1.359   0.704   6.163
 6989SOL     OW21865   0.638   3.319   2.300
 6989SOL    HW121866   0.685   3.239   2.337
 6989SOL    HW221867   0.683   3.348   2.215
 6990SOL     OW21868   3.672   5.150   6.809
 6990SOL    HW121869   3.616   5.135   6.890
 6990SOL    HW221870   3.624   5.115   6.728
 6991SOL     OW21871   5.402   4.028   3.701
 6991SOL    HW121872   5.429   3.991   3.613
 6991SOL    HW221873   5.352   4.114   3.688
 6992SOL     OW21874   1.924   5.454   6.052
 6992SOL    HW121875   1.860   5.528   6.074
 6992SOL    HW221876   2.018   5.489   6.056
 6993SOL     OW21877   4.251   2.334   1.689
 6993SOL    HW121878   4.247   2.316   1.591
 6993SOL    HW221879   4.255   2.247   1.738
 6994SOL     OW21880   2.772   0.770   3.102
 6994SOL    HW121881   2.869   0.755   3.120
 6994SOL    HW221882   2.718   0.741   3.181
 6995SOL     OW21883   6.933   5.314   0.640
 6995SOL    HW121884   6.987   5.237   0.676
 6995SOL    HW221885   6.875   5.281   0.565
 6996SOL     OW21886   1.309   1.713   6.388
 6996SOL    HW121887   1.363   1.631   6.409
 6996SOL    HW221888   1.329   1.741   6.294
 6997SOL     OW21889   5.985   6.032   5.976
 6997SOL    HW121890   5.954   6.116   5.932
 6997SOL    HW221891   5.907   5.986   6.019
 6998SOL     OW21892   0.395   1.074   6.752
 6998SOL    HW121893   0.335   1.070   6.672
 6998SOL    HW221894   0.457   0.996   6.752
 6999SOL     OW21895   0.397   2.871   0.010
 6999SOL    HW121896   0.332   2.902   0.079
 6999SOL    HW221897   0.476   2.829   0.054
 7000SOL     OW21898   0.961   5.015   3.103
 7000SOL    HW121899   0.916   5.003   3.191
 7000SOL    HW221900   1.060   5.002   3.114
 7001SOL     OW21901   1.060   1.085   4.095
 7001SOL    HW121902   1.043   1.026   4.175
 7001SOL    HW221903   1.105   1.031   4.024
 7002SOL     OW21904   1.469   4.701   3.195
 7002SOL    HW121905   1.510   4.764   3.129
 7002SOL    HW221906   1.490   4.730   3.288
 7003SOL     OW21907   0.490   5.171   6.417
 7003SOL    HW121908   0.408   5.147   6.365
 7003SOL    HW221909   0.507   5.269   6.410
 7004SOL     OW21910   1.303   0.877   6.699
 7004SOL    HW121911   1.249   0.952   6.737
 7004SOL    HW221912   1.276   0.860   6.605
 7005SOL     OW21913   1.344   5.257   0.201
 7005SOL    HW121914   1.399   5.176   0.181
 7005SOL    HW221915   1.250   5.241   0.173
 7006SOL     OW21916   0.701   0.234   3.905
 7006SOL    HW121917   0.621   0.258   3.960
 7006SOL    HW221918   0.723   0.309   3.843
 7007SOL     OW21919   2.084   6.325   6.269
 7007SOL    HW121920   2.170   6.366   6.299
 7007SOL    HW221921   2.103   6.252   6.203
 7008SOL     OW21922   5.861   3.135   2.467
 7008SOL    HW121923   5.765   3.123   2.491
 7008SOL    HW221924   5.869   3.202   2.393
 7009SOL     OW21925   5.647   5.328   2.231
 7009SOL    HW121926   5.654   5.419   2.189
 7009SOL    HW221927   5.737   5.300   2.265
 7010SOL     OW21928   5.231   2.409   3.065
 7010SOL    HW121929   5.297   2.342   3.032
 7010SOL    HW221930   5.139   2.370   3.060
 7011SOL     OW21931   2.397   5.706   6.682
 7011SOL    HW121932   2.306   5.690   6.643
 7011SOL    HW221933   2.444   5.776   6.628
 7012SOL     OW21934   0.373   3.840   0.405
 7012SOL    HW121935   0.420   3.762   0.445
 7012SOL    HW221936   0.407   3.925   0.445
 7013SOL     OW21937   2.724   2.687   6.903
 7013SOL    HW121938   2.699   2.706   6.808
 7013SOL    HW221939   2.645   2.707   6.962
 7014SOL     OW21940   6.507   3.555   0.870
 7014SOL    HW121941   6.484   3.520   0.779
 7014SOL    HW221942   6.442   3.627   0.895
 7015SOL     OW21943   6.036   6.321   1.539
 7015SOL    HW121944   6.102   6.256   1.501
 7015SOL    HW221945   6.055   6.412   1.503
 7016SOL     OW21946   3.239   5.383   1.057
 7016SOL    HW121947   3.286   5.305   1.016
 7016SOL    HW221948   3.232   5.370   1.156
 7017SOL     OW21949   5.956   4.020   6.790
 7017SOL    HW121950   5.943   4.103   6.844
 7017SOL    HW221951   6.053   4.010   6.767
 7018SOL     OW21952   6.108   3.162   4.257
 7018SOL    HW121953   6.034   3.204   4.309
 7018SOL    HW221954   6.069   3.115   4.177
 7019SOL     OW21955   3.185   6.420   2.916
 7019SOL    HW121956   3.200   6.376   2.828
 7019SOL    HW221957   3.129   6.361   2.974
 7020SOL     OW21958   6.558   1.730   0.862
 7020SOL    HW121959   6.546   1.645   0.812
 7020SOL    HW221960   6.642   1.727   0.915
 7021SOL     OW21961   0.658   2.373   4.596
 7021SOL    HW121962   0.581   2.394   4.655
 7021SOL    HW221963   0.635   2.393   4.501
 7022SOL     OW21964   1.988   3.884   1.070
 7022SOL    HW121965   2.018   3.806   1.016
 7022SOL    HW221966   1.986   3.859   1.167
 7023SOL     OW21967   6.870   2.158   0.915
 7023SOL    HW121968   6.836   2.133   1.006
 7023SOL    HW221969   6.805   2.128   0.845
 7024SOL     OW21970   3.434   4.363   5.353
 7024SOL    HW121971   3.341   4.348   5.389
 7024SOL    HW221972   3.500   4.319   5.414
 7025SOL     OW21973   3.421   0.885   0.972
 7025SOL    HW121974   3.325   0.881   0.943
 7025SOL    HW221975   3.466   0.798   0.952
 7026SOL     OW21976   2.864   2.501   1.413
 7026SOL    HW121977   2.917   2.424   1.378
 7026SOL    HW221978   2.926   2.578   1.432
 7027SOL     OW21979   2.568   4.125   0.619
 7027SOL    HW121980   2.549   4.222   0.636
 7027SOL    HW221981   2.648   4.097   0.673
 7028SOL     OW21982   2.875   0.608   2.399
 7028SOL    HW121983   2.844   0.703   2.398
 7028SOL    HW221984   2.959   0.600   2.346
 7029SOL     OW21985   3.247   3.872   3.305
 7029SOL    HW121986   3.206   3.870   3.396
 7029SOL    HW221987   3.346   3.865   3.313
 7030SOL     OW21988   5.372   6.983   5.048
 7030SOL    HW121989   5.426   6.898   5.043
 7030SOL    HW221990   5.293   6.976   4.987
 7031SOL     OW21991   5.788   4.971   0.376
 7031SOL    HW121992   5.853   4.908   0.419
 7031SOL    HW221993   5.837   5.030   0.312
 7032SOL     OW21994   3.729   4.889   3.977
 7032SOL    HW121995   3.690   4.905   4.068
 7032SOL    HW221996   3.685   4.809   3.936
 7033SOL     OW21997   2.282   1.785   5.447
 7033SOL    HW121998   2.331   1.871   5.459
 7033SOL    HW221999   2.232   1.763   5.530
 7034SOL     OW22000   6.258   2.461   2.474
 7034SOL    HW122001   6.245   2.427   2.567
 7034SOL    HW222002   6.172   2.452   2.423
 7035SOL     OW22003   3.982   2.677   1.193
 7035SOL    HW122004   4.025   2.763   1.169
 7035SOL    HW222005   3.894   2.669   1.145
 7036SOL     OW22006   6.850   1.687   1.802
 7036SOL    HW122007   6.899   1.772   1.825
 7036SOL    HW222008   6.835   1.634   1.885
 7037SOL     OW22009   0.516   1.316   5.788
 7037SOL    HW122010   0.446   1.385   5.804
 7037SOL    HW222011   0.473   1.232   5.755
 7038SOL     OW22012   0.959   4.084   0.501
 7038SOL    HW122013   0.875   4.056   0.547
 7038SOL    HW222014   0.935   4.135   0.417
 7039SOL     OW22015   6.801   0.482   1.959
 7039SOL    HW122016   6.742   0.499   2.038
 7039SOL    HW222017   6.888   0.442   1.989
 7040SOL     OW22018   4.941   3.263   4.672
 7040SOL    HW122019   4.911   3.188   4.731
 7040SOL    HW222020   5.007   3.229   4.605
 7041SOL     OW22021   0.997   6.883   2.674
 7041SOL    HW122022   1.043   6.795   2.662
 7041SOL    HW222023   1.066   6.955   2.680
 7042SOL     OW22024   5.021   5.278   5.074
 7042SOL    HW122025   5.000   5.373   5.095
 7042SOL    HW222026   5.098   5.247   5.131
 7043SOL     OW22027   2.095   5.924   0.526
 7043SOL    HW122028   2.195   5.928   0.536
 7043SOL    HW222029   2.068   5.980   0.447
 7044SOL     OW22030   4.455   6.699   5.209
 7044SOL    HW122031   4.492   6.613   5.173
 7044SOL    HW222032   4.380   6.680   5.272
 7045SOL     OW22033   5.476   0.084   1.501
 7045SOL    HW122034   5.572   0.078   1.529
 7045SOL    HW222035   5.440   0.175   1.524
 7046SOL     OW22036   2.749   1.132   2.578
 7046SOL    HW122037   2.803   1.092   2.652
 7046SOL    HW222038   2.686   1.200   2.615
 7047SOL     OW22039   1.517   6.998   0.700
 7047SOL    HW122040   1.593   6.935   0.715
 7047SOL    HW222041   1.431   6.954   0.725
 7048SOL     OW22042   0.480   5.583   4.522
 7048SOL    HW122043   0.449   5.530   4.601
 7048SOL    HW222044   0.451   5.678   4.533
 7049SOL     OW22045   2.438   1.296   5.098
 7049SOL    HW122046   2.426   1.395   5.086
 7049SOL    HW222047   2.419   1.272   5.193
 7050SOL     OW22048   4.188   4.456   0.496
 7050SOL    HW122049   4.123   4.445   0.421
 7050SOL    HW222050   4.255   4.382   0.493
 7051SOL     OW22051   2.050   1.000   2.042
 7051SOL    HW122052   2.054   1.063   2.120
 7051SOL    HW222053   2.083   0.910   2.070
 7052SOL     OW22054   5.147   2.027   2.654
 7052SOL    HW122055   5.205   2.108   2.654
 7052SOL    HW222056   5.182   1.960   2.588
 7053SOL     OW22057   0.538   4.492   3.601
 7053SOL    HW122058   0.501   4.583   3.619
 7053SOL    HW222059   0.525   4.434   3.681
 7054SOL     OW22060   5.646   6.746   0.731
 7054SOL    HW122061   5.652   6.665   0.789
 7054SOL    HW222062   5.557   6.747   0.685
 7055SOL     OW22063   2.047   0.336   6.890
 7055SOL    HW122064   2.055   0.320   6.988
 7055SOL    HW222065   1.996   0.420   6.873
 7056SOL     OW22066   0.291   5.466   1.251
 7056SOL    HW122067   0.288   5.468   1.151
 7056SOL    HW222068   0.344   5.544   1.284
 7057SOL     OW22069   3.092   5.261   4.794
 7057SOL    HW122070   3.006   5.311   4.806
 7057SOL    HW222071   3.158   5.294   4.861
 7058SOL     OW22072   5.850   2.826   5.757
 7058SOL    HW122073   5.865   2.893   5.684
 7058SOL    HW222074   5.835   2.736   5.716
 7059SOL     OW22075   1.630   0.797   4.771
 7059SOL    HW122076   1.598   0.887   4.800
 7059SOL    HW222077   1.553   0.745   4.734
 7060SOL     OW22078   2.710   2.185   1.116
 7060SOL    HW122079   2.806   2.194   1.142
 7060SOL    HW222080   2.673   2.100   1.155
 7061SOL     OW22081   1.679   0.191   1.174
 7061SOL    HW122082   1.692   0.254   1.251
 7061SOL    HW222083   1.606   0.225   1.115
 7062SOL     OW22084   3.537   0.972   5.332
 7062SOL    HW122085   3.581   1.060   5.309
 7062SOL    HW222086   3.590   0.927   5.404
 7063SOL     OW22087   0.106   1.236   1.415
 7063SOL    HW122088   0.102   1.285   1.328
 7063SOL    HW222089   0.201   1.215   1.438
 7064SOL     OW22090   2.723   1.728   5.404
 7064SOL    HW122091   2.678   1.754   5.318
 7064SOL    HW222092   2.704   1.798   5.473
 7065SOL     OW22093   3.194   0.135   3.586
 7065SOL    HW122094   3.171   0.108   3.679
 7065SOL    HW222095   3.113   0.126   3.527
 7066SOL     OW22096   3.906   0.734   1.462
 7066SOL    HW122097   3.849   0.794   1.407
 7066SOL    HW222098   4.000   0.770   1.464
 7067SOL     OW22099   2.638   4.581   6.122
 7067SOL    HW122100   2.703   4.622   6.058
 7067SOL    HW222101   2.600   4.497   6.082
 7068SOL     OW22102   4.438   4.693   2.388
 7068SOL    HW122103   4.475   4.601   2.381
 7068SOL    HW222104   4.500   4.749   2.444
 7069SOL     OW22105   3.479   1.396   5.351
 7069SOL    HW122106   3.524   1.480   5.321
 7069SOL    HW222107   3.542   1.319   5.341
 7070SOL     OW22108   0.282   1.557   5.030
 7070SOL    HW122109   0.238   1.498   4.963
 7070SOL    HW222110   0.332   1.501   5.096
 7071SOL     OW22111   4.501   5.538   6.921
 7071SOL    HW122112   4.454   5.480   6.855
 7071SOL    HW222113   4.597   5.511   6.927
 7072SOL     OW22114   1.060   3.754   5.839
 7072SOL    HW122115   1.134   3.701   5.880
 7072SOL    HW222116   1.098   3.830   5.786
 7073SOL     OW22117   4.132   1.240   3.987
 7073SOL    HW122118   4.089   1.153   3.961
 7073SOL    HW222119   4.146   1.242   4.086
 7074SOL     OW22120   5.780   3.106   1.929
 7074SOL    HW122121   5.682   3.093   1.916
 7074SOL    HW222122   5.828   3.021   1.907
 7075SOL     OW22123   1.754   5.080   2.345
 7075SOL    HW122124   1.837   5.026   2.327
 7075SOL    HW222125   1.678   5.019   2.364
 7076SOL     OW22126   5.869   2.683   0.382
 7076SOL    HW122127   5.798   2.616   0.360
 7076SOL    HW222128   5.931   2.645   0.451
 7077SOL     OW22129   3.201   5.861   2.304
 7077SOL    HW122130   3.148   5.875   2.388
 7077SOL    HW222131   3.200   5.945   2.250
 7078SOL     OW22132   6.986   1.910   6.972
 7078SOL    HW122133   0.015   1.995   6.972
 7078SOL    HW222134   0.012   1.841   0.001
 7079SOL     OW22135   3.002   5.394   5.441
 7079SOL    HW122136   3.038   5.439   5.523
 7079SOL    HW222137   2.989   5.297   5.460
 7080SOL     OW22138   4.067   2.065   6.488
 7080SOL    HW122139   3.984   2.032   6.443
 7080SOL    HW222140   4.042   2.127   6.562
 7081SOL     OW22141   3.106   6.661   6.520
 7081SOL    HW122142   3.061   6.625   6.439
 7081SOL    HW222143   3.199   6.625   6.526
 7082SOL     OW22144   1.660   4.806   2.100
 7082SOL    HW122145   1.608   4.839   2.179
 7082SOL    HW222146   1.714   4.882   2.062
 7083SOL     OW22147   5.978   2.743   2.645
 7083SOL    HW122148   5.914   2.677   2.605
 7083SOL    HW222149   5.926   2.814   2.693
 7084SOL     OW22150   1.079   5.383   0.031
 7084SOL    HW122151   1.099   5.293   0.070
 7084SOL    HW222152   1.147   5.405   6.984
 7085SOL     OW22153   0.155   3.222   2.383
 7085SOL    HW122154   0.107   3.256   2.303
 7085SOL    HW222155   0.136   3.124   2.395
 7086SOL     OW22156   4.234   1.119   3.567
 7086SOL    HW122157   4.175   1.200   3.568
 7086SOL    HW222158   4.325   1.144   3.599
 7087SOL     OW22159   6.232   2.940   3.879
 7087SOL    HW122160   6.306   2.934   3.946
 7087SOL    HW222161   6.187   2.852   3.871
 7088SOL     OW22162   6.118   1.941   5.256
 7088SOL    HW122163   6.022   1.969   5.257
 7088SOL    HW222164   6.164   1.975   5.338
 7089SOL     OW22165   3.515   6.362   1.819
 7089SOL    HW122166   3.422   6.341   1.786
 7089SOL    HW222167   3.582   6.318   1.759
 7090SOL     OW22168   5.572   3.337   1.447
 7090SOL    HW122169   5.507   3.402   1.409
 7090SOL    HW222170   5.664   3.359   1.415
 7091SOL     OW22171   5.611   0.517   6.531
 7091SOL    HW122172   5.674   0.509   6.453
 7091SOL    HW222173   5.521   0.483   6.504
 7092SOL     OW22174   4.076   6.859   6.500
 7092SOL    HW122175   4.034   6.788   6.557
 7092SOL    HW222176   4.077   6.945   6.550
 7093SOL     OW22177   4.239   3.281   0.116
 7093SOL    HW122178   4.176   3.322   0.183
 7093SOL    HW222179   4.231   3.181   0.121
 7094SOL     OW22180   4.132   0.965   4.999
 7094SOL    HW122181   4.221   0.927   4.973
 7094SOL    HW222182   4.098   1.024   4.925
 7095SOL     OW22183   2.420   4.744   3.489
 7095SOL    HW122184   2.441   4.832   3.533
 7095SOL    HW222185   2.436   4.670   3.553
 7096SOL     OW22186   0.094   5.653   0.085
 7096SOL    HW122187   0.157   5.593   0.035
 7096SOL    HW222188   0.000   5.622   0.072
 7097SOL     OW22189   4.718   2.084   3.065
 7097SOL    HW122190   4.677   2.042   3.146
 7097SOL    HW222191   4.744   2.013   3.000
 7098SOL     OW22192   1.054   0.934   2.155
 7098SOL    HW122193   1.112   0.978   2.086
 7098SOL    HW222194   1.054   0.989   2.238
 7099SOL     OW22195   2.739   1.319   4.790
 7099SOL    HW122196   2.707   1.301   4.697
 7099SOL    HW222197   2.792   1.404   4.792
 7100SOL     OW22198   0.421   4.568   1.495
 7100SOL    HW122199   0.482   4.644   1.472
 7100SOL    HW222200   0.468   4.481   1.479
 7101SOL     OW22201   2.814   6.059   4.438
 7101SOL    HW122202   2.833   6.036   4.533
 7101SOL    HW222203   2.879   6.128   4.406
 7102SOL     OW22204   5.261   1.896   2.379
 7102SOL    HW122205   5.311   1.922   2.296
 7102SOL    HW222206   5.165   1.880   2.356
 7103SOL     OW22207   6.691   3.576   4.911
 7103SOL    HW122208   6.695   3.619   5.001
 7103SOL    HW222209   6.670   3.479   4.922
 7104SOL     OW22210   4.390   2.434   4.226
 7104SOL    HW122211   4.370   2.459   4.320
 7104SOL    HW222212   4.306   2.400   4.183
 7105SOL     OW22213   3.259   3.698   2.030
 7105SOL    HW122214   3.185   3.631   2.035
 7105SOL    HW222215   3.293   3.716   2.123
 7106SOL     OW22216   2.328   2.251   2.703
 7106SOL    HW122217   2.326   2.348   2.680
 7106SOL    HW222218   2.357   2.240   2.798
 7107SOL     OW22219   3.797   0.304   0.695
 7107SOL    HW122220   3.892   0.311   0.666
 7107SOL    HW222221   3.788   0.236   0.768
 7108SOL     OW22222   3.062   0.037   1.992
 7108SOL    HW122223   3.115   6.980   2.021
 7108SOL    HW222224   2.966   0.010   1.980
 7109SOL     OW22225   2.341   5.173   6.032
 7109SOL    HW122226   2.394   5.193   5.950
 7109SOL    HW222227   2.401   5.170   6.112
 7110SOL     OW22228   2.736   5.602   5.885
 7110SOL    HW122229   2.704   5.696   5.874
 7110SOL    HW222230   2.724   5.552   5.800
 7111SOL     OW22231   6.293   1.961   4.232
 7111SOL    HW122232   6.277   1.952   4.331
 7111SOL    HW222233   6.355   2.038   4.216
 7112SOL     OW22234   6.500   4.982   4.492
 7112SOL    HW122235   6.502   4.895   4.443
 7112SOL    HW222236   6.533   5.055   4.432
 7113SOL     OW22237   2.915   7.001   5.068
 7113SOL    HW122238   2.994   0.011   5.017
 7113SOL    HW222239   2.882   6.916   5.028
 7114SOL     OW22240   6.220   4.330   0.509
 7114SOL    HW122241   6.228   4.422   0.548
 7114SOL    HW222242   6.240   4.262   0.580
 7115SOL     OW22243   5.176   2.642   6.213
 7115SOL    HW122244   5.120   2.706   6.161
 7115SOL    HW222245   5.150   2.644   6.309
 7116SOL     OW22246   6.134   5.112   4.584
 7116SOL    HW122247   6.064   5.156   4.640
 7116SOL    HW222248   6.224   5.144   4.613
 7117SOL     OW22249   3.280   0.612   2.873
 7117SOL    HW122250   3.210   0.672   2.836
 7117SOL    HW222251   3.237   0.533   2.917
 7118SOL     OW22252   5.207   4.315   5.587
 7118SOL    HW122253   5.295   4.331   5.542
 7118SOL    HW222254   5.220   4.313   5.686
 7119SOL     OW22255   2.400   6.533   4.207
 7119SOL    HW122256   2.421   6.588   4.126
 7119SOL    HW222257   2.385   6.438   4.179
 7120SOL     OW22258   4.376   1.921   2.131
 7120SOL    HW122259   4.382   2.013   2.168
 7120SOL    HW222260   4.283   1.886   2.142
 7121SOL     OW22261   1.771   6.007   2.327
 7121SOL    HW122262   1.697   5.943   2.308
 7121SOL    HW222263   1.733   6.099   2.341
 7122SOL     OW22264   2.776   2.400   6.613
 7122SOL    HW122265   2.684   2.437   6.602
 7122SOL    HW222266   2.805   2.411   6.708
 7123SOL     OW22267   5.189   3.790   6.959
 7123SOL    HW122268   5.130   3.720   6.999
 7123SOL    HW222269   5.204   3.863   0.003
 7124SOL     OW22270   3.090   2.909   6.254
 7124SOL    HW122271   3.029   2.836   6.287
 7124SOL    HW222272   3.056   2.942   6.166
 7125SOL     OW22273   0.819   5.913   1.396
 7125SOL    HW122274   0.826   5.926   1.297
 7125SOL    HW222275   0.723   5.906   1.422
 7126SOL     OW22276   3.842   5.019   0.787
 7126SOL    HW122277   3.904   5.095   0.765
 7126SOL    HW222278   3.849   4.997   0.884
 7127SOL     OW22279   2.444   7.001   4.955
 7127SOL    HW122280   2.537   6.982   4.923
 7127SOL    HW222281   2.427   0.076   4.954
 7128SOL     OW22282   4.440   3.767   0.339
 7128SOL    HW122283   4.538   3.750   0.333
 7128SOL    HW222284   4.420   3.860   0.308
 7129SOL     OW22285   6.809   1.540   0.445
 7129SOL    HW122286   6.842   1.635   0.442
 7129SOL    HW222287   6.864   1.485   0.382
 7130SOL     OW22288   3.599   6.994   3.603
 7130SOL    HW122289   3.692   7.000   3.639
 7130SOL    HW222290   3.572   6.898   3.598
 7131SOL     OW22291   2.325   1.761   2.838
 7131SOL    HW122292   2.422   1.739   2.840
 7131SOL    HW222293   2.289   1.766   2.931
 7132SOL     OW22294   4.906   5.102   2.288
 7132SOL    HW122295   4.964   5.068   2.214
 7132SOL    HW222296   4.914   5.042   2.367
 7133SOL     OW22297   3.208   6.153   2.223
 7133SOL    HW122298   3.189   6.223   2.154
 7133SOL    HW222299   3.307   6.139   2.229
 7134SOL     OW22300   5.585   5.097   6.903
 7134SOL    HW122301   5.666   5.061   6.950
 7134SOL    HW222302   5.591   5.197   6.897
 7135SOL     OW22303   2.269   5.492   0.735
 7135SOL    HW122304   2.340   5.539   0.788
 7135SOL    HW222305   2.294   5.396   0.725
 7136SOL     OW22306   1.198   2.810   2.703
 7136SOL    HW122307   1.153   2.879   2.647
 7136SOL    HW222308   1.292   2.797   2.672
 7137SOL     OW22309   1.590   6.943   1.944
 7137SOL    HW122310   1.622   7.002   2.018
 7137SOL    HW222311   1.664   6.882   1.915
 7138SOL     OW22312   6.684   4.076   0.510
 7138SOL    HW122313   6.650   4.149   0.451
 7138SOL    HW222314   6.611   4.047   0.573
 7139SOL     OW22315   5.824   5.633   0.682
 7139SOL    HW122316   5.751   5.639   0.750
 7139SOL    HW222317   5.794   5.676   0.597
 7140SOL     OW22318   6.882   4.345   0.235
 7140SOL    HW122319   6.818   4.389   0.299
 7140SOL    HW222320   6.834   4.273   0.186
 7141SOL     OW22321   2.425   2.477   0.198
 7141SOL    HW122322   2.458   2.454   0.289
 7141SOL    HW222323   2.333   2.516   0.205
 7142SOL     OW22324   3.993   6.965   5.752
 7142SOL    HW122325   4.070   0.005   5.742
 7142SOL    HW222326   3.938   6.966   5.669
 7143SOL     OW22327   3.174   3.117   5.743
 7143SOL    HW122328   3.251   3.055   5.758
 7143SOL    HW222329   3.101   3.068   5.695
 7144SOL     OW22330   6.374   1.709   6.055
 7144SOL    HW122331   6.440   1.669   6.119
 7144SOL    HW222332   6.287   1.661   6.062
 7145SOL     OW22333   0.242   3.131   0.299
 7145SOL    HW122334   0.148   3.146   0.269
 7145SOL    HW222335   0.261   3.033   0.302
 7146SOL     OW22336   6.862   1.149   4.347
 7146SOL    HW122337   6.781   1.130   4.403
 7146SOL    HW222338   6.921   1.069   4.346
 7147SOL     OW22339   6.719   0.393   0.217
 7147SOL    HW122340   6.620   0.381   0.218
 7147SOL    HW222341   6.751   0.413   0.309
 7148SOL     OW22342   5.610   6.371   0.870
 7148SOL    HW122343   5.671   6.388   0.792
 7148SOL    HW222344   5.664   6.350   0.951
 7149SOL     OW22345   6.845   3.719   6.817
 7149SOL    HW122346   6.828   3.649   6.886
 7149SOL    HW222347   6.875   3.675   6.732
 7150SOL     OW22348   2.460   2.131   0.134
 7150SOL    HW122349   2.471   2.048   0.078
 7150SOL    HW222350   2.443   2.209   0.074
 7151SOL     OW22351   5.625   2.667   0.056
 7151SOL    HW122352   5.639   2.617   6.994
 7151SOL    HW222353   5.644   2.607   0.134
 7152SOL     OW22354   5.864   1.097   4.643
 7152SOL    HW122355   5.961   1.091   4.668
 7152SOL    HW222356   5.832   1.191   4.658
 7153SOL     OW22357   5.363   5.821   0.218
 7153SOL    HW122358   5.356   5.734   0.268
 7153SOL    HW222359   5.330   5.808   0.124
 7154SOL     OW22360   4.941   6.998   2.256
 7154SOL    HW122361   4.893   7.022   2.340
 7154SOL    HW222362   5.029   6.957   2.277
 7155SOL     OW22363   1.581   6.977   1.305
 7155SOL    HW122364   1.625   6.958   1.393
 7155SOL    HW222365   1.616   0.039   1.267
 7156SOL     OW22366   6.311   2.888   5.598
 7156SOL    HW122367   6.225   2.933   5.622
 7156SOL    HW222368   6.336   2.912   5.504
 7157SOL     OW22369   6.944   3.710   5.925
 7157SOL    HW122370   6.915   3.641   5.859
 7157SOL    HW222371   0.015   3.738   5.906
 7158SOL     OW22372   4.899   6.689   3.836
 7158SOL    HW122373   4.943   6.672   3.925
 7158SOL    HW222374   4.866   6.783   3.834
 7159SOL     OW22375   0.948   6.811   3.297
 7159SOL    HW122376   1.018   6.880   3.315
 7159SOL    HW222377   0.862   6.856   3.274
 7160SOL     OW22378   5.933   6.307   1.982
 7160SOL    HW122379   6.026   6.306   2.019
 7160SOL    HW222380   5.882   6.229   2.017
 7161SOL     OW22381   3.678   3.096   1.859
 7161SOL    HW122382   3.589   3.100   1.905
 7161SOL    HW222383   3.751   3.104   1.927
 7162SOL     OW22384   0.971   6.198   0.351
 7162SOL    HW122385   0.941   6.109   0.317
 7162SOL    HW222386   0.983   6.260   0.273
 7163SOL     OW22387   6.877   6.222   6.859
 7163SOL    HW122388   6.973   6.244   6.842
 7163SOL    HW222389   6.872   6.148   6.926
 7164SOL     OW22390   0.660   5.996   6.816
 7164SOL    HW122391   0.739   5.979   6.757
 7164SOL    HW222392   0.676   6.080   6.869
 7165SOL     OW22393   4.202   2.519   6.145
 7165SOL    HW122394   4.264   2.576   6.199
 7165SOL    HW222395   4.252   2.442   6.106
 7166SOL     OW22396   6.906   6.453   5.400
 7166SOL    HW122397   6.877   6.358   5.391
 7166SOL    HW222398   6.855   6.496   5.474
 7167SOL     OW22399   0.432   3.727   5.763
 7167SOL    HW122400   0.335   3.729   5.740
 7167SOL    HW222401   0.479   3.802   5.716
 7168SOL     OW22402   0.391   6.614   1.973
 7168SOL    HW122403   0.460   6.679   1.942
 7168SOL    HW222404   0.417   6.522   1.944
 7169SOL     OW22405   1.730   4.776   5.229
 7169SOL    HW122406   1.630   4.775   5.221
 7169SOL    HW222407   1.763   4.683   5.240
 7170SOL     OW22408   4.176   2.285   2.113
 7170SOL    HW122409   4.240   2.356   2.082
 7170SOL    HW222410   4.097   2.282   2.052
 7171SOL     OW22411   0.183   5.550   1.833
 7171SOL    HW122412   0.112   5.508   1.890
 7171SOL    HW222413   0.273   5.535   1.874
 7172SOL     OW22414   1.397   3.125   3.875
 7172SOL    HW122415   1.309   3.129   3.922
 7172SOL    HW222416   1.468   3.095   3.938
 7173SOL     OW22417   3.407   5.241   4.465
 7173SOL    HW122418   3.500   5.254   4.429
 7173SOL    HW222419   3.397   5.291   4.550
 7174SOL     OW22420   6.769   3.895   2.608
 7174SOL    HW122421   6.748   3.988   2.581
 7174SOL    HW222422   6.827   3.896   2.689
 7175SOL     OW22423   5.882   2.848   6.048
 7175SOL    HW122424   5.791   2.870   6.082
 7175SOL    HW222425   5.880   2.839   5.948
 7176SOL     OW22426   6.607   2.181   6.682
 7176SOL    HW122427   6.651   2.098   6.717
 7176SOL    HW222428   6.620   2.186   6.583
 7177SOL     OW22429   1.384   5.707   3.885
 7177SOL    HW122430   1.413   5.727   3.791
 7177SOL    HW222431   1.288   5.733   3.896
 7178SOL     OW22432   0.846   6.256   5.650
 7178SOL    HW122433   0.898   6.297   5.725
 7178SOL    HW222434   0.852   6.316   5.570
 7179SOL     OW22435   5.391   4.718   5.536
 7179SOL    HW122436   5.429   4.736   5.446
 7179SOL    HW222437   5.387   4.619   5.551
 7180SOL     OW22438   6.964   2.334   2.465
 7180SOL    HW122439   6.869   2.330   2.494
 7180SOL    HW222440   7.012   2.252   2.496
 7181SOL     OW22441   3.482   0.328   0.240
 7181SOL    HW122442   3.475   0.259   0.167
 7181SOL    HW222443   3.553   0.300   0.305
 7182SOL     OW22444   1.866   0.823   2.292
 7182SOL    HW122445   1.818   0.851   2.209
 7182SOL    HW222446   1.854   0.893   2.362
 7183SOL     OW22447   1.840   6.749   0.916
 7183SOL    HW122448   1.844   6.840   0.956
 7183SOL    HW222449   1.868   6.681   0.984
 7184SOL     OW22450   6.864   1.408   3.151
 7184SOL    HW122451   6.797   1.416   3.077
 7184SOL    HW222452   6.816   1.395   3.238
 7185SOL     OW22453   3.795   0.335   3.563
 7185SOL    HW122454   3.731   0.324   3.639
 7185SOL    HW222455   3.760   0.286   3.483
 7186SOL     OW22456   6.164   2.445   0.174
 7186SOL    HW122457   6.077   2.495   0.167
 7186SOL    HW222458   6.179   2.420   0.269
 7187SOL     OW22459   2.977   3.844   3.778
 7187SOL    HW122460   3.024   3.866   3.692
 7187SOL    HW222461   2.970   3.745   3.787
 7188SOL     OW22462   4.620   5.149   0.027
 7188SOL    HW122463   4.622   5.240   7.008
 7188SOL    HW222464   4.679   5.087   6.999
 7189SOL     OW22465   6.753   2.111   6.021
 7189SOL    HW122466   6.737   2.159   5.934
 7189SOL    HW222467   6.790   2.020   6.003
 7190SOL     OW22468   5.590   5.431   0.558
 7190SOL    HW122469   5.617   5.525   0.576
 7190SOL    HW222470   5.491   5.422   0.569
 7191SOL     OW22471   0.430   5.174   2.628
 7191SOL    HW122472   0.388   5.211   2.545
 7191SOL    HW222473   0.491   5.098   2.603
 7192SOL     OW22474   3.272   3.973   5.599
 7192SOL    HW122475   3.249   4.059   5.554
 7192SOL    HW222476   3.366   3.976   5.633
 7193SOL     OW22477   3.471   1.126   4.145
 7193SOL    HW122478   3.415   1.173   4.214
 7193SOL    HW222479   3.555   1.178   4.129
 7194SOL     OW22480   3.527   2.568   5.380
 7194SOL    HW122481   3.512   2.510   5.461
 7194SOL    HW222482   3.441   2.575   5.328
 7195SOL     OW22483   6.261   4.155   5.484
 7195SOL    HW122484   6.271   4.082   5.416
 7195SOL    HW222485   6.230   4.116   5.571
 7196SOL     OW22486   2.846   4.305   1.641
 7196SOL    HW122487   2.896   4.325   1.557
 7196SOL    HW222488   2.877   4.366   1.714
 7197SOL     OW22489   3.583   4.233   6.380
 7197SOL    HW122490   3.565   4.138   6.404
 7197SOL    HW222491   3.651   4.237   6.306
 7198SOL     OW22492   1.345   6.500   2.167
 7198SOL    HW122493   1.299   6.448   2.095
 7198SOL    HW222494   1.324   6.598   2.156
 7199SOL     OW22495   6.230   1.084   3.612
 7199SOL    HW122496   6.225   0.992   3.650
 7199SOL    HW222497   6.265   1.147   3.682
 7200SOL     OW22498   1.032   3.925   6.283
 7200SOL    HW122499   0.960   3.861   6.254
 7200SOL    HW222500   1.060   3.902   6.376
 7201SOL     OW22501   5.661   5.627   5.014
 7201SOL    HW122502   5.616   5.701   5.064
 7201SOL    HW222503   5.605   5.601   4.935
 7202SOL     OW22504   4.626   6.915   5.937
 7202SOL    HW122505   4.676   6.869   5.864
 7202SOL    HW222506   4.528   6.898   5.926
 7203SOL     OW22507   0.836   1.335   0.372
 7203SOL    HW122508   0.836   1.276   0.453
 7203SOL    HW222509   0.749   1.384   0.366
 7204SOL     OW22510   5.354   0.917   3.047
 7204SOL    HW122511   5.429   0.852   3.053
 7204SOL    HW222512   5.326   0.945   3.139
 7205SOL     OW22513   2.634   1.083   3.746
 7205SOL    HW122514   2.692   1.076   3.828
 7205SOL    HW222515   2.540   1.101   3.774
 7206SOL     OW22516   1.765   2.685   6.611
 7206SOL    HW122517   1.810   2.755   6.667
 7206SOL    HW222518   1.766   2.715   6.515
 7207SOL     OW22519   1.876   2.536   3.244
 7207SOL    HW122520   1.866   2.455   3.187
 7207SOL    HW222521   1.960   2.529   3.297
 7208SOL     OW22522   2.810   0.239   3.274
 7208SOL    HW122523   2.720   0.275   3.250
 7208SOL    HW222524   2.878   0.312   3.269
 7209SOL     OW22525   4.688   1.172   1.956
 7209SOL    HW122526   4.701   1.194   2.053
 7209SOL    HW222527   4.592   1.187   1.931
 7210SOL     OW22528   3.120   1.233   4.989
 7210SOL    HW122529   3.196   1.273   5.040
 7210SOL    HW222530   3.101   1.290   4.908
 7211SOL     OW22531   4.706   6.103   6.263
 7211SOL    HW122532   4.635   6.056   6.209
 7211SOL    HW222533   4.768   6.151   6.202
 7212SOL     OW22534   6.978   5.960   3.881
 7212SOL    HW122535   6.967   6.030   3.810
 7212SOL    HW222536   6.897   5.958   3.939
 7213SOL     OW22537   5.230   2.895   0.129
 7213SOL    HW122538   5.308   2.871   0.071
 7213SOL    HW222539   5.260   2.960   0.199
 7214SOL     OW22540   6.661   1.905   5.784
 7214SOL    HW122541   6.749   1.881   5.824
 7214SOL    HW222542   6.596   1.927   5.856
 7215SOL     OW22543   6.351   1.110   2.436
 7215SOL    HW122544   6.351   1.088   2.338
 7215SOL    HW222545   6.381   1.029   2.488
 7216SOL     OW22546   5.628   6.170   3.766
 7216SOL    HW122547   5.598   6.113   3.843
 7216SOL    HW222548   5.609   6.266   3.786
 7217SOL     OW22549   0.779   3.344   3.074
 7217SOL    HW122550   0.875   3.357   3.099
 7217SOL    HW222551   0.758   3.246   3.073
 7218SOL     OW22552   6.661   2.843   5.475
 7218SOL    HW122553   6.578   2.894   5.497
 7218SOL    HW222554   6.658   2.813   5.379
 7219SOL     OW22555   3.895   5.864   0.983
 7219SOL    HW122556   3.935   5.873   1.075
 7219SOL    HW222557   3.796   5.864   0.990
 7220SOL     OW22558   6.980   3.544   3.800
 7220SOL    HW122559   6.888   3.507   3.788
 7220SOL    HW222560   0.010   3.484   3.860
 7221SOL     OW22561   4.584   4.821   3.718
 7221SOL    HW122562   4.567   4.908   3.671
 7221SOL    HW222563   4.656   4.833   3.786
 7222SOL     OW22564   6.375   5.926   3.722
 7222SOL    HW122565   6.284   5.922   3.764
 7222SOL    HW222566   6.371   5.886   3.630
 7223SOL     OW22567   6.483   5.588   1.391
 7223SOL    HW122568   6.543   5.516   1.425
 7223SOL    HW222569   6.522   5.628   1.308
 7224SOL     OW22570   5.772   2.664   2.469
 7224SOL    HW122571   5.684   2.618   2.470
 7224SOL    HW222572   5.804   2.671   2.374
 7225SOL     OW22573   1.014   5.076   0.399
 7225SOL    HW122574   0.980   5.019   0.474
 7225SOL    HW222575   1.004   5.028   0.312
 7226SOL     OW22576   6.441   6.677   0.129
 7226SOL    HW122577   6.528   6.726   0.138
 7226SOL    HW222578   6.459   6.579   0.123
 7227SOL     OW22579   2.224   0.771   2.136
 7227SOL    HW122580   2.178   0.702   2.191
 7227SOL    HW222581   2.259   0.730   2.052
 7228SOL     OW22582   6.701   3.517   2.782
 7228SOL    HW122583   6.654   3.463   2.852
 7228SOL    HW222584   6.792   3.542   2.815
 7229SOL     OW22585   5.881   6.939   5.224
 7229SOL    HW122586   5.855   6.848   5.255
 7229SOL    HW222587   5.981   6.947   5.223
 7230SOL     OW22588   2.525   5.066   5.592
 7230SOL    HW122589   2.616   5.030   5.572
 7230SOL    HW222590   2.456   5.002   5.558
 7231SOL     OW22591   3.540   3.283   6.945
 7231SOL    HW122592   3.621   3.330   6.979
 7231SOL    HW222593   3.466   3.349   6.931
 7232SOL     OW22594   4.593   5.870   3.231
 7232SOL    HW122595   4.618   5.888   3.136
 7232SOL    HW222596   4.644   5.933   3.290
 7233SOL     OW22597   0.552   1.790   6.652
 7233SOL    HW122598   0.584   1.859   6.586
 7233SOL    HW222599   0.581   1.700   6.622
 7234SOL     OW22600   5.458   5.051   3.633
 7234SOL    HW122601   5.385   5.100   3.587
 7234SOL    HW222602   5.433   5.035   3.729
 7235SOL     OW22603   6.910   0.319   1.049
 7235SOL    HW122604   6.880   0.392   0.988
 7235SOL    HW222605   6.842   0.246   1.048
 7236SOL     OW22606   0.457   3.852   3.113
 7236SOL    HW122607   0.454   3.872   3.211
 7236SOL    HW222608   0.501   3.928   3.065
 7237SOL     OW22609   4.926   1.226   0.118
 7237SOL    HW122610   4.994   1.207   0.188
 7237SOL    HW222611   4.971   1.230   0.028
 7238SOL     OW22612   4.782   3.309   0.288
 7238SOL    HW122613   4.806   3.256   0.207
 7238SOL    HW222614   4.728   3.252   0.350
 7239SOL     OW22615   6.113   3.077   2.109
 7239SOL    HW122616   6.086   3.002   2.171
 7239SOL    HW222617   6.195   3.051   2.059
 7240SOL     OW22618   0.733   2.114   0.437
 7240SOL    HW122619   0.668   2.122   0.512
 7240SOL    HW222620   0.789   2.032   0.451
 7241SOL     OW22621   2.080   0.498   2.775
 7241SOL    HW122622   2.124   0.540   2.696
 7241SOL    HW222623   2.143   0.434   2.819
 7242SOL     OW22624   6.448   3.893   6.235
 7242SOL    HW122625   6.403   3.910   6.323
 7242SOL    HW222626   6.381   3.898   6.161
 7243SOL     OW22627   5.981   4.944   6.490
 7243SOL    HW122628   6.039   5.002   6.432
 7243SOL    HW222629   5.896   4.993   6.511
 7244SOL     OW22630   6.703   6.043   0.350
 7244SOL    HW122631   6.637   6.096   0.296
 7244SOL    HW222632   6.662   5.956   0.377
 7245SOL     OW22633   1.765   2.710   0.227
 7245SOL    HW122634   1.783   2.616   0.258
 7245SOL    HW222635   1.691   2.749   0.282
 7246SOL     OW22636   4.750   0.194   4.731
 7246SOL    HW122637   4.706   0.104   4.730
 7246SOL    HW222638   4.776   0.218   4.825
 7247SOL     OW22639   3.275   4.153   4.217
 7247SOL    HW122640   3.233   4.062   4.216
 7247SOL    HW222641   3.204   4.223   4.229
 7248SOL     OW22642   2.523   2.172   4.819
 7248SOL    HW122643   2.463   2.230   4.764
 7248SOL    HW222644   2.482   2.158   4.910
 7249SOL     OW22645   3.456   5.809   3.020
 7249SOL    HW122646   3.412   5.825   3.108
 7249SOL    HW222647   3.490   5.895   2.983
 7250SOL     OW22648   5.035   5.542   5.157
 7250SOL    HW122649   5.000   5.634   5.139
 7250SOL    HW222650   5.008   5.513   5.248
 7251SOL     OW22651   0.487   5.826   4.252
 7251SOL    HW122652   0.402   5.783   4.220
 7251SOL    HW222653   0.564   5.788   4.201
 7252SOL     OW22654   3.837   4.172   1.767
 7252SOL    HW122655   3.790   4.133   1.846
 7252SOL    HW222656   3.784   4.248   1.730
 7253SOL     OW22657   1.303   5.198   5.961
 7253SOL    HW122658   1.248   5.169   5.883
 7253SOL    HW222659   1.347   5.285   5.940
 7254SOL     OW22660   6.957   3.810   3.829
 7254SOL    HW122661   6.954   3.711   3.816
 7254SOL    HW222662   6.988   3.830   3.922
 7255SOL     OW22663   4.624   3.952   0.734
 7255SOL    HW122664   4.567   3.880   0.693
 7255SOL    HW222665   4.579   4.040   0.725
 7256SOL     OW22666   3.171   0.036   4.488
 7256SOL    HW122667   3.258   7.017   4.514
 7256SOL    HW222668   3.106   0.026   4.563
 7257SOL     OW22669   0.899   1.312   4.898
 7257SOL    HW122670   0.827   1.249   4.926
 7257SOL    HW222671   0.857   1.393   4.856
 7258SOL     OW22672   6.615   1.976   2.762
 7258SOL    HW122673   6.541   2.041   2.746
 7258SOL    HW222674   6.629   1.964   2.860
 7259SOL     OW22675   1.493   3.811   2.272
 7259SOL    HW122676   1.441   3.863   2.204
 7259SOL    HW222677   1.434   3.789   2.350
 7260SOL     OW22678   5.885   2.622   0.933
 7260SOL    HW122679   5.876   2.705   0.878
 7260SOL    HW222680   5.977   2.617   0.972
 7261SOL     OW22681   0.090   4.371   6.824
 7261SOL    HW122682   0.126   4.347   6.734
 7261SOL    HW222683   0.158   4.424   6.875
 7262SOL     OW22684   3.183   0.318   5.329
 7262SOL    HW122685   3.111   0.333   5.396
 7262SOL    HW222686   3.252   0.389   5.338
 7263SOL     OW22687   6.020   5.409   5.760
 7263SOL    HW122688   6.045   5.347   5.685
 7263SOL    HW222689   6.086   5.484   5.763
 7264SOL     OW22690   5.082   1.694   1.286
 7264SOL    HW122691   5.005   1.758   1.295
 7264SOL    HW222692   5.081   1.654   1.194
 7265SOL     OW22693   3.500   6.927   5.415
 7265SOL    HW122694   3.512   7.020   5.451
 7265SOL    HW222695   3.404   6.902   5.422
 7266SOL     OW22696   6.893   0.638   3.127
 7266SOL    HW122697   6.806   0.682   3.107
 7266SOL    HW222698   6.967   0.685   3.078
 7267SOL     OW22699   6.585   4.003   5.510
 7267SOL    HW122700   6.508   3.980   5.451
 7267SOL    HW222701   6.656   4.049   5.456
 7268SOL     OW22702   5.692   6.119   4.230
 7268SOL    HW122703   5.763   6.094   4.165
 7268SOL    HW222704   5.609   6.065   4.212
 7269SOL     OW22705   2.955   5.658   4.400
 7269SOL    HW122706   2.881   5.686   4.461
 7269SOL    HW222707   3.039   5.706   4.425
 7270SOL     OW22708   0.466   1.142   4.372
 7270SOL    HW122709   0.452   1.219   4.309
 7270SOL    HW222710   0.474   1.057   4.320
 7271SOL     OW22711   1.024   5.342   2.701
 7271SOL    HW122712   1.044   5.439   2.686
 7271SOL    HW222713   1.007   5.326   2.798
 7272SOL     OW22714   6.608   4.081   1.865
 7272SOL    HW122715   6.615   4.180   1.862
 7272SOL    HW222716   6.562   4.048   1.782
 7273SOL     OW22717   6.877   1.469   4.729
 7273SOL    HW122718   6.930   1.452   4.645
 7273SOL    HW222719   6.858   1.381   4.774
 7274SOL     OW22720   0.426   5.438   6.403
 7274SOL    HW122721   0.437   5.534   6.427
 7274SOL    HW222722   0.415   5.429   6.304
 7275SOL     OW22723   0.724   5.286   3.066
 7275SOL    HW122724   0.734   5.223   2.989
 7275SOL    HW222725   0.648   5.349   3.048
 7276SOL     OW22726   5.337   6.167   3.683
 7276SOL    HW122727   5.377   6.201   3.597
 7276SOL    HW222728   5.337   6.067   3.682
 7277SOL     OW22729   4.687   1.290   0.277
 7277SOL    HW122730   4.641   1.204   0.257
 7277SOL    HW222731   4.776   1.293   0.231
 7278SOL     OW22732   3.449   2.832   2.643
 7278SOL    HW122733   3.368   2.840   2.584
 7278SOL    HW222734   3.527   2.802   2.588
 7279SOL     OW22735   3.467   6.429   6.295
 7279SOL    HW122736   3.511   6.438   6.206
 7279SOL    HW222737   3.446   6.333   6.312
 7280SOL     OW22738   4.231   0.074   5.949
 7280SOL    HW122739   4.218   0.100   6.044
 7280SOL    HW222740   4.310   0.123   5.912
 7281SOL     OW22741   5.804   0.786   6.541
 7281SOL    HW122742   5.840   0.708   6.592
 7281SOL    HW222743   5.790   0.759   6.445
 7282SOL     OW22744   6.021   6.023   3.183
 7282SOL    HW122745   6.042   6.053   3.276
 7282SOL    HW222746   6.090   5.957   3.153
 7283SOL     OW22747   2.105   1.679   3.270
 7283SOL    HW122748   2.040   1.605   3.253
 7283SOL    HW222749   2.197   1.648   3.245
 7284SOL     OW22750   1.382   1.312   4.731
 7284SOL    HW122751   1.482   1.304   4.742
 7284SOL    HW222752   1.356   1.409   4.736
 7285SOL     OW22753   6.236   5.037   2.233
 7285SOL    HW122754   6.333   5.013   2.234
 7285SOL    HW222755   6.181   4.953   2.228
 7286SOL     OW22756   1.507   4.347   0.596
 7286SOL    HW122757   1.482   4.413   0.525
 7286SOL    HW222758   1.591   4.299   0.569
 7287SOL     OW22759   6.551   2.040   6.228
 7287SOL    HW122760   6.543   1.988   6.142
 7287SOL    HW222761   6.615   2.115   6.215
 7288SOL     OW22762   2.814   0.286   0.177
 7288SOL    HW122763   2.770   0.201   0.150
 7288SOL    HW222764   2.821   0.291   0.276
 7289SOL     OW22765   4.330   2.045   3.280
 7289SOL    HW122766   4.393   2.115   3.244
 7289SOL    HW222767   4.372   1.999   3.358
 7290SOL     OW22768   2.379   5.697   4.512
 7290SOL    HW122769   2.430   5.778   4.540
 7290SOL    HW222770   2.297   5.725   4.461
 7291SOL     OW22771   3.541   5.400   1.161
 7291SOL    HW122772   3.597   5.407   1.078
 7291SOL    HW222773   3.561   5.478   1.221
 7292SOL     OW22774   3.472   0.374   4.686
 7292SOL    HW122775   3.502   0.464   4.652
 7292SOL    HW222776   3.396   0.386   4.750
 7293SOL     OW22777   2.634   1.454   6.344
 7293SOL    HW122778   2.559   1.493   6.396
 7293SOL    HW222779   2.611   1.360   6.317
 7294SOL     OW22780   5.870   5.781   6.411
 7294SOL    HW122781   5.811   5.705   6.437
 7294SOL    HW222782   5.814   5.859   6.383
 7295SOL     OW22783   4.870   6.872   1.686
 7295SOL    HW122784   4.840   6.931   1.611
 7295SOL    HW222785   4.948   6.914   1.733
 7296SOL     OW22786   4.360   4.985   0.527
 7296SOL    HW122787   4.272   4.964   0.571
 7296SOL    HW222788   4.343   5.011   0.432
 7297SOL     OW22789   5.136   6.382   2.698
 7297SOL    HW122790   5.041   6.364   2.724
 7297SOL    HW222791   5.163   6.473   2.731
 7298SOL     OW22792   6.340   3.038   4.271
 7298SOL    HW122793   6.249   3.077   4.257
 7298SOL    HW222794   6.366   2.984   4.190
 7299SOL     OW22795   5.454   3.330   6.948
 7299SOL    HW122796   5.545   3.342   6.908
 7299SOL    HW222797   5.390   3.392   6.903
 7300SOL     OW22798   4.688   5.074   0.892
 7300SOL    HW122799   4.669   5.149   0.956
 7300SOL    HW222800   4.654   4.988   0.930
 7301SOL     OW22801   6.795   1.398   6.491
 7301SOL    HW122802   6.884   1.361   6.519
 7301SOL    HW222803   6.765   1.355   6.406
 7302SOL     OW22804   7.015   1.062   6.607
 7302SOL    HW122805   7.007   0.989   6.674
 7302SOL    HW222806   6.936   1.060   6.545
 7303SOL     OW22807   4.361   0.490   1.354
 7303SOL    HW122808   4.364   0.574   1.300
 7303SOL    HW222809   4.452   0.471   1.390
 7304SOL     OW22810   4.123   3.388   4.676
 7304SOL    HW122811   4.123   3.334   4.760
 7304SOL    HW222812   4.132   3.327   4.597
 7305SOL     OW22813   5.613   2.333   0.076
 7305SOL    HW122814   5.524   2.358   0.114
 7305SOL    HW222815   5.617   2.234   0.062
 7306SOL     OW22816   4.522   4.961   1.716
 7306SOL    HW122817   4.565   5.021   1.783
 7306SOL    HW222818   4.585   4.886   1.694
 7307SOL     OW22819   4.292   6.423   2.298
 7307SOL    HW122820   4.284   6.520   2.323
 7307SOL    HW222821   4.353   6.414   2.219
 7308SOL     OW22822   5.356   0.634   4.131
 7308SOL    HW122823   5.382   0.603   4.040
 7308SOL    HW222824   5.331   0.554   4.187
 7309SOL     OW22825   4.384   4.552   0.661
 7309SOL    HW122826   4.440   4.610   0.602
 7309SOL    HW222827   4.313   4.508   0.606
 7310SOL     OW22828   2.137   5.926   1.860
 7310SOL    HW122829   2.102   5.968   1.943
 7310SOL    HW222830   2.068   5.866   1.820
 7311SOL     OW22831   3.096   2.090   1.985
 7311SOL    HW122832   3.028   2.161   2.004
 7311SOL    HW222833   3.171   2.098   2.051
 7312SOL     OW22834   0.207   2.488   6.607
 7312SOL    HW122835   0.201   2.388   6.604
 7312SOL    HW222836   0.287   2.515   6.661
 7313SOL     OW22837   3.538   2.363   6.339
 7313SOL    HW122838   3.519   2.452   6.296
 7313SOL    HW222839   3.452   2.324   6.372
 7314SOL     OW22840   0.947   1.805   4.564
 7314SOL    HW122841   1.014   1.780   4.634
 7314SOL    HW222842   0.855   1.803   4.603
 7315SOL     OW22843   0.122   1.103   5.832
 7315SOL    HW122844   0.212   1.101   5.787
 7315SOL    HW222845   0.050   1.093   5.763
 7316SOL     OW22846   4.108   3.691   3.958
 7316SOL    HW122847   4.123   3.632   3.878
 7316SOL    HW222848   4.065   3.776   3.928
 7317SOL     OW22849   3.037   0.559   3.970
 7317SOL    HW122850   2.940   0.561   3.946
 7317SOL    HW222851   3.046   0.552   4.069
 7318SOL     OW22852   1.663   0.855   1.281
 7318SOL    HW122853   1.627   0.859   1.374
 7318SOL    HW222854   1.719   0.936   1.263
 7319SOL     OW22855   6.989   4.613   6.255
 7319SOL    HW122856   6.964   4.556   6.177
 7319SOL    HW222857   0.017   4.558   6.321
 7320SOL     OW22858   0.487   1.931   2.376
 7320SOL    HW122859   0.476   2.030   2.365
 7320SOL    HW222860   0.584   1.908   2.369
 7321SOL     OW22861   3.680   1.512   3.912
 7321SOL    HW122862   3.656   1.540   3.819
 7321SOL    HW222863   3.695   1.413   3.914
 7322SOL     OW22864   1.288   2.848   1.554
 7322SOL    HW122865   1.320   2.851   1.460
 7322SOL    HW222866   1.243   2.761   1.572
 7323SOL     OW22867   2.135   4.131   3.213
 7323SOL    HW122868   2.096   4.056   3.159
 7323SOL    HW222869   2.153   4.100   3.306
 7324SOL     OW22870   4.821   5.423   3.562
 7324SOL    HW122871   4.874   5.472   3.492
 7324SOL    HW222872   4.729   5.407   3.529
 7325SOL     OW22873   3.130   6.360   0.884
 7325SOL    HW122874   3.080   6.388   0.966
 7325SOL    HW222875   3.117   6.430   0.813
 7326SOL     OW22876   2.747   0.580   4.016
 7326SOL    HW122877   2.747   0.481   4.033
 7326SOL    HW222878   2.715   0.628   4.098
 7327SOL     OW22879   1.454   3.348   5.927
 7327SOL    HW122880   1.373   3.291   5.908
 7327SOL    HW222881   1.529   3.289   5.958
 7328SOL     OW22882   2.231   6.442   0.102
 7328SOL    HW122883   2.197   6.371   0.163
 7328SOL    HW222884   2.159   6.472   0.040
 7329SOL     OW22885   4.688   3.926   1.762
 7329SOL    HW122886   4.612   3.983   1.734
 7329SOL    HW222887   4.675   3.833   1.726
 7330SOL     OW22888   4.002   2.184   0.936
 7330SOL    HW122889   4.036   2.218   1.023
 7330SOL    HW222890   4.026   2.249   0.863
 7331SOL     OW22891   6.309   1.374   1.303
 7331SOL    HW122892   6.269   1.289   1.269
 7331SOL    HW222893   6.264   1.452   1.261
 7332SOL     OW22894   3.387   6.704   0.411
 7332SOL    HW122895   3.425   6.611   0.406
 7332SOL    HW222896   3.457   6.766   0.446
 7333SOL     OW22897   0.187   4.688   2.315
 7333SOL    HW122898   0.234   4.657   2.232
 7333SOL    HW222899   0.237   4.763   2.356
 7334SOL     OW22900   3.104   0.141   4.260
 7334SOL    HW122901   3.171   0.124   4.187
 7334SOL    HW222902   3.133   0.093   4.343
 7335SOL     OW22903   1.797   3.021   3.178
 7335SOL    HW122904   1.705   3.024   3.218
 7335SOL    HW222905   1.791   3.041   3.080
 7336SOL     OW22906   1.392   5.949   4.600
 7336SOL    HW122907   1.422   6.007   4.676
 7336SOL    HW222908   1.399   6.000   4.515
 7337SOL     OW22909   5.361   2.227   1.392
 7337SOL    HW122910   5.405   2.143   1.361
 7337SOL    HW222911   5.421   2.305   1.373
 7338SOL     OW22912   0.370   3.853   0.108
 7338SOL    HW122913   0.345   3.858   0.205
 7338SOL    HW222914   0.437   3.780   0.094
 7339SOL     OW22915   1.855   5.950   4.930
 7339SOL    HW122916   1.817   5.865   4.894
 7339SOL    HW222917   1.830   5.960   5.026
 7340SOL     OW22918   2.770   6.928   6.526
 7340SOL    HW122919   2.814   6.882   6.449
 7340SOL    HW222920   2.791   0.002   6.523
 7341SOL     OW22921   5.972   1.873   0.513
 7341SOL    HW122922   6.035   1.810   0.468
 7341SOL    HW222923   5.881   1.833   0.517
 7342SOL     OW22924   0.286   6.006   1.803
 7342SOL    HW122925   0.276   6.102   1.775
 7342SOL    HW222926   0.217   5.950   1.756
 7343SOL     OW22927   6.233   2.831   0.522
 7343SOL    HW122928   6.309   2.807   0.462
 7343SOL    HW222929   6.151   2.780   0.496
 7344SOL     OW22930   2.784   0.136   6.022
 7344SOL    HW122931   2.875   0.105   6.051
 7344SOL    HW222932   2.720   0.059   6.022
 7345SOL     OW22933   3.788   5.786   6.399
 7345SOL    HW122934   3.876   5.737   6.394
 7345SOL    HW222935   3.783   5.854   6.326
 7346SOL     OW22936   4.157   5.050   2.181
 7346SOL    HW122937   4.237   5.090   2.226
 7346SOL    HW222938   4.107   5.121   2.132
 7347SOL     OW22939   5.107   1.009   6.731
 7347SOL    HW122940   5.127   0.913   6.713
 7347SOL    HW222941   5.187   1.065   6.710
 7348SOL     OW22942   0.551   6.009   0.312
 7348SOL    HW122943   0.534   5.959   0.227
 7348SOL    HW222944   0.649   6.006   0.333
 7349SOL     OW22945   4.779   1.321   1.466
 7349SOL    HW122946   4.814   1.333   1.558
 7349SOL    HW222947   4.792   1.406   1.414
 7350SOL     OW22948   3.672   1.345   5.010
 7350SOL    HW122949   3.665   1.323   4.913
 7350SOL    HW222950   3.710   1.437   5.021
 7351SOL     OW22951   2.255   4.723   4.704
 7351SOL    HW122952   2.312   4.713   4.786
 7351SOL    HW222953   2.160   4.705   4.728
 7352SOL     OW22954   5.792   3.145   4.105
 7352SOL    HW122955   5.718   3.118   4.043
 7352SOL    HW222956   5.879   3.114   4.069
 7353SOL     OW22957   0.086   1.708   5.538
 7353SOL    HW122958   0.081   1.665   5.447
 7353SOL    HW222959   0.069   1.806   5.530
 7354SOL     OW22960   1.021   2.031   2.460
 7354SOL    HW122961   1.098   2.040   2.524
 7354SOL    HW222962   0.982   2.121   2.442
 7355SOL     OW22963   3.415   1.791   0.292
 7355SOL    HW122964   3.375   1.869   0.244
 7355SOL    HW222965   3.456   1.729   0.226
 7356SOL     OW22966   4.058   4.565   5.919
 7356SOL    HW122967   4.129   4.553   5.989
 7356SOL    HW222968   4.068   4.656   5.878
 7357SOL     OW22969   4.446   6.426   2.071
 7357SOL    HW122970   4.378   6.387   2.010
 7357SOL    HW222971   4.527   6.453   2.019
 7358SOL     OW22972   4.539   6.849   2.861
 7358SOL    HW122973   4.607   6.866   2.790
 7358SOL    HW222974   4.476   6.777   2.831
 7359SOL     OW22975   3.756   0.222   2.488
 7359SOL    HW122976   3.808   0.307   2.478
 7359SOL    HW222977   3.678   0.223   2.425
 7360SOL     OW22978   2.830   4.049   6.301
 7360SOL    HW122979   2.753   4.018   6.357
 7360SOL    HW222980   2.908   3.987   6.314
 7361SOL     OW22981   6.270   0.839   3.755
 7361SOL    HW122982   6.366   0.848   3.729
 7361SOL    HW222983   6.257   0.875   3.848
 7362SOL     OW22984   3.651   5.990   0.410
 7362SOL    HW122985   3.741   5.971   0.450
 7362SOL    HW222986   3.586   6.010   0.483
 7363SOL     OW22987   4.547   0.476   0.881
 7363SOL    HW122988   4.630   0.426   0.855
 7363SOL    HW222989   4.492   0.495   0.800
 7364SOL     OW22990   5.594   6.027   1.903
 7364SOL    HW122991   5.680   6.074   1.883
 7364SOL    HW222992   5.544   6.078   1.972
 7365SOL     OW22993   5.017   3.279   2.081
 7365SOL    HW122994   5.005   3.278   1.982
 7365SOL    HW222995   4.939   3.233   2.124
 7366SOL     OW22996   2.128   6.816   2.898
 7366SOL    HW122997   2.124   6.727   2.944
 7366SOL    HW222998   2.155   6.803   2.803
 7367SOL     OW22999   4.564   0.922   0.009
 7367SOL    HW123000   4.526   1.002   6.985
 7367SOL    HW223001   4.630   0.876   6.973
 7368SOL     OW23002   3.104   4.006   2.902
 7368SOL    HW123003   3.178   4.023   2.968
 7368SOL    HW223004   3.142   3.997   2.810
 7369SOL     OW23005   5.889   3.581   0.267
 7369SOL    HW123006   5.987   3.564   0.266
 7369SOL    HW223007   5.850   3.557   0.178
 7370SOL     OW23008   2.079   0.892   4.245
 7370SOL    HW123009   2.120   0.887   4.335
 7370SOL    HW223010   2.096   0.807   4.195
 7371SOL     OW23011   4.018   0.512   3.759
 7371SOL    HW123012   3.958   0.483   3.833
 7371SOL    HW223013   3.976   0.589   3.710
 7372SOL     OW23014   4.082   1.292   5.274
 7372SOL    HW123015   4.035   1.269   5.188
 7372SOL    HW223016   4.164   1.235   5.283
 7373SOL     OW23017   6.715   2.605   4.126
 7373SOL    HW123018   6.632   2.625   4.074
 7373SOL    HW223019   6.703   2.518   4.174
 7374SOL     OW23020   0.233   3.217   6.204
 7374SOL    HW123021   0.146   3.236   6.158
 7374SOL    HW223022   0.246   3.283   6.278
 7375SOL     OW23023   1.916   2.726   1.229
 7375SOL    HW123024   1.845   2.678   1.281
 7375SOL    HW223025   1.998   2.734   1.285
 7376SOL     OW23026   6.488   5.245   0.443
 7376SOL    HW123027   6.529   5.164   0.485
 7376SOL    HW223028   6.409   5.218   0.388
 7377SOL     OW23029   2.623   5.990   1.002
 7377SOL    HW123030   2.639   5.913   1.063
 7377SOL    HW223031   2.524   5.999   0.985
 7378SOL     OW23032   2.525   5.218   5.823
 7378SOL    HW123033   2.594   5.195   5.891
 7378SOL    HW223034   2.537   5.161   5.742
 7379SOL     OW23035   5.543   2.516   2.400
 7379SOL    HW123036   5.585   2.452   2.336
 7379SOL    HW223037   5.444   2.501   2.403
 7380SOL     OW23038   5.183   3.756   1.452
 7380SOL    HW123039   5.250   3.686   1.478
 7380SOL    HW223040   5.099   3.713   1.421
 7381SOL     OW23041   4.018   6.849   2.092
 7381SOL    HW123042   4.014   6.947   2.112
 7381SOL    HW223043   4.068   6.834   2.007
 7382SOL     OW23044   0.443   2.521   6.749
 7382SOL    HW123045   0.457   2.502   6.847
 7382SOL    HW223046   0.499   2.459   6.695
 7383SOL     OW23047   2.512   6.911   0.991
 7383SOL    HW123048   2.429   6.917   0.935
 7383SOL    HW223049   2.505   6.835   1.054
 7384SOL     OW23050   6.797   0.609   0.064
 7384SOL    HW123051   6.774   0.520   0.105
 7384SOL    HW223052   6.894   0.629   0.081
 7385SOL     OW23053   6.473   4.496   3.331
 7385SOL    HW123054   6.548   4.545   3.375
 7385SOL    HW223055   6.509   4.413   3.287
 7386SOL     OW23056   6.537   4.278   0.382
 7386SOL    HW123057   6.594   4.347   0.426
 7386SOL    HW223058   6.454   4.322   0.345
 7387SOL     OW23059   6.843   5.723   4.192
 7387SOL    HW123060   6.921   5.713   4.254
 7387SOL    HW223061   6.842   5.817   4.156
 7388SOL     OW23062   2.274   4.161   2.765
 7388SOL    HW123063   2.200   4.225   2.786
 7388SOL    HW223064   2.342   4.163   2.839
 7389SOL     OW23065   6.943   2.933   0.720
 7389SOL    HW123066   6.891   2.855   0.686
 7389SOL    HW223067   0.014   2.928   0.686
 7390SOL     OW23068   3.958   2.126   4.083
 7390SOL    HW123069   3.877   2.137   4.141
 7390SOL    HW223070   3.929   2.100   3.991
 7391SOL     OW23071   3.447   3.766   2.564
 7391SOL    HW123072   3.386   3.819   2.622
 7391SOL    HW223073   3.483   3.688   2.615
 7392SOL     OW23074   3.637   6.576   0.884
 7392SOL    HW123075   3.585   6.557   0.800
 7392SOL    HW223076   3.692   6.495   0.907
 7393SOL     OW23077   4.947   5.488   3.327
 7393SOL    HW123078   4.915   5.563   3.269
 7393SOL    HW223079   4.963   5.407   3.271
 7394SOL     OW23080   1.845   2.175   6.221
 7394SOL    HW123081   1.912   2.125   6.167
 7394SOL    HW223082   1.760   2.122   6.226
 7395SOL     OW23083   2.913   6.090   1.361
 7395SOL    HW123084   2.903   6.025   1.286
 7395SOL    HW223085   2.926   6.041   1.447
 7396SOL     OW23086   1.363   5.071   2.079
 7396SOL    HW123087   1.407   5.139   2.138
 7396SOL    HW223088   1.431   5.031   2.017
 7397SOL     OW23089   6.111   4.914   3.811
 7397SOL    HW123090   6.096   5.013   3.812
 7397SOL    HW223091   6.023   4.867   3.808
 7398SOL     OW23092   3.317   5.216   1.913
 7398SOL    HW123093   3.410   5.246   1.890
 7398SOL    HW223094   3.276   5.280   1.978
 7399SOL     OW23095   6.427   1.968   5.322
 7399SOL    HW123096   6.445   1.981   5.225
 7399SOL    HW223097   6.507   1.925   5.365
 7400SOL     OW23098   3.803   3.435   5.647
 7400SOL    HW123099   3.709   3.404   5.664
 7400SOL    HW223100   3.805   3.493   5.566
 7401SOL     OW23101   2.128   2.144   4.033
 7401SOL    HW123102   2.113   2.234   4.074
 7401SOL    HW223103   2.083   2.139   3.945
 7402SOL     OW23104   3.290   5.368   4.236
 7402SOL    HW123105   3.329   5.344   4.147
 7402SOL    HW223106   3.342   5.323   4.308
 7403SOL     OW23107   1.776   4.948   4.247
 7403SOL    HW123108   1.681   4.958   4.215
 7403SOL    HW223109   1.829   4.900   4.177
 7404SOL     OW23110   1.564   3.377   1.215
 7404SOL    HW123111   1.571   3.335   1.125
 7404SOL    HW223112   1.469   3.378   1.245
 7405SOL     OW23113   3.692   6.815   6.355
 7405SOL    HW123114   3.752   6.736   6.357
 7405SOL    HW223115   3.602   6.790   6.391
 7406SOL     OW23116   0.493   2.500   4.400
 7406SOL    HW123117   0.459   2.530   4.489
 7406SOL    HW223118   0.416   2.467   4.345
 7407SOL     OW23119   1.389   6.130   4.400
 7407SOL    HW123120   1.295   6.131   4.435
 7407SOL    HW223121   1.433   6.217   4.422
 7408SOL     OW23122   4.302   5.258   5.697
 7408SOL    HW123123   4.303   5.182   5.631
 7408SOL    HW223124   4.267   5.340   5.652
 7409SOL     OW23125   6.324   5.191   1.555
 7409SOL    HW123126   6.290   5.215   1.646
 7409SOL    HW223127   6.303   5.265   1.491
 7410SOL     OW23128   6.140   1.116   0.758
 7410SOL    HW123129   6.107   1.033   0.713
 7410SOL    HW223130   6.219   1.094   0.815
 7411SOL     OW23131   3.643   1.795   5.486
 7411SOL    HW123132   3.619   1.715   5.432
 7411SOL    HW223133   3.561   1.835   5.526
 7412SOL     OW23134   4.247   6.824   7.013
 7412SOL    HW123135   4.163   6.779   6.985
 7412SOL    HW223136   4.323   6.759   7.009
 7413SOL     OW23137   4.791   1.025   3.890
 7413SOL    HW123138   4.701   0.989   3.865
 7413SOL    HW223139   4.862   0.973   3.843
 7414SOL     OW23140   2.921   0.947   4.317
 7414SOL    HW123141   2.958   1.027   4.365
 7414SOL    HW223142   2.957   0.944   4.224
 7415SOL     OW23143   4.613   0.844   5.885
 7415SOL    HW123144   4.546   0.839   5.811
 7415SOL    HW223145   4.579   0.794   5.964
 7416SOL     OW23146   0.979   0.152   1.636
 7416SOL    HW123147   0.986   0.176   1.539
 7416SOL    HW223148   0.985   0.052   1.646
 7417SOL     OW23149   0.179   0.332   1.883
 7417SOL    HW123150   0.253   0.281   1.927
 7417SOL    HW223151   0.212   0.373   1.798
 7418SOL     OW23152   1.835   3.594   6.406
 7418SOL    HW123153   1.810   3.691   6.399
 7418SOL    HW223154   1.853   3.571   6.501
 7419SOL     OW23155   6.661   2.961   4.481
 7419SOL    HW123156   6.636   3.041   4.427
 7419SOL    HW223157   6.621   2.968   4.573
 7420SOL     OW23158   0.044   0.226   0.471
 7420SOL    HW123159   0.114   0.255   0.537
 7420SOL    HW223160   6.993   0.179   0.520
 7421SOL     OW23161   6.360   3.939   1.116
 7421SOL    HW123162   6.362   3.887   1.031
 7421SOL    HW223163   6.449   3.980   1.133
 7422SOL     OW23164   5.761   3.572   1.533
 7422SOL    HW123165   5.700   3.635   1.487
 7422SOL    HW223166   5.799   3.507   1.467
 7423SOL     OW23167   4.277   2.450   5.600
 7423SOL    HW123168   4.183   2.483   5.616
 7423SOL    HW223169   4.296   2.451   5.502
 7424SOL     OW23170   0.654   1.749   3.868
 7424SOL    HW123171   0.579   1.773   3.929
 7424SOL    HW223172   0.730   1.813   3.881
 7425SOL     OW23173   5.589   0.165   0.976
 7425SOL    HW123174   5.606   0.105   1.054
 7425SOL    HW223175   5.547   0.113   0.902
 7426SOL     OW23176   3.645   3.497   5.322
 7426SOL    HW123177   3.558   3.448   5.321
 7426SOL    HW223178   3.720   3.431   5.316
 7427SOL     OW23179   2.672   0.977   1.680
 7427SOL    HW123180   2.608   1.009   1.750
 7427SOL    HW223181   2.686   1.048   1.612
 7428SOL     OW23182   1.696   6.847   5.337
 7428SOL    HW123183   1.736   6.859   5.246
 7428SOL    HW223184   1.769   6.830   5.403
 7429SOL     OW23185   1.094   0.748   2.557
 7429SOL    HW123186   1.073   0.700   2.472
 7429SOL    HW223187   1.010   0.757   2.612
 7430SOL     OW23188   6.452   4.162   2.474
 7430SOL    HW123189   6.369   4.174   2.419
 7430SOL    HW223190   6.436   4.197   2.566
 7431SOL     OW23191   0.972   2.421   4.339
 7431SOL    HW123192   0.881   2.456   4.315
 7431SOL    HW223193   0.962   2.337   4.393
 7432SOL     OW23194   1.152   1.083   2.834
 7432SOL    HW123195   1.230   1.089   2.771
 7432SOL    HW223196   1.171   1.137   2.915
 7433SOL     OW23197   3.605   0.244   6.478
 7433SOL    HW123198   3.591   0.190   6.561
 7433SOL    HW223199   3.644   0.333   6.501
 7434SOL     OW23200   4.315   6.965   3.772
 7434SOL    HW123201   4.241   0.009   3.767
 7434SOL    HW223202   4.333   6.942   3.867
 7435SOL     OW23203   5.090   4.632   3.443
 7435SOL    HW123204   4.997   4.647   3.410
 7435SOL    HW223205   5.147   4.711   3.420
 7436SOL     OW23206   4.323   2.853   5.994
 7436SOL    HW123207   4.407   2.836   6.045
 7436SOL    HW223208   4.248   2.872   6.058
 7437SOL     OW23209   3.839   0.477   1.595
 7437SOL    HW123210   3.861   0.541   1.521
 7437SOL    HW223211   3.885   0.505   1.679
 7438SOL     OW23212   1.907   0.956   6.696
 7438SOL    HW123213   1.890   1.000   6.784
 7438SOL    HW223214   1.971   1.012   6.643
 7439SOL     OW23215   1.686   4.270   6.383
 7439SOL    HW123216   1.722   4.334   6.316
 7439SOL    HW223217   1.625   4.205   6.338
 7440SOL     OW23218   6.105   2.753   4.358
 7440SOL    HW123219   6.159   2.707   4.429
 7440SOL    HW223220   6.027   2.800   4.400
 7441SOL     OW23221   4.276   6.735   0.389
 7441SOL    HW123222   4.373   6.755   0.376
 7441SOL    HW223223   4.265   6.640   0.419
 7442SOL     OW23224   6.332   1.124   6.512
 7442SOL    HW123225   6.413   1.106   6.456
 7442SOL    HW223226   6.266   1.177   6.459
 7443SOL     OW23227   0.299   6.757   0.969
 7443SOL    HW123228   0.214   6.731   0.923
 7443SOL    HW223229   0.281   6.771   1.067
 7444SOL     OW23230   1.758   5.617   6.614
 7444SOL    HW123231   1.662   5.605   6.638
 7444SOL    HW223232   1.786   5.543   6.552
 7445SOL     OW23233   3.715   6.311   2.982
 7445SOL    HW123234   3.760   6.234   3.028
 7445SOL    HW223235   3.729   6.304   2.884
 7446SOL     OW23236   6.582   5.000   0.548
 7446SOL    HW123237   6.637   4.949   0.614
 7446SOL    HW223238   6.487   4.970   0.554
 7447SOL     OW23239   0.951   5.569   0.552
 7447SOL    HW123240   0.931   5.580   0.650
 7447SOL    HW223241   0.935   5.474   0.525
 7448SOL     OW23242   4.787   4.962   6.931
 7448SOL    HW123243   4.887   4.971   6.925
 7448SOL    HW223244   4.758   4.883   6.877
 7449SOL     OW23245   6.749   3.966   6.923
 7449SOL    HW123246   6.781   3.877   6.890
 7449SOL    HW223247   6.781   4.037   6.860
 7450SOL     OW23248   5.187   3.429   0.479
 7450SOL    HW123249   5.279   3.442   0.443
 7450SOL    HW223250   5.192   3.404   0.576
 7451SOL     OW23251   4.257   4.891   2.976
 7451SOL    HW123252   4.200   4.858   2.900
 7451SOL    HW223253   4.238   4.838   3.058
 7452SOL     OW23254   6.644   5.854   0.049
 7452SOL    HW123255   6.558   5.887   0.010
 7452SOL    HW223256   6.704   5.825   6.998
 7453SOL     OW23257   4.630   4.926   6.174
 7453SOL    HW123258   4.577   5.007   6.149
 7453SOL    HW223259   4.569   4.859   6.216
 7454SOL     OW23260   4.104   2.266   1.168
 7454SOL    HW123261   4.202   2.246   1.170
 7454SOL    HW223262   4.086   2.346   1.226
 7455SOL     OW23263   6.358   0.536   3.034
 7455SOL    HW123264   6.371   0.455   3.091
 7455SOL    HW223265   6.315   0.509   2.948
 7456SOL     OW23266   2.911   1.181   5.629
 7456SOL    HW123267   2.889   1.278   5.643
 7456SOL    HW223268   2.828   1.131   5.606
 7457SOL     OW23269   1.093   1.936   2.212
 7457SOL    HW123270   1.190   1.927   2.237
 7457SOL    HW223271   1.045   1.987   2.283
 7458SOL     OW23272   0.156   5.985   5.188
 7458SOL    HW123273   0.070   5.979   5.137
 7458SOL    HW223274   0.230   6.012   5.127
 7459SOL     OW23275   5.664   6.852   3.285
 7459SOL    HW123276   5.596   6.783   3.310
 7459SOL    HW223277   5.647   6.884   3.192
 7460SOL     OW23278   0.603   0.295   1.032
 7460SOL    HW123279   0.602   0.335   1.124
 7460SOL    HW223280   0.697   0.274   1.006
 7461SOL     OW23281   1.900   4.105   5.555
 7461SOL    HW123282   1.840   4.099   5.475
 7461SOL    HW223283   1.974   4.170   5.536
 7462SOL     OW23284   2.070   4.481   6.999
 7462SOL    HW123285   2.112   4.468   0.066
 7462SOL    HW223286   1.971   4.489   7.009
 7463SOL     OW23287   5.019   4.967   0.884
 7463SOL    HW123288   4.934   5.008   0.850
 7463SOL    HW223289   5.097   5.020   0.851
 7464SOL     OW23290   5.489   4.765   5.279
 7464SOL    HW123291   5.517   4.689   5.221
 7464SOL    HW223292   5.570   4.813   5.314
 7465SOL     OW23293   1.428   3.493   6.604
 7465SOL    HW123294   1.465   3.460   6.691
 7465SOL    HW223295   1.466   3.583   6.583
 7466SOL     OW23296   0.572   6.955   5.415
 7466SOL    HW123297   0.550   6.906   5.500
 7466SOL    HW223298   0.671   6.967   5.409
 7467SOL     OW23299   0.745   3.544   4.075
 7467SOL    HW123300   0.725   3.448   4.097
 7467SOL    HW223301   0.843   3.554   4.058
 7468SOL     OW23302   6.277   2.584   4.519
 7468SOL    HW123303   6.291   2.486   4.535
 7468SOL    HW223304   6.364   2.627   4.496
 7469SOL     OW23305   0.056   2.164   6.964
 7469SOL    HW123306   0.147   2.163   6.924
 7469SOL    HW223307   0.011   2.251   6.945
 7470SOL     OW23308   5.231   2.971   3.815
 7470SOL    HW123309   5.181   2.908   3.756
 7470SOL    HW223310   5.316   2.928   3.845
 7471SOL     OW23311   3.448   6.831   6.479
 7471SOL    HW123312   3.357   6.865   6.501
 7471SOL    HW223313   3.481   6.774   6.553
 7472SOL     OW23314   6.786   0.048   5.637
 7472SOL    HW123315   6.847   0.074   5.712
 7472SOL    HW223316   6.784   0.121   5.569
 7473SOL     OW23317   4.359   6.509   3.355
 7473SOL    HW123318   4.279   6.499   3.414
 7473SOL    HW223319   4.329   6.534   3.263
 7474SOL     OW23320   6.091   2.198   1.175
 7474SOL    HW123321   6.182   2.211   1.136
 7474SOL    HW223322   6.030   2.269   1.141
 7475SOL     OW23323   5.132   2.350   1.381
 7475SOL    HW123324   5.167   2.408   1.308
 7475SOL    HW223325   5.205   2.289   1.412
 7476SOL     OW23326   2.372   1.284   2.918
 7476SOL    HW123327   2.295   1.248   2.866
 7476SOL    HW223328   2.361   1.263   3.015
 7477SOL     OW23329   2.482   3.841   6.051
 7477SOL    HW123330   2.512   3.936   6.060
 7477SOL    HW223331   2.534   3.797   5.979
 7478SOL     OW23332   0.471   2.696   6.446
 7478SOL    HW123333   0.456   2.667   6.351
 7478SOL    HW223334   0.396   2.756   6.474
 7479SOL     OW23335   5.796   2.639   1.644
 7479SOL    HW123336   5.838   2.654   1.734
 7479SOL    HW223337   5.759   2.546   1.640
 7480SOL     OW23338   3.746   6.056   2.469
 7480SOL    HW123339   3.752   6.003   2.385
 7480SOL    HW223340   3.651   6.057   2.502
 7481SOL     OW23341   0.408   4.099   7.011
 7481SOL    HW123342   0.400   4.007   0.027
 7481SOL    HW223343   0.345   4.161   0.034
 7482SOL     OW23344   4.099   1.630   4.572
 7482SOL    HW123345   4.047   1.567   4.515
 7482SOL    HW223346   4.192   1.596   4.584
 7483SOL     OW23347   5.435   1.297   5.846
 7483SOL    HW123348   5.397   1.252   5.765
 7483SOL    HW223349   5.395   1.255   5.928
 7484SOL     OW23350   2.373   0.100   4.680
 7484SOL    HW123351   2.306   0.027   4.668
 7484SOL    HW223352   2.393   0.110   4.778
 7485SOL     OW23353   3.997   0.215   6.865
 7485SOL    HW123354   4.002   0.139   6.930
 7485SOL    HW223355   3.910   0.263   6.877
 7486SOL     OW23356   4.284   6.115   0.935
 7486SOL    HW123357   4.380   6.129   0.958
 7486SOL    HW223358   4.239   6.203   0.923
 7487SOL     OW23359   2.909   6.342   4.418
 7487SOL    HW123360   2.971   6.396   4.361
 7487SOL    HW223361   2.850   6.403   4.470
 7488SOL     OW23362   1.627   5.985   3.721
 7488SOL    HW123363   1.643   5.933   3.805
 7488SOL    HW223364   1.562   5.936   3.663
 7489SOL     OW23365   5.052   3.367   6.133
 7489SOL    HW123366   5.036   3.417   6.218
 7489SOL    HW223367   5.092   3.429   6.065
 7490SOL     OW23368   1.960   2.203   1.429
 7490SOL    HW123369   2.033   2.270   1.414
 7490SOL    HW223370   1.998   2.110   1.420
 7491SOL     OW23371   4.650   4.196   6.464
 7491SOL    HW123372   4.605   4.143   6.393
 7491SOL    HW223373   4.729   4.146   6.499
 7492SOL     OW23374   1.639   0.913   3.061
 7492SOL    HW123375   1.552   0.919   3.111
 7492SOL    HW223376   1.661   1.002   3.021
 7493SOL     OW23377   6.079   4.924   4.332
 7493SOL    HW123378   6.095   4.996   4.400
 7493SOL    HW223379   6.159   4.914   4.274
 7494SOL     OW23380   6.072   0.886   2.286
 7494SOL    HW123381   6.009   0.936   2.344
 7494SOL    HW223382   6.025   0.854   2.203
 7495SOL     OW23383   1.518   3.479   4.336
 7495SOL    HW123384   1.582   3.402   4.330
 7495SOL    HW223385   1.540   3.534   4.416
 7496SOL     OW23386   5.942   2.798   3.370
 7496SOL    HW123387   5.885   2.836   3.297
 7496SOL    HW223388   5.905   2.710   3.399
 7497SOL     OW23389   6.212   0.281   1.283
 7497SOL    HW123390   6.247   0.364   1.241
 7497SOL    HW223391   6.280   0.207   1.274
 7498SOL     OW23392   2.165   6.313   3.171
 7498SOL    HW123393   2.078   6.332   3.126
 7498SOL    HW223394   2.179   6.379   3.245
 7499SOL     OW23395   2.952   1.194   3.140
 7499SOL    HW123396   2.871   1.166   3.089
 7499SOL    HW223397   3.004   1.114   3.170
 7500SOL     OW23398   3.677   1.254   4.751
 7500SOL    HW123399   3.664   1.348   4.720
 7500SOL    HW223400   3.756   1.214   4.705
 7501SOL     OW23401   5.874   2.104   3.729
 7501SOL    HW123402   5.775   2.115   3.741
 7501SOL    HW223403   5.921   2.180   3.775
 7502SOL     OW23404   3.751   1.174   3.603
 7502SOL    HW123405   3.733   1.106   3.675
 7502SOL    HW223406   3.744   1.130   3.514
 7503SOL     OW23407   1.029   5.842   0.575
 7503SOL    HW123408   0.993   5.765   0.522
 7503SOL    HW223409   0.954   5.887   0.623
 7504SOL     OW23410   5.561   6.213   4.787
 7504SOL    HW123411   5.562   6.115   4.804
 7504SOL    HW223412   5.651   6.252   4.806
 7505SOL     OW23413   0.470   6.472   6.380
 7505SOL    HW123414   0.555   6.457   6.329
 7505SOL    HW223415   0.410   6.533   6.329
 7506SOL     OW23416   3.746   2.063   4.531
 7506SOL    HW123417   3.685   2.017   4.596
 7506SOL    HW223418   3.830   2.010   4.521
 7507SOL     OW23419   6.698   3.898   6.383
 7507SOL    HW123420   6.619   3.862   6.333
 7507SOL    HW223421   6.766   3.932   6.318
 7508SOL     OW23422   3.348   6.383   0.049
 7508SOL    HW123423   3.261   6.396   0.001
 7508SOL    HW223424   3.392   6.471   0.064
 7509SOL     OW23425   5.724   4.269   3.103
 7509SOL    HW123426   5.716   4.269   3.203
 7509SOL    HW223427   5.725   4.175   3.070
 7510SOL     OW23428   3.369   4.832   1.449
 7510SOL    HW123429   3.411   4.921   1.468
 7510SOL    HW223430   3.350   4.785   1.535
 7511SOL     OW23431   5.145   5.686   3.727
 7511SOL    HW123432   5.218   5.628   3.762
 7511SOL    HW223433   5.117   5.654   3.636
 7512SOL     OW23434   4.248   6.375   0.882
 7512SOL    HW123435   4.336   6.404   0.843
 7512SOL    HW223436   4.174   6.429   0.841
 7513SOL     OW23437   0.448   0.354   2.278
 7513SOL    HW123438   0.483   0.279   2.335
 7513SOL    HW223439   0.366   0.393   2.321
 7514SOL     OW23440   0.301   0.547   0.527
 7514SOL    HW123441   0.241   0.492   0.585
 7514SOL    HW223442   0.371   0.590   0.583
 7515SOL     OW23443   0.071   5.011   5.005
 7515SOL    HW123444   0.151   4.958   4.976
 7515SOL    HW223445   7.012   4.954   5.002
 7516SOL     OW23446   2.406   6.106   5.179
 7516SOL    HW123447   2.376   6.140   5.268
 7516SOL    HW223448   2.374   6.012   5.167
 7517SOL     OW23449   0.666   2.553   0.306
 7517SOL    HW123450   0.587   2.595   0.352
 7517SOL    HW223451   0.749   2.604   0.327
 7518SOL     OW23452   3.915   2.066   4.940
 7518SOL    HW123453   3.988   2.076   5.007
 7518SOL    HW223454   3.946   2.101   4.851
 7519SOL     OW23455   3.150   6.063   4.837
 7519SOL    HW123456   3.149   6.161   4.856
 7519SOL    HW223457   3.225   6.042   4.774
 7520SOL     OW23458   2.196   0.724   0.869
 7520SOL    HW123459   2.096   0.722   0.876
 7520SOL    HW223460   2.228   0.818   0.882
 7521SOL     OW23461   4.402   1.288   5.681
 7521SOL    HW123462   4.333   1.294   5.609
 7521SOL    HW223463   4.388   1.362   5.747
 7522SOL     OW23464   1.514   6.479   4.324
 7522SOL    HW123465   1.480   6.460   4.416
 7522SOL    HW223466   1.587   6.414   4.301
 7523SOL     OW23467   5.601   1.765   6.828
 7523SOL    HW123468   5.670   1.708   6.871
 7523SOL    HW223469   5.511   1.723   6.841
 7524SOL     OW23470   0.228   3.954   4.789
 7524SOL    HW123471   0.131   3.951   4.813
 7524SOL    HW223472   0.276   4.016   4.850
 7525SOL     OW23473   2.294   4.886   5.596
 7525SOL    HW123474   2.345   4.868   5.680
 7525SOL    HW223475   2.208   4.835   5.598
 7526SOL     OW23476   1.313   4.625   0.585
 7526SOL    HW123477   1.323   4.543   0.643
 7526SOL    HW223478   1.387   4.689   0.605
 7527SOL     OW23479   2.753   4.995   2.288
 7527SOL    HW123480   2.754   4.912   2.233
 7527SOL    HW223481   2.846   5.021   2.311
 7528SOL     OW23482   6.596   2.805   0.174
 7528SOL    HW123483   6.669   2.814   0.106
 7528SOL    HW223484   6.515   2.764   0.131
 7529SOL     OW23485   5.911   2.912   4.754
 7529SOL    HW123486   5.968   2.906   4.836
 7529SOL    HW223487   5.839   2.842   4.759
 7530SOL     OW23488   1.139   2.562   3.304
 7530SOL    HW123489   1.171   2.645   3.260
 7530SOL    HW223490   1.150   2.570   3.403
 7531SOL     OW23491   4.330   1.684   3.851
 7531SOL    HW123492   4.335   1.784   3.845
 7531SOL    HW223493   4.406   1.644   3.801
 7532SOL     OW23494   4.497   4.744   6.415
 7532SOL    HW123495   4.427   4.701   6.472
 7532SOL    HW223496   4.570   4.781   6.473
 7533SOL     OW23497   4.250   4.758   1.279
 7533SOL    HW123498   4.202   4.777   1.364
 7533SOL    HW223499   4.230   4.665   1.249
 7534SOL     OW23500   4.582   6.463   5.013
 7534SOL    HW123501   4.600   6.508   4.925
 7534SOL    HW223502   4.484   6.448   5.023
 7535SOL     OW23503   0.633   6.760   4.556
 7535SOL    HW123504   0.695   6.747   4.479
 7535SOL    HW223505   0.541   6.782   4.523
 7536SOL     OW23506   6.203   0.058   2.718
 7536SOL    HW123507   6.113   0.101   2.730
 7536SOL    HW223508   6.213   0.029   2.623
 7537SOL     OW23509   2.341   0.429   2.254
 7537SOL    HW123510   2.250   0.409   2.290
 7537SOL    HW223511   2.357   0.377   2.171
 7538SOL     OW23512   6.965   4.691   7.022
 7538SOL    HW123513   6.924   4.603   6.996
 7538SOL    HW223514   6.988   4.690   0.096
 7539SOL     OW23515   6.503   0.464   4.978
 7539SOL    HW123516   6.555   0.432   4.898
 7539SOL    HW223517   6.456   0.386   5.019
 7540SOL     OW23518   5.241   3.737   3.365
 7540SOL    HW123519   5.253   3.638   3.355
 7540SOL    HW223520   5.170   3.755   3.432
 7541SOL     OW23521   2.309   3.842   0.014
 7541SOL    HW123522   2.252   3.911   0.059
 7541SOL    HW223523   2.314   3.862   6.939
 7542SOL     OW23524   6.452   5.580   4.903
 7542SOL    HW123525   6.471   5.630   4.818
 7542SOL    HW223526   6.353   5.578   4.919
 7543SOL     OW23527   2.274   0.983   0.885
 7543SOL    HW123528   2.237   1.074   0.864
 7543SOL    HW223529   2.368   0.976   0.851
 7544SOL     OW23530   5.593   1.559   5.207
 7544SOL    HW123531   5.503   1.517   5.218
 7544SOL    HW223532   5.623   1.550   5.112
 7545SOL     OW23533   1.293   5.508   5.197
 7545SOL    HW123534   1.209   5.536   5.245
 7545SOL    HW223535   1.269   5.478   5.104
 7546SOL     OW23536   2.398   2.977   1.678
 7546SOL    HW123537   2.302   2.979   1.649
 7546SOL    HW223538   2.403   2.958   1.776
 7547SOL     OW23539   4.081   0.057   2.434
 7547SOL    HW123540   3.983   0.062   2.449
 7547SOL    HW223541   4.111   6.984   2.435
 7548SOL     OW23542   2.413   2.158   6.114
 7548SOL    HW123543   2.351   2.155   6.192
 7548SOL    HW223544   2.360   2.175   6.031
 7549SOL     OW23545   4.732   0.432   4.582
 7549SOL    HW123546   4.639   0.466   4.569
 7549SOL    HW223547   4.729   0.338   4.615
 7550SOL     OW23548   2.302   5.868   5.106
 7550SOL    HW123549   2.297   5.867   5.006
 7550SOL    HW223550   2.247   5.794   5.143
 7551SOL     OW23551   6.421   3.251   6.171
 7551SOL    HW123552   6.515   3.221   6.156
 7551SOL    HW223553   6.420   3.346   6.200
 7552SOL     OW23554   2.763   6.537   4.521
 7552SOL    HW123555   2.738   6.526   4.617
 7552SOL    HW223556   2.800   6.628   4.506
 7553SOL     OW23557   6.364   0.022   5.636
 7553SOL    HW123558   6.396   0.111   5.603
 7553SOL    HW223559   6.419   6.973   5.595
 7554SOL     OW23560   5.331   1.328   1.803
 7554SOL    HW123561   5.263   1.330   1.730
 7554SOL    HW223562   5.360   1.421   1.825
 7555SOL     OW23563   4.714   5.463   4.322
 7555SOL    HW123564   4.702   5.493   4.227
 7555SOL    HW223565   4.652   5.388   4.342
 7556SOL     OW23566   0.767   6.002   0.580
 7556SOL    HW123567   0.708   5.950   0.642
 7556SOL    HW223568   0.829   6.059   0.633
 7557SOL     OW23569   4.196   6.085   0.491
 7557SOL    HW123570   4.257   6.162   0.477
 7557SOL    HW223571   4.242   6.014   0.544
 7558SOL     OW23572   0.923   1.336   3.976
 7558SOL    HW123573   0.843   1.275   3.986
 7558SOL    HW223574   0.903   1.406   3.908
 7559SOL     OW23575   1.470   0.112   5.247
 7559SOL    HW123576   1.425   0.115   5.158
 7559SOL    HW223577   1.527   0.029   5.252
 7560SOL     OW23578   0.855   0.438   5.622
 7560SOL    HW123579   0.954   0.441   5.631
 7560SOL    HW223580   0.814   0.511   5.676
 7561SOL     OW23581   5.306   1.183   5.078
 7561SOL    HW123582   5.296   1.140   5.167
 7561SOL    HW223583   5.216   1.202   5.039
 7562SOL     OW23584   1.792   5.745   3.536
 7562SOL    HW123585   1.770   5.826   3.482
 7562SOL    HW223586   1.845   5.771   3.616
 7563SOL     OW23587   2.848   6.540   3.446
 7563SOL    HW123588   2.770   6.602   3.441
 7563SOL    HW223589   2.856   6.489   3.360
 7564SOL     OW23590   5.080   2.885   5.799
 7564SOL    HW123591   5.138   2.820   5.849
 7564SOL    HW223592   4.989   2.888   5.842
 7565SOL     OW23593   6.652   3.560   5.619
 7565SOL    HW123594   6.661   3.643   5.674
 7565SOL    HW223595   6.625   3.584   5.526
 7566SOL     OW23596   4.598   4.320   1.506
 7566SOL    HW123597   4.658   4.372   1.446
 7566SOL    HW223598   4.633   4.322   1.600
 7567SOL     OW23599   1.310   0.181   3.338
 7567SOL    HW123600   1.234   0.230   3.296
 7567SOL    HW223601   1.394   0.234   3.327
 7568SOL     OW23602   0.127   3.967   1.060
 7568SOL    HW123603   0.036   3.950   1.023
 7568SOL    HW223604   0.119   3.996   1.155
 7569SOL     OW23605   4.455   3.741   1.459
 7569SOL    HW123606   4.361   3.770   1.474
 7569SOL    HW223607   4.487   3.777   1.371
 7570SOL     OW23608   1.090   2.718   1.753
 7570SOL    HW123609   1.025   2.642   1.756
 7570SOL    HW223610   1.175   2.690   1.798
 7571SOL     OW23611   4.812   1.628   3.616
 7571SOL    HW123612   4.857   1.623   3.527
 7571SOL    HW223613   4.795   1.723   3.640
 7572SOL     OW23614   4.779   6.655   3.189
 7572SOL    HW123615   4.760   6.710   3.270
 7572SOL    HW223616   4.696   6.646   3.134
 7573SOL     OW23617   3.773   0.008   5.984
 7573SOL    HW123618   3.847   0.004   5.916
 7573SOL    HW223619   3.800   0.070   6.058
 7574SOL     OW23620   0.567   3.057   3.535
 7574SOL    HW123621   0.551   2.958   3.526
 7574SOL    HW223622   0.498   3.107   3.482
 7575SOL     OW23623   0.002   0.014   0.254
 7575SOL    HW123624   0.017   0.089   0.318
 7575SOL    HW223625   6.927   7.016   0.250
 7576SOL     OW23626   4.580   2.884   0.318
 7576SOL    HW123627   4.673   2.916   0.335
 7576SOL    HW223628   4.528   2.883   0.404
 7577SOL     OW23629   6.902   0.281   6.513
 7577SOL    HW123630   6.895   0.191   6.471
 7577SOL    HW223631   6.973   0.280   6.584
 7578SOL     OW23632   6.003   5.486   2.768
 7578SOL    HW123633   6.048   5.575   2.756
 7578SOL    HW223634   6.071   5.413   2.757
 7579SOL     OW23635   1.280   1.818   6.808
 7579SOL    HW123636   1.272   1.720   6.827
 7579SOL    HW223637   1.287   1.832   6.709
 7580SOL     OW23638   2.189   5.067   2.550
 7580SOL    HW123639   2.101   5.103   2.519
 7580SOL    HW223640   2.192   4.968   2.535
 7581SOL     OW23641   0.439   0.239   0.821
 7581SOL    HW123642   0.505   0.281   0.884
 7581SOL    HW223643   0.447   0.140   0.825
 7582SOL     OW23644   1.842   0.938   5.853
 7582SOL    HW123645   1.919   0.981   5.805
 7582SOL    HW223646   1.870   0.916   5.947
 7583SOL     OW23647   5.537   3.768   2.068
 7583SOL    HW123648   5.526   3.866   2.086
 7583SOL    HW223649   5.507   3.716   2.148
 7584SOL     OW23650   0.034   0.655   3.361
 7584SOL    HW123651   6.984   0.644   3.294
 7584SOL    HW223652   0.022   0.742   3.409
 7585SOL     OW23653   0.888   1.305   5.710
 7585SOL    HW123654   0.804   1.342   5.669
 7585SOL    HW223655   0.939   1.380   5.752
 7586SOL     OW23656   1.740   6.622   3.939
 7586SOL    HW123657   1.658   6.615   3.882
 7586SOL    HW223658   1.722   6.684   4.015
 7587SOL     OW23659   5.408   0.081   2.121
 7587SOL    HW123660   5.454   0.053   2.036
 7587SOL    HW223661   5.463   0.054   2.199
 7588SOL     OW23662   2.156   3.622   4.526
 7588SOL    HW123663   2.120   3.712   4.549
 7588SOL    HW223664   2.081   3.563   4.495
 7589SOL     OW23665   6.968   0.038   2.613
 7589SOL    HW123666   7.006   0.001   2.698
 7589SOL    HW223667   6.885   0.090   2.633
 7590SOL     OW23668   5.763   0.926   0.035
 7590SOL    HW123669   5.691   0.884   7.003
 7590SOL    HW223670   5.785   1.017   7.022
 7591SOL     OW23671   3.191   4.098   4.900
 7591SOL    HW123672   3.209   4.128   4.806
 7591SOL    HW223673   3.245   4.153   4.963
 7592SOL     OW23674   0.304   6.455   3.404
 7592SOL    HW123675   0.331   6.391   3.332
 7592SOL    HW223676   0.379   6.465   3.470
 7593SOL     OW23677   6.905   1.458   6.123
 7593SOL    HW123678   6.992   1.410   6.112
 7593SOL    HW223679   6.841   1.428   6.052
 7594SOL     OW23680   6.861   4.092   6.209
 7594SOL    HW123681   6.774   4.140   6.219
 7594SOL    HW223682   6.851   4.019   6.142
 7595SOL     OW23683   0.018   3.209   0.185
 7595SOL    HW123684   6.943   3.226   0.198
 7595SOL    HW223685   0.034   3.181   0.090
 7596SOL     OW23686   3.325   1.729   6.644
 7596SOL    HW123687   3.398   1.762   6.703
 7596SOL    HW223688   3.350   1.742   6.548
 7597SOL     OW23689   2.430   4.391   0.687
 7597SOL    HW123690   2.364   4.406   0.760
 7597SOL    HW223691   2.522   4.407   0.720
 7598SOL     OW23692   5.055   0.604   1.997
 7598SOL    HW123693   4.959   0.632   2.003
 7598SOL    HW223694   5.113   0.685   1.991
 7599SOL     OW23695   3.066   3.149   0.244
 7599SOL    HW123696   3.023   3.064   0.276
 7599SOL    HW223697   2.998   3.206   0.199
 7600SOL     OW23698   0.797   6.724   3.691
 7600SOL    HW123699   0.856   6.804   3.682
 7600SOL    HW223700   0.728   6.741   3.761
 7601SOL     OW23701   2.994   6.424   1.122
 7601SOL    HW123702   2.909   6.472   1.101
 7601SOL    HW223703   3.018   6.438   1.218
 7602SOL     OW23704   0.383   1.208   1.441
 7602SOL    HW123705   0.464   1.174   1.393
 7602SOL    HW223706   0.390   1.307   1.451
 7603SOL     OW23707   4.463   1.239   6.482
 7603SOL    HW123708   4.555   1.266   6.454
 7603SOL    HW223709   4.420   1.185   6.409
 7604SOL     OW23710   2.643   2.424   5.245
 7604SOL    HW123711   2.709   2.413   5.171
 7604SOL    HW223712   2.552   2.397   5.213
 7605SOL     OW23713   3.106   5.674   0.069
 7605SOL    HW123714   3.147   5.615   0.139
 7605SOL    HW223715   3.178   5.728   0.026
 7606SOL     OW23716   6.092   0.543   3.287
 7606SOL    HW123717   6.022   0.566   3.219
 7606SOL    HW223718   6.171   0.603   3.275
 7607SOL     OW23719   1.952   5.533   5.544
 7607SOL    HW123720   1.929   5.612   5.487
 7607SOL    HW223721   1.927   5.449   5.495
 7608SOL     OW23722   0.198   2.957   6.282
 7608SOL    HW123723   0.227   2.955   6.378
 7608SOL    HW223724   0.203   3.050   6.247
 7609SOL     OW23725   3.118   0.048   4.865
 7609SOL    HW123726   3.155   0.116   4.928
 7609SOL    HW223727   3.192   7.015   4.829
 7610SOL     OW23728   4.087   5.387   4.006
 7610SOL    HW123729   4.081   5.294   3.970
 7610SOL    HW223730   4.131   5.386   4.096
 7611SOL     OW23731   3.810   2.368   0.356
 7611SOL    HW123732   3.870   2.339   0.281
 7611SOL    HW223733   3.745   2.436   0.322
 7612SOL     OW23734   4.598   2.558   2.250
 7612SOL    HW123735   4.568   2.576   2.156
 7612SOL    HW223736   4.522   2.518   2.301
 7613SOL     OW23737   0.333   0.682   6.997
 7613SOL    HW123738   0.339   0.671   0.073
 7613SOL    HW223739   0.294   0.600   6.956
 7614SOL     OW23740   6.098   5.372   6.749
 7614SOL    HW123741   6.178   5.409   6.797
 7614SOL    HW223742   6.125   5.289   6.700
 7615SOL     OW23743   5.052   3.228   6.407
 7615SOL    HW123744   5.103   3.188   6.331
 7615SOL    HW223745   4.960   3.190   6.410
 7616SOL     OW23746   6.519   6.665   1.778
 7616SOL    HW123747   6.525   6.595   1.849
 7616SOL    HW223748   6.513   6.755   1.821
 7617SOL     OW23749   6.064   4.367   3.052
 7617SOL    HW123750   5.987   4.357   2.989
 7617SOL    HW223751   6.030   4.364   3.146
 7618SOL     OW23752   2.930   2.195   0.293
 7618SOL    HW123753   2.927   2.103   0.254
 7618SOL    HW223754   2.873   2.256   0.238
 7619SOL     OW23755   0.715   0.392   4.835
 7619SOL    HW123756   0.730   0.468   4.898
 7619SOL    HW223757   0.699   0.428   4.743
 7620SOL     OW23758   3.751   4.188   0.344
 7620SOL    HW123759   3.723   4.191   0.440
 7620SOL    HW223760   3.841   4.232   0.334
 7621SOL     OW23761   6.301   4.946   0.506
 7621SOL    HW123762   6.328   4.855   0.476
 7621SOL    HW223763   6.226   4.938   0.571
 7622SOL     OW23764   2.540   4.205   0.990
 7622SOL    HW123765   2.540   4.291   0.939
 7622SOL    HW223766   2.536   4.225   1.088
 7623SOL     OW23767   4.897   4.344   2.978
 7623SOL    HW123768   4.805   4.364   3.013
 7623SOL    HW223769   4.955   4.315   3.054
 7624SOL     OW23770   6.806   3.042   2.770
 7624SOL    HW123771   6.835   2.952   2.804
 7624SOL    HW223772   6.860   3.113   2.816
 7625SOL     OW23773   5.101   0.329   1.912
 7625SOL    HW123774   5.020   0.272   1.899
 7625SOL    HW223775   5.074   0.419   1.946
 7626SOL     OW23776   4.692   6.371   0.237
 7626SOL    HW123777   4.685   6.470   0.242
 7626SOL    HW223778   4.760   6.346   0.169
 7627SOL     OW23779   4.368   2.584   5.824
 7627SOL    HW123780   4.358   2.527   5.743
 7627SOL    HW223781   4.330   2.674   5.807
 7628SOL     OW23782   3.719   2.680   1.076
 7628SOL    HW123783   3.634   2.629   1.058
 7628SOL    HW223784   3.699   2.778   1.074
 7629SOL     OW23785   5.369   2.888   3.281
 7629SOL    HW123786   5.280   2.849   3.258
 7629SOL    HW223787   5.441   2.824   3.254
 7630SOL     OW23788   1.110   6.010   3.666
 7630SOL    HW123789   1.134   5.946   3.739
 7630SOL    HW223790   1.159   6.096   3.680
 7631SOL     OW23791   1.267   1.234   6.497
 7631SOL    HW123792   1.311   1.146   6.479
 7631SOL    HW223793   1.195   1.250   6.429
 7632SOL     OW23794   4.195   5.654   1.731
 7632SOL    HW123795   4.110   5.662   1.679
 7632SOL    HW223796   4.178   5.674   1.827
 7633SOL     OW23797   5.026   0.599   1.694
 7633SOL    HW123798   5.102   0.570   1.751
 7633SOL    HW223799   4.972   0.667   1.743
 7634SOL     OW23800   0.296   2.111   6.816
 7634SOL    HW123801   0.387   2.143   6.841
 7634SOL    HW223802   0.293   2.011   6.818
 7635SOL     OW23803   1.244   3.161   5.849
 7635SOL    HW123804   1.270   3.065   5.856
 7635SOL    HW223805   1.152   3.168   5.812
 7636SOL     OW23806   6.770   2.829   3.737
 7636SOL    HW123807   6.836   2.904   3.735
 7636SOL    HW223808   6.696   2.851   3.801
 7637SOL     OW23809   1.323   4.080   4.985
 7637SOL    HW123810   1.225   4.085   5.001
 7637SOL    HW223811   1.350   4.147   4.916
 7638SOL     OW23812   0.760   6.649   0.903
 7638SOL    HW123813   0.729   6.556   0.922
 7638SOL    HW223814   0.766   6.662   0.804
 7639SOL     OW23815   2.378   6.706   0.432
 7639SOL    HW123816   2.282   6.683   0.451
 7639SOL    HW223817   2.402   6.673   0.340
 7640SOL     OW23818   3.232   0.428   0.770
 7640SOL    HW123819   3.193   0.346   0.811
 7640SOL    HW223820   3.332   0.425   0.776
 7641SOL     OW23821   6.455   4.831   4.879
 7641SOL    HW123822   6.519   4.905   4.897
 7641SOL    HW223823   6.505   4.749   4.850
 7642SOL     OW23824   5.844   1.127   3.779
 7642SOL    HW123825   5.776   1.144   3.851
 7642SOL    HW223826   5.873   1.214   3.740
 7643SOL     OW23827   5.120   1.987   4.133
 7643SOL    HW123828   5.157   1.946   4.050
 7643SOL    HW223829   5.136   2.086   4.132
 7644SOL     OW23830   5.477   3.896   0.739
 7644SOL    HW123831   5.566   3.858   0.713
 7644SOL    HW223832   5.409   3.872   0.669
 7645SOL     OW23833   5.173   5.209   6.246
 7645SOL    HW123834   5.076   5.216   6.223
 7645SOL    HW223835   5.196   5.113   6.261
 7646SOL     OW23836   6.286   1.734   1.961
 7646SOL    HW123837   6.272   1.794   2.040
 7646SOL    HW223838   6.379   1.747   1.925
 7647SOL     OW23839   6.933   1.588   4.018
 7647SOL    HW123840   7.020   1.601   4.065
 7647SOL    HW223841   6.908   1.672   3.970
 7648SOL     OW23842   1.817   2.444   0.865
 7648SOL    HW123843   1.790   2.397   0.782
 7648SOL    HW223844   1.843   2.538   0.843
 7649SOL     OW23845   4.030   0.540   0.346
 7649SOL    HW123846   4.086   0.467   0.305
 7649SOL    HW223847   4.069   0.629   0.323
 7650SOL     OW23848   3.520   2.678   0.512
 7650SOL    HW123849   3.581   2.751   0.541
 7650SOL    HW223850   3.461   2.652   0.588
 7651SOL     OW23851   3.592   5.619   6.291
 7651SOL    HW123852   3.623   5.628   6.386
 7651SOL    HW223853   3.663   5.654   6.229
 7652SOL     OW23854   0.345   0.710   4.972
 7652SOL    HW123855   0.442   0.732   4.983
 7652SOL    HW223856   0.314   0.653   5.048
 7653SOL     OW23857   1.710   6.641   6.354
 7653SOL    HW123858   1.795   6.674   6.396
 7653SOL    HW223859   1.637   6.640   6.423
 7654SOL     OW23860   6.564   2.599   5.536
 7654SOL    HW123861   6.572   2.568   5.631
 7654SOL    HW223862   6.599   2.693   5.529
 7655SOL     OW23863   2.976   1.632   5.050
 7655SOL    HW123864   2.978   1.571   5.129
 7655SOL    HW223865   2.999   1.725   5.080
 7656SOL     OW23866   6.100   3.846   0.448
 7656SOL    HW123867   6.193   3.822   0.424
 7656SOL    HW223868   6.085   3.830   0.546
 7657SOL     OW23869   1.132   3.939   4.669
 7657SOL    HW123870   1.218   3.953   4.718
 7657SOL    HW223871   1.151   3.898   4.580
 7658SOL     OW23872   3.163   0.618   0.977
 7658SOL    HW123873   3.239   0.564   0.942
 7658SOL    HW223874   3.183   0.647   1.071
 7659SOL     OW23875   5.464   4.027   5.152
 7659SOL    HW123876   5.466   4.046   5.054
 7659SOL    HW223877   5.416   3.941   5.168
 7660SOL     OW23878   0.335   6.327   4.911
 7660SOL    HW123879   0.341   6.318   5.011
 7660SOL    HW223880   0.283   6.251   4.873
 7661SOL     OW23881   2.295   0.494   4.831
 7661SOL    HW123882   2.379   0.548   4.829
 7661SOL    HW223883   2.277   0.456   4.741
 7662SOL     OW23884   6.929   6.420   1.316
 7662SOL    HW123885   6.915   6.402   1.219
 7662SOL    HW223886   0.003   6.440   1.333
 7663SOL     OW23887   1.131   5.827   3.901
 7663SOL    HW123888   1.116   5.885   3.981
 7663SOL    HW223889   1.047   5.776   3.881
 7664SOL     OW23890   5.783   2.223   2.808
 7664SOL    HW123891   5.863   2.167   2.789
 7664SOL    HW223892   5.705   2.164   2.827
 7665SOL     OW23893   2.093   0.365   5.358
 7665SOL    HW123894   2.143   0.279   5.350
 7665SOL    HW223895   2.056   0.374   5.450
 7666SOL     OW23896   6.120   5.460   4.259
 7666SOL    HW123897   6.178   5.385   4.229
 7666SOL    HW223898   6.067   5.495   4.182
 7667SOL     OW23899   4.285   5.375   1.320
 7667SOL    HW123900   4.186   5.387   1.322
 7667SOL    HW223901   4.319   5.395   1.228
 7668SOL     OW23902   1.486   5.698   0.280
 7668SOL    HW123903   1.572   5.738   0.249
 7668SOL    HW223904   1.410   5.752   0.244
 7669SOL     OW23905   3.908   2.475   6.116
 7669SOL    HW123906   3.853   2.410   6.062
 7669SOL    HW223907   3.999   2.483   6.075
 7670SOL     OW23908   1.298   0.319   0.549
 7670SOL    HW123909   1.264   0.374   0.472
 7670SOL    HW223910   1.395   0.301   0.537
 7671SOL     OW23911   3.784   0.766   1.728
 7671SOL    HW123912   3.833   0.688   1.768
 7671SOL    HW223913   3.806   0.773   1.631
 7672SOL     OW23914   5.672   2.905   2.208
 7672SOL    HW123915   5.658   3.003   2.219
 7672SOL    HW223916   5.769   2.883   2.218
 7673SOL     OW23917   2.130   6.916   5.213
 7673SOL    HW123918   2.110   6.828   5.256
 7673SOL    HW223919   2.049   6.973   5.215
 7674SOL     OW23920   3.386   5.409   3.741
 7674SOL    HW123921   3.378   5.313   3.766
 7674SOL    HW223922   3.465   5.420   3.680
 7675SOL     OW23923   3.940   6.146   3.560
 7675SOL    HW123924   3.976   6.094   3.637
 7675SOL    HW223925   3.898   6.231   3.594
 7676SOL     OW23926   3.333   2.982   4.574
 7676SOL    HW123927   3.339   3.022   4.483
 7676SOL    HW223928   3.425   2.962   4.607
 7677SOL     OW23929   0.497   6.217   0.163
 7677SOL    HW123930   0.528   6.145   0.225
 7677SOL    HW223931   0.410   6.189   0.121
 7678SOL     OW23932   3.237   1.037   5.325
 7678SOL    HW123933   3.215   1.003   5.416
 7678SOL    HW223934   3.330   1.009   5.301
 7679SOL     OW23935   3.089   5.532   4.126
 7679SOL    HW123936   3.171   5.493   4.166
 7679SOL    HW223937   3.038   5.461   4.078
 7680SOL     OW23938   1.276   6.290   4.015
 7680SOL    HW123939   1.322   6.371   4.053
 7680SOL    HW223940   1.314   6.208   4.057
 7681SOL     OW23941   2.126   2.009   5.479
 7681SOL    HW123942   2.179   2.094   5.482
 7681SOL    HW223943   2.147   1.961   5.394
 7682SOL     OW23944   3.331   0.336   1.896
 7682SOL    HW123945   3.359   0.392   1.974
 7682SOL    HW223946   3.396   0.348   1.821
 7683SOL     OW23947   1.237   4.295   4.469
 7683SOL    HW123948   1.148   4.339   4.473
 7683SOL    HW223949   1.225   4.198   4.445
 7684SOL     OW23950   4.911   3.631   1.424
 7684SOL    HW123951   4.862   3.547   1.404
 7684SOL    HW223952   4.907   3.651   1.522
 7685SOL     OW23953   2.416   0.222   0.100
 7685SOL    HW123954   2.469   0.301   0.132
 7685SOL    HW223955   2.461   0.137   0.128
 7686SOL     OW23956   6.221   0.713   4.435
 7686SOL    HW123957   6.176   0.801   4.420
 7686SOL    HW223958   6.308   0.710   4.386
 7687SOL     OW23959   5.761   3.543   5.767
 7687SOL    HW123960   5.732   3.613   5.702
 7687SOL    HW223961   5.814   3.586   5.840
 7688SOL     OW23962   6.669   3.474   0.524
 7688SOL    HW123963   6.754   3.427   0.545
 7688SOL    HW223964   6.596   3.407   0.512
 7689SOL     OW23965   5.135   0.436   2.919
 7689SOL    HW123966   5.222   0.486   2.927
 7689SOL    HW223967   5.154   0.341   2.893
 7690SOL     OW23968   6.119   4.633   2.543
 7690SOL    HW123969   6.199   4.607   2.596
 7690SOL    HW223970   6.058   4.687   2.601
 7691SOL     OW23971   5.189   3.040   4.326
 7691SOL    HW123972   5.218   3.099   4.401
 7691SOL    HW223973   5.269   3.007   4.276
 7692SOL     OW23974   2.362   6.658   2.308
 7692SOL    HW123975   2.262   6.655   2.314
 7692SOL    HW223976   2.399   6.570   2.338
 7693SOL     OW23977   2.582   2.202   0.869
 7693SOL    HW123978   2.593   2.293   0.828
 7693SOL    HW223979   2.616   2.203   0.963
 7694SOL     OW23980   4.342   2.578   1.383
 7694SOL    HW123981   4.311   2.615   1.470
 7694SOL    HW223982   4.266   2.532   1.337
 7695SOL     OW23983   4.901   6.941   4.372
 7695SOL    HW123984   4.972   6.964   4.306
 7695SOL    HW223985   4.841   7.020   4.385
 7696SOL     OW23986   2.292   1.385   5.565
 7696SOL    HW123987   2.238   1.419   5.488
 7696SOL    HW223988   2.373   1.338   5.530
 7697SOL     OW23989   5.677   6.972   3.019
 7697SOL    HW123990   5.614   6.944   2.945
 7697SOL    HW223991   5.770   6.946   2.994
 7698SOL     OW23992   6.074   2.319   1.437
 7698SOL    HW123993   6.098   2.245   1.375
 7698SOL    HW223994   6.017   2.386   1.389
 7699SOL     OW23995   3.883   6.047   6.241
 7699SOL    HW123996   3.803   6.031   6.182
 7699SOL    HW223997   3.855   6.099   6.321
 7700SOL     OW23998   6.458   5.237   1.917
 7700SOL    HW123999   6.481   5.199   2.006
 7700SOL    HW224000   6.541   5.267   1.871
 7701SOL     OW24001   3.325   1.796   6.367
 7701SOL    HW124002   3.296   1.710   6.325
 7701SOL    HW224003   3.247   1.859   6.372
 7702SOL     OW24004   6.215   5.988   5.828
 7702SOL    HW124005   6.245   5.914   5.887
 7702SOL    HW224006   6.134   6.031   5.866
 7703SOL     OW24007   0.297   6.450   6.597
 7703SOL    HW124008   0.363   6.469   6.669
 7703SOL    HW224009   0.340   6.465   6.508
 7704SOL     OW24010   1.623   2.340   4.984
 7704SOL    HW124011   1.550   2.342   5.053
 7704SOL    HW224012   1.618   2.422   4.928
 7705SOL     OW24013   0.913   4.421   0.427
 7705SOL    HW124014   0.973   4.402   0.504
 7705SOL    HW224015   0.831   4.468   0.459
 7706SOL     OW24016   3.228   3.979   2.053
 7706SOL    HW124017   3.296   4.018   2.114
 7706SOL    HW224018   3.247   3.882   2.039
 7707SOL     OW24019   6.951   5.445   5.751
 7707SOL    HW124020   6.956   5.500   5.835
 7707SOL    HW224021   6.942   5.506   5.672
 7708SOL     OW24022   0.487   0.276   4.052
 7708SOL    HW124023   0.506   0.199   4.114
 7708SOL    HW224024   0.458   0.355   4.105
 7709SOL     OW24025   6.009   4.545   0.761
 7709SOL    HW124026   6.092   4.513   0.806
 7709SOL    HW224027   5.963   4.612   0.819
 7710SOL     OW24028   6.114   3.130   2.572
 7710SOL    HW124029   6.018   3.115   2.548
 7710SOL    HW224030   6.150   3.208   2.520
 7711SOL     OW24031   1.196   4.428   3.213
 7711SOL    HW124032   1.126   4.441   3.143
 7711SOL    HW224033   1.205   4.330   3.233
 7712SOL     OW24034   0.928   4.830   4.277
 7712SOL    HW124035   0.949   4.928   4.272
 7712SOL    HW224036   0.887   4.810   4.366
 7713SOL     OW24037   1.056   5.808   0.291
 7713SOL    HW124038   1.156   5.813   0.284
 7713SOL    HW224039   1.023   5.729   0.240
 7714SOL     OW24040   5.455   1.756   4.915
 7714SOL    HW124041   5.415   1.746   4.824
 7714SOL    HW224042   5.533   1.694   4.924
 7715SOL     OW24043   3.985   3.672   6.480
 7715SOL    HW124044   3.931   3.592   6.455
 7715SOL    HW224045   3.957   3.750   6.424
 7716SOL     OW24046   2.009   1.261   0.012
 7716SOL    HW124047   2.053   1.298   6.953
 7716SOL    HW224048   1.941   1.326   0.045
 7717SOL     OW24049   0.467   1.844   6.121
 7717SOL    HW124050   0.564   1.846   6.145
 7717SOL    HW224051   0.412   1.847   6.205
 7718SOL     OW24052   0.256   3.852   3.455
 7718SOL    HW124053   0.195   3.906   3.397
 7718SOL    HW224054   0.202   3.787   3.509
 7719SOL     OW24055   2.024   6.534   5.116
 7719SOL    HW124056   2.046   6.579   5.203
 7719SOL    HW224057   1.927   6.545   5.096
 7720SOL     OW24058   4.691   1.295   6.334
 7720SOL    HW124059   4.775   1.286   6.389
 7720SOL    HW224060   4.701   1.243   6.250
 7721SOL     OW24061   5.949   5.178   2.567
 7721SOL    HW124062   6.045   5.149   2.563
 7721SOL    HW224063   5.923   5.191   2.663
 7722SOL     OW24064   0.226   6.167   4.529
 7722SOL    HW124065   0.148   6.196   4.585
 7722SOL    HW224066   0.307   6.161   4.586
 7723SOL     OW24067   4.018   4.382   6.847
 7723SOL    HW124068   4.085   4.313   6.820
 7723SOL    HW224069   4.055   4.438   6.921
 7724SOL     OW24070   1.286   4.687   0.311
 7724SOL    HW124071   1.351   4.763   0.311
 7724SOL    HW224072   1.303   4.629   0.391
 7725SOL     OW24073   5.441   3.326   4.901
 7725SOL    HW124074   5.409   3.231   4.889
 7725SOL    HW224075   5.366   3.389   4.882
 7726SOL     OW24076   2.136   3.169   0.731
 7726SOL    HW124077   2.227   3.211   0.730
 7726SOL    HW224078   2.092   3.188   0.819
 7727SOL     OW24079   5.582   0.480   3.497
 7727SOL    HW124080   5.663   0.449   3.546
 7727SOL    HW224081   5.510   0.411   3.504
 7728SOL     OW24082   2.250   3.219   5.542
 7728SOL    HW124083   2.179   3.277   5.503
 7728SOL    HW224084   2.283   3.155   5.473
 7729SOL     OW24085   0.167   0.910   2.648
 7729SOL    HW124086   0.227   0.840   2.685
 7729SOL    HW224087   0.098   0.935   2.716
 7730SOL     OW24088   6.074   3.528   6.409
 7730SOL    HW124089   5.990   3.501   6.455
 7730SOL    HW224090   6.074   3.491   6.316
 7731SOL     OW24091   6.940   0.423   6.202
 7731SOL    HW124092   0.010   0.406   6.236
 7731SOL    HW224093   6.906   0.508   6.242
 7732SOL     OW24094   4.315   1.273   0.149
 7732SOL    HW124095   4.392   1.336   0.154
 7732SOL    HW224096   4.323   1.216   0.067
 7733SOL     OW24097   5.595   6.538   1.633
 7733SOL    HW124098   5.511   6.587   1.659
 7733SOL    HW224099   5.673   6.578   1.681
 7734SOL     OW24100   4.006   3.896   3.467
 7734SOL    HW124101   4.025   3.936   3.378
 7734SOL    HW224102   3.910   3.868   3.471
 7735SOL     OW24103   0.758   5.743   0.900
 7735SOL    HW124104   0.702   5.792   0.833
 7735SOL    HW224105   0.701   5.711   0.975
 7736SOL     OW24106   1.743   1.644   1.047
 7736SOL    HW124107   1.682   1.580   1.000
 7736SOL    HW224108   1.696   1.683   1.127
 7737SOL     OW24109   4.591   4.714   6.854
 7737SOL    HW124110   4.537   4.631   6.868
 7737SOL    HW224111   4.533   4.794   6.869
 7738SOL     OW24112   1.265   0.910   5.559
 7738SOL    HW124113   1.197   0.980   5.538
 7738SOL    HW224114   1.270   0.897   5.658
 7739SOL     OW24115   0.927   3.053   6.342
 7739SOL    HW124116   0.882   3.076   6.256
 7739SOL    HW224117   1.025   3.075   6.335
 7740SOL     OW24118   2.339   0.684   4.084
 7740SOL    HW124119   2.381   0.721   4.001
 7740SOL    HW224120   2.398   0.705   4.163
 7741SOL     OW24121   6.292   4.389   5.866
 7741SOL    HW124122   6.338   4.308   5.904
 7741SOL    HW224123   6.341   4.471   5.893
 7742SOL     OW24124   4.734   2.691   3.982
 7742SOL    HW124125   4.750   2.601   3.943
 7742SOL    HW224126   4.731   2.759   3.909
 7743SOL     OW24127   3.374   1.209   6.120
 7743SOL    HW124128   3.336   1.287   6.071
 7743SOL    HW224129   3.440   1.162   6.061
 7744SOL     OW24130   0.212   6.562   4.693
 7744SOL    HW124131   0.137   6.521   4.744
 7744SOL    HW224132   0.295   6.561   4.748
 7745SOL     OW24133   2.735   0.177   0.721
 7745SOL    HW124134   2.678   0.151   0.799
 7745SOL    HW224135   2.812   0.114   0.713
 7746SOL     OW24136   0.009   6.123   0.888
 7746SOL    HW124137   0.022   6.159   0.796
 7746SOL    HW224138   6.975   6.041   0.884
 7747SOL     OW24139   0.082   6.127   1.241
 7747SOL    HW124140   0.068   6.177   1.156
 7747SOL    HW224141   7.018   6.120   1.290
 7748SOL     OW24142   4.894   0.875   5.807
 7748SOL    HW124143   4.822   0.865   5.875
 7748SOL    HW224144   4.974   0.822   5.835
 7749SOL     OW24145   3.209   3.584   2.766
 7749SOL    HW124146   3.279   3.520   2.735
 7749SOL    HW224147   3.241   3.632   2.847
 7750SOL     OW24148   5.291   4.207   6.344
 7750SOL    HW124149   5.312   4.281   6.408
 7750SOL    HW224150   5.298   4.119   6.391
 7751SOL     OW24151   0.567   1.303   4.766
 7751SOL    HW124152   0.564   1.206   4.789
 7751SOL    HW224153   0.487   1.327   4.711
 7752SOL     OW24154   5.564   4.013   6.216
 7752SOL    HW124155   5.544   4.064   6.300
 7752SOL    HW224156   5.520   3.923   6.221
 7753SOL     OW24157   2.758   0.918   5.030
 7753SOL    HW124158   2.704   1.000   5.010
 7753SOL    HW224159   2.836   0.944   5.088
 7754SOL     OW24160   6.453   1.279   0.946
 7754SOL    HW124161   6.516   1.283   0.868
 7754SOL    HW224162   6.403   1.192   0.943
 7755SOL     OW24163   1.656   6.355   5.340
 7755SOL    HW124164   1.688   6.376   5.432
 7755SOL    HW224165   1.556   6.351   5.339
 7756SOL     OW24166   3.707   6.578   2.842
 7756SOL    HW124167   3.728   6.527   2.925
 7756SOL    HW224168   3.608   6.580   2.827
 7757SOL     OW24169   3.251   1.162   5.815
 7757SOL    HW124170   3.261   1.172   5.716
 7757SOL    HW224171   3.338   1.133   5.855
 7758SOL     OW24172   2.781   1.758   6.422
 7758SOL    HW124173   2.739   1.786   6.508
 7758SOL    HW224174   2.710   1.745   6.352
 7759SOL     OW24175   2.587   0.481   4.436
 7759SOL    HW124176   2.634   0.551   4.491
 7759SOL    HW224177   2.648   0.450   4.364
 7760SOL     OW24178   5.138   1.705   2.806
 7760SOL    HW124179   5.096   1.722   2.717
 7760SOL    HW224180   5.217   1.765   2.817
 7761SOL     OW24181   4.819   0.942   0.125
 7761SOL    HW124182   4.729   0.957   0.083
 7761SOL    HW224183   4.880   1.017   0.099
 7762SOL     OW24184   1.569   1.998   0.345
 7762SOL    HW124185   1.635   2.017   0.418
 7762SOL    HW224186   1.558   1.899   0.336
 7763SOL     OW24187   2.164   2.728   0.712
 7763SOL    HW124188   2.233   2.800   0.721
 7763SOL    HW224189   2.194   2.660   0.645
 7764SOL     OW24190   3.347   3.416   1.846
 7764SOL    HW124191   3.256   3.385   1.874
 7764SOL    HW224192   3.397   3.339   1.806
 7765SOL     OW24193   6.968   1.422   2.045
 7765SOL    HW124194   6.937   1.344   1.991
 7765SOL    HW224195   6.890   1.461   2.095
 7766SOL     OW24196   6.755   3.197   0.218
 7766SOL    HW124197   6.682   3.173   0.154
 7766SOL    HW224198   6.783   3.114   0.268
 7767SOL     OW24199   6.006   3.727   5.001
 7767SOL    HW124200   6.001   3.816   4.954
 7767SOL    HW224201   6.102   3.700   5.009
 7768SOL     OW24202   3.761   5.180   1.585
 7768SOL    HW124203   3.844   5.147   1.540
 7768SOL    HW224204   3.744   5.275   1.558
 7769SOL     OW24205   4.892   2.001   3.529
 7769SOL    HW124206   4.953   1.932   3.489
 7769SOL    HW224207   4.829   1.956   3.592
 7770SOL     OW24208   3.040   6.483   1.395
 7770SOL    HW124209   3.043   6.580   1.371
 7770SOL    HW224210   3.124   6.458   1.444
 7771SOL     OW24211   2.471   0.735   4.324
 7771SOL    HW124212   2.502   0.642   4.345
 7771SOL    HW224213   2.400   0.762   4.389
 7772SOL     OW24214   5.689   0.908   5.441
 7772SOL    HW124215   5.673   0.983   5.505
 7772SOL    HW224216   5.787   0.901   5.420
 7773SOL     OW24217   4.275   4.438   6.066
 7773SOL    HW124218   4.330   4.416   5.986
 7773SOL    HW224219   4.221   4.357   6.092
 7774SOL     OW24220   4.342   1.668   0.111
 7774SOL    HW124221   4.330   1.721   0.027
 7774SOL    HW224222   4.415   1.601   0.099
 7775SOL     OW24223   1.512   6.573   1.925
 7775SOL    HW124224   1.441   6.625   1.972
 7775SOL    HW224225   1.600   6.618   1.939
 7776SOL     OW24226   2.906   4.438   0.705
 7776SOL    HW124227   2.924   4.355   0.759
 7776SOL    HW224228   2.980   4.504   0.721
 7777SOL     OW24229   0.339   0.184   6.707
 7777SOL    HW124230   0.333   0.124   6.786
 7777SOL    HW224231   0.395   0.142   6.636
 7778SOL     OW24232   5.126   2.417   2.161
 7778SOL    HW124233   5.157   2.371   2.078
 7778SOL    HW224234   5.133   2.516   2.149
 7779SOL     OW24235   4.303   3.090   0.382
 7779SOL    HW124236   4.211   3.128   0.395
 7779SOL    HW224237   4.324   3.027   0.457
 7780SOL     OW24238   1.736   0.542   3.984
 7780SOL    HW124239   1.637   0.544   3.997
 7780SOL    HW224240   1.776   0.625   4.023
 7781SOL     OW24241   1.707   4.088   5.748
 7781SOL    HW124242   1.634   4.074   5.681
 7781SOL    HW224243   1.795   4.091   5.700
 7782SOL     OW24244   4.697   4.790   0.153
 7782SOL    HW124245   4.706   4.727   0.076
 7782SOL    HW224246   4.601   4.803   0.175
 7783SOL     OW24247   3.319   5.937   6.655
 7783SOL    HW124248   3.293   5.967   6.564
 7783SOL    HW224249   3.267   5.989   6.723
 7784SOL     OW24250   6.201   3.553   0.261
 7784SOL    HW124251   6.272   3.518   0.200
 7784SOL    HW224252   6.194   3.653   0.250
 7785SOL     OW24253   1.255   6.380   5.979
 7785SOL    HW124254   1.343   6.384   6.027
 7785SOL    HW224255   1.193   6.449   6.017
 7786SOL     OW24256   3.822   4.226   5.167
 7786SOL    HW124257   3.914   4.203   5.133
 7786SOL    HW224258   3.757   4.221   5.091
 7787SOL     OW24259   3.239   1.975   5.414
 7787SOL    HW124260   3.161   1.912   5.414
 7787SOL    HW224261   3.207   2.067   5.434
 7788SOL     OW24262   6.933   2.673   1.056
 7788SOL    HW124263   6.990   2.750   1.030
 7788SOL    HW224264   6.899   2.687   1.149
 7789SOL     OW24265   0.991   0.221   1.903
 7789SOL    HW124266   0.963   0.127   1.922
 7789SOL    HW224267   1.010   0.232   1.805
 7790SOL     OW24268   6.974   3.733   2.419
 7790SOL    HW124269   6.885   3.750   2.460
 7790SOL    HW224270   6.978   3.777   2.329
 7791SOL     OW24271   6.674   5.611   5.785
 7791SOL    HW124272   6.715   5.550   5.853
 7791SOL    HW224273   6.660   5.561   5.700
 7792SOL     OW24274   2.091   5.896   6.372
 7792SOL    HW124275   2.127   5.903   6.465
 7792SOL    HW224276   2.010   5.838   6.373
 7793SOL     OW24277   2.343   0.688   6.487
 7793SOL    HW124278   2.342   0.774   6.437
 7793SOL    HW224279   2.255   0.674   6.532
 7794SOL     OW24280   4.957   4.896   2.504
 7794SOL    HW124281   5.022   4.939   2.567
 7794SOL    HW224282   5.000   4.818   2.458
 7795SOL     OW24283   1.611   3.838   6.291
 7795SOL    HW124284   1.687   3.814   6.231
 7795SOL    HW224285   1.572   3.926   6.262
 7796SOL     OW24286   4.062   3.461   4.109
 7796SOL    HW124287   4.104   3.541   4.067
 7796SOL    HW224288   3.981   3.489   4.161
 7797SOL     OW24289   0.996   6.155   3.967
 7797SOL    HW124290   1.060   6.195   3.901
 7797SOL    HW224291   0.934   6.092   3.919
 7798SOL     OW24292   4.861   5.348   6.070
 7798SOL    HW124293   4.889   5.324   5.977
 7798SOL    HW224294   4.821   5.440   6.070
 7799SOL     OW24295   6.128   5.706   1.300
 7799SOL    HW124296   6.106   5.691   1.397
 7799SOL    HW224297   6.044   5.698   1.246
 7800SOL     OW24298   0.495   5.911   2.395
 7800SOL    HW124299   0.574   5.901   2.455
 7800SOL    HW224300   0.519   5.972   2.319
 7801SOL     OW24301   4.537   2.450   5.351
 7801SOL    HW124302   4.548   2.420   5.445
 7801SOL    HW224303   4.609   2.516   5.329
 7802SOL     OW24304   5.919   2.524   6.668
 7802SOL    HW124305   5.879   2.481   6.587
 7802SOL    HW224306   5.996   2.469   6.701
 7803SOL     OW24307   3.102   3.607   6.036
 7803SOL    HW124308   3.166   3.624   5.961
 7803SOL    HW224309   3.037   3.537   6.008
 7804SOL     OW24310   5.330   0.845   5.953
 7804SOL    HW124311   5.370   0.889   5.872
 7804SOL    HW224312   5.282   0.914   6.007
 7805SOL     OW24313   5.836   3.157   1.587
 7805SOL    HW124314   5.869   3.073   1.631
 7805SOL    HW224315   5.743   3.176   1.616
 7806SOL     OW24316   5.205   2.469   0.524
 7806SOL    HW124317   5.123   2.440   0.575
 7806SOL    HW224318   5.178   2.531   0.451
 7807SOL     OW24319   0.511   3.990   6.792
 7807SOL    HW124320   0.607   4.014   6.779
 7807SOL    HW224321   0.485   4.010   6.887
 7808SOL     OW24322   0.136   1.419   4.819
 7808SOL    HW124323   0.183   1.387   4.737
 7808SOL    HW224324   0.053   1.469   4.792
 7809SOL     OW24325   1.034   5.599   5.748
 7809SOL    HW124326   0.937   5.574   5.737
 7809SOL    HW224327   1.091   5.523   5.715
 7810SOL     OW24328   3.208   1.310   6.915
 7810SOL    HW124329   3.299   1.276   6.938
 7810SOL    HW224330   3.212   1.367   6.833
 7811SOL     OW24331   6.375   4.615   5.130
 7811SOL    HW124332   6.290   4.632   5.081
 7811SOL    HW224333   6.428   4.546   5.082
 7812SOL     OW24334   0.469   2.202   3.757
 7812SOL    HW124335   0.540   2.165   3.698
 7812SOL    HW224336   0.379   2.180   3.718
 7813SOL     OW24337   5.763   1.394   1.452
 7813SOL    HW124338   5.701   1.432   1.383
 7813SOL    HW224339   5.856   1.428   1.436
 7814SOL     OW24340   1.911   2.896   3.785
 7814SOL    HW124341   1.837   2.960   3.804
 7814SOL    HW224342   1.933   2.845   3.869
 7815SOL     OW24343   6.969   2.031   5.237
 7815SOL    HW124344   0.024   2.051   5.296
 7815SOL    HW224345   6.913   1.959   5.280
 7816SOL     OW24346   0.164   4.488   4.963
 7816SOL    HW124347   0.068   4.511   4.950
 7816SOL    HW224348   0.186   4.489   5.061
 7817SOL     OW24349   5.480   3.086   5.527
 7817SOL    HW124350   5.385   3.092   5.557
 7817SOL    HW224351   5.492   3.004   5.471
 7818SOL     OW24352   5.858   2.941   3.622
 7818SOL    HW124353   5.838   3.039   3.613
 7818SOL    HW224354   5.890   2.905   3.535
 7819SOL     OW24355   1.354   1.094   0.719
 7819SOL    HW124356   1.441   1.142   0.704
 7819SOL    HW224357   1.348   1.065   0.814
 7820SOL     OW24358   3.205   6.639   5.995
 7820SOL    HW124359   3.136   6.711   5.995
 7820SOL    HW224360   3.285   6.670   5.943
 7821SOL     OW24361   3.368   6.261   1.018
 7821SOL    HW124362   3.282   6.301   0.986
 7821SOL    HW224363   3.349   6.186   1.081
 7822SOL     OW24364   0.851   6.397   5.420
 7822SOL    HW124365   0.833   6.495   5.414
 7822SOL    HW224366   0.808   6.350   5.343
 7823SOL     OW24367   2.035   3.347   5.406
 7823SOL    HW124368   2.019   3.425   5.346
 7823SOL    HW224369   1.965   3.277   5.391
 7824SOL     OW24370   0.708   3.326   5.789
 7824SOL    HW124371   0.719   3.369   5.879
 7824SOL    HW224372   0.627   3.362   5.744
 7825SOL     OW24373   2.268   1.053   0.052
 7825SOL    HW124374   2.308   1.093   6.993
 7825SOL    HW224375   2.339   1.043   0.122
 7826SOL     OW24376   0.442   4.024   5.931
 7826SOL    HW124377   0.398   4.114   5.930
 7826SOL    HW224378   0.481   4.005   5.841
 7827SOL     OW24379   6.110   5.208   3.562
 7827SOL    HW124380   6.203   5.246   3.559
 7827SOL    HW224381   6.088   5.184   3.656
 7828SOL     OW24382   0.860   5.985   5.970
 7828SOL    HW124383   0.932   6.050   5.995
 7828SOL    HW224384   0.773   6.034   5.963
 7829SOL     OW24385   4.751   4.738   0.643
 7829SOL    HW124386   4.661   4.747   0.601
 7829SOL    HW224387   4.812   4.810   0.610
 7830SOL     OW24388   2.004   5.204   4.470
 7830SOL    HW124389   1.946   5.123   4.475
 7830SOL    HW224390   1.980   5.257   4.388
 7831SOL     OW24391   1.646   0.436   6.237
 7831SOL    HW124392   1.611   0.517   6.189
 7831SOL    HW224393   1.627   0.445   6.334
 7832SOL     OW24394   0.303   0.963   5.096
 7832SOL    HW124395   0.250   1.019   5.032
 7832SOL    HW224396   0.289   0.866   5.075
 7833SOL     OW24397   0.621   0.027   2.710
 7833SOL    HW124398   0.702   0.035   2.767
 7833SOL    HW224399   0.554   6.991   2.755
 7834SOL     OW24400   0.333   3.444   5.553
 7834SOL    HW124401   0.349   3.473   5.459
 7834SOL    HW224402   0.414   3.464   5.608
 7835SOL     OW24403   3.020   2.789   5.414
 7835SOL    HW124404   3.101   2.767   5.469
 7835SOL    HW224405   2.974   2.703   5.388
 7836SOL     OW24406   2.903   3.682   4.912
 7836SOL    HW124407   2.907   3.606   4.977
 7836SOL    HW224408   2.809   3.693   4.880
 7837SOL     OW24409   0.670   5.508   6.804
 7837SOL    HW124410   0.707   5.420   6.833
 7837SOL    HW224411   0.711   5.581   6.859
 7838SOL     OW24412   4.184   4.939   1.072
 7838SOL    HW124413   4.087   4.961   1.079
 7838SOL    HW224414   4.211   4.881   1.149
 7839SOL     OW24415   6.155   3.624   4.652
 7839SOL    HW124416   6.189   3.538   4.688
 7839SOL    HW224417   6.082   3.606   4.586
 7840SOL     OW24418   2.283   2.117   3.193
 7840SOL    HW124419   2.294   2.139   3.097
 7840SOL    HW224420   2.346   2.044   3.219
 7841SOL     OW24421   4.763   1.847   5.682
 7841SOL    HW124422   4.797   1.817   5.771
 7841SOL    HW224423   4.701   1.778   5.644
 7842SOL     OW24424   0.840   0.192   0.952
 7842SOL    HW124425   0.940   0.200   0.952
 7842SOL    HW224426   0.810   0.150   0.867
 7843SOL     OW24427   6.823   6.377   2.047
 7843SOL    HW124428   6.862   6.287   2.026
 7843SOL    HW224429   6.884   6.427   2.107
 7844SOL     OW24430   3.556   0.208   2.302
 7844SOL    HW124431   3.474   0.152   2.317
 7844SOL    HW224432   3.623   0.155   2.250
 7845SOL     OW24433   6.829   3.238   1.739
 7845SOL    HW124434   6.747   3.206   1.693
 7845SOL    HW224435   6.857   3.326   1.701
 7846SOL     OW24436   0.868   1.874   0.513
 7846SOL    HW124437   0.847   1.779   0.536
 7846SOL    HW224438   0.920   1.877   0.428
 7847SOL     OW24439   5.811   3.982   5.705
 7847SOL    HW124440   5.744   3.920   5.747
 7847SOL    HW224441   5.861   3.933   5.633
 7848SOL     OW24442   4.912   4.963   0.208
 7848SOL    HW124443   4.845   4.927   0.143
 7848SOL    HW224444   4.917   5.063   0.198
 7849SOL     OW24445   4.655   5.169   6.653
 7849SOL    HW124446   4.620   5.165   6.560
 7849SOL    HW224447   4.676   5.077   6.685
 7850SOL     OW24448   6.680   0.765   3.504
 7850SOL    HW124449   6.767   0.728   3.537
 7850SOL    HW224450   6.637   0.699   3.442
 7851SOL     OW24451   0.431   4.117   0.453
 7851SOL    HW124452   0.493   4.182   0.497
 7851SOL    HW224453   0.380   4.164   0.381
 7852SOL     OW24454   1.505   3.524   5.678
 7852SOL    HW124455   1.477   3.479   5.763
 7852SOL    HW224456   1.586   3.480   5.641
 7853SOL     OW24457   4.412   3.102   1.704
 7853SOL    HW124458   4.344   3.033   1.680
 7853SOL    HW224459   4.457   3.077   1.790
 7854SOL     OW24460   3.983   1.179   1.174
 7854SOL    HW124461   3.938   1.223   1.097
 7854SOL    HW224462   4.068   1.137   1.144
 7855SOL     OW24463   5.018   6.528   3.527
 7855SOL    HW124464   5.090   6.504   3.461
 7855SOL    HW224465   4.930   6.494   3.494
 7856SOL     OW24466   1.873   6.440   6.691
 7856SOL    HW124467   1.910   6.431   6.784
 7856SOL    HW224468   1.893   6.357   6.639
 7857SOL     OW24469   6.805   5.174   0.429
 7857SOL    HW124470   6.718   5.124   0.433
 7857SOL    HW224471   6.880   5.108   0.432
 7858SOL     OW24472   0.437   4.358   6.476
 7858SOL    HW124473   0.432   4.342   6.378
 7858SOL    HW224474   0.352   4.328   6.519
 7859SOL     OW24475   4.837   2.137   1.932
 7859SOL    HW124476   4.855   2.235   1.927
 7859SOL    HW224477   4.813   2.103   1.841
 7860SOL     OW24478   2.557   1.694   2.973
 7860SOL    HW124479   2.645   1.649   2.962
 7860SOL    HW224480   2.496   1.636   3.027
 7861SOL     OW24481   1.945   5.713   0.538
 7861SOL    HW124482   1.928   5.678   0.446
 7861SOL    HW224483   2.021   5.777   0.536
 7862SOL     OW24484   1.130   6.854   6.370
 7862SOL    HW124485   1.088   6.943   6.354
 7862SOL    HW224486   1.219   6.850   6.325
 7863SOL     OW24487   0.455   4.272   3.790
 7863SOL    HW124488   0.440   4.199   3.723
 7863SOL    HW224489   0.372   4.327   3.799
 7864SOL     OW24490   3.325   5.383   4.684
 7864SOL    HW124491   3.296   5.467   4.638
 7864SOL    HW224492   3.244   5.330   4.710
 7865SOL     OW24493   6.595   5.496   3.593
 7865SOL    HW124494   6.644   5.542   3.519
 7865SOL    HW224495   6.619   5.538   3.680
 7866SOL     OW24496   1.087   1.031   5.292
 7866SOL    HW124497   1.157   1.076   5.236
 7866SOL    HW224498   1.061   0.945   5.250
 7867SOL     OW24499   4.847   6.064   2.776
 7867SOL    HW124500   4.814   6.144   2.826
 7867SOL    HW224501   4.851   6.086   2.678
 7868SOL     OW24502   4.317   6.168   1.305
 7868SOL    HW124503   4.293   6.230   1.380
 7868SOL    HW224504   4.387   6.210   1.248
 7869SOL     OW24505   5.665   5.362   0.296
 7869SOL    HW124506   5.710   5.433   0.241
 7869SOL    HW224507   5.635   5.401   0.383
 7870SOL     OW24508   6.531   0.595   3.343
 7870SOL    HW124509   6.443   0.640   3.327
 7870SOL    HW224510   6.516   0.515   3.402
 7871SOL     OW24511   4.394   0.576   0.666
 7871SOL    HW124512   4.321   0.634   0.701
 7871SOL    HW224513   4.415   0.602   0.572
 7872SOL     OW24514   6.570   5.183   4.326
 7872SOL    HW124515   6.566   5.121   4.247
 7872SOL    HW224516   6.563   5.277   4.295
 7873SOL     OW24517   4.584   2.539   6.512
 7873SOL    HW124518   4.646   2.514   6.587
 7873SOL    HW224519   4.530   2.459   6.486
 7874SOL     OW24520   6.129   2.358   0.415
 7874SOL    HW124521   6.163   2.269   0.446
 7874SOL    HW224522   6.052   2.385   0.472
 7875SOL     OW24523   6.948   4.978   6.970
 7875SOL    HW124524   6.919   4.889   7.005
 7875SOL    HW224525   6.908   4.993   6.879
 7876SOL     OW24526   1.134   6.640   2.667
 7876SOL    HW124527   1.196   6.640   2.746
 7876SOL    HW224528   1.070   6.563   2.676
 7877SOL     OW24529   0.840   3.126   1.952
 7877SOL    HW124530   0.931   3.087   1.940
 7877SOL    HW224531   0.812   3.170   1.867
 7878SOL     OW24532   3.829   0.478   2.441
 7878SOL    HW124533   3.910   0.529   2.411
 7878SOL    HW224534   3.824   0.477   2.541
 7879SOL     OW24535   2.384   5.975   1.726
 7879SOL    HW124536   2.296   5.949   1.768
 7879SOL    HW224537   2.376   6.066   1.685
 7880SOL     OW24538   1.377   5.003   2.648
 7880SOL    HW124539   1.369   5.101   2.630
 7880SOL    HW224540   1.466   4.970   2.618
 7881SOL     OW24541   4.806   2.907   2.920
 7881SOL    HW124542   4.713   2.875   2.903
 7881SOL    HW224543   4.849   2.849   2.989
 7882SOL     OW24544   6.977   2.306   0.244
 7882SOL    HW124545   6.997   2.253   0.162
 7882SOL    HW224546   6.881   2.295   0.268
 7883SOL     OW24547   0.295   6.919   4.711
 7883SOL    HW124548   0.280   7.014   4.685
 7883SOL    HW224549   0.343   6.871   4.637
 7884SOL     OW24550   1.492   2.828   4.180
 7884SOL    HW124551   1.452   2.865   4.263
 7884SOL    HW224552   1.523   2.903   4.121
 7885SOL     OW24553   6.530   6.223   6.777
 7885SOL    HW124554   6.599   6.191   6.712
 7885SOL    HW224555   6.572   6.287   6.842
 7886SOL     OW24556   4.815   4.144   0.529
 7886SOL    HW124557   4.838   4.048   0.516
 7886SOL    HW224558   4.746   4.153   0.601
 7887SOL     OW24559   4.631   2.021   6.493
 7887SOL    HW124560   4.583   2.096   6.540
 7887SOL    HW224561   4.609   1.935   6.538
 7888SOL     OW24562   4.336   5.655   4.009
 7888SOL    HW124563   4.348   5.724   3.938
 7888SOL    HW224564   4.325   5.565   3.967
 7889SOL     OW24565   6.326   4.527   3.967
 7889SOL    HW124566   6.421   4.558   3.956
 7889SOL    HW224567   6.273   4.558   3.888
 7890SOL     OW24568   2.092   3.942   3.038
 7890SOL    HW124569   2.112   3.856   3.083
 7890SOL    HW224570   2.110   3.933   2.940
 7891SOL     OW24571   6.995   4.030   2.821
 7891SOL    HW124572   6.915   4.059   2.873
 7891SOL    HW224573   0.055   4.051   2.873
 7892SOL     OW24574   2.266   2.411   4.282
 7892SOL    HW124575   2.357   2.435   4.246
 7892SOL    HW224576   2.267   2.316   4.314
 7893SOL     OW24577   5.201   6.308   1.492
 7893SOL    HW124578   5.160   6.238   1.551
 7893SOL    HW224579   5.300   6.309   1.508
 7894SOL     OW24580   3.013   0.287   1.220
 7894SOL    HW124581   3.024   0.361   1.287
 7894SOL    HW224582   3.013   0.199   1.268
 7895SOL     OW24583   0.937   1.696   4.091
 7895SOL    HW124584   0.991   1.679   4.173
 7895SOL    HW224585   0.850   1.646   4.097
 7896SOL     OW24586   3.797   2.478   6.451
 7896SOL    HW124587   3.770   2.397   6.398
 7896SOL    HW224588   3.819   2.553   6.388
 7897SOL     OW24589   3.360   3.479   0.565
 7897SOL    HW124590   3.401   3.408   0.622
 7897SOL    HW224591   3.315   3.437   0.486
 7898SOL     OW24592   4.973   1.031   4.561
 7898SOL    HW124593   4.940   1.038   4.467
 7898SOL    HW224594   4.994   1.122   4.596
 7899SOL     OW24595   4.606   0.839   1.732
 7899SOL    HW124596   4.510   0.852   1.707
 7899SOL    HW224597   4.664   0.893   1.670
 7900SOL     OW24598   0.211   5.784   1.388
 7900SOL    HW124599   0.182   5.830   1.472
 7900SOL    HW224600   0.199   5.685   1.398
 7901SOL     OW24601   5.971   4.778   0.939
 7901SOL    HW124602   6.061   4.805   0.973
 7901SOL    HW224603   5.918   4.860   0.916
 7902SOL     OW24604   4.837   4.843   6.374
 7902SOL    HW124605   4.807   4.748   6.380
 7902SOL    HW224606   4.800   4.884   6.290
 7903SOL     OW24607   0.584   2.617   2.169
 7903SOL    HW124608   0.502   2.566   2.195
 7903SOL    HW224609   0.652   2.609   2.242
 7904SOL     OW24610   5.276   1.658   3.253
 7904SOL    HW124611   5.291   1.560   3.264
 7904SOL    HW224612   5.182   1.680   3.280
 7905SOL     OW24613   2.264   2.128   1.798
 7905SOL    HW124614   2.311   2.124   1.710
 7905SOL    HW224615   2.279   2.042   1.847
 7906SOL     OW24616   1.791   4.523   7.020
 7906SOL    HW124617   1.733   4.489   6.946
 7906SOL    HW224618   1.747   4.602   0.040
 7907SOL     OW24619   0.659   2.741   2.579
 7907SOL    HW124620   0.625   2.820   2.527
 7907SOL    HW224621   0.675   2.768   2.674
 7908SOL     OW24622   0.467   1.412   3.085
 7908SOL    HW124623   0.413   1.328   3.091
 7908SOL    HW224624   0.411   1.485   3.048
 7909SOL     OW24625   4.006   6.242   5.248
 7909SOL    HW124626   3.928   6.252   5.309
 7909SOL    HW224627   3.986   6.288   5.161
 7910SOL     OW24628   6.201   3.106   6.247
 7910SOL    HW124629   6.171   3.124   6.341
 7910SOL    HW224630   6.268   3.175   6.219
 7911SOL     OW24631   6.922   5.908   6.177
 7911SOL    HW124632   6.853   5.973   6.147
 7911SOL    HW224633   6.931   5.835   6.109
 7912SOL     OW24634   0.172   5.632   4.970
 7912SOL    HW124635   0.195   5.672   4.881
 7912SOL    HW224636   0.081   5.592   4.966
 7913SOL     OW24637   1.713   6.133   6.409
 7913SOL    HW124638   1.795   6.095   6.453
 7913SOL    HW224639   1.728   6.230   6.391
 7914SOL     OW24640   5.914   4.542   0.504
 7914SOL    HW124641   5.892   4.639   0.492
 7914SOL    HW224642   5.954   4.528   0.595
 7915SOL     OW24643   2.778   1.506   2.843
 7915SOL    HW124644   2.729   1.534   2.760
 7915SOL    HW224645   2.833   1.583   2.877
 7916SOL     OW24646   3.994   3.672   4.920
 7916SOL    HW124647   3.969   3.763   4.953
 7916SOL    HW224648   4.043   3.623   4.992
 7917SOL     OW24649   3.824   4.055   3.271
 7917SOL    HW124650   3.820   4.154   3.259
 7917SOL    HW224651   3.775   4.029   3.354
 7918SOL     OW24652   6.186   1.857   1.739
 7918SOL    HW124653   6.207   1.806   1.823
 7918SOL    HW224654   6.166   1.952   1.762
 7919SOL     OW24655   5.544   4.082   2.714
 7919SOL    HW124656   5.510   4.048   2.801
 7919SOL    HW224657   5.578   4.175   2.725
 7920SOL     OW24658   6.868   6.612   0.760
 7920SOL    HW124659   6.787   6.642   0.710
 7920SOL    HW224660   6.845   6.529   0.812
 7921SOL     OW24661   3.433   5.023   2.107
 7921SOL    HW124662   3.382   5.085   2.048
 7921SOL    HW224663   3.511   4.985   2.057
 7922SOL     OW24664   0.832   3.929   4.424
 7922SOL    HW124665   0.805   3.915   4.329
 7922SOL    HW224666   0.872   3.845   4.461
 7923SOL     OW24667   1.780   3.021   2.910
 7923SOL    HW124668   1.849   3.065   2.853
 7923SOL    HW224669   1.727   2.956   2.855
 7924SOL     OW24670   2.526   1.741   3.392
 7924SOL    HW124671   2.534   1.709   3.486
 7924SOL    HW224672   2.592   1.815   3.377
 7925SOL     OW24673   1.259   1.288   0.318
 7925SOL    HW124674   1.298   1.338   0.241
 7925SOL    HW224675   1.160   1.278   0.305
 7926SOL     OW24676   3.226   1.084   1.840
 7926SOL    HW124677   3.222   1.002   1.897
 7926SOL    HW224678   3.306   1.079   1.780
 7927SOL     OW24679   4.593   5.617   4.537
 7927SOL    HW124680   4.684   5.600   4.573
 7927SOL    HW224681   4.598   5.627   4.438
 7928SOL     OW24682   0.617   3.764   0.963
 7928SOL    HW124683   0.527   3.807   0.968
 7928SOL    HW224684   0.687   3.829   0.995
 7929SOL     OW24685   3.640   4.184   4.946
 7929SOL    HW124686   3.609   4.218   4.858
 7929SOL    HW224687   3.658   4.086   4.939
 7930SOL     OW24688   3.673   0.021   2.136
 7930SOL    HW124689   3.605   6.971   2.142
 7930SOL    HW224690   3.756   7.009   2.092
 7931SOL     OW24691   2.807   3.139   5.581
 7931SOL    HW124692   2.751   3.122   5.500
 7931SOL    HW224693   2.854   3.055   5.607
 7932SOL     OW24694   3.272   1.543   0.869
 7932SOL    HW124695   3.178   1.576   0.874
 7932SOL    HW224696   3.272   1.444   0.854
 7933SOL     OW24697   1.827   1.110   6.154
 7933SOL    HW124698   1.897   1.157   6.101
 7933SOL    HW224699   1.816   1.157   6.242
 7934SOL     OW24700   4.413   2.330   6.159
 7934SOL    HW124701   4.445   2.333   6.254
 7934SOL    HW224702   4.491   2.345   6.098
 7935SOL     OW24703   4.965   5.382   2.274
 7935SOL    HW124704   5.050   5.381   2.221
 7935SOL    HW224705   4.930   5.289   2.281
 7936SOL     OW24706   4.368   5.989   1.978
 7936SOL    HW124707   4.427   5.915   2.010
 7936SOL    HW224708   4.302   6.012   2.049
 7937SOL     OW24709   5.624   1.721   6.135
 7937SOL    HW124710   5.578   1.632   6.128
 7937SOL    HW224711   5.638   1.758   6.043
 7938SOL     OW24712   6.303   4.891   4.002
 7938SOL    HW124713   6.320   4.990   4.006
 7938SOL    HW224714   6.255   4.869   3.917
 7939SOL     OW24715   6.372   6.207   3.617
 7939SOL    HW124716   6.389   6.111   3.638
 7939SOL    HW224717   6.284   6.234   3.657
 7940SOL     OW24718   1.848   5.973   0.355
 7940SOL    HW124719   1.780   6.020   0.412
 7940SOL    HW224720   1.804   5.941   0.271
 7941SOL     OW24721   1.371   0.543   1.021
 7941SOL    HW124722   1.397   0.634   1.053
 7941SOL    HW224723   1.387   0.536   0.922
 7942SOL     OW24724   0.809   6.687   1.332
 7942SOL    HW124725   0.839   6.629   1.408
 7942SOL    HW224726   0.709   6.682   1.324
 7943SOL     OW24727   6.147   1.969   6.236
 7943SOL    HW124728   6.120   1.972   6.140
 7943SOL    HW224729   6.225   2.031   6.250
 7944SOL     OW24730   6.600   4.190   2.157
 7944SOL    HW124731   6.517   4.228   2.115
 7944SOL    HW224732   6.674   4.257   2.152
 7945SOL     OW24733   5.756   6.475   0.623
 7945SOL    HW124734   5.839   6.421   0.636
 7945SOL    HW224735   5.735   6.481   0.526
 7946SOL     OW24736   2.299   1.540   5.322
 7946SOL    HW124737   2.304   1.547   5.223
 7946SOL    HW224738   2.276   1.630   5.361
 7947SOL     OW24739   4.433   5.383   6.463
 7947SOL    HW124740   4.431   5.482   6.480
 7947SOL    HW224741   4.340   5.349   6.451
 7948SOL     OW24742   1.149   5.046   4.928
 7948SOL    HW124743   1.208   5.126   4.936
 7948SOL    HW224744   1.123   5.014   5.019
 7949SOL     OW24745   6.423   3.354   4.546
 7949SOL    HW124746   6.395   3.418   4.617
 7949SOL    HW224747   6.369   3.370   4.464
 7950SOL     OW24748   2.563   5.697   3.576
 7950SOL    HW124749   2.650   5.740   3.598
 7950SOL    HW224750   2.488   5.755   3.607
 7951SOL     OW24751   2.392   3.357   0.705
 7951SOL    HW124752   2.448   3.358   0.622
 7951SOL    HW224753   2.349   3.446   0.718
 7952SOL     OW24754   6.445   4.035   0.621
 7952SOL    HW124755   6.390   4.097   0.677
 7952SOL    HW224756   6.396   3.948   0.610
 7953SOL     OW24757   1.986   3.947   1.358
 7953SOL    HW124758   1.931   3.866   1.380
 7953SOL    HW224759   2.077   3.938   1.398
 7954SOL     OW24760   5.755   5.695   4.265
 7954SOL    HW124761   5.804   5.610   4.283
 7954SOL    HW224762   5.719   5.694   4.172
 7955SOL     OW24763   1.807   6.375   6.292
 7955SOL    HW124764   1.902   6.393   6.268
 7955SOL    HW224765   1.766   6.458   6.330
 7956SOL     OW24766   5.425   5.900   3.442
 7956SOL    HW124767   5.488   5.978   3.447
 7956SOL    HW224768   5.416   5.871   3.346
 7957SOL     OW24769   1.537   2.989   0.860
 7957SOL    HW124770   1.531   2.901   0.908
 7957SOL    HW224771   1.632   3.006   0.834
 7958SOL     OW24772   2.054   5.637   3.307
 7958SOL    HW124773   2.058   5.584   3.222
 7958SOL    HW224774   1.996   5.589   3.373
 7959SOL     OW24775   4.596   5.138   1.349
 7959SOL    HW124776   4.560   5.213   1.404
 7959SOL    HW224777   4.557   5.052   1.381
 7960SOL     OW24778   1.747   2.416   1.374
 7960SOL    HW124779   1.731   2.419   1.276
 7960SOL    HW224780   1.812   2.343   1.395
 7961SOL     OW24781   1.555   6.291   0.196
 7961SOL    HW124782   1.532   6.377   0.241
 7961SOL    HW224783   1.572   6.308   0.099
 7962SOL     OW24784   1.672   6.672   2.477
 7962SOL    HW124785   1.724   6.622   2.546
 7962SOL    HW224786   1.579   6.687   2.510
 7963SOL     OW24787   0.093   6.110   6.281
 7963SOL    HW124788   0.042   6.030   6.247
 7963SOL    HW224789   0.046   6.194   6.254
 7964SOL     OW24790   6.049   5.749   3.397
 7964SOL    HW124791   5.972   5.806   3.426
 7964SOL    HW224792   6.051   5.665   3.452
 7965SOL     OW24793   4.032   1.705   1.172
 7965SOL    HW124794   3.950   1.756   1.195
 7965SOL    HW224795   4.007   1.621   1.125
 7966SOL     OW24796   0.002   1.302   4.547
 7966SOL    HW124797   0.072   1.231   4.553
 7966SOL    HW224798   6.951   1.271   4.487
 7967SOL     OW24799   2.187   0.630   3.757
 7967SOL    HW124800   2.225   0.719   3.732
 7967SOL    HW224801   2.225   0.559   3.697
 7968SOL     OW24802   2.050   1.063   0.259
 7968SOL    HW124803   2.102   1.098   0.182
 7968SOL    HW224804   2.018   1.139   0.316
 7969SOL     OW24805   3.760   2.042   3.291
 7969SOL    HW124806   3.741   2.139   3.280
 7969SOL    HW224807   3.857   2.025   3.272
 7970SOL     OW24808   0.484   4.544   3.305
 7970SOL    HW124809   0.479   4.488   3.388
 7970SOL    HW224810   0.426   4.505   3.234
 7971SOL     OW24811   3.529   2.004   2.577
 7971SOL    HW124812   3.485   2.029   2.491
 7971SOL    HW224813   3.462   1.966   2.640
 7972SOL     OW24814   5.469   5.938   1.257
 7972SOL    HW124815   5.517   5.876   1.319
 7972SOL    HW224816   5.382   5.965   1.299
 7973SOL     OW24817   5.584   2.009   2.752
 7973SOL    HW124818   5.606   1.924   2.704
 7973SOL    HW224819   5.536   2.071   2.689
 7974SOL     OW24820   4.450   5.806   4.649
 7974SOL    HW124821   4.368   5.792   4.593
 7974SOL    HW224822   4.516   5.734   4.629
 7975SOL     OW24823   1.819   1.422   2.170
 7975SOL    HW124824   1.805   1.448   2.075
 7975SOL    HW224825   1.917   1.415   2.189
 7976SOL     OW24826   0.455   7.012   6.035
 7976SOL    HW124827   0.438   0.051   6.112
 7976SOL    HW224828   0.373   6.957   6.019
 7977SOL     OW24829   5.437   5.734   1.035
 7977SOL    HW124830   5.439   5.713   1.133
 7977SOL    HW224831   5.424   5.832   1.021
 7978SOL     OW24832   3.161   1.940   6.118
 7978SOL    HW124833   3.141   1.847   6.146
 7978SOL    HW224834   3.076   1.992   6.108
 7979SOL     OW24835   4.676   5.618   4.086
 7979SOL    HW124836   4.705   5.580   3.998
 7979SOL    HW224837   4.705   5.714   4.091
 7980SOL     OW24838   2.771   1.188   1.519
 7980SOL    HW124839   2.746   1.241   1.438
 7980SOL    HW224840   2.854   1.136   1.500
 7981SOL     OW24841   0.265   6.134   2.278
 7981SOL    HW124842   0.250   6.084   2.364
 7981SOL    HW224843   0.363   6.143   2.262
 7982SOL     OW24844   0.522   3.359   1.083
 7982SOL    HW124845   0.454   3.298   1.123
 7982SOL    HW224846   0.591   3.306   1.033
 7983SOL     OW24847   5.274   1.845   0.584
 7983SOL    HW124848   5.332   1.880   0.511
 7983SOL    HW224849   5.221   1.920   0.624
 7984SOL     OW24850   6.126   0.839   0.697
 7984SOL    HW124851   6.176   0.781   0.633
 7984SOL    HW224852   6.050   0.788   0.737
 7985SOL     OW24853   0.924   1.343   0.693
 7985SOL    HW124854   0.986   1.294   0.632
 7985SOL    HW224855   0.837   1.294   0.700
 7986SOL     OW24856   4.963   3.609   0.794
 7986SOL    HW124857   4.927   3.689   0.841
 7986SOL    HW224858   4.935   3.610   0.698
 7987SOL     OW24859   1.336   3.605   5.490
 7987SOL    HW124860   1.381   3.569   5.572
 7987SOL    HW224861   1.350   3.541   5.414
 7988SOL     OW24862   2.589   0.893   5.324
 7988SOL    HW124863   2.688   0.911   5.326
 7988SOL    HW224864   2.571   0.801   5.357
 7989SOL     OW24865   3.020   3.989   0.155
 7989SOL    HW124866   2.973   3.951   0.234
 7989SOL    HW224867   2.991   4.084   0.142
 7990SOL     OW24868   2.165   2.667   4.336
 7990SOL    HW124869   2.170   2.570   4.315
 7990SOL    HW224870   2.133   2.680   4.429
 7991SOL     OW24871   2.404   3.306   5.939
 7991SOL    HW124872   2.450   3.289   5.851
 7991SOL    HW224873   2.331   3.239   5.951
 7992SOL     OW24874   3.095   1.452   0.092
 7992SOL    HW124875   3.101   1.414   0.184
 7992SOL    HW224876   3.129   1.385   0.026
 7993SOL     OW24877   2.946   5.514   6.452
 7993SOL    HW124878   3.015   5.549   6.389
 7993SOL    HW224879   2.871   5.473   6.400
 7994SOL     OW24880   5.837   0.188   4.949
 7994SOL    HW124881   5.759   0.221   5.002
 7994SOL    HW224882   5.822   0.209   4.852
 7995SOL     OW24883   4.301   4.902   2.499
 7995SOL    HW124884   4.343   4.985   2.463
 7995SOL    HW224885   4.310   4.828   2.433
 7996SOL     OW24886   4.461   1.467   5.401
 7996SOL    HW124887   4.404   1.476   5.320
 7996SOL    HW224888   4.408   1.429   5.476
 7997SOL     OW24889   5.207   3.293   0.971
 7997SOL    HW124890   5.279   3.254   1.029
 7997SOL    HW224891   5.122   3.245   0.987
 7998SOL     OW24892   6.830   5.598   6.104
 7998SOL    HW124893   6.837   5.498   6.103
 7998SOL    HW224894   6.735   5.625   6.091
 7999SOL     OW24895   2.873   2.664   5.700
 7999SOL    HW124896   2.801   2.595   5.691
 7999SOL    HW224897   2.899   2.672   5.797
 8000SOL     OW24898   5.201   0.926   5.625
 8000SOL    HW124899   5.199   0.826   5.635
 8000SOL    HW224900   5.291   0.960   5.650
 8001SOL     OW24901   2.388   5.224   1.089
 8001SOL    HW124902   2.308   5.277   1.062
 8001SOL    HW224903   2.388   5.214   1.189
 8002SOL     OW24904   4.420   2.047   5.429
 8002SOL    HW124905   4.451   2.042   5.523
 8002SOL    HW224906   4.498   2.065   5.369
 8003SOL     OW24907   5.020   5.292   3.171
 8003SOL    HW124908   4.945   5.285   3.105
 8003SOL    HW224909   5.085   5.361   3.141
 8004SOL     OW24910   1.261   4.745   3.546
 8004SOL    HW124911   1.293   4.674   3.608
 8004SOL    HW224912   1.339   4.794   3.508
 8005SOL     OW24913   1.884   0.988   2.548
 8005SOL    HW124914   1.912   0.927   2.622
 8005SOL    HW224915   1.927   1.077   2.561
 8006SOL     OW24916   4.710   5.555   2.749
 8006SOL    HW124917   4.711   5.534   2.651
 8006SOL    HW224918   4.788   5.613   2.771
 8007SOL     OW24919   0.713   0.899   3.777
 8007SOL    HW124920   0.616   0.912   3.759
 8007SOL    HW224921   0.727   0.816   3.831
 8008SOL     OW24922   5.998   4.723   1.652
 8008SOL    HW124923   5.966   4.636   1.615
 8008SOL    HW224924   6.094   4.737   1.627
 8009SOL     OW24925   6.845   6.308   2.838
 8009SOL    HW124926   6.781   6.299   2.762
 8009SOL    HW224927   6.849   6.222   2.889
 8010SOL     OW24928   2.313   2.173   6.595
 8010SOL    HW124929   2.280   2.266   6.610
 8010SOL    HW224930   2.259   2.109   6.650
 8011SOL     OW24931   2.125   2.939   0.357
 8011SOL    HW124932   2.147   2.949   0.260
 8011SOL    HW224933   2.127   3.028   0.402
 8012SOL     OW24934   2.288   6.084   3.211
 8012SOL    HW124935   2.217   6.154   3.200
 8012SOL    HW224936   2.268   6.029   3.292
 8013SOL     OW24937   6.301   5.593   4.479
 8013SOL    HW124938   6.384   5.635   4.441
 8013SOL    HW224939   6.244   5.559   4.405
 8014SOL     OW24940   2.980   0.614   6.462
 8014SOL    HW124941   2.963   0.710   6.483
 8014SOL    HW224942   2.995   0.603   6.364
 8015SOL     OW24943   1.683   1.858   0.578
 8015SOL    HW124944   1.751   1.797   0.618
 8015SOL    HW224945   1.661   1.931   0.643
 8016SOL     OW24946   4.428   5.477   2.008
 8016SOL    HW124947   4.495   5.543   2.043
 8016SOL    HW224948   4.336   5.512   2.022
 8017SOL     OW24949   6.259   3.623   5.033
 8017SOL    HW124950   6.254   3.527   5.006
 8017SOL    HW224951   6.320   3.672   4.971
 8018SOL     OW24952   4.790   3.019   4.009
 8018SOL    HW124953   4.777   2.958   4.087
 8018SOL    HW224954   4.744   2.982   3.929
 8019SOL     OW24955   3.341   5.152   0.913
 8019SOL    HW124956   3.439   5.170   0.898
 8019SOL    HW224957   3.327   5.054   0.925
 8020SOL     OW24958   5.319   6.491   6.662
 8020SOL    HW124959   5.304   6.489   6.563
 8020SOL    HW224960   5.416   6.480   6.681
 8021SOL     OW24961   6.726   1.390   1.650
 8021SOL    HW124962   6.774   1.467   1.608
 8021SOL    HW224963   6.729   1.311   1.588
 8022SOL     OW24964   5.633   5.048   4.182
 8022SOL    HW124965   5.622   4.974   4.248
 8022SOL    HW224966   5.544   5.092   4.167
 8023SOL     OW24967   0.153   5.770   3.836
 8023SOL    HW124968   0.243   5.801   3.869
 8023SOL    HW224969   0.085   5.842   3.854
 8024SOL     OW24970   4.583   5.858   3.763
 8024SOL    HW124971   4.679   5.865   3.737
 8024SOL    HW224972   4.553   5.763   3.754
 8025SOL     OW24973   2.926   5.911   0.522
 8025SOL    HW124974   2.835   5.872   0.511
 8025SOL    HW224975   2.968   5.923   0.432
 8026SOL     OW24976   2.754   2.126   6.753
 8026SOL    HW124977   2.718   2.192   6.686
 8026SOL    HW224978   2.845   2.154   6.782
 8027SOL     OW24979   4.343   3.386   5.645
 8027SOL    HW124980   4.287   3.446   5.588
 8027SOL    HW224981   4.289   3.351   5.721
 8028SOL     OW24982   6.088   5.004   1.137
 8028SOL    HW124983   6.133   5.077   1.188
 8028SOL    HW224984   6.019   5.044   1.077
 8029SOL     OW24985   3.347   4.321   5.741
 8029SOL    HW124986   3.406   4.384   5.690
 8029SOL    HW224987   3.300   4.260   5.678
 8030SOL     OW24988   0.059   3.616   1.704
 8030SOL    HW124989   0.070   3.640   1.800
 8030SOL    HW224990   0.056   3.700   1.649
 8031SOL     OW24991   3.746   6.541   0.451
 8031SOL    HW124992   3.828   6.510   0.499
 8031SOL    HW224993   3.665   6.504   0.495
 8032SOL     OW24994   4.640   3.356   5.303
 8032SOL    HW124995   4.719   3.296   5.292
 8032SOL    HW224996   4.653   3.437   5.245
 8033SOL     OW24997   6.415   0.830   2.067
 8033SOL    HW124998   6.458   0.829   2.157
 8033SOL    HW224999   6.417   0.739   2.028
 8034SOL     OW25000   6.343   2.312   5.484
 8034SOL    HW125001   6.298   2.391   5.526
 8034SOL    HW225002   6.440   2.314   5.505
 8035SOL     OW25003   5.355   5.759   5.843
 8035SOL    HW125004   5.413   5.709   5.908
 8035SOL    HW225005   5.261   5.726   5.851
 8036SOL     OW25006   1.176   4.051   1.679
 8036SOL    HW125007   1.268   4.021   1.651
 8036SOL    HW225008   1.184   4.112   1.758
 8037SOL     OW25009   2.115   3.051   1.722
 8037SOL    HW125010   2.124   3.026   1.818
 8037SOL    HW225011   2.122   3.151   1.712
 8038SOL     OW25012   5.709   0.903   4.073
 8038SOL    HW125013   5.744   0.900   3.980
 8038SOL    HW225014   5.784   0.888   4.138
 8039SOL     OW25015   2.365   5.579   3.231
 8039SOL    HW125016   2.370   5.668   3.185
 8039SOL    HW225017   2.457   5.551   3.259
 8040SOL     OW25018   5.823   6.311   6.666
 8040SOL    HW125019   5.899   6.269   6.716
 8040SOL    HW225020   5.854   6.397   6.625
 8041SOL     OW25021   3.266   2.513   1.160
 8041SOL    HW125022   3.217   2.426   1.151
 8041SOL    HW225023   3.303   2.520   1.253
 8042SOL     OW25024   1.717   4.911   7.001
 8042SOL    HW125025   1.703   5.009   7.013
 8042SOL    HW225026   1.639   4.872   6.951
 8043SOL     OW25027   3.451   0.568   0.971
 8043SOL    HW125028   3.433   0.544   1.066
 8043SOL    HW225029   3.537   0.527   0.942
 8044SOL     OW25030   3.123   2.716   1.752
 8044SOL    HW125031   3.064   2.642   1.784
 8044SOL    HW225032   3.217   2.681   1.741
 8045SOL     OW25033   5.976   2.768   3.782
 8045SOL    HW125034   5.966   2.789   3.879
 8045SOL    HW225035   5.934   2.841   3.728
 8046SOL     OW25036   6.605   5.069   4.966
 8046SOL    HW125037   6.573   5.163   4.979
 8046SOL    HW225038   6.673   5.047   5.035
 8047SOL     OW25039   2.439   0.158   4.436
 8047SOL    HW125040   2.536   0.144   4.417
 8047SOL    HW225041   2.419   0.131   4.530
 8048SOL     OW25042   5.260   0.244   5.509
 8048SOL    HW125043   5.164   0.272   5.516
 8048SOL    HW225044   5.302   0.291   5.430
 8049SOL     OW25045   2.224   6.396   6.635
 8049SOL    HW125046   2.215   6.296   6.627
 8049SOL    HW225047   2.269   6.418   6.721
 8050SOL     OW25048   0.162   3.540   2.009
 8050SOL    HW125049   0.214   3.465   1.970
 8050SOL    HW225050   0.215   3.624   2.003
 8051SOL     OW25051   2.533   2.577   3.830
 8051SOL    HW125052   2.522   2.512   3.755
 8051SOL    HW225053   2.568   2.664   3.794
 8052SOL     OW25054   4.308   1.584   2.804
 8052SOL    HW125055   4.307   1.678   2.839
 8052SOL    HW225056   4.325   1.521   2.879
 8053SOL     OW25057   4.606   3.668   1.667
 8053SOL    HW125058   4.560   3.588   1.706
 8053SOL    HW225059   4.555   3.699   1.587
 8054SOL     OW25060   4.570   6.032   4.398
 8054SOL    HW125061   4.536   5.987   4.315
 8054SOL    HW225062   4.499   6.028   4.469
 8055SOL     OW25063   1.405   6.856   4.874
 8055SOL    HW125064   1.349   6.838   4.955
 8055SOL    HW225065   1.464   6.935   4.892
 8056SOL     OW25066   4.607   1.365   2.935
 8056SOL    HW125067   4.658   1.303   2.876
 8056SOL    HW225068   4.613   1.334   3.030
 8057SOL     OW25069   3.752   6.849   3.991
 8057SOL    HW125070   3.666   6.875   3.945
 8057SOL    HW225071   3.818   6.818   3.923
 8058SOL     OW25072   1.724   0.236   2.958
 8058SOL    HW125073   1.818   0.247   2.991
 8058SOL    HW225074   1.711   0.295   2.878
 8059SOL     OW25075   1.391   1.538   4.210
 8059SOL    HW125076   1.427   1.481   4.136
 8059SOL    HW225077   1.340   1.615   4.171
 8060SOL     OW25078   0.549   2.682   5.685
 8060SOL    HW125079   0.608   2.615   5.731
 8060SOL    HW225080   0.499   2.638   5.611
 8061SOL     OW25081   5.482   6.665   3.333
 8061SOL    HW125082   5.471   6.573   3.372
 8061SOL    HW225083   5.396   6.716   3.344
 8062SOL     OW25084   1.681   2.032   1.333
 8062SOL    HW125085   1.770   2.005   1.368
 8062SOL    HW225086   1.637   2.094   1.399
 8063SOL     OW25087   2.346   2.668   5.777
 8063SOL    HW125088   2.291   2.695   5.856
 8063SOL    HW225089   2.402   2.745   5.747
 8064SOL     OW25090   5.494   2.188   5.607
 8064SOL    HW125091   5.477   2.109   5.667
 8064SOL    HW225092   5.564   2.163   5.539
 8065SOL     OW25093   4.105   0.636   6.454
 8065SOL    HW125094   4.073   0.663   6.545
 8065SOL    HW225095   4.187   0.580   6.463
 8066SOL     OW25096   1.429   0.350   1.393
 8066SOL    HW125097   1.527   0.331   1.404
 8066SOL    HW225098   1.377   0.267   1.413
 8067SOL     OW25099   4.538   2.005   2.796
 8067SOL    HW125100   4.507   2.094   2.762
 8067SOL    HW225101   4.613   1.972   2.740
 8068SOL     OW25102   6.969   4.400   3.813
 8068SOL    HW125103   6.958   4.301   3.807
 8068SOL    HW225104   0.037   4.426   3.780
 8069SOL     OW25105   0.013   6.165   2.494
 8069SOL    HW125106   0.044   6.070   2.489
 8069SOL    HW225107   0.064   6.213   2.565
 8070SOL     OW25108   3.844   0.374   2.743
 8070SOL    HW125109   3.846   0.461   2.792
 8070SOL    HW225110   3.754   0.331   2.756
 8071SOL     OW25111   5.339   4.708   6.934
 8071SOL    HW125112   5.321   4.744   0.003
 8071SOL    HW225113   5.400   4.771   6.886
 8072SOL     OW25114   4.001   0.158   3.631
 8072SOL    HW125115   4.046   0.194   3.713
 8072SOL    HW225116   3.924   0.217   3.607
 8073SOL     OW25117   5.206   0.181   6.697
 8073SOL    HW125118   5.182   0.272   6.730
 8073SOL    HW225119   5.128   0.140   6.650
 8074SOL     OW25120   3.133   4.512   0.345
 8074SOL    HW125121   3.189   4.495   0.426
 8074SOL    HW225122   3.040   4.536   0.374
 8075SOL     OW25123   6.635   1.798   4.024
 8075SOL    HW125124   6.621   1.768   3.930
 8075SOL    HW225125   6.675   1.723   4.077
 8076SOL     OW25126   4.999   3.019   6.709
 8076SOL    HW125127   4.982   2.943   6.646
 8076SOL    HW225128   4.917   3.075   6.717
 8077SOL     OW25129   0.992   0.514   6.931
 8077SOL    HW125130   0.896   0.541   6.937
 8077SOL    HW225131   1.001   0.418   6.958
 8078SOL     OW25132   6.451   3.800   1.485
 8078SOL    HW125133   6.514   3.819   1.409
 8078SOL    HW225134   6.358   3.790   1.450
 8079SOL     OW25135   1.344   3.060   0.194
 8079SOL    HW125136   1.318   3.036   0.100
 8079SOL    HW225137   1.441   3.083   0.197
 8080SOL     OW25138   3.777   4.608   0.456
 8080SOL    HW125139   3.753   4.662   0.376
 8080SOL    HW225140   3.832   4.529   0.428
 8081SOL     OW25141   5.515   2.294   4.121
 8081SOL    HW125142   5.480   2.253   4.037
 8081SOL    HW225143   5.601   2.341   4.103
 8082SOL     OW25144   6.758   3.318   5.028
 8082SOL    HW125145   6.744   3.229   4.984
 8082SOL    HW225146   6.840   3.361   4.990
 8083SOL     OW25147   5.924   1.878   4.697
 8083SOL    HW125148   6.023   1.870   4.704
 8083SOL    HW225149   5.892   1.956   4.751
 8084SOL     OW25150   5.553   0.105   6.956
 8084SOL    HW125151   5.541   0.199   6.987
 8084SOL    HW225152   5.600   0.104   6.868
 8085SOL     OW25153   4.893   2.283   1.504
 8085SOL    HW125154   4.894   2.309   1.601
 8085SOL    HW225155   4.971   2.325   1.458
 8086SOL     OW25156   3.587   4.887   6.361
 8086SOL    HW125157   3.501   4.844   6.390
 8086SOL    HW225158   3.664   4.838   6.402
 8087SOL     OW25159   1.986   3.725   0.721
 8087SOL    HW125160   1.946   3.806   0.678
 8087SOL    HW225161   2.072   3.702   0.677
 8088SOL     OW25162   4.559   0.537   3.052
 8088SOL    HW125163   4.565   0.452   3.000
 8088SOL    HW225164   4.651   0.570   3.074
 8089SOL     OW25165   6.985   2.759   0.260
 8089SOL    HW125166   6.939   2.769   0.171
 8089SOL    HW225167   7.021   2.666   0.268
 8090SOL     OW25168   5.079   1.468   5.230
 8090SOL    HW125169   5.047   1.559   5.204
 8090SOL    HW225170   5.013   1.400   5.200
 8091SOL     OW25171   1.858   3.535   5.213
 8091SOL    HW125172   1.837   3.631   5.230
 8091SOL    HW225173   1.941   3.529   5.157
 8092SOL     OW25174   6.247   2.226   3.978
 8092SOL    HW125175   6.268   2.135   3.943
 8092SOL    HW225176   6.300   2.295   3.929
 8093SOL     OW25177   5.910   4.824   0.566
 8093SOL    HW125178   5.841   4.863   0.626
 8093SOL    HW225179   6.001   4.853   0.595
 8094SOL     OW25180   0.671   3.305   4.203
 8094SOL    HW125181   0.641   3.330   4.296
 8094SOL    HW225182   0.706   3.212   4.204
 8095SOL     OW25183   6.228   3.206   5.439
 8095SOL    HW125184   6.239   3.238   5.345
 8095SOL    HW225185   6.263   3.276   5.502
 8096SOL     OW25186   4.341   0.160   0.765
 8096SOL    HW125187   4.254   0.122   0.733
 8096SOL    HW225188   4.324   0.220   0.843
 8097SOL     OW25189   5.084   2.156   3.750
 8097SOL    HW125190   5.011   2.135   3.685
 8097SOL    HW225191   5.118   2.249   3.732
 8098SOL     OW25192   2.529   2.554   4.120
 8098SOL    HW125193   2.548   2.574   4.024
 8098SOL    HW225194   2.493   2.637   4.164
 8099SOL     OW25195   3.955   0.019   4.044
 8099SOL    HW125196   3.885   6.975   4.020
 8099SOL    HW225197   3.915   0.111   4.039
 8100SOL     OW25198   6.681   6.199   1.818
 8100SOL    HW125199   6.640   6.260   1.750
 8100SOL    HW225200   6.778   6.223   1.830
 8101SOL     OW25201   1.147   4.874   2.367
 8101SOL    HW125202   1.211   4.818   2.314
 8101SOL    HW225203   1.128   4.959   2.318
 8102SOL     OW25204   6.776   0.295   5.475
 8102SOL    HW125205   6.760   0.383   5.520
 8102SOL    HW225206   6.804   0.311   5.380
 8103SOL     OW25207   2.610   2.242   2.201
 8103SOL    HW125208   2.691   2.193   2.234
 8103SOL    HW225209   2.637   2.307   2.131
 8104SOL     OW25210   3.058   0.126   5.752
 8104SOL    HW125211   3.135   0.180   5.785
 8104SOL    HW225212   2.985   0.127   5.819
 8105SOL     OW25213   2.586   2.096   2.475
 8105SOL    HW125214   2.607   2.139   2.387
 8105SOL    HW225215   2.628   2.150   2.548
 8106SOL     OW25216   0.289   4.268   5.868
 8106SOL    HW125217   0.304   4.365   5.886
 8106SOL    HW225218   0.226   4.231   5.937
 8107SOL     OW25219   0.769   4.928   7.001
 8107SOL    HW125220   0.756   5.024   0.002
 8107SOL    HW225221   0.738   4.913   6.907
 8108SOL     OW25222   2.203   2.413   6.221
 8108SOL    HW125223   2.213   2.329   6.274
 8108SOL    HW225224   2.195   2.491   6.284
 8109SOL     OW25225   0.234   5.732   5.209
 8109SOL    HW125226   0.224   5.685   5.122
 8109SOL    HW225227   0.190   5.821   5.205
 8110SOL     OW25228   1.080   4.862   0.187
 8110SOL    HW125229   1.035   4.801   0.122
 8110SOL    HW225230   1.151   4.812   0.235
 8111SOL     OW25231   3.245   6.192   4.171
 8111SOL    HW125232   3.326   6.171   4.117
 8111SOL    HW225233   3.253   6.149   4.261
 8112SOL     OW25234   4.213   1.277   4.261
 8112SOL    HW125235   4.234   1.375   4.257
 8112SOL    HW225236   4.162   1.257   4.345
 8113SOL     OW25237   3.106   2.510   5.881
 8113SOL    HW125238   3.157   2.495   5.796
 8113SOL    HW225239   3.019   2.462   5.876
 8114SOL     OW25240   2.921   3.767   0.986
 8114SOL    HW125241   2.971   3.690   0.948
 8114SOL    HW225242   2.911   3.755   1.085
 8115SOL     OW25243   4.036   2.935   1.334
 8115SOL    HW125244   4.011   3.028   1.310
 8115SOL    HW225245   4.135   2.931   1.352
 8116SOL     OW25246   5.779   1.720   5.647
 8116SOL    HW125247   5.734   1.648   5.594
 8116SOL    HW225248   5.850   1.680   5.704
 8117SOL     OW25249   3.155   2.837   5.191
 8117SOL    HW125250   3.086   2.828   5.263
 8117SOL    HW225251   3.133   2.916   5.134
 8118SOL     OW25252   0.802   1.958   4.055
 8118SOL    HW125253   0.809   2.008   4.141
 8118SOL    HW225254   0.850   1.870   4.064
 8119SOL     OW25255   1.646   0.142   2.326
 8119SOL    HW125256   1.713   0.176   2.391
 8119SOL    HW225257   1.628   0.212   2.257
 8120SOL     OW25258   4.814   3.954   2.306
 8120SOL    HW125259   4.874   4.035   2.305
 8120SOL    HW225260   4.723   3.980   2.273
 8121SOL     OW25261   0.279   6.228   3.778
 8121SOL    HW125262   0.355   6.169   3.803
 8121SOL    HW225263   0.245   6.276   3.859
 8122SOL     OW25264   0.306   4.668   2.073
 8122SOL    HW125265   0.350   4.579   2.086
 8122SOL    HW225266   0.341   4.711   1.990
 8123SOL     OW25267   1.784   4.965   6.046
 8123SOL    HW125268   1.770   5.029   5.970
 8123SOL    HW225269   1.803   5.016   6.129
 8124SOL     OW25270   2.007   5.965   2.472
 8124SOL    HW125271   2.003   5.869   2.445
 8124SOL    HW225272   1.936   6.016   2.424
 8125SOL     OW25273   5.147   5.294   3.818
 8125SOL    HW125274   5.218   5.232   3.850
 8125SOL    HW225275   5.087   5.247   3.753
 8126SOL     OW25276   0.514   4.495   2.146
 8126SOL    HW125277   0.495   4.405   2.185
 8126SOL    HW225278   0.613   4.514   2.150
 8127SOL     OW25279   4.275   5.265   0.891
 8127SOL    HW125280   4.331   5.197   0.843
 8127SOL    HW225281   4.312   5.357   0.872
 8128SOL     OW25282   3.958   2.091   5.321
 8128SOL    HW125283   3.958   2.180   5.366
 8128SOL    HW225284   3.865   2.068   5.292
 8129SOL     OW25285   5.073   5.256   6.671
 8129SOL    HW125286   5.028   5.180   6.625
 8129SOL    HW225287   5.082   5.237   6.768
 8130SOL     OW25288   0.211   0.377   6.278
 8130SOL    HW125289   0.217   0.439   6.356
 8130SOL    HW225290   0.281   0.401   6.210
 8131SOL     OW25291   2.399   2.228   1.219
 8131SOL    HW125292   2.411   2.134   1.248
 8131SOL    HW225293   2.482   2.281   1.238
 8132SOL     OW25294   5.942   4.422   3.690
 8132SOL    HW125295   6.023   4.476   3.713
 8132SOL    HW225296   5.933   4.416   3.591
 8133SOL     OW25297   0.212   5.309   2.432
 8133SOL    HW125298   0.198   5.365   2.514
 8133SOL    HW225299   0.263   5.361   2.364
 8134SOL     OW25300   3.490   3.577   1.477
 8134SOL    HW125301   3.416   3.635   1.442
 8134SOL    HW225302   3.560   3.634   1.519
 8135SOL     OW25303   4.036   6.010   2.427
 8135SOL    HW125304   4.086   6.097   2.421
 8135SOL    HW225305   3.940   6.028   2.448
 8136SOL     OW25306   2.729   5.646   1.575
 8136SOL    HW125307   2.674   5.728   1.587
 8136SOL    HW225308   2.670   5.565   1.573
 8137SOL     OW25309   3.516   4.476   5.626
 8137SOL    HW125310   3.495   4.548   5.561
 8137SOL    HW225311   3.543   4.393   5.576
 8138SOL     OW25312   4.197   0.683   3.387
 8138SOL    HW125313   4.257   0.642   3.319
 8138SOL    HW225314   4.233   0.773   3.413
 8139SOL     OW25315   1.938   3.103   5.437
 8139SOL    HW125316   2.036   3.084   5.447
 8139SOL    HW225317   1.906   3.069   5.349
 8140SOL     OW25318   5.135   1.699   1.006
 8140SOL    HW125319   5.125   1.608   0.967
 8140SOL    HW225320   5.053   1.754   0.984
 8141SOL     OW25321   5.767   1.793   5.233
 8141SOL    HW125322   5.736   1.698   5.233
 8141SOL    HW225323   5.803   1.816   5.324
 8142SOL     OW25324   3.872   5.683   0.632
 8142SOL    HW125325   3.883   5.659   0.535
 8142SOL    HW225326   3.775   5.689   0.654
 8143SOL     OW25327   5.783   5.207   0.556
 8143SOL    HW125328   5.748   5.143   0.488
 8143SOL    HW225329   5.713   5.277   0.575
 8144SOL     OW25330   2.179   5.658   6.530
 8144SOL    HW125331   2.084   5.671   6.556
 8144SOL    HW225332   2.191   5.568   6.489
 8145SOL     OW25333   4.772   5.395   5.207
 8145SOL    HW125334   4.737   5.303   5.189
 8145SOL    HW225335   4.824   5.394   5.292
 8146SOL     OW25336   6.775   6.161   4.995
 8146SOL    HW125337   6.793   6.251   5.036
 8146SOL    HW225338   6.677   6.140   5.002
 8147SOL     OW25339   2.045   6.526   4.646
 8147SOL    HW125340   2.033   6.459   4.719
 8147SOL    HW225341   2.034   6.481   4.557
 8148SOL     OW25342   5.475   4.943   0.882
 8148SOL    HW125343   5.549   4.901   0.830
 8148SOL    HW225344   5.477   5.042   0.869
 8149SOL     OW25345   1.571   6.489   4.893
 8149SOL    HW125346   1.482   6.528   4.915
 8149SOL    HW225347   1.611   6.538   4.815
 8150SOL     OW25348   0.280   4.495   0.644
 8150SOL    HW125349   0.283   4.540   0.554
 8150SOL    HW225350   0.186   4.468   0.665
 8151SOL     OW25351   6.020   4.231   2.448
 8151SOL    HW125352   5.925   4.208   2.469
 8151SOL    HW225353   6.068   4.149   2.416
 8152SOL     OW25354   4.910   1.872   4.269
 8152SOL    HW125355   4.855   1.918   4.338
 8152SOL    HW225356   4.992   1.927   4.251
 8153SOL     OW25357   0.311   1.849   1.000
 8153SOL    HW125358   0.399   1.823   0.960
 8153SOL    HW225359   0.308   1.948   1.013
 8154SOL     OW25360   0.120   0.436   4.473
 8154SOL    HW125361   0.028   0.419   4.509
 8154SOL    HW225362   0.183   0.454   4.550
 8155SOL     OW25363   0.823   4.738   4.488
 8155SOL    HW125364   0.869   4.732   4.577
 8155SOL    HW225365   0.724   4.736   4.502
 8156SOL     OW25366   1.131   4.061   0.702
 8156SOL    HW125367   1.057   4.086   0.639
 8156SOL    HW225368   1.144   3.962   0.702
 8157SOL     OW25369   6.398   4.736   5.390
 8157SOL    HW125370   6.393   4.677   5.310
 8157SOL    HW225371   6.332   4.810   5.380
 8158SOL     OW25372   6.334   5.101   6.178
 8158SOL    HW125373   6.253   5.044   6.165
 8158SOL    HW225374   6.362   5.140   6.090
 8159SOL     OW25375   2.239   6.626   5.522
 8159SOL    HW125376   2.284   6.537   5.521
 8159SOL    HW225377   2.299   6.693   5.565
 8160SOL     OW25378   5.157   3.397   2.560
 8160SOL    HW125379   5.237   3.444   2.598
 8160SOL    HW225380   5.178   3.364   2.468
 8161SOL     OW25381   0.248   2.444   1.084
 8161SOL    HW125382   0.215   2.420   0.993
 8161SOL    HW225383   0.183   2.504   1.129
 8162SOL     OW25384   0.141   6.230   5.376
 8162SOL    HW125385   0.194   6.172   5.438
 8162SOL    HW225386   0.068   6.275   5.427
 8163SOL     OW25387   3.904   5.213   5.788
 8163SOL    HW125388   3.817   5.206   5.740
 8163SOL    HW225389   3.923   5.310   5.808
 8164SOL     OW25390   5.685   2.048   0.101
 8164SOL    HW125391   5.755   2.101   0.148
 8164SOL    HW225392   5.675   1.959   0.146
 8165SOL     OW25393   1.267   2.586   5.815
 8165SOL    HW125394   1.265   2.570   5.716
 8165SOL    HW225395   1.336   2.656   5.835
 8166SOL     OW25396   3.455   2.058   4.189
 8166SOL    HW125397   3.454   2.031   4.093
 8166SOL    HW225398   3.397   2.138   4.202
 8167SOL     OW25399   1.697   2.242   2.137
 8167SOL    HW125400   1.632   2.299   2.187
 8167SOL    HW225401   1.744   2.297   2.069
 8168SOL     OW25402   1.029   5.835   3.022
 8168SOL    HW125403   0.963   5.910   3.014
 8168SOL    HW225404   1.121   5.873   3.027
 8169SOL     OW25405   5.269   4.890   6.624
 8169SOL    HW125406   5.179   4.930   6.609
 8169SOL    HW225407   5.259   4.791   6.639
 8170SOL     OW25408   0.344   4.870   3.383
 8170SOL    HW125409   0.413   4.815   3.430
 8170SOL    HW225410   0.388   4.944   3.333
 8171SOL     OW25411   1.638   1.740   1.664
 8171SOL    HW125412   1.653   1.783   1.753
 8171SOL    HW225413   1.562   1.786   1.617
 8172SOL     OW25414   1.643   5.186   0.578
 8172SOL    HW125415   1.563   5.126   0.572
 8172SOL    HW225416   1.705   5.166   0.502
 8173SOL     OW25417   5.618   0.424   1.537
 8173SOL    HW125418   5.678   0.502   1.523
 8173SOL    HW225419   5.619   0.366   1.455
 8174SOL     OW25420   2.412   6.662   3.973
 8174SOL    HW125421   2.502   6.626   3.946
 8174SOL    HW225422   2.405   6.757   3.945
 8175SOL     OW25423   0.832   2.130   6.318
 8175SOL    HW125424   0.751   2.144   6.261
 8175SOL    HW225425   0.908   2.185   6.283
 8176SOL     OW25426   2.627   4.619   0.428
 8176SOL    HW125427   2.546   4.562   0.409
 8176SOL    HW225428   2.621   4.703   0.375
 8177SOL     OW25429   3.319   1.252   2.410
 8177SOL    HW125430   3.374   1.190   2.355
 8177SOL    HW225431   3.368   1.338   2.424
 8178SOL     OW25432   2.719   6.480   1.130
 8178SOL    HW125433   2.641   6.474   1.068
 8178SOL    HW225434   2.698   6.433   1.215
 8179SOL     OW25435   6.168   6.967   4.410
 8179SOL    HW125436   6.113   6.886   4.431
 8179SOL    HW225437   6.254   6.963   4.461
 8180SOL     OW25438   4.331   5.883   1.087
 8180SOL    HW125439   4.427   5.874   1.060
 8180SOL    HW225440   4.294   5.968   1.050
 8181SOL     OW25441   6.483   0.728   6.377
 8181SOL    HW125442   6.502   0.792   6.303
 8181SOL    HW225443   6.542   0.749   6.455
 8182SOL     OW25444   3.474   3.450   3.219
 8182SOL    HW125445   3.547   3.384   3.200
 8182SOL    HW225446   3.390   3.419   3.175
 8183SOL     OW25447   0.436   0.137   5.258
 8183SOL    HW125448   0.492   0.071   5.308
 8183SOL    HW225449   0.465   0.139   5.162
 8184SOL     OW25450   0.125   6.141   4.873
 8184SOL    HW125451   0.075   6.064   4.833
 8184SOL    HW225452   0.075   6.174   4.954
 8185SOL     OW25453   0.044   6.454   4.875
 8185SOL    HW125454   6.983   6.506   4.890
 8185SOL    HW225455   0.049   6.377   4.939
 8186SOL     OW25456   1.268   5.653   6.651
 8186SOL    HW125457   1.179   5.647   6.696
 8186SOL    HW225458   1.262   5.715   6.573
 8187SOL     OW25459   1.460   6.087   4.840
 8187SOL    HW125460   1.535   6.109   4.902
 8187SOL    HW225461   1.405   6.013   4.879
 8188SOL     OW25462   1.498   2.768   2.708
 8188SOL    HW125463   1.539   2.778   2.617
 8188SOL    HW225464   1.569   2.743   2.774
 8189SOL     OW25465   6.744   5.483   4.096
 8189SOL    HW125466   6.793   5.406   4.055
 8189SOL    HW225467   6.806   5.560   4.107
 8190SOL     OW25468   5.460   3.699   2.568
 8190SOL    HW125469   5.541   3.756   2.584
 8190SOL    HW225470   5.378   3.756   2.575
 8191SOL     OW25471   4.845   5.087   0.662
 8191SOL    HW125472   4.807   5.080   0.570
 8191SOL    HW225473   4.774   5.117   0.725
 8192SOL     OW25474   6.643   5.861   2.590
 8192SOL    HW125475   6.608   5.860   2.496
 8192SOL    HW225476   6.626   5.951   2.630
 8193SOL     OW25477   0.845   5.045   4.605
 8193SOL    HW125478   0.924   5.044   4.545
 8193SOL    HW225479   0.761   5.046   4.551
 8194SOL     OW25480   5.330   0.077   2.476
 8194SOL    HW125481   5.248   0.044   2.430
 8194SOL    HW225482   5.400   0.098   2.407
 8195SOL     OW25483   6.235   6.891   3.442
 8195SOL    HW125484   6.232   6.808   3.498
 8195SOL    HW225485   6.254   6.970   3.499
 8196SOL     OW25486   5.098   6.844   2.913
 8196SOL    HW125487   5.055   6.854   2.823
 8196SOL    HW225488   5.028   6.832   2.983
 8197SOL     OW25489   4.183   0.988   3.139
 8197SOL    HW125490   4.083   0.995   3.149
 8197SOL    HW225491   4.223   1.080   3.140
 8198SOL     OW25492   1.994   5.487   0.098
 8198SOL    HW125493   1.968   5.573   0.053
 8198SOL    HW225494   2.075   5.449   0.053
 8199SOL     OW25495   6.010   2.993   0.134
 8199SOL    HW125496   5.957   3.077   0.146
 8199SOL    HW225497   5.949   2.918   0.108
 8200SOL     OW25498   5.849   4.530   6.915
 8200SOL    HW125499   5.839   4.569   6.823
 8200SOL    HW225500   5.902   4.593   6.972
 8201SOL     OW25501   5.665   1.412   5.790
 8201SOL    HW125502   5.573   1.384   5.817
 8201SOL    HW225503   5.661   1.456   5.700
 8202SOL     OW25504   0.127   5.823   2.257
 8202SOL    HW125505   0.120   5.743   2.317
 8202SOL    HW225506   0.197   5.885   2.292
 8203SOL     OW25507   1.005   3.110   0.454
 8203SOL    HW125508   0.924   3.054   0.470
 8203SOL    HW225509   1.007   3.185   0.520
 8204SOL     OW25510   1.522   3.595   0.647
 8204SOL    HW125511   1.473   3.558   0.568
 8204SOL    HW225512   1.615   3.560   0.648
 8205SOL     OW25513   0.039   4.139   6.395
 8205SOL    HW125514   6.991   4.120   6.328
 8205SOL    HW225515   0.128   4.148   6.349
 8206SOL     OW25516   3.163   1.216   1.099
 8206SOL    HW125517   3.070   1.248   1.079
 8206SOL    HW225518   3.166   1.179   1.192
 8207SOL     OW25519   4.024   3.800   4.212
 8207SOL    HW125520   4.060   3.752   4.292
 8207SOL    HW225521   4.063   3.760   4.129
 8208SOL     OW25522   3.477   0.206   5.698
 8208SOL    HW125523   3.476   0.197   5.598
 8208SOL    HW225524   3.547   0.273   5.724
 8209SOL     OW25525   5.219   2.394   3.701
 8209SOL    HW125526   5.253   2.314   3.651
 8209SOL    HW225527   5.234   2.476   3.646
 8210SOL     OW25528   1.782   1.758   6.186
 8210SOL    HW125529   1.694   1.713   6.168
 8210SOL    HW225530   1.801   1.823   6.113
 8211SOL     OW25531   3.642   4.639   1.300
 8211SOL    HW125532   3.723   4.617   1.245
 8211SOL    HW225533   3.667   4.709   1.367
 8212SOL     OW25534   1.623   3.291   2.969
 8212SOL    HW125535   1.617   3.223   3.043
 8212SOL    HW225536   1.626   3.244   2.881
 8213SOL     OW25537   6.567   4.664   0.799
 8213SOL    HW125538   6.651   4.709   0.771
 8213SOL    HW225539   6.543   4.694   0.892
 8214SOL     OW25540   4.757   2.899   3.768
 8214SOL    HW125541   4.700   2.836   3.715
 8214SOL    HW225542   4.778   2.979   3.712
 8215SOL     OW25543   3.277   4.428   1.507
 8215SOL    HW125544   3.351   4.411   1.573
 8215SOL    HW225545   3.316   4.464   1.423
 8216SOL     OW25546   5.734   2.947   4.284
 8216SOL    HW125547   5.792   2.948   4.365
 8216SOL    HW225548   5.755   3.027   4.228
 8217SOL     OW25549   2.202   5.820   0.266
 8217SOL    HW125550   2.248   5.855   0.348
 8217SOL    HW225551   2.193   5.720   0.274
 8218SOL     OW25552   4.684   1.739   0.222
 8218SOL    HW125553   4.623   1.699   0.290
 8218SOL    HW225554   4.755   1.793   0.268
 8219SOL     OW25555   5.438   2.813   6.947
 8219SOL    HW125556   5.500   2.781   7.018
 8219SOL    HW225557   5.464   2.905   6.918
 8220SOL     OW25558   4.017   3.554   1.474
 8220SOL    HW125559   4.087   3.538   1.543
 8220SOL    HW225560   3.926   3.553   1.517
 8221SOL     OW25561   5.349   3.664   3.724
 8221SOL    HW125562   5.319   3.570   3.707
 8221SOL    HW225563   5.276   3.727   3.695
 8222SOL     OW25564   5.800   1.035   2.903
 8222SOL    HW125565   5.810   1.026   2.804
 8222SOL    HW225566   5.742   1.113   2.923
 8223SOL     OW25567   0.826   3.706   0.580
 8223SOL    HW125568   0.837   3.668   0.671
 8223SOL    HW225569   0.913   3.699   0.530
 8224SOL     OW25570   0.826   3.606   2.554
 8224SOL    HW125571   0.894   3.600   2.481
 8224SOL    HW225572   0.735   3.586   2.515
 8225SOL     OW25573   4.651   0.700   1.008
 8225SOL    HW125574   4.608   0.618   0.969
 8225SOL    HW225575   4.686   0.679   1.099
 8226SOL     OW25576   3.830   0.389   0.010
 8226SOL    HW125577   3.927   0.411   0.018
 8226SOL    HW225578   3.778   0.442   0.077
 8227SOL     OW25579   5.712   4.312   3.368
 8227SOL    HW125580   5.782   4.383   3.376
 8227SOL    HW225581   5.649   4.317   3.445
 8228SOL     OW25582   0.236   1.457   3.865
 8228SOL    HW125583   0.319   1.403   3.882
 8228SOL    HW225584   0.160   1.396   3.843
 8229SOL     OW25585   5.905   5.728   6.685
 8229SOL    HW125586   5.987   5.771   6.724
 8229SOL    HW225587   5.896   5.754   6.589
 8230SOL     OW25588   4.856   6.975   3.848
 8230SOL    HW125589   4.770   6.988   3.798
 8230SOL    HW225590   4.928   0.004   3.803
 8231SOL     OW25591   3.869   5.914   1.537
 8231SOL    HW125592   3.942   5.961   1.488
 8231SOL    HW225593   3.797   5.888   1.473
 8232SOL     OW25594   2.520   1.508   0.273
 8232SOL    HW125595   2.437   1.537   0.320
 8232SOL    HW225596   2.504   1.508   0.174
 8233SOL     OW25597   1.118   5.671   6.001
 8233SOL    HW125598   1.141   5.643   5.907
 8233SOL    HW225599   1.019   5.668   6.013
 8234SOL     OW25600   2.080   3.195   6.716
 8234SOL    HW125601   2.067   3.113   6.771
 8234SOL    HW225602   1.991   3.228   6.684
 8235SOL     OW25603   4.653   2.793   6.699
 8235SOL    HW125604   4.606   2.845   6.628
 8235SOL    HW225605   4.724   2.736   6.657
 8236SOL     OW25606   6.276   1.799   1.469
 8236SOL    HW125607   6.303   1.703   1.480
 8236SOL    HW225608   6.252   1.837   1.559
 8237SOL     OW25609   3.656   6.105   5.296
 8237SOL    HW125610   3.573   6.157   5.275
 8237SOL    HW225611   3.711   6.095   5.214
 8238SOL     OW25612   0.556   0.871   5.752
 8238SOL    HW125613   0.565   0.876   5.851
 8238SOL    HW225614   0.622   0.934   5.709
 8239SOL     OW25615   5.116   1.386   6.695
 8239SOL    HW125616   5.167   1.471   6.685
 8239SOL    HW225617   5.180   1.309   6.700
 8240SOL     OW25618   3.772   3.324   2.931
 8240SOL    HW125619   3.811   3.343   2.841
 8240SOL    HW225620   3.672   3.330   2.925
 8241SOL     OW25621   4.512   6.210   1.020
 8241SOL    HW125622   4.564   6.181   0.939
 8241SOL    HW225623   4.575   6.246   1.089
 8242SOL     OW25624   1.588   4.347   5.168
 8242SOL    HW125625   1.589   4.281   5.243
 8242SOL    HW225626   1.574   4.299   5.081
 8243SOL     OW25627   0.168   3.689   4.741
 8243SOL    HW125628   0.206   3.782   4.749
 8243SOL    HW225629   0.081   3.693   4.692
 8244SOL     OW25630   3.438   5.415   5.473
 8244SOL    HW125631   3.406   5.399   5.566
 8244SOL    HW225632   3.363   5.447   5.416
 8245SOL     OW25633   4.464   4.256   1.011
 8245SOL    HW125634   4.437   4.265   1.106
 8245SOL    HW225635   4.486   4.346   0.973
 8246SOL     OW25636   5.465   3.134   5.181
 8246SOL    HW125637   5.407   3.055   5.202
 8246SOL    HW225638   5.411   3.218   5.191
 8247SOL     OW25639   1.157   6.263   6.882
 8247SOL    HW125640   1.204   6.351   6.876
 8247SOL    HW225641   1.123   6.238   6.792
 8248SOL     OW25642   7.014   4.501   3.315
 8248SOL    HW125643   0.020   4.582   3.265
 8248SOL    HW225644   6.946   4.451   3.261
 8249SOL     OW25645   0.549   5.485   3.028
 8249SOL    HW125646   0.484   5.433   3.083
 8249SOL    HW225647   0.550   5.580   3.059
 8250SOL     OW25648   2.994   3.178   2.821
 8250SOL    HW125649   2.992   3.275   2.798
 8250SOL    HW225650   2.943   3.127   2.752
 8251SOL     OW25651   5.512   0.750   4.461
 8251SOL    HW125652   5.555   0.788   4.544
 8251SOL    HW225653   5.432   0.805   4.437
 8252SOL     OW25654   0.836   4.078   4.055
 8252SOL    HW125655   0.859   4.173   4.034
 8252SOL    HW225656   0.912   4.019   4.030
 8253SOL     OW25657   3.123   3.378   5.824
 8253SOL    HW125658   3.123   3.288   5.781
 8253SOL    HW225659   3.097   3.448   5.757
 8254SOL     OW25660   5.047   4.960   2.781
 8254SOL    HW125661   4.959   4.977   2.824
 8254SOL    HW225662   5.117   5.018   2.823
 8255SOL     OW25663   3.806   5.272   3.537
 8255SOL    HW125664   3.881   5.208   3.526
 8255SOL    HW225665   3.746   5.242   3.611
 8256SOL     OW25666   4.995   2.266   3.004
 8256SOL    HW125667   5.018   2.171   2.984
 8256SOL    HW225668   4.901   2.284   2.977
 8257SOL     OW25669   6.161   4.452   4.223
 8257SOL    HW125670   6.221   4.512   4.170
 8257SOL    HW225671   6.112   4.390   4.161
 8258SOL     OW25672   5.370   2.053   0.152
 8258SOL    HW125673   5.461   2.075   0.118
 8258SOL    HW225674   5.346   1.959   0.125
 8259SOL     OW25675   4.845   0.326   0.837
 8259SOL    HW125676   4.871   0.420   0.855
 8259SOL    HW225677   4.859   0.305   0.740
 8260SOL     OW25678   3.218   5.684   6.621
 8260SOL    HW125679   3.157   5.673   6.543
 8260SOL    HW225680   3.230   5.782   6.641
 8261SOL     OW25681   5.043   1.120   1.605
 8261SOL    HW125682   5.013   1.215   1.591
 8261SOL    HW225683   5.137   1.110   1.573
 8262SOL     OW25684   6.448   2.690   1.556
 8262SOL    HW125685   6.469   2.723   1.648
 8262SOL    HW225686   6.374   2.623   1.560
 8263SOL     OW25687   6.074   1.438   0.399
 8263SOL    HW125688   6.096   1.402   0.490
 8263SOL    HW225689   5.977   1.463   0.396
 8264SOL     OW25690   1.411   4.295   1.486
 8264SOL    HW125691   1.421   4.228   1.560
 8264SOL    HW225692   1.453   4.258   1.402
 8265SOL     OW25693   2.023   0.827   2.719
 8265SOL    HW125694   2.086   0.766   2.670
 8265SOL    HW225695   2.075   0.898   2.765
 8266SOL     OW25696   2.606   0.818   2.694
 8266SOL    HW125697   2.515   0.841   2.727
 8266SOL    HW225698   2.668   0.895   2.709
 8267SOL     OW25699   6.968   3.386   1.558
 8267SOL    HW125700   6.891   3.415   1.501
 8267SOL    HW225701   7.003   3.464   1.609
 8268SOL     OW25702   2.416   4.787   6.999
 8268SOL    HW125703   2.461   4.876   6.989
 8268SOL    HW225704   2.479   4.715   6.972
 8269SOL     OW25705   5.563   2.276   6.756
 8269SOL    HW125706   5.476   2.314   6.787
 8269SOL    HW225707   5.575   2.184   6.792
 8270SOL     OW25708   2.390   6.103   4.399
 8270SOL    HW125709   2.476   6.130   4.443
 8270SOL    HW225710   2.315   6.111   4.465
 8271SOL     OW25711   0.367   2.221   2.664
 8271SOL    HW125712   0.292   2.208   2.599
 8271SOL    HW225713   0.436   2.281   2.623
 8272SOL     OW25714   3.217   1.140   4.042
 8272SOL    HW125715   3.315   1.131   4.059
 8272SOL    HW225716   3.171   1.170   4.125
 8273SOL     OW25717   2.114   6.386   2.136
 8273SOL    HW125718   2.151   6.362   2.226
 8273SOL    HW225719   2.179   6.359   2.065
 8274SOL     OW25720   5.114   3.776   3.604
 8274SOL    HW125721   5.084   3.701   3.662
 8274SOL    HW225722   5.042   3.845   3.598
 8275SOL     OW25723   5.883   2.435   0.013
 8275SOL    HW125724   5.883   2.527   0.054
 8275SOL    HW225725   5.790   2.399   0.013
 8276SOL     OW25726   0.826   1.958   3.094
 8276SOL    HW125727   0.881   1.954   3.177
 8276SOL    HW225728   0.869   1.903   3.023
 8277SOL     OW25729   0.135   1.484   0.531
 8277SOL    HW125730   0.103   1.573   0.565
 8277SOL    HW225731   0.150   1.422   0.608
 8278SOL     OW25732   0.927   2.882   0.163
 8278SOL    HW125733   0.987   2.956   0.194
 8278SOL    HW225734   0.890   2.905   0.073
 8279SOL     OW25735   0.480   6.075   3.901
 8279SOL    HW125736   0.498   5.977   3.892
 8279SOL    HW225737   0.546   6.125   3.844
 8280SOL     OW25738   2.959   2.724   5.971
 8280SOL    HW125739   3.045   2.673   5.965
 8280SOL    HW225740   2.978   2.822   5.970
 8281SOL     OW25741   3.798   5.194   2.271
 8281SOL    HW125742   3.853   5.122   2.313
 8281SOL    HW225743   3.714   5.206   2.322
 8282SOL     OW25744   6.379   2.877   6.259
 8282SOL    HW125745   6.454   2.933   6.294
 8282SOL    HW225746   6.314   2.935   6.211
 8283SOL     OW25747   2.340   2.751   6.329
 8283SOL    HW125748   2.427   2.702   6.321
 8283SOL    HW225749   2.356   2.849   6.321
 8284SOL     OW25750   6.682   4.782   1.890
 8284SOL    HW125751   6.608   4.765   1.955
 8284SOL    HW225752   6.761   4.726   1.914
 8285SOL     OW25753   3.438   2.905   3.573
 8285SOL    HW125754   3.532   2.896   3.606
 8285SOL    HW225755   3.425   2.844   3.494
 8286SOL     OW25756   0.090   3.119   6.954
 8286SOL    HW125757   0.121   3.211   6.927
 8286SOL    HW225758   0.153   3.051   6.916
 8287SOL     OW25759   1.494   6.834   4.427
 8287SOL    HW125760   1.455   6.792   4.509
 8287SOL    HW225761   1.562   6.773   4.387
 8288SOL     OW25762   2.532   1.421   3.091
 8288SOL    HW125763   2.618   1.382   3.123
 8288SOL    HW225764   2.507   1.380   3.003
 8289SOL     OW25765   0.720   6.706   6.949
 8289SOL    HW125766   0.763   6.794   6.965
 8289SOL    HW225767   0.631   6.703   6.994
 8290SOL     OW25768   6.503   2.029   0.856
 8290SOL    HW125769   6.435   2.060   0.922
 8290SOL    HW225770   6.520   1.931   0.870
 8291SOL     OW25771   3.742   0.333   1.237
 8291SOL    HW125772   3.717   0.246   1.279
 8291SOL    HW225773   3.690   0.407   1.281
 8292SOL     OW25774   2.483   0.954   6.174
 8292SOL    HW125775   2.437   0.901   6.103
 8292SOL    HW225776   2.571   0.988   6.138
 8293SOL     OW25777   6.352   5.429   5.603
 8293SOL    HW125778   6.298   5.419   5.686
 8293SOL    HW225779   6.291   5.439   5.524
 8294SOL     OW25780   6.266   3.093   0.098
 8294SOL    HW125781   6.172   3.097   0.130
 8294SOL    HW225782   6.289   3.176   0.049
 8295SOL     OW25783   5.688   2.546   6.841
 8295SOL    HW125784   5.647   2.462   6.806
 8295SOL    HW225785   5.787   2.542   6.831
 8296SOL     OW25786   6.920   5.192   5.375
 8296SOL    HW125787   6.897   5.285   5.346
 8296SOL    HW225788   7.015   5.190   5.407
 8297SOL     OW25789   1.237   3.754   4.053
 8297SOL    HW125790   1.256   3.743   3.956
 8297SOL    HW225791   1.288   3.685   4.105
 8298SOL     OW25792   4.417   2.191   2.158
 8298SOL    HW125793   4.321   2.219   2.149
 8298SOL    HW225794   4.474   2.248   2.100
 8299SOL     OW25795   6.009   1.621   1.710
 8299SOL    HW125796   6.072   1.699   1.709
 8299SOL    HW225797   6.046   1.549   1.769
 8300SOL     OW25798   1.781   5.228   2.998
 8300SOL    HW125799   1.723   5.308   3.018
 8300SOL    HW225800   1.857   5.226   3.063
 8301SOL     OW25801   2.755   1.628   6.061
 8301SOL    HW125802   2.752   1.687   5.980
 8301SOL    HW225803   2.666   1.586   6.075
 8302SOL     OW25804   5.864   5.537   6.142
 8302SOL    HW125805   5.953   5.568   6.174
 8302SOL    HW225806   5.799   5.538   6.218
 8303SOL     OW25807   0.330   6.821   6.777
 8303SOL    HW125808   0.348   6.901   6.835
 8303SOL    HW225809   0.245   6.835   6.727
 8304SOL     OW25810   6.838   2.985   0.352
 8304SOL    HW125811   6.903   2.923   0.308
 8304SOL    HW225812   6.770   2.933   0.404
 8305SOL     OW25813   2.949   5.105   2.578
 8305SOL    HW125814   2.860   5.059   2.575
 8305SOL    HW225815   2.967   5.148   2.489
 8306SOL     OW25816   1.606   2.683   3.962
 8306SOL    HW125817   1.532   2.736   3.920
 8306SOL    HW225818   1.602   2.693   4.062
 8307SOL     OW25819   3.793   6.375   0.948
 8307SOL    HW125820   3.734   6.296   0.932
 8307SOL    HW225821   3.812   6.384   1.046
 8308SOL     OW25822   2.457   1.047   2.380
 8308SOL    HW125823   2.360   1.025   2.369
 8308SOL    HW225824   2.505   0.966   2.414
 8309SOL     OW25825   5.780   6.541   1.981
 8309SOL    HW125826   5.841   6.464   1.962
 8309SOL    HW225827   5.686   6.516   1.958
 8310SOL     OW25828   5.857   5.159   0.024
 8310SOL    HW125829   5.780   5.220   0.008
 8310SOL    HW225830   5.893   5.174   0.116
 8311SOL     OW25831   6.646   0.505   6.721
 8311SOL    HW125832   6.627   0.482   6.626
 8311SOL    HW225833   6.678   0.423   6.770
 8312SOL     OW25834   4.639   6.168   1.400
 8312SOL    HW125835   4.612   6.256   1.362
 8312SOL    HW225836   4.649   6.101   1.327
 8313SOL     OW25837   3.818   1.672   2.765
 8313SOL    HW125838   3.893   1.624   2.718
 8313SOL    HW225839   3.820   1.648   2.862
 8314SOL     OW25840   0.017   0.004   3.943
 8314SOL    HW125841   0.067   6.971   4.010
 8314SOL    HW225842   0.058   7.016   3.853
 8315SOL     OW25843   4.940   4.602   6.942
 8315SOL    HW125844   4.977   4.653   7.020
 8315SOL    HW225845   4.939   4.660   6.861
 8316SOL     OW25846   3.031   5.292   6.601
 8316SOL    HW125847   2.949   5.237   6.613
 8316SOL    HW225848   3.007   5.381   6.563
 8317SOL     OW25849   2.069   5.075   1.511
 8317SOL    HW125850   2.044   5.109   1.421
 8317SOL    HW225851   2.030   4.984   1.525
 8318SOL     OW25852   2.877   1.447   5.622
 8318SOL    HW125853   2.862   1.449   5.523
 8318SOL    HW225854   2.959   1.500   5.644
 8319SOL     OW25855   2.063   0.629   5.212
 8319SOL    HW125856   2.081   0.540   5.253
 8319SOL    HW225857   2.075   0.624   5.113
 8320SOL     OW25858   3.702   5.056   1.225
 8320SOL    HW125859   3.673   5.143   1.263
 8320SOL    HW225860   3.622   5.006   1.192
 8321SOL     OW25861   6.750   1.200   1.272
 8321SOL    HW125862   6.705   1.269   1.215
 8321SOL    HW225863   6.801   1.136   1.214
 8322SOL     OW25864   5.098   6.397   0.946
 8322SOL    HW125865   5.112   6.450   1.029
 8322SOL    HW225866   5.183   6.395   0.893
 8323SOL     OW25867   1.277   0.518   1.843
 8323SOL    HW125868   1.291   0.614   1.822
 8323SOL    HW225869   1.228   0.474   1.768
 8324SOL     OW25870   6.931   0.702   2.692
 8324SOL    HW125871   6.855   0.640   2.713
 8324SOL    HW225872   6.937   0.772   2.762
 8325SOL     OW25873   3.642   3.886   4.866
 8325SOL    HW125874   3.616   3.829   4.943
 8325SOL    HW225875   3.742   3.895   4.863
 8326SOL     OW25876   4.107   3.067   6.133
 8326SOL    HW125877   4.010   3.088   6.125
 8326SOL    HW225878   4.138   3.085   6.226
 8327SOL     OW25879   4.619   2.079   6.119
 8327SOL    HW125880   4.690   2.143   6.149
 8327SOL    HW225881   4.538   2.089   6.178
 8328SOL     OW25882   1.788   2.487   3.840
 8328SOL    HW125883   1.738   2.562   3.882
 8328SOL    HW225884   1.724   2.417   3.809
 8329SOL     OW25885   0.966   3.108   4.932
 8329SOL    HW125886   1.021   3.039   4.981
 8329SOL    HW225887   0.874   3.072   4.917
 8330SOL     OW25888   2.575   0.015   0.183
 8330SOL    HW125889   2.675   0.010   0.183
 8330SOL    HW225890   2.540   7.015   0.274
 8331SOL     OW25891   2.276   0.148   0.913
 8331SOL    HW125892   2.247   0.055   0.894
 8331SOL    HW225893   2.321   0.187   0.832
 8332SOL     OW25894   4.929   6.202   3.281
 8332SOL    HW125895   4.916   6.268   3.208
 8332SOL    HW225896   4.842   6.155   3.300
 8333SOL     OW25897   2.078   4.812   5.322
 8333SOL    HW125898   2.175   4.788   5.323
 8333SOL    HW225899   2.039   4.789   5.233
 8334SOL     OW25900   6.454   0.346   3.441
 8334SOL    HW125901   6.507   0.307   3.516
 8334SOL    HW225902   6.484   0.306   3.354
 8335SOL     OW25903   6.204   6.213   5.023
 8335SOL    HW125904   6.218   6.239   4.927
 8335SOL    HW225905   6.192   6.114   5.029
 8336SOL     OW25906   1.172   1.678   2.688
 8336SOL    HW125907   1.235   1.691   2.612
 8336SOL    HW225908   1.172   1.582   2.715
 8337SOL     OW25909   6.377   6.639   2.254
 8337SOL    HW125910   6.299   6.669   2.309
 8337SOL    HW225911   6.400   6.544   2.277
 8338SOL     OW25912   2.583   5.747   0.660
 8338SOL    HW125913   2.667   5.705   0.627
 8338SOL    HW225914   2.559   5.707   0.749
 8339SOL     OW25915   4.908   1.096   3.130
 8339SOL    HW125916   4.901   1.196   3.120
 8339SOL    HW225917   4.826   1.061   3.175
 8340SOL     OW25918   4.887   3.993   1.575
 8340SOL    HW125919   4.812   3.997   1.641
 8340SOL    HW225920   4.957   4.060   1.599
 8341SOL     OW25921   2.071   0.293   0.712
 8341SOL    HW125922   2.167   0.269   0.694
 8341SOL    HW225923   2.030   0.226   0.773
 8342SOL     OW25924   5.460   7.003   1.250
 8342SOL    HW125925   5.362   6.993   1.235
 8342SOL    HW225926   5.476   0.024   1.339
 8343SOL     OW25927   6.933   4.613   5.105
 8343SOL    HW125928   6.938   4.707   5.073
 8343SOL    HW225929   6.929   4.612   5.205
 8344SOL     OW25930   3.605   6.733   4.946
 8344SOL    HW125931   3.676   6.683   4.996
 8344SOL    HW225932   3.524   6.743   5.004
 8345SOL     OW25933   5.730   1.512   3.055
 8345SOL    HW125934   5.661   1.581   3.031
 8345SOL    HW225935   5.687   1.422   3.059
 8346SOL     OW25936   3.977   5.417   2.289
 8346SOL    HW125937   4.055   5.383   2.341
 8346SOL    HW225938   3.922   5.340   2.258
 8347SOL     OW25939   3.255   5.029   4.643
 8347SOL    HW125940   3.307   5.014   4.728
 8347SOL    HW225941   3.209   5.118   4.648
 8348SOL     OW25942   2.341   0.128   0.449
 8348SOL    HW125943   2.419   0.066   0.440
 8348SOL    HW225944   2.371   0.214   0.490
 8349SOL     OW25945   5.831   4.799   2.387
 8349SOL    HW125946   5.758   4.861   2.359
 8349SOL    HW225947   5.815   4.708   2.348
 8350SOL     OW25948   6.436   0.934   5.152
 8350SOL    HW125949   6.494   0.936   5.071
 8350SOL    HW225950   6.370   0.859   5.144
 8351SOL     OW25951   3.181   6.812   2.536
 8351SOL    HW125952   3.246   6.738   2.551
 8351SOL    HW225953   3.228   6.889   2.493
 8352SOL     OW25954   6.303   6.362   1.697
 8352SOL    HW125955   6.280   6.446   1.746
 8352SOL    HW225956   6.228   6.297   1.704
 8353SOL     OW25957   2.140   3.670   2.192
 8353SOL    HW125958   2.181   3.597   2.138
 8353SOL    HW225959   2.130   3.641   2.287
 8354SOL     OW25960   3.079   0.650   0.657
 8354SOL    HW125961   3.124   0.729   0.696
 8354SOL    HW225962   3.101   0.568   0.710
 8355SOL     OW25963   2.984   1.978   0.736
 8355SOL    HW125964   3.046   1.992   0.659
 8355SOL    HW225965   2.893   1.955   0.702
 8356SOL     OW25966   3.204   5.183   0.275
 8356SOL    HW125967   3.145   5.233   0.339
 8356SOL    HW225968   3.157   5.172   0.188
 8357SOL     OW25969   4.222   5.957   2.963
 8357SOL    HW125970   4.282   5.944   2.885
 8357SOL    HW225971   4.234   5.882   3.028
 8358SOL     OW25972   2.941   1.912   4.845
 8358SOL    HW125973   2.959   1.903   4.943
 8358SOL    HW225974   2.926   2.008   4.822
 8359SOL     OW25975   3.604   4.962   4.206
 8359SOL    HW125976   3.642   4.960   4.299
 8359SOL    HW225977   3.511   5.000   4.210
 8360SOL     OW25978   4.553   0.649   3.416
 8360SOL    HW125979   4.527   0.702   3.336
 8360SOL    HW225980   4.550   0.551   3.395
 8361SOL     OW25981   1.474   0.656   3.273
 8361SOL    HW125982   1.466   0.756   3.275
 8361SOL    HW225983   1.415   0.617   3.343
 8362SOL     OW25984   2.793   3.088   0.689
 8362SOL    HW125985   2.850   3.029   0.746
 8362SOL    HW225986   2.716   3.123   0.743
 8363SOL     OW25987   0.598   3.529   1.765
 8363SOL    HW125988   0.600   3.605   1.699
 8363SOL    HW225989   0.625   3.563   1.855
 8364SOL     OW25990   6.790   4.907   5.539
 8364SOL    HW125991   6.811   4.995   5.580
 8364SOL    HW225992   6.722   4.919   5.466
 8365SOL     OW25993   1.661   3.773   5.606
 8365SOL    HW125994   1.684   3.678   5.584
 8365SOL    HW225995   1.693   3.795   5.698
 8366SOL     OW25996   2.496   0.170   2.130
 8366SOL    HW125997   2.590   0.205   2.123
 8366SOL    HW225998   2.495   0.073   2.108
 8367SOL     OW25999   5.091   5.766   3.991
 8367SOL    HW126000   5.015   5.731   3.936
 8367SOL    HW226001   5.110   5.704   4.067
 8368SOL     OW26002   3.110   5.493   6.024
 8368SOL    HW126003   3.176   5.438   6.074
 8368SOL    HW226004   3.017   5.468   6.051
 8369SOL     OW26005   2.283   1.434   1.096
 8369SOL    HW126006   2.329   1.473   1.175
 8369SOL    HW226007   2.344   1.370   1.050
 8370SOL     OW26008   2.366   1.120   0.606
 8370SOL    HW126009   2.292   1.168   0.652
 8370SOL    HW226010   2.334   1.031   0.575
 8371SOL     OW26011   1.200   2.697   0.152
 8371SOL    HW126012   1.129   2.628   0.168
 8371SOL    HW226013   1.263   2.664   0.082
 8372SOL     OW26014   5.831   0.662   0.401
 8372SOL    HW126015   5.842   0.681   0.303
 8372SOL    HW226016   5.843   0.747   0.453
 8373SOL     OW26017   1.702   6.812   4.147
 8373SOL    HW126018   1.704   6.779   4.242
 8373SOL    HW226019   1.664   6.904   4.146
 8374SOL     OW26020   6.780   1.437   5.876
 8374SOL    HW126021   6.865   1.396   5.843
 8374SOL    HW226022   6.725   1.468   5.798
 8375SOL     OW26023   4.192   0.829   6.243
 8375SOL    HW126024   4.189   0.737   6.281
 8375SOL    HW226025   4.273   0.877   6.277
 8376SOL     OW26026   4.224   0.607   4.151
 8376SOL    HW126027   4.290   0.553   4.099
 8376SOL    HW226028   4.270   0.653   4.227
 8377SOL     OW26029   5.129   5.070   0.588
 8377SOL    HW126030   5.161   4.976   0.572
 8377SOL    HW226031   5.035   5.068   0.622
 8378SOL     OW26032   5.087   2.787   3.609
 8378SOL    HW126033   4.995   2.752   3.626
 8378SOL    HW226034   5.126   2.741   3.529
 8379SOL     OW26035   5.459   2.679   2.653
 8379SOL    HW126036   5.372   2.715   2.687
 8379SOL    HW226037   5.470   2.703   2.557
 8380SOL     OW26038   5.857   1.472   3.942
 8380SOL    HW126039   5.790   1.462   4.016
 8380SOL    HW226040   5.911   1.554   3.956
 8381SOL     OW26041   2.018   5.653   4.455
 8381SOL    HW126042   2.067   5.600   4.386
 8381SOL    HW226043   1.992   5.593   4.531
 8382SOL     OW26044   0.534   4.566   2.508
 8382SOL    HW126045   0.614   4.596   2.457
 8382SOL    HW226046   0.544   4.469   2.532
 8383SOL     OW26047   3.224   1.466   5.483
 8383SOL    HW126048   3.318   1.459   5.448
 8383SOL    HW226049   3.195   1.376   5.516
 8384SOL     OW26050   0.618   6.986   1.200
 8384SOL    HW126051   0.595   0.006   1.112
 8384SOL    HW226052   0.657   0.032   1.261
 8385SOL     OW26053   4.291   1.380   1.364
 8385SOL    HW126054   4.249   1.468   1.385
 8385SOL    HW226055   4.326   1.380   1.271
 8386SOL     OW26056   0.347   3.005   2.083
 8386SOL    HW126057   0.346   3.097   2.122
 8386SOL    HW226058   0.398   3.005   1.997
 8387SOL     OW26059   0.571   1.527   1.767
 8387SOL    HW126060   0.544   1.618   1.734
 8387SOL    HW226061   0.492   1.466   1.765
 8388SOL     OW26062   1.382   6.760   2.544
 8388SOL    HW126063   1.379   6.821   2.464
 8388SOL    HW226064   1.288   6.733   2.567
 8389SOL     OW26065   6.187   3.371   3.617
 8389SOL    HW126066   6.126   3.439   3.578
 8389SOL    HW226067   6.192   3.291   3.556
 8390SOL     OW26068   6.163   2.146   6.788
 8390SOL    HW126069   6.151   2.140   6.689
 8390SOL    HW226070   6.166   2.243   6.815
 8391SOL     OW26071   6.269   0.502   1.111
 8391SOL    HW126072   6.308   0.580   1.063
 8391SOL    HW226073   6.183   0.476   1.067
 8392SOL     OW26074   3.668   2.968   5.101
 8392SOL    HW126075   3.569   2.956   5.110
 8392SOL    HW226076   3.692   2.972   5.004
 8393SOL     OW26077   5.884   0.066   1.105
 8393SOL    HW126078   5.893   0.166   1.110
 8393SOL    HW226079   5.962   0.023   1.150
 8394SOL     OW26080   5.383   3.035   2.794
 8394SOL    HW126081   5.466   2.981   2.794
 8394SOL    HW226082   5.401   3.125   2.836
 8395SOL     OW26083   2.103   0.901   5.289
 8395SOL    HW126084   2.195   0.936   5.272
 8395SOL    HW226085   2.096   0.806   5.258
 8396SOL     OW26086   4.858   5.177   4.174
 8396SOL    HW126087   4.864   5.276   4.165
 8396SOL    HW226088   4.782   5.154   4.236
 8397SOL     OW26089   5.758   6.707   2.748
 8397SOL    HW126090   5.762   6.627   2.688
 8397SOL    HW226091   5.732   6.677   2.840
 8398SOL     OW26092   5.995   1.804   6.429
 8398SOL    HW126093   5.897   1.796   6.412
 8398SOL    HW226094   6.039   1.849   6.351
 8399SOL     OW26095   0.538   4.068   2.653
 8399SOL    HW126096   0.581   3.980   2.632
 8399SOL    HW226097   0.443   4.067   2.623
 8400SOL     OW26098   1.378   0.695   4.684
 8400SOL    HW126099   1.335   0.784   4.697
 8400SOL    HW226100   1.386   0.676   4.586
 8401SOL     OW26101   1.755   0.110   5.877
 8401SOL    HW126102   1.849   0.106   5.843
 8401SOL    HW226103   1.751   0.167   5.958
 8402SOL     OW26104   2.964   0.610   6.196
 8402SOL    HW126105   2.941   0.677   6.126
 8402SOL    HW226106   2.939   0.518   6.164
 8403SOL     OW26107   6.023   4.963   5.851
 8403SOL    HW126108   5.985   4.874   5.874
 8403SOL    HW226109   5.955   5.017   5.802
 8404SOL     OW26110   1.034   1.301   0.153
 8404SOL    HW126111   1.012   1.224   0.093
 8404SOL    HW226112   0.962   1.312   0.221
 8405SOL     OW26113   3.837   6.600   5.897
 8405SOL    HW126114   3.784   6.656   5.833
 8405SOL    HW226115   3.901   6.658   5.947
 8406SOL     OW26116   6.506   1.000   6.253
 8406SOL    HW126117   6.551   1.086   6.228
 8406SOL    HW226118   6.428   0.984   6.193
 8407SOL     OW26119   4.586   0.680   5.014
 8407SOL    HW126120   4.621   0.755   5.070
 8407SOL    HW226121   4.618   0.691   4.920
 8408SOL     OW26122   3.864   2.161   1.475
 8408SOL    HW126123   3.945   2.108   1.450
 8408SOL    HW226124   3.865   2.178   1.574
 8409SOL     OW26125   4.652   2.650   1.961
 8409SOL    HW126126   4.587   2.680   1.891
 8409SOL    HW226127   4.714   2.725   1.983
 8410SOL     OW26128   0.020   1.851   1.322
 8410SOL    HW126129   6.972   1.890   1.379
 8410SOL    HW226130   7.018   1.758   1.296
 8411SOL     OW26131   0.578   5.660   1.076
 8411SOL    HW126132   0.494   5.685   1.028
 8411SOL    HW226133   0.557   5.643   1.172
 8412SOL     OW26134   2.763   2.374   0.162
 8412SOL    HW126135   2.820   2.452   0.187
 8412SOL    HW226136   2.666   2.399   0.170
 8413SOL     OW26137   3.968   6.018   4.869
 8413SOL    HW126138   4.006   6.007   4.777
 8413SOL    HW226139   3.869   6.006   4.866
 8414SOL     OW26140   1.954   0.060   0.822
 8414SOL    HW126141   2.004   6.996   0.824
 8414SOL    HW226142   1.868   0.050   0.873
 8415SOL     OW26143   3.802   1.430   6.269
 8415SOL    HW126144   3.733   1.470   6.330
 8415SOL    HW226145   3.768   1.430   6.175
 8416SOL     OW26146   0.372   2.176   4.815
 8416SOL    HW126147   0.396   2.253   4.875
 8416SOL    HW226148   0.335   2.212   4.729
 8417SOL     OW26149   2.039   3.180   6.097
 8417SOL    HW126150   2.121   3.128   6.072
 8417SOL    HW226151   1.980   3.190   6.018
 8418SOL     OW26152   6.406   6.387   2.425
 8418SOL    HW126153   6.443   6.318   2.363
 8418SOL    HW226154   6.335   6.347   2.482
 8419SOL     OW26155   3.621   1.647   4.130
 8419SOL    HW126156   3.640   1.582   4.056
 8419SOL    HW226157   3.673   1.731   4.114
 8420SOL     OW26158   3.991   1.288   2.093
 8420SOL    HW126159   3.908   1.281   2.036
 8420SOL    HW226160   3.975   1.241   2.180
 8421SOL     OW26161   4.639   0.275   6.478
 8421SOL    HW126162   4.584   0.356   6.500
 8421SOL    HW226163   4.597   0.194   6.519
 8422SOL     OW26164   5.225   1.919   4.588
 8422SOL    HW126165   5.248   2.013   4.612
 8422SOL    HW226166   5.233   1.907   4.489
 8423SOL     OW26167   6.517   5.821   0.441
 8423SOL    HW126168   6.564   5.769   0.370
 8423SOL    HW226169   6.420   5.831   0.418
 8424SOL     OW26170   2.678   0.297   5.299
 8424SOL    HW126171   2.726   0.259   5.220
 8424SOL    HW226172   2.740   0.354   5.352
 8425SOL     OW26173   3.856   3.241   2.296
 8425SOL    HW126174   3.893   3.168   2.354
 8425SOL    HW226175   3.767   3.270   2.332
 8426SOL     OW26176   3.657   3.059   1.591
 8426SOL    HW126177   3.685   3.136   1.534
 8426SOL    HW226178   3.669   3.083   1.687
 8427SOL     OW26179   4.106   3.548   2.762
 8427SOL    HW126180   4.091   3.642   2.791
 8427SOL    HW226181   4.086   3.539   2.664
 8428SOL     OW26182   5.451   0.741   1.740
 8428SOL    HW126183   5.535   0.692   1.715
 8428SOL    HW226184   5.435   0.816   1.676
 8429SOL     OW26185   3.349   5.965   5.560
 8429SOL    HW126186   3.315   6.000   5.647
 8429SOL    HW226187   3.273   5.955   5.495
 8430SOL     OW26188   5.519   6.961   5.582
 8430SOL    HW126189   5.489   6.932   5.672
 8430SOL    HW226190   5.567   6.886   5.537
 8431SOL     OW26191   2.632   3.458   6.354
 8431SOL    HW126192   2.712   3.509   6.384
 8431SOL    HW226193   2.620   3.471   6.255
 8432SOL     OW26194   6.568   4.991   5.365
 8432SOL    HW126195   6.523   5.036   5.442
 8432SOL    HW226196   6.501   4.936   5.315
 8433SOL     OW26197   4.609   1.827   1.017
 8433SOL    HW126198   4.586   1.902   0.955
 8433SOL    HW226199   4.547   1.750   1.002
 8434SOL     OW26200   2.597   6.249   4.502
 8434SOL    HW126201   2.624   6.276   4.594
 8434SOL    HW226202   2.671   6.195   4.460
 8435SOL     OW26203   6.469   1.402   3.216
 8435SOL    HW126204   6.539   1.453   3.266
 8435SOL    HW226205   6.379   1.443   3.233
 8436SOL     OW26206   2.223   5.186   2.807
 8436SOL    HW126207   2.206   5.161   2.711
 8436SOL    HW226208   2.176   5.272   2.827
 8437SOL     OW26209   1.733   5.765   0.189
 8437SOL    HW126210   1.811   5.709   0.216
 8437SOL    HW226211   1.757   5.818   0.107
 8438SOL     OW26212   0.978   4.071   2.302
 8438SOL    HW126213   0.991   3.984   2.253
 8438SOL    HW226214   1.033   4.071   2.385
 8439SOL     OW26215   5.722   4.178   2.435
 8439SOL    HW126216   5.668   4.258   2.462
 8439SOL    HW226217   5.681   4.095   2.473
 8440SOL     OW26218   1.440   1.804   2.620
 8440SOL    HW126219   1.469   1.889   2.576
 8440SOL    HW226220   1.483   1.798   2.710
 8441SOL     OW26221   0.011   2.877   6.709
 8441SOL    HW126222   6.951   2.929   6.690
 8441SOL    HW226223   0.082   2.903   6.643
 8442SOL     OW26224   3.838   2.875   6.483
 8442SOL    HW126225   3.877   2.813   6.415
 8442SOL    HW226226   3.763   2.927   6.442
 8443SOL     OW26227   1.830   3.964   3.126
 8443SOL    HW126228   1.897   3.940   3.055
 8443SOL    HW226229   1.870   3.948   3.216
 8444SOL     OW26230   5.429   5.271   4.984
 8444SOL    HW126231   5.486   5.331   4.928
 8444SOL    HW226232   5.374   5.326   5.046
 8445SOL     OW26233   4.701   6.482   6.495
 8445SOL    HW126234   4.653   6.567   6.517
 8445SOL    HW226235   4.789   6.481   6.543
 8446SOL     OW26236   6.784   6.454   4.573
 8446SOL    HW126237   6.704   6.415   4.526
 8446SOL    HW226238   6.754   6.511   4.649
 8447SOL     OW26239   3.468   1.836   4.356
 8447SOL    HW126240   3.476   1.768   4.284
 8447SOL    HW226241   3.492   1.926   4.321
 8448SOL     OW26242   3.466   6.962   2.761
 8448SOL    HW126243   3.490   0.035   2.772
 8448SOL    HW226244   3.535   6.916   2.704
 8449SOL     OW26245   1.171   2.850   3.923
 8449SOL    HW126246   1.161   2.944   3.954
 8449SOL    HW226247   1.150   2.845   3.825
 8450SOL     OW26248   6.636   1.301   0.742
 8450SOL    HW126249   6.634   1.285   0.643
 8450SOL    HW226250   6.687   1.385   0.761
 8451SOL     OW26251   4.205   2.552   0.610
 8451SOL    HW126252   4.123   2.590   0.566
 8451SOL    HW226253   4.284   2.568   0.551
 8452SOL     OW26254   5.441   0.998   5.745
 8452SOL    HW126255   5.472   1.078   5.694
 8452SOL    HW226256   5.520   0.944   5.774
 8453SOL     OW26257   0.415   0.730   0.237
 8453SOL    HW126258   0.489   0.691   0.291
 8453SOL    HW226259   0.448   0.811   0.188
 8454SOL     OW26260   6.437   5.598   0.215
 8454SOL    HW126261   6.476   5.618   0.125
 8454SOL    HW226262   6.339   5.582   0.207
 8455SOL     OW26263   6.040   0.914   2.956
 8455SOL    HW126264   6.088   0.950   3.035
 8455SOL    HW226265   5.967   0.977   2.929
 8456SOL     OW26266   6.574   0.399   2.130
 8456SOL    HW126267   6.598   0.304   2.107
 8456SOL    HW226268   6.474   0.407   2.136
 8457SOL     OW26269   6.200   0.060   5.084
 8457SOL    HW126270   6.170   0.019   4.998
 8457SOL    HW226271   6.205   7.013   5.155
 8458SOL     OW26272   1.462   6.571   0.216
 8458SOL    HW126273   1.488   6.613   0.303
 8458SOL    HW226274   1.368   6.538   0.223
 8459SOL     OW26275   0.629   5.949   3.022
 8459SOL    HW126276   0.655   5.909   3.110
 8459SOL    HW226277   0.707   5.995   2.982
 8460SOL     OW26278   4.001   3.250   3.783
 8460SOL    HW126279   4.024   3.203   3.869
 8460SOL    HW226280   4.003   3.349   3.798
 8461SOL     OW26281   6.466   3.521   3.741
 8461SOL    HW126282   6.370   3.494   3.754
 8461SOL    HW226283   6.493   3.583   3.815
 8462SOL     OW26284   2.399   2.635   1.977
 8462SOL    HW126285   2.497   2.645   1.960
 8462SOL    HW226286   2.372   2.540   1.960
 8463SOL     OW26287   6.720   0.247   1.850
 8463SOL    HW126288   6.730   0.347   1.859
 8463SOL    HW226289   6.811   0.205   1.846
 8464SOL     OW26290   6.683   1.125   4.570
 8464SOL    HW126291   6.632   1.039   4.560
 8464SOL    HW226292   6.619   1.199   4.592
 8465SOL     OW26293   2.189   0.940   0.498
 8465SOL    HW126294   2.144   0.884   0.567
 8465SOL    HW226295   2.120   0.975   0.433
 8466SOL     OW26296   0.904   6.890   4.258
 8466SOL    HW126297   0.824   6.887   4.199
 8466SOL    HW226298   0.924   6.798   4.293
 8467SOL     OW26299   4.002   5.553   1.010
 8467SOL    HW126300   4.051   5.482   1.061
 8467SOL    HW226301   4.067   5.613   0.964
 8468SOL     OW26302   4.544   2.979   0.067
 8468SOL    HW126303   4.636   3.020   0.063
 8468SOL    HW226304   4.535   2.928   0.152
 8469SOL     OW26305   4.973   2.454   5.578
 8469SOL    HW126306   5.064   2.438   5.539
 8469SOL    HW226307   4.917   2.372   5.567
 8470SOL     OW26308   1.851   2.854   0.008
 8470SOL    HW126309   1.822   2.792   0.080
 8470SOL    HW226310   1.943   2.887   0.027
 8471SOL     OW26311   3.883   1.563   5.399
 8471SOL    HW126312   3.972   1.591   5.362
 8471SOL    HW226313   3.835   1.643   5.435
 8472SOL     OW26314   1.664   6.093   2.600
 8472SOL    HW126315   1.701   6.176   2.642
 8472SOL    HW226316   1.704   6.012   2.643
 8473SOL     OW26317   6.469   5.626   6.769
 8473SOL    HW126318   6.517   5.632   6.682
 8473SOL    HW226319   6.424   5.713   6.789
 8474SOL     OW26320   4.310   5.701   7.010
 8474SOL    HW126321   4.383   5.644   6.971
 8474SOL    HW226322   4.224   5.683   6.962
 8475SOL     OW26323   4.932   1.387   3.081
 8475SOL    HW126324   4.864   1.448   3.039
 8475SOL    HW226325   5.001   1.363   3.013
 8476SOL     OW26326   4.602   0.332   2.869
 8476SOL    HW126327   4.695   0.364   2.886
 8476SOL    HW226328   4.597   0.234   2.885
 8477SOL     OW26329   3.318   0.619   3.459
 8477SOL    HW126330   3.369   0.665   3.387
 8477SOL    HW226331   3.246   0.680   3.493
 8478SOL     OW26332   1.081   1.128   6.109
 8478SOL    HW126333   1.166   1.171   6.081
 8478SOL    HW226334   1.099   1.035   6.141
 8479SOL     OW26335   5.256   0.369   2.515
 8479SOL    HW126336   5.324   0.442   2.505
 8479SOL    HW226337   5.301   0.285   2.545
 8480SOL     OW26338   1.773   1.080   1.941
 8480SOL    HW126339   1.761   1.174   1.908
 8480SOL    HW226340   1.870   1.062   1.956
 8481SOL     OW26341   3.839   0.255   5.622
 8481SOL    HW126342   3.742   0.279   5.619
 8481SOL    HW226343   3.850   0.159   5.597
 8482SOL     OW26344   6.796   0.564   1.682
 8482SOL    HW126345   6.795   0.476   1.635
 8482SOL    HW226346   6.802   0.549   1.781
 8483SOL     OW26347   4.883   6.352   1.569
 8483SOL    HW126348   4.951   6.426   1.573
 8483SOL    HW226349   4.792   6.389   1.587
 8484SOL     OW26350   6.434   4.731   5.657
 8484SOL    HW126351   6.439   4.718   5.558
 8484SOL    HW226352   6.338   4.735   5.685
 8485SOL     OW26353   2.487   3.225   6.288
 8485SOL    HW126354   2.389   3.243   6.277
 8485SOL    HW226355   2.530   3.305   6.331
 8486SOL     OW26356   4.434   0.401   2.304
 8486SOL    HW126357   4.508   0.350   2.348
 8486SOL    HW226358   4.429   0.375   2.207
 8487SOL     OW26359   4.301   0.324   0.977
 8487SOL    HW126360   4.299   0.313   1.076
 8487SOL    HW226361   4.316   0.420   0.955
 8488SOL     OW26362   6.957   3.746   5.516
 8488SOL    HW126363   6.958   3.651   5.484
 8488SOL    HW226364   6.881   3.758   5.580
 8489SOL     OW26365   3.449   0.102   3.362
 8489SOL    HW126366   3.439   0.055   3.450
 8489SOL    HW226367   3.545   0.126   3.349
 8490SOL     OW26368   3.645   5.005   2.610
 8490SOL    HW126369   3.730   4.962   2.580
 8490SOL    HW226370   3.567   4.954   2.574
 8491SOL     OW26371   0.600   0.842   1.186
 8491SOL    HW126372   0.525   0.779   1.205
 8491SOL    HW226373   0.675   0.793   1.144
 8492SOL     OW26374   5.824   3.994   4.899
 8492SOL    HW126375   5.891   4.025   4.831
 8492SOL    HW226376   5.762   4.070   4.921
 8493SOL     OW26377   3.936   3.143   0.694
 8493SOL    HW126378   3.851   3.195   0.701
 8493SOL    HW226379   3.937   3.072   0.764
 8494SOL     OW26380   3.543   6.111   6.719
 8494SOL    HW126381   3.588   6.028   6.687
 8494SOL    HW226382   3.460   6.127   6.667
 8495SOL     OW26383   0.469   3.069   6.136
 8495SOL    HW126384   0.392   3.131   6.154
 8495SOL    HW226385   0.437   2.988   6.087
 8496SOL     OW26386   1.314   2.144   3.764
 8496SOL    HW126387   1.239   2.193   3.809
 8496SOL    HW226388   1.285   2.050   3.744
 8497SOL     OW26389   5.525   3.784   3.885
 8497SOL    HW126390   5.471   3.745   3.811
 8497SOL    HW226391   5.538   3.716   3.958
 8498SOL     OW26392   6.772   0.813   1.600
 8498SOL    HW126393   6.782   0.714   1.608
 8498SOL    HW226394   6.731   0.849   1.683
 8499SOL     OW26395   0.030   4.352   0.744
 8499SOL    HW126396   0.093   4.324   0.816
 8499SOL    HW226397   7.000   4.273   0.713
 8500SOL     OW26398   2.129   0.686   4.958
 8500SOL    HW126399   2.173   0.616   4.901
 8500SOL    HW226400   2.039   0.708   4.920
 8501SOL     OW26401   3.069   3.880   6.247
 8501SOL    HW126402   3.079   3.867   6.148
 8501SOL    HW226403   3.078   3.792   6.293
 8502SOL     OW26404   0.674   6.384   1.052
 8502SOL    HW126405   0.737   6.346   1.120
 8502SOL    HW226406   0.604   6.438   1.098
 8503SOL     OW26407   3.976   5.569   3.227
 8503SOL    HW126408   4.072   5.560   3.197
 8503SOL    HW226409   3.931   5.480   3.220
 8504SOL     OW26410   2.067   4.759   3.111
 8504SOL    HW126411   2.016   4.822   3.170
 8504SOL    HW226412   2.124   4.812   3.048
 8505SOL     OW26413   4.328   1.846   2.826
 8505SOL    HW126414   4.401   1.913   2.809
 8505SOL    HW226415   4.241   1.884   2.795
 8506SOL     OW26416   0.676   5.183   0.025
 8506SOL    HW126417   0.587   5.228   0.033
 8506SOL    HW226418   0.736   5.239   6.990
 8507SOL     OW26419   1.958   0.439   4.377
 8507SOL    HW126420   2.048   0.421   4.417
 8507SOL    HW226421   1.917   0.352   4.348
 8508SOL     OW26422   0.677   3.656   5.906
 8508SOL    HW126423   0.590   3.686   5.866
 8508SOL    HW226424   0.658   3.589   5.978
 8509SOL     OW26425   6.630   2.214   4.789
 8509SOL    HW126426   6.710   2.256   4.832
 8509SOL    HW226427   6.611   2.126   4.834
 8510SOL     OW26428   5.361   6.902   2.974
 8510SOL    HW126429   5.395   6.953   2.895
 8510SOL    HW226430   5.263   6.888   2.965
 8511SOL     OW26431   6.645   5.375   1.438
 8511SOL    HW126432   6.706   5.301   1.410
 8511SOL    HW226433   6.637   5.376   1.538
 8512SOL     OW26434   4.120   2.861   0.959
 8512SOL    HW126435   4.141   2.764   0.954
 8512SOL    HW226436   4.187   2.907   1.018
 8513SOL     OW26437   0.559   3.393   0.748
 8513SOL    HW126438   0.466   3.406   0.781
 8513SOL    HW226439   0.558   3.341   0.662
 8514SOL     OW26440   2.231   3.072   4.795
 8514SOL    HW126441   2.282   3.034   4.873
 8514SOL    HW226442   2.240   3.172   4.795
 8515SOL     OW26443   3.067   1.311   0.319
 8515SOL    HW126444   3.100   1.266   0.402
 8515SOL    HW226445   2.987   1.261   0.285
 8516SOL     OW26446   6.567   3.365   5.223
 8516SOL    HW126447   6.641   3.352   5.157
 8516SOL    HW226448   6.601   3.346   5.315
 8517SOL     OW26449   1.153   1.902   5.643
 8517SOL    HW126450   1.125   1.826   5.701
 8517SOL    HW226451   1.072   1.950   5.608
 8518SOL     OW26452   5.306   5.042   0.345
 8518SOL    HW126453   5.349   5.125   0.310
 8518SOL    HW226454   5.372   4.988   0.397
 8519SOL     OW26455   0.900   3.865   1.077
 8519SOL    HW126456   0.922   3.769   1.062
 8519SOL    HW226457   0.911   3.916   0.992
 8520SOL     OW26458   3.633   3.810   5.983
 8520SOL    HW126459   3.540   3.839   5.963
 8520SOL    HW226460   3.650   3.817   6.082
 8521SOL     OW26461   2.214   6.911   4.559
 8521SOL    HW126462   2.132   6.963   4.584
 8521SOL    HW226463   2.203   6.876   4.466
 8522SOL     OW26464   0.548   0.377   0.041
 8522SOL    HW126465   0.606   0.323   0.101
 8522SOL    HW226466   0.456   0.384   0.079
 8523SOL     OW26467   4.086   2.013   1.424
 8523SOL    HW126468   4.131   1.935   1.468
 8523SOL    HW226469   4.155   2.083   1.404
 8524SOL     OW26470   2.864   6.305   5.363
 8524SOL    HW126471   2.820   6.395   5.371
 8524SOL    HW226472   2.953   6.307   5.407
 8525SOL     OW26473   6.218   2.566   3.265
 8525SOL    HW126474   6.146   2.548   3.199
 8525SOL    HW226475   6.211   2.660   3.298
 8526SOL     OW26476   0.720   4.450   6.785
 8526SOL    HW126477   0.688   4.367   6.740
 8526SOL    HW226478   0.805   4.481   6.742
 8527SOL     OW26479   2.547   1.211   6.304
 8527SOL    HW126480   2.470   1.156   6.272
 8527SOL    HW226481   2.632   1.158   6.296
 8528SOL     OW26482   5.396   0.179   0.618
 8528SOL    HW126483   5.410   0.271   0.654
 8528SOL    HW226484   5.315   0.139   0.662
 8529SOL     OW26485   0.854   6.323   6.771
 8529SOL    HW126486   0.911   6.261   6.717
 8529SOL    HW226487   0.831   6.403   6.715
 8530SOL     OW26488   3.665   4.131   2.981
 8530SOL    HW126489   3.753   4.086   2.992
 8530SOL    HW226490   3.622   4.143   3.071
 8531SOL     OW26491   6.630   5.849   3.045
 8531SOL    HW126492   6.634   5.925   2.980
 8531SOL    HW226493   6.634   5.762   2.996
 8532SOL     OW26494   3.716   5.451   0.481
 8532SOL    HW126495   3.715   5.497   0.392
 8532SOL    HW226496   3.624   5.448   0.518
 8533SOL     OW26497   2.817   5.686   5.186
 8533SOL    HW126498   2.725   5.687   5.146
 8533SOL    HW226499   2.880   5.736   5.126
 8534SOL     OW26500   1.766   3.609   1.751
 8534SOL    HW126501   1.723   3.601   1.661
 8534SOL    HW226502   1.695   3.625   1.820
 8535SOL     OW26503   6.336   0.160   2.071
 8535SOL    HW126504   6.360   0.152   1.974
 8535SOL    HW226505   6.318   0.256   2.093
 8536SOL     OW26506   1.843   0.821   4.014
 8536SOL    HW126507   1.925   0.766   4.028
 8536SOL    HW226508   1.864   0.918   4.028
 8537SOL     OW26509   5.638   1.290   2.901
 8537SOL    HW126510   5.587   1.208   2.876
 8537SOL    HW226511   5.582   1.371   2.886
 8538SOL     OW26512   0.557   2.283   6.654
 8538SOL    HW126513   0.653   2.308   6.639
 8538SOL    HW226514   0.545   2.247   6.746
 8539SOL     OW26515   5.252   3.574   2.019
 8539SOL    HW126516   5.329   3.601   2.078
 8539SOL    HW226517   5.166   3.600   2.063
 8540SOL     OW26518   4.226   7.002   1.112
 8540SOL    HW126519   4.301   6.937   1.121
 8540SOL    HW226520   4.200   0.013   1.203
 8541SOL     OW26521   1.481   3.353   3.703
 8541SOL    HW126522   1.431   3.296   3.767
 8541SOL    HW226523   1.557   3.398   3.750
 8542SOL     OW26524   3.082   4.826   6.431
 8542SOL    HW126525   3.032   4.780   6.504
 8542SOL    HW226526   3.024   4.829   6.349
 8543SOL     OW26527   4.197   2.434   6.600
 8543SOL    HW126528   4.155   2.512   6.553
 8543SOL    HW226529   4.287   2.460   6.633
 8544SOL     OW26530   5.495   2.127   4.337
 8544SOL    HW126531   5.490   2.203   4.272
 8544SOL    HW226532   5.515   2.163   4.428
 8545SOL     OW26533   4.142   0.154   5.626
 8545SOL    HW126534   4.073   0.199   5.683
 8545SOL    HW226535   4.112   0.154   5.531
 8546SOL     OW26536   4.430   2.146   6.633
 8546SOL    HW126537   4.429   2.191   6.722
 8546SOL    HW226538   4.378   2.061   6.638
 8547SOL     OW26539   1.308   4.381   2.317
 8547SOL    HW126540   1.208   4.383   2.312
 8547SOL    HW226541   1.347   4.426   2.236
 8548SOL     OW26542   5.963   2.305   5.337
 8548SOL    HW126543   6.031   2.298   5.264
 8548SOL    HW226544   6.006   2.347   5.417
 8549SOL     OW26545   5.196   2.898   4.796
 8549SOL    HW126546   5.276   2.876   4.852
 8549SOL    HW226547   5.214   2.871   4.701
 8550SOL     OW26548   1.700   4.528   5.604
 8550SOL    HW126549   1.765   4.589   5.560
 8550SOL    HW226550   1.665   4.571   5.687
 8551SOL     OW26551   2.372   4.753   1.133
 8551SOL    HW126552   2.307   4.817   1.172
 8551SOL    HW226553   2.423   4.708   1.206
 8552SOL     OW26554   3.099   6.944   4.066
 8552SOL    HW126555   3.018   6.938   4.124
 8552SOL    HW226556   3.181   6.923   4.120
 8553SOL     OW26557   6.080   5.481   0.630
 8553SOL    HW126558   6.166   5.491   0.680
 8553SOL    HW226559   6.015   5.551   0.661
 8554SOL     OW26560   5.657   3.713   0.313
 8554SOL    HW126561   5.633   3.747   0.222
 8554SOL    HW226562   5.752   3.680   0.313
 8555SOL     OW26563   1.751   6.325   4.310
 8555SOL    HW126564   1.797   6.236   4.310
 8555SOL    HW226565   1.780   6.377   4.230
 8556SOL     OW26566   5.410   0.667   5.148
 8556SOL    HW126567   5.500   0.710   5.154
 8556SOL    HW226568   5.363   0.701   5.067
 8557SOL     OW26569   6.602   1.402   1.163
 8557SOL    HW126570   6.562   1.350   1.087
 8557SOL    HW226571   6.552   1.487   1.175
 8558SOL     OW26572   1.944   4.839   2.586
 8558SOL    HW126573   1.962   4.907   2.658
 8558SOL    HW226574   2.028   4.823   2.535
 8559SOL     OW26575   1.196   1.143   4.842
 8559SOL    HW126576   1.112   1.156   4.789
 8559SOL    HW226577   1.269   1.199   4.805
 8560SOL     OW26578   6.455   3.008   6.834
 8560SOL    HW126579   6.503   2.920   6.841
 8560SOL    HW226580   6.391   3.005   6.757
 8561SOL     OW26581   4.949   6.342   6.314
 8561SOL    HW126582   4.957   6.297   6.225
 8561SOL    HW226583   4.854   6.365   6.332
 8562SOL     OW26584   3.729   0.486   4.270
 8562SOL    HW126585   3.703   0.570   4.317
 8562SOL    HW226586   3.820   0.498   4.229
 8563SOL     OW26587   2.753   2.951   6.376
 8563SOL    HW126588   2.798   3.040   6.377
 8563SOL    HW226589   2.822   2.879   6.381
 8564SOL     OW26590   0.595   5.482   3.531
 8564SOL    HW126591   0.525   5.538   3.487
 8564SOL    HW226592   0.639   5.424   3.463
 8565SOL     OW26593   3.516   0.978   1.191
 8565SOL    HW126594   3.448   0.993   1.262
 8565SOL    HW226595   3.473   0.936   1.112
 8566SOL     OW26596   1.399   4.550   4.465
 8566SOL    HW126597   1.357   4.460   4.476
 8566SOL    HW226598   1.497   4.544   4.487
 8567SOL     OW26599   5.403   6.784   6.164
 8567SOL    HW126600   5.339   6.807   6.092
 8567SOL    HW226601   5.363   6.805   6.253
 8568SOL     OW26602   5.430   6.788   0.558
 8568SOL    HW126603   5.360   6.717   0.560
 8568SOL    HW226604   5.408   6.854   0.487
 8569SOL     OW26605   2.917   0.585   5.292
 8569SOL    HW126606   2.972   0.520   5.344
 8569SOL    HW226607   2.864   0.537   5.223
 8570SOL     OW26608   6.612   3.465   6.321
 8570SOL    HW126609   6.562   3.412   6.389
 8570SOL    HW226610   6.548   3.497   6.251
 8571SOL     OW26611   6.724   4.847   6.064
 8571SOL    HW126612   6.673   4.782   6.121
 8571SOL    HW226613   6.793   4.893   6.120
 8572SOL     OW26614   2.698   5.060   6.369
 8572SOL    HW126615   2.712   4.962   6.388
 8572SOL    HW226616   2.752   5.086   6.289
 8573SOL     OW26617   3.667   6.000   4.382
 8573SOL    HW126618   3.675   5.986   4.283
 8573SOL    HW226619   3.610   6.080   4.399
 8574SOL     OW26620   1.108   4.074   4.387
 8574SOL    HW126621   1.145   3.984   4.409
 8574SOL    HW226622   1.012   4.078   4.415
 8575SOL     OW26623   2.832   3.611   6.437
 8575SOL    HW126624   2.842   3.697   6.487
 8575SOL    HW226625   2.921   3.580   6.405
 8576SOL     OW26626   2.111   0.567   0.669
 8576SOL    HW126627   2.076   0.484   0.713
 8576SOL    HW226628   2.186   0.605   0.723
 8577SOL     OW26629   6.354   5.891   4.952
 8577SOL    HW126630   6.265   5.901   4.998
 8577SOL    HW226631   6.339   5.872   4.855
 8578SOL     OW26632   4.490   0.621   4.304
 8578SOL    HW126633   4.567   0.659   4.356
 8578SOL    HW226634   4.467   0.531   4.341
 8579SOL     OW26635   0.348   4.660   2.730
 8579SOL    HW126636   0.388   4.640   2.640
 8579SOL    HW226637   0.255   4.625   2.734
 8580SOL     OW26638   2.194   5.542   6.091
 8580SOL    HW126639   2.196   5.469   6.160
 8580SOL    HW226640   2.247   5.513   6.011
 8581SOL     OW26641   3.713   3.601   0.232
 8581SOL    HW126642   3.733   3.516   0.281
 8581SOL    HW226643   3.622   3.633   0.256
 8582SOL     OW26644   3.388   4.927   0.235
 8582SOL    HW126645   3.393   4.996   0.308
 8582SOL    HW226646   3.380   4.836   0.276
 8583SOL     OW26647   5.408   6.969   4.632
 8583SOL    HW126648   5.478   7.011   4.575
 8583SOL    HW226649   5.320   6.970   4.585
 8584SOL     OW26650   0.620   5.720   6.224
 8584SOL    HW126651   0.581   5.733   6.315
 8584SOL    HW226652   0.546   5.711   6.157
 8585SOL     OW26653   1.528   1.293   0.573
 8585SOL    HW126654   1.602   1.355   0.547
 8585SOL    HW226655   1.519   1.220   0.505
 8586SOL     OW26656   3.666   5.220   3.759
 8586SOL    HW126657   3.588   5.203   3.819
 8586SOL    HW226658   3.729   5.285   3.803
 8587SOL     OW26659   6.793   1.757   1.030
 8587SOL    HW126660   6.823   1.722   1.118
 8587SOL    HW226661   6.795   1.857   1.031
 8588SOL     OW26662   3.899   3.124   6.632
 8588SOL    HW126663   3.904   3.035   6.586
 8588SOL    HW226664   3.804   3.152   6.640
 8589SOL     OW26665   2.866   1.767   3.763
 8589SOL    HW126666   2.843   1.857   3.803
 8589SOL    HW226667   2.926   1.718   3.826
 8590SOL     OW26668   5.452   4.458   5.512
 8590SOL    HW126669   5.423   4.400   5.435
 8590SOL    HW226670   5.552   4.459   5.516
 8591SOL     OW26671   0.453   2.818   0.687
 8591SOL    HW126672   0.489   2.907   0.714
 8591SOL    HW226673   0.448   2.758   0.767
 8592SOL     OW26674   6.397   6.367   7.018
 8592SOL    HW126675   6.313   6.341   6.970
 8592SOL    HW226676   6.472   6.373   6.952
 8593SOL     OW26677   0.637   5.076   3.387
 8593SOL    HW126678   0.666   4.998   3.331
 8593SOL    HW226679   0.697   5.154   3.369
 8594SOL     OW26680   4.013   3.551   2.486
 8594SOL    HW126681   4.101   3.598   2.488
 8594SOL    HW226682   3.940   3.617   2.469
 8595SOL     OW26683   1.423   2.848   2.052
 8595SOL    HW126684   1.522   2.864   2.052
 8595SOL    HW226685   1.386   2.872   1.962
 8596SOL     OW26686   6.747   4.106   2.940
 8596SOL    HW126687   6.685   4.048   2.992
 8596SOL    HW226688   6.694   4.175   2.890
 8597SOL     OW26689   2.087   1.959   1.132
 8597SOL    HW126690   2.179   1.972   1.093
 8597SOL    HW226691   2.083   1.870   1.177
 8598SOL     OW26692   6.282   2.580   1.912
 8598SOL    HW126693   6.233   2.647   1.856
 8598SOL    HW226694   6.300   2.499   1.858
 8599SOL     OW26695   1.068   2.514   0.473
 8599SOL    HW126696   1.032   2.482   0.560
 8599SOL    HW226697   1.088   2.436   0.414
 8600SOL     OW26698   0.277   2.627   5.781
 8600SOL    HW126699   0.359   2.625   5.725
 8600SOL    HW226700   0.213   2.695   5.744
 8601SOL     OW26701   0.887   0.191   4.798
 8601SOL    HW126702   0.840   0.105   4.816
 8601SOL    HW226703   0.827   0.267   4.823
 8602SOL     OW26704   0.860   6.252   2.518
 8602SOL    HW126705   0.813   6.201   2.590
 8602SOL    HW226706   0.797   6.266   2.441
 8603SOL     OW26707   4.887   3.703   1.686
 8603SOL    HW126708   4.788   3.694   1.695
 8603SOL    HW226709   4.910   3.797   1.660
 8604SOL     OW26710   5.978   1.799   3.486
 8604SOL    HW126711   6.011   1.887   3.452
 8604SOL    HW226712   5.952   1.741   3.409
 8605SOL     OW26713   2.287   5.518   1.644
 8605SOL    HW126714   2.253   5.431   1.606
 8605SOL    HW226715   2.314   5.578   1.570
 8606SOL     OW26716   4.004   5.263   4.283
 8606SOL    HW126717   3.953   5.262   4.369
 8606SOL    HW226718   3.962   5.198   4.219
 8607SOL     OW26719   3.087   5.974   0.227
 8607SOL    HW126720   3.122   5.889   0.188
 8607SOL    HW226721   3.164   6.026   0.265
 8608SOL     OW26722   5.634   6.428   2.578
 8608SOL    HW126723   5.587   6.425   2.489
 8608SOL    HW226724   5.730   6.453   2.563
 8609SOL     OW26725   5.845   0.348   5.730
 8609SOL    HW126726   5.820   0.422   5.667
 8609SOL    HW226727   5.796   0.265   5.705
 8610SOL     OW26728   6.705   6.582   4.779
 8610SOL    HW126729   6.622   6.615   4.734
 8610SOL    HW226730   6.711   6.621   4.871
 8611SOL     OW26731   1.569   1.802   2.868
 8611SOL    HW126732   1.618   1.736   2.926
 8611SOL    HW226733   1.635   1.864   2.826
 8612SOL     OW26734   4.934   3.368   4.358
 8612SOL    HW126735   4.912   3.325   4.446
 8612SOL    HW226736   4.930   3.299   4.286
 8613SOL     OW26737   1.543   0.653   0.485
 8613SOL    HW126738   1.517   0.575   0.542
 8613SOL    HW226739   1.641   0.648   0.466
 8614SOL     OW26740   1.728   2.956   3.512
 8614SOL    HW126741   1.658   2.908   3.458
 8614SOL    HW226742   1.761   2.895   3.584
 8615SOL     OW26743   5.180   1.699   6.356
 8615SOL    HW126744   5.200   1.623   6.295
 8615SOL    HW226745   5.087   1.732   6.340
 8616SOL     OW26746   1.224   3.484   0.973
 8616SOL    HW126747   1.167   3.564   0.957
 8616SOL    HW226748   1.199   3.441   1.060
 8617SOL     OW26749   6.528   3.195   0.527
 8617SOL    HW126750   6.554   3.179   0.622
 8617SOL    HW226751   6.565   3.123   0.469
 8618SOL     OW26752   3.267   1.406   2.932
 8618SOL    HW126753   3.269   1.505   2.918
 8618SOL    HW226754   3.178   1.378   2.967
 8619SOL     OW26755   3.971   6.506   0.830
 8619SOL    HW126756   3.944   6.602   0.839
 8619SOL    HW226757   3.916   6.450   0.892
 8620SOL     OW26758   6.122   6.110   4.203
 8620SOL    HW126759   6.188   6.180   4.228
 8620SOL    HW226760   6.053   6.149   4.142
 8621SOL     OW26761   4.967   1.253   3.918
 8621SOL    HW126762   4.928   1.161   3.928
 8621SOL    HW226763   4.917   1.303   3.848
 8622SOL     OW26764   5.388   5.200   6.515
 8622SOL    HW126765   5.425   5.182   6.424
 8622SOL    HW226766   5.334   5.122   6.546
 8623SOL     OW26767   5.706   1.622   3.545
 8623SOL    HW126768   5.760   1.589   3.467
 8623SOL    HW226769   5.767   1.663   3.613
 8624SOL     OW26770   6.596   2.704   3.578
 8624SOL    HW126771   6.532   2.777   3.599
 8624SOL    HW226772   6.688   2.730   3.608
 8625SOL     OW26773   3.652   1.336   6.745
 8625SOL    HW126774   3.558   1.306   6.727
 8625SOL    HW226775   3.714   1.294   6.679
 8626SOL     OW26776   3.114   3.837   1.662
 8626SOL    HW126777   3.114   3.739   1.682
 8626SOL    HW226778   3.069   3.886   1.737
 8627SOL     OW26779   3.180   0.378   6.772
 8627SOL    HW126780   3.176   0.280   6.748
 8627SOL    HW226781   3.241   0.390   6.850
 8628SOL     OW26782   6.333   0.923   1.814
 8628SOL    HW126783   6.385   0.907   1.898
 8628SOL    HW226784   6.395   0.955   1.742
 8629SOL     OW26785   1.282   5.975   2.991
 8629SOL    HW126786   1.361   6.017   2.946
 8629SOL    HW226787   1.268   6.017   3.080
 8630SOL     OW26788   5.063   4.866   4.287
 8630SOL    HW126789   5.118   4.809   4.348
 8630SOL    HW226790   4.969   4.870   4.321
 8631SOL     OW26791   4.056   6.697   3.401
 8631SOL    HW126792   3.964   6.721   3.431
 8631SOL    HW226793   4.123   6.758   3.443
 8632SOL     OW26794   3.052   0.770   3.183
 8632SOL    HW126795   3.049   0.670   3.189
 8632SOL    HW226796   3.138   0.798   3.139
 8633SOL     OW26797   6.296   6.536   2.832
 8633SOL    HW126798   6.331   6.623   2.797
 8633SOL    HW226799   6.196   6.536   2.826
 8634SOL     OW26800   6.009   6.645   1.559
 8634SOL    HW126801   5.934   6.653   1.624
 8634SOL    HW226802   6.095   6.635   1.609
 8635SOL     OW26803   6.130   4.071   6.021
 8635SOL    HW126804   6.137   3.977   6.056
 8635SOL    HW226805   6.206   4.125   6.057
 8636SOL     OW26806   5.914   4.842   1.312
 8636SOL    HW126807   5.968   4.883   1.239
 8636SOL    HW226808   5.910   4.904   1.390
 8637SOL     OW26809   0.776   0.483   2.280
 8637SOL    HW126810   0.824   0.547   2.220
 8637SOL    HW226811   0.677   0.492   2.266
 8638SOL     OW26812   6.359   4.591   1.315
 8638SOL    HW126813   6.260   4.589   1.302
 8638SOL    HW226814   6.382   4.652   1.390
 8639SOL     OW26815   6.065   2.379   3.387
 8639SOL    HW126816   6.142   2.432   3.352
 8639SOL    HW226817   5.991   2.442   3.412
 8640SOL     OW26818   4.879   5.867   1.427
 8640SOL    HW126819   4.926   5.782   1.449
 8640SOL    HW226820   4.834   5.858   1.338
 8641SOL     OW26821   4.948   5.051   3.848
 8641SOL    HW126822   5.017   5.059   3.920
 8641SOL    HW226823   4.988   5.004   3.769
 8642SOL     OW26824   4.244   1.144   1.040
 8642SOL    HW126825   4.242   1.244   1.046
 8642SOL    HW226826   4.288   1.116   0.955
 8643SOL     OW26827   4.944   6.804   0.158
 8643SOL    HW126828   4.928   6.852   0.071
 8643SOL    HW226829   4.964   6.871   0.229
 8644SOL     OW26830   6.093   3.070   5.631
 8644SOL    HW126831   6.128   3.125   5.555
 8644SOL    HW226832   6.098   3.124   5.715
 8645SOL     OW26833   6.518   3.671   1.841
 8645SOL    HW126834   6.420   3.652   1.832
 8645SOL    HW226835   6.534   3.729   1.921
 8646SOL     OW26836   4.377   6.281   0.414
 8646SOL    HW126837   4.432   6.364   0.425
 8646SOL    HW226838   4.417   6.224   0.342
 8647SOL     OW26839   4.998   5.033   1.860
 8647SOL    HW126840   5.043   5.122   1.847
 8647SOL    HW226841   5.032   4.969   1.792
 8648SOL     OW26842   6.447   0.754   4.222
 8648SOL    HW126843   6.526   0.816   4.231
 8648SOL    HW226844   6.453   0.705   4.135
 8649SOL     OW26845   6.387   3.425   5.859
 8649SOL    HW126846   6.473   3.461   5.896
 8649SOL    HW226847   6.380   3.328   5.881
 8650SOL     OW26848   0.718   5.531   1.840
 8650SOL    HW126849   0.664   5.519   1.923
 8650SOL    HW226850   0.757   5.443   1.812
 8651SOL     OW26851   4.404   3.437   1.079
 8651SOL    HW126852   4.336   3.507   1.098
 8651SOL    HW226853   4.375   3.350   1.121
 8652SOL     OW26854   0.784   2.628   4.619
 8652SOL    HW126855   0.716   2.615   4.692
 8652SOL    HW226856   0.744   2.598   4.532
 8653SOL     OW26857   5.037   3.536   6.357
 8653SOL    HW126858   5.025   3.485   6.443
 8653SOL    HW226859   5.134   3.542   6.335
 8654SOL     OW26860   1.652   4.393   1.738
 8654SOL    HW126861   1.577   4.460   1.732
 8654SOL    HW226862   1.734   4.439   1.772
 8655SOL     OW26863   5.545   5.947   2.927
 8655SOL    HW126864   5.611   5.922   2.857
 8655SOL    HW226865   5.462   5.891   2.916
 8656SOL     OW26866   6.600   2.048   1.904
 8656SOL    HW126867   6.625   2.082   1.995
 8656SOL    HW226868   6.589   2.125   1.842
 8657SOL     OW26869   2.640   5.104   0.759
 8657SOL    HW126870   2.614   5.037   0.827
 8657SOL    HW226871   2.570   5.109   0.688
 8658SOL     OW26872   1.163   5.845   5.541
 8658SOL    HW126873   1.134   5.845   5.637
 8658SOL    HW226874   1.083   5.859   5.482
 8659SOL     OW26875   3.586   0.136   4.597
 8659SOL    HW126876   3.518   0.202   4.631
 8659SOL    HW226877   3.664   0.186   4.560
 8660SOL     OW26878   4.645   4.306   0.361
 8660SOL    HW126879   4.689   4.258   0.437
 8660SOL    HW226880   4.696   4.389   0.340
 8661SOL     OW26881   6.598   2.687   1.907
 8661SOL    HW126882   6.664   2.761   1.917
 8661SOL    HW226883   6.580   2.646   1.997
 8662SOL     OW26884   0.399   1.198   6.989
 8662SOL    HW126885   0.393   1.150   6.902
 8662SOL    HW226886   0.493   1.230   7.003
 8663SOL     OW26887   2.825   5.769   0.884
 8663SOL    HW126888   2.835   5.697   0.815
 8663SOL    HW226889   2.826   5.859   0.840
 8664SOL     OW26890   4.393   4.398   1.230
 8664SOL    HW126891   4.310   4.423   1.180
 8664SOL    HW226892   4.381   4.416   1.327
 8665SOL     OW26893   5.335   5.394   4.328
 8665SOL    HW126894   5.432   5.414   4.344
 8665SOL    HW226895   5.294   5.471   4.279
 8666SOL     OW26896   6.852   4.931   4.568
 8666SOL    HW126897   6.780   4.874   4.529
 8666SOL    HW226898   6.816   5.023   4.584
 8667SOL     OW26899   5.597   2.746   3.228
 8667SOL    HW126900   5.612   2.653   3.263
 8667SOL    HW226901   5.657   2.761   3.149
 8668SOL     OW26902   3.388   0.715   4.818
 8668SOL    HW126903   3.448   0.761   4.884
 8668SOL    HW226904   3.297   0.704   4.857
 8669SOL     OW26905   3.720   6.137   6.467
 8669SOL    HW126906   3.621   6.146   6.470
 8669SOL    HW226907   3.761   6.183   6.545
 8670SOL     OW26908   4.402   4.620   2.674
 8670SOL    HW126909   4.423   4.632   2.576
 8670SOL    HW226910   4.303   4.608   2.685
 8671SOL     OW26911   6.036   5.603   1.540
 8671SOL    HW126912   6.021   5.675   1.607
 8671SOL    HW226913   6.001   5.516   1.576
 8672SOL     OW26914   3.992   4.966   4.556
 8672SOL    HW126915   3.996   4.919   4.645
 8672SOL    HW226916   4.052   5.045   4.558
 8673SOL     OW26917   4.816   2.212   6.792
 8673SOL    HW126918   4.772   2.275   6.728
 8673SOL    HW226919   4.860   2.138   6.741
 8674SOL     OW26920   0.618   6.651   2.495
 8674SOL    HW126921   0.663   6.629   2.409
 8674SOL    HW226922   0.641   6.744   2.522
 8675SOL     OW26923   2.359   1.706   2.236
 8675SOL    HW126924   2.303   1.723   2.155
 8675SOL    HW226925   2.305   1.659   2.305
 8676SOL     OW26926   5.009   1.451   4.149
 8676SOL    HW126927   4.990   1.532   4.094
 8676SOL    HW226928   5.002   1.369   4.093
 8677SOL     OW26929   1.934   3.617   5.650
 8677SOL    HW126930   2.023   3.579   5.675
 8677SOL    HW226931   1.897   3.670   5.726
 8678SOL     OW26932   0.848   0.838   5.906
 8678SOL    HW126933   0.753   0.847   5.934
 8678SOL    HW226934   0.890   0.928   5.896
 8679SOL     OW26935   6.269   2.244   4.557
 8679SOL    HW126936   6.186   2.300   4.560
 8679SOL    HW226937   6.348   2.301   4.577
 8680SOL     OW26938   0.603   3.096   6.548
 8680SOL    HW126939   0.615   3.053   6.459
 8680SOL    HW226940   0.623   3.029   6.620
 8681SOL     OW26941   4.197   4.125   1.348
 8681SOL    HW126942   4.297   4.123   1.347
 8681SOL    HW226943   4.165   4.141   1.442
 8682SOL     OW26944   1.587   5.686   2.895
 8682SOL    HW126945   1.509   5.681   2.833
 8682SOL    HW226946   1.672   5.685   2.843
 8683SOL     OW26947   4.736   3.542   0.164
 8683SOL    HW126948   4.818   3.584   0.123
 8683SOL    HW226949   4.761   3.457   0.210
 8684SOL     OW26950   6.336   2.380   3.757
 8684SOL    HW126951   6.392   2.385   3.674
 8684SOL    HW226952   6.242   2.353   3.733
 8685SOL     OW26953   0.125   1.987   5.469
 8685SOL    HW126954   0.104   2.084   5.477
 8685SOL    HW226955   0.216   1.976   5.428
 8686SOL     OW26956   6.361   1.346   4.369
 8686SOL    HW126957   6.266   1.376   4.361
 8686SOL    HW226958   6.421   1.426   4.364
 8687SOL     OW26959   3.638   1.193   2.730
 8687SOL    HW126960   3.646   1.230   2.638
 8687SOL    HW226961   3.722   1.143   2.753
 8688SOL     OW26962   0.496   6.372   1.862
 8688SOL    HW126963   0.513   6.283   1.903
 8688SOL    HW226964   0.583   6.421   1.851
 8689SOL     OW26965   4.887   4.580   1.816
 8689SOL    HW126966   4.985   4.598   1.807
 8689SOL    HW226967   4.870   4.533   1.902
 8690SOL     OW26968   1.772   0.753   1.834
 8690SOL    HW126969   1.795   0.674   1.892
 8690SOL    HW226970   1.726   0.823   1.889
 8691SOL     OW26971   5.741   1.395   0.100
 8691SOL    HW126972   5.654   1.364   0.140
 8691SOL    HW226973   5.782   1.320   0.049
 8692SOL     OW26974   1.557   1.354   3.840
 8692SOL    HW126975   1.605   1.276   3.799
 8692SOL    HW226976   1.490   1.321   3.906
 8693SOL     OW26977   5.511   2.617   6.426
 8693SOL    HW126978   5.558   2.531   6.448
 8693SOL    HW226979   5.482   2.615   6.331
 8694SOL     OW26980   4.058   0.076   6.636
 8694SOL    HW126981   4.050   0.107   6.731
 8694SOL    HW226982   4.008   0.139   6.576
 8695SOL     OW26983   4.502   3.880   5.373
 8695SOL    HW126984   4.424   3.889   5.434
 8695SOL    HW226985   4.518   3.967   5.326
 8696SOL     OW26986   2.350   5.479   0.447
 8696SOL    HW126987   2.275   5.521   0.396
 8696SOL    HW226988   2.360   5.524   0.536
 8697SOL     OW26989   5.337   5.396   6.706
 8697SOL    HW126990   5.415   5.343   6.672
 8697SOL    HW226991   5.254   5.340   6.701
 8698SOL     OW26992   5.388   5.627   5.456
 8698SOL    HW126993   5.439   5.682   5.522
 8698SOL    HW226994   5.370   5.682   5.374
 8699SOL     OW26995   1.913   1.122   4.299
 8699SOL    HW126996   1.965   1.196   4.341
 8699SOL    HW226997   1.969   1.039   4.297
 8700SOL     OW26998   2.472   1.672   5.985
 8700SOL    HW126999   2.497   1.635   5.896
 8700SOL    HW227000   2.512   1.763   5.996
 8701SOL     OW27001   1.023   0.873   3.340
 8701SOL    HW127002   1.069   0.961   3.345
 8701SOL    HW227003   1.000   0.841   3.432
 8702SOL     OW27004   5.014   0.125   6.485
 8702SOL    HW127005   5.095   0.141   6.429
 8702SOL    HW227006   4.954   0.205   6.480
 8703SOL     OW27007   1.404   4.597   1.448
 8703SOL    HW127008   1.365   4.640   1.529
 8703SOL    HW227009   1.421   4.500   1.467
 8704SOL     OW27010   1.020   4.375   2.310
 8704SOL    HW127011   1.028   4.428   2.225
 8704SOL    HW227012   0.971   4.290   2.291
 8705SOL     OW27013   4.721   6.254   4.372
 8705SOL    HW127014   4.684   6.161   4.378
 8705SOL    HW227015   4.646   6.320   4.378
 8706SOL     OW27016   4.798   0.512   6.319
 8706SOL    HW127017   4.860   0.470   6.384
 8706SOL    HW227018   4.808   0.469   6.230
 8707SOL     OW27019   4.259   1.695   5.710
 8707SOL    HW127020   4.315   1.661   5.785
 8707SOL    HW227021   4.195   1.624   5.681
 8708SOL     OW27022   4.137   1.607   1.405
 8708SOL    HW127023   4.116   1.649   1.317
 8708SOL    HW227024   4.135   1.677   1.476
 8709SOL     OW27025   5.270   3.560   0.103
 8709SOL    HW127026   5.177   3.533   0.128
 8709SOL    HW227027   5.327   3.564   0.185
 8710SOL     OW27028   6.485   3.889   4.167
 8710SOL    HW127029   6.482   3.987   4.146
 8710SOL    HW227030   6.555   3.845   4.112
 8711SOL     OW27031   1.599   1.443   4.416
 8711SOL    HW127032   1.679   1.446   4.356
 8711SOL    HW227033   1.522   1.487   4.370
 8712SOL     OW27034   3.362   0.428   6.980
 8712SOL    HW127035   3.367   0.515   0.006
 8712SOL    HW227036   3.454   0.393   6.965
 8713SOL     OW27037   5.947   4.479   3.409
 8713SOL    HW127038   5.886   4.521   3.341
 8713SOL    HW227039   6.042   4.491   3.380
 8714SOL     OW27040   2.087   1.336   3.693
 8714SOL    HW127041   2.014   1.355   3.759
 8714SOL    HW227042   2.140   1.420   3.678
 8715SOL     OW27043   5.328   0.768   2.589
 8715SOL    HW127044   5.255   0.814   2.638
 8715SOL    HW227045   5.318   0.784   2.490
 8716SOL     OW27046   0.583   0.710   2.884
 8716SOL    HW127047   0.557   0.647   2.957
 8716SOL    HW227048   0.599   0.658   2.800
 8717SOL     OW27049   4.414   3.978   0.968
 8717SOL    HW127050   4.481   3.951   0.899
 8717SOL    HW227051   4.414   4.078   0.977
 8718SOL     OW27052   6.517   2.507   5.812
 8718SOL    HW127053   6.586   2.520   5.884
 8718SOL    HW227054   6.432   2.552   5.839
 8719SOL     OW27055   6.692   1.111   5.848
 8719SOL    HW127056   6.782   1.129   5.888
 8719SOL    HW227057   6.623   1.165   5.896
 8720SOL     OW27058   5.109   3.232   4.997
 8720SOL    HW127059   5.177   3.250   5.069
 8720SOL    HW227060   5.154   3.236   4.908
 8721SOL     OW27061   6.824   0.781   5.172
 8721SOL    HW127062   6.909   0.737   5.200
 8721SOL    HW227063   6.752   0.711   5.164
 8722SOL     OW27064   3.394   2.557   0.737
 8722SOL    HW127065   3.449   2.520   0.812
 8722SOL    HW227066   3.299   2.565   0.767
 8723SOL     OW27067   0.564   6.255   0.573
 8723SOL    HW127068   0.610   6.215   0.652
 8723SOL    HW227069   0.632   6.292   0.509
 8724SOL     OW27070   4.876   5.807   6.496
 8724SOL    HW127071   4.833   5.841   6.412
 8724SOL    HW227072   4.958   5.755   6.473
 8725SOL     OW27073   2.843   6.728   1.085
 8725SOL    HW127074   2.783   6.654   1.113
 8725SOL    HW227075   2.849   6.731   0.985
 8726SOL     OW27076   0.018   0.159   0.765
 8726SOL    HW127077   6.968   0.225   0.785
 8726SOL    HW227078   0.016   0.086   0.833
 8727SOL     OW27079   5.464   6.330   1.486
 8727SOL    HW127080   5.514   6.395   1.544
 8727SOL    HW227081   5.529   6.264   1.448
 8728SOL     OW27082   2.469   5.509   5.479
 8728SOL    HW127083   2.517   5.439   5.427
 8728SOL    HW227084   2.377   5.477   5.503
 8729SOL     OW27085   4.752   6.233   4.102
 8729SOL    HW127086   4.677   6.297   4.082
 8729SOL    HW227087   4.781   6.246   4.197
 8730SOL     OW27088   6.483   6.270   1.241
 8730SOL    HW127089   6.522   6.189   1.284
 8730SOL    HW227090   6.414   6.243   1.173
 8731SOL     OW27091   0.977   1.807   2.881
 8731SOL    HW127092   0.918   1.859   2.818
 8731SOL    HW227093   1.042   1.752   2.829
 8732SOL     OW27094   6.514   6.375   2.025
 8732SOL    HW127095   6.528   6.285   1.983
 8732SOL    HW227096   6.565   6.379   2.111
 8733SOL     OW27097   6.850   0.849   0.664
 8733SOL    HW127098   6.847   0.935   0.614
 8733SOL    HW227099   6.927   0.794   0.630
 8734SOL     OW27100   6.396   6.798   0.885
 8734SOL    HW127101   6.312   6.853   0.889
 8734SOL    HW227102   6.457   6.836   0.816
 8735SOL     OW27103   0.817   2.885   6.010
 8735SOL    HW127104   0.916   2.872   5.998
 8735SOL    HW227105   0.798   2.983   6.019
 8736SOL     OW27106   0.330   4.981   5.857
 8736SOL    HW127107   0.410   4.938   5.815
 8736SOL    HW227108   0.358   5.026   5.942
 8737SOL     OW27109   4.167   5.753   6.660
 8737SOL    HW127110   4.149   5.847   6.689
 8737SOL    HW227111   4.140   5.690   6.733
 8738SOL     OW27112   1.103   4.338   5.439
 8738SOL    HW127113   1.167   4.279   5.390
 8738SOL    HW227114   1.104   4.316   5.536
 8739SOL     OW27115   1.416   3.473   5.250
 8739SOL    HW127116   1.426   3.374   5.241
 8739SOL    HW227117   1.392   3.512   5.161
 8740SOL     OW27118   1.501   6.013   0.198
 8740SOL    HW127119   1.585   5.985   0.152
 8740SOL    HW227120   1.502   6.112   0.212
 8741SOL     OW27121   1.549   3.683   1.886
 8741SOL    HW127122   1.564   3.715   1.979
 8741SOL    HW227123   1.483   3.743   1.840
 8742SOL     OW27124   4.701   5.147   1.882
 8742SOL    HW127125   4.662   5.191   1.963
 8742SOL    HW227126   4.787   5.102   1.906
 8743SOL     OW27127   2.705   5.020   2.610
 8743SOL    HW127128   2.615   4.977   2.609
 8743SOL    HW227129   2.704   5.099   2.671
 8744SOL     OW27130   3.154   3.488   5.247
 8744SOL    HW127131   3.132   3.394   5.222
 8744SOL    HW227132   3.073   3.545   5.236
 8745SOL     OW27133   5.360   1.895   6.310
 8745SOL    HW127134   5.385   1.937   6.396
 8745SOL    HW227135   5.295   1.821   6.326
 8746SOL     OW27136   5.346   3.401   4.222
 8746SOL    HW127137   5.401   3.481   4.244
 8746SOL    HW227138   5.271   3.427   4.161
 8747SOL     OW27139   0.698   1.551   4.178
 8747SOL    HW127140   0.675   1.464   4.134
 8747SOL    HW227141   0.746   1.533   4.264
 8748SOL     OW27142   3.292   0.216   6.457
 8748SOL    HW127143   3.372   0.276   6.464
 8748SOL    HW227144   3.312   0.128   6.500
 8749SOL     OW27145   3.925   1.680   3.330
 8749SOL    HW127146   3.865   1.602   3.347
 8749SOL    HW227147   4.012   1.648   3.293
 8750SOL     OW27148   1.843   6.919   4.595
 8750SOL    HW127149   1.860   6.876   4.685
 8750SOL    HW227150   1.908   6.993   4.581
 8751SOL     OW27151   2.113   6.274   2.819
 8751SOL    HW127152   2.064   6.314   2.897
 8751SOL    HW227153   2.178   6.205   2.852
 8752SOL     OW27154   2.233   0.958   6.342
 8752SOL    HW127155   2.306   0.954   6.273
 8752SOL    HW227156   2.153   0.908   6.309
 8753SOL     OW27157   5.059   1.718   5.092
 8753SOL    HW127158   5.153   1.738   5.120
 8753SOL    HW227159   4.996   1.779   5.139
 8754SOL     OW27160   1.553   1.017   5.825
 8754SOL    HW127161   1.564   1.108   5.785
 8754SOL    HW227162   1.643   0.974   5.836
 8755SOL     OW27163   1.849   1.929   0.362
 8755SOL    HW127164   1.814   1.899   0.450
 8755SOL    HW227165   1.777   1.977   0.311
 8756SOL     OW27166   2.956   4.983   4.852
 8756SOL    HW127167   2.967   4.936   4.940
 8756SOL    HW227168   3.036   5.041   4.836
 8757SOL     OW27169   2.906   5.199   3.304
 8757SOL    HW127170   2.999   5.194   3.267
 8757SOL    HW227171   2.911   5.227   3.400
 8758SOL     OW27172   5.225   6.629   2.779
 8758SOL    HW127173   5.204   6.710   2.833
 8758SOL    HW227174   5.304   6.582   2.819
 8759SOL     OW27175   5.589   0.417   5.944
 8759SOL    HW127176   5.562   0.449   5.853
 8759SOL    HW227177   5.509   0.420   6.004
 8760SOL     OW27178   1.804   2.710   3.616
 8760SOL    HW127179   1.845   2.756   3.695
 8760SOL    HW227180   1.727   2.653   3.647
 8761SOL     OW27181   5.112   6.096   1.635
 8761SOL    HW127182   5.131   6.003   1.667
 8761SOL    HW227183   5.067   6.148   1.707
 8762SOL     OW27184   1.390   4.829   1.280
 8762SOL    HW127185   1.358   4.795   1.192
 8762SOL    HW227186   1.370   4.762   1.351
 8763SOL     OW27187   7.007   5.819   6.712
 8763SOL    HW127188   0.057   5.751   6.712
 8763SOL    HW227189   0.019   5.906   6.746
 8764SOL     OW27190   2.936   2.157   6.491
 8764SOL    HW127191   2.995   2.236   6.510
 8764SOL    HW227192   2.873   2.180   6.417
 8765SOL     OW27193   5.899   0.618   4.928
 8765SOL    HW127194   5.964   0.642   4.855
 8765SOL    HW227195   5.809   0.605   4.888
 8766SOL     OW27196   2.439   4.420   2.597
 8766SOL    HW127197   2.485   4.340   2.636
 8766SOL    HW227198   2.494   4.501   2.611
 8767SOL     OW27199   4.144   0.357   5.026
 8767SOL    HW127200   4.057   0.325   4.988
 8767SOL    HW227201   4.129   0.388   5.119
 8768SOL     OW27202   0.583   4.209   0.877
 8768SOL    HW127203   0.515   4.191   0.806
 8768SOL    HW227204   0.550   4.173   0.964
 8769SOL     OW27205   1.775   0.828   6.204
 8769SOL    HW127206   1.781   0.908   6.143
 8769SOL    HW227207   1.863   0.815   6.250
 8770SOL     OW27208   5.800   1.705   2.835
 8770SOL    HW127209   5.768   1.740   2.747
 8770SOL    HW227210   5.900   1.698   2.833
 8771SOL     OW27211   2.908   3.452   5.073
 8771SOL    HW127212   2.945   3.397   4.998
 8771SOL    HW227213   2.875   3.391   5.145
 8772SOL     OW27214   6.697   6.616   6.745
 8772SOL    HW127215   6.679   6.695   6.804
 8772SOL    HW227216   6.719   6.648   6.652
 8773SOL     OW27217   2.732   1.903   3.295
 8773SOL    HW127218   2.766   1.811   3.275
 8773SOL    HW227219   2.778   1.938   3.376
 8774SOL     OW27220   1.467   1.130   0.360
 8774SOL    HW127221   1.406   1.209   0.362
 8774SOL    HW227222   1.414   1.047   0.341
 8775SOL     OW27223   6.294   6.298   4.290
 8775SOL    HW127224   6.361   6.288   4.364
 8775SOL    HW227225   6.335   6.350   4.214
 8776SOL     OW27226   2.894   3.604   5.508
 8776SOL    HW127227   2.990   3.587   5.532
 8776SOL    HW227228   2.888   3.627   5.411
 8777SOL     OW27229   6.088   5.763   3.070
 8777SOL    HW127230   5.993   5.766   3.039
 8777SOL    HW227231   6.103   5.682   3.127
 8778SOL     OW27232   1.084   3.034   3.001
 8778SOL    HW127233   1.015   3.035   2.929
 8778SOL    HW227234   1.095   2.940   3.035
 8779SOL     OW27235   1.952   4.813   1.231
 8779SOL    HW127236   2.050   4.824   1.219
 8779SOL    HW227237   1.934   4.732   1.288
 8780SOL     OW27238   1.912   5.705   5.319
 8780SOL    HW127239   1.903   5.804   5.319
 8780SOL    HW227240   1.991   5.678   5.265
 8781SOL     OW27241   1.231   2.256   2.360
 8781SOL    HW127242   1.231   2.192   2.283
 8781SOL    HW227243   1.319   2.303   2.365
 8782SOL     OW27244   5.639   1.144   4.259
 8782SOL    HW127245   5.551   1.145   4.307
 8782SOL    HW227246   5.669   1.049   4.245
 8783SOL     OW27247   5.897   2.424   6.067
 8783SOL    HW127248   5.992   2.452   6.077
 8783SOL    HW227249   5.880   2.341   6.121
 8784SOL     OW27250   5.411   3.793   5.987
 8784SOL    HW127251   5.413   3.695   5.968
 8784SOL    HW227252   5.390   3.809   6.084
 8785SOL     OW27253   5.244   3.948   6.454
 8785SOL    HW127254   5.171   3.903   6.402
 8785SOL    HW227255   5.244   3.914   6.548
 8786SOL     OW27256   1.948   5.812   6.634
 8786SOL    HW127257   2.007   5.795   6.712
 8786SOL    HW227258   1.874   5.744   6.632
 8787SOL     OW27259   1.280   2.678   6.531
 8787SOL    HW127260   1.201   2.647   6.583
 8787SOL    HW227261   1.276   2.640   6.438
 8788SOL     OW27262   1.555   1.812   5.411
 8788SOL    HW127263   1.635   1.839   5.357
 8788SOL    HW227264   1.576   1.818   5.508
 8789SOL     OW27265   6.384   1.233   0.221
 8789SOL    HW127266   6.388   1.252   0.319
 8789SOL    HW227267   6.288   1.228   0.192
 8790SOL     OW27268   4.004   1.491   6.492
 8790SOL    HW127269   4.006   1.477   6.393
 8790SOL    HW227270   4.045   1.579   6.514
 8791SOL     OW27271   5.639   5.927   5.140
 8791SOL    HW127272   5.566   5.940   5.208
 8791SOL    HW227273   5.727   5.925   5.186
 8792SOL     OW27274   5.396   0.103   2.748
 8792SOL    HW127275   5.382   0.105   2.649
 8792SOL    HW227276   5.461   0.174   2.774
 8793SOL     OW27277   1.219   4.730   3.076
 8793SOL    HW127278   1.144   4.715   3.141
 8793SOL    HW227279   1.305   4.701   3.118
 8794SOL     OW27280   2.730   6.802   2.266
 8794SOL    HW127281   2.830   6.796   2.264
 8794SOL    HW227282   2.702   6.867   2.337
 8795SOL     OW27283   3.047   6.700   4.700
 8795SOL    HW127284   3.026   6.717   4.604
 8795SOL    HW227285   3.082   6.607   4.711
 8796SOL     OW27286   4.632   2.533   4.298
 8796SOL    HW127287   4.707   2.485   4.253
 8796SOL    HW227288   4.545   2.493   4.270
 8797SOL     OW27289   0.020   5.538   6.541
 8797SOL    HW127290   0.035   5.591   6.457
 8797SOL    HW227291   0.073   5.577   6.615
 8798SOL     OW27292   3.395   3.389   5.351
 8798SOL    HW127293   3.406   3.300   5.306
 8798SOL    HW227294   3.317   3.437   5.311
 8799SOL     OW27295   3.503   0.808   1.716
 8799SOL    HW127296   3.600   0.790   1.732
 8799SOL    HW227297   3.450   0.782   1.796
 8800SOL     OW27298   3.899   3.921   0.564
 8800SOL    HW127299   3.932   4.015   0.569
 8800SOL    HW227300   3.860   3.905   0.473
 8801SOL     OW27301   3.123   6.265   5.500
 8801SOL    HW127302   3.214   6.306   5.503
 8801SOL    HW227303   3.106   6.216   5.585
 8802SOL     OW27304   1.628   6.684   1.635
 8802SOL    HW127305   1.558   6.674   1.706
 8802SOL    HW227306   1.589   6.656   1.547
 8803SOL     OW27307   3.691   5.854   2.275
 8803SOL    HW127308   3.616   5.855   2.209
 8803SOL    HW227309   3.730   5.762   2.280
 8804SOL     OW27310   3.034   0.810   1.589
 8804SOL    HW127311   3.118   0.756   1.593
 8804SOL    HW227312   2.955   0.749   1.592
 8805SOL     OW27313   0.383   0.316   3.804
 8805SOL    HW127314   0.295   0.362   3.815
 8805SOL    HW227315   0.428   0.308   3.893
 8806SOL     OW27316   1.949   5.061   6.847
 8806SOL    HW127317   2.037   5.015   6.832
 8806SOL    HW227318   1.876   5.001   6.815
 8807SOL     OW27319   1.824   4.845   6.742
 8807SOL    HW127320   1.816   4.817   6.838
 8807SOL    HW227321   1.749   4.805   6.689
 8808SOL     OW27322   6.218   2.618   0.798
 8808SOL    HW127323   6.198   2.641   0.894
 8808SOL    HW227324   6.305   2.660   0.771
 8809SOL     OW27325   6.100   4.369   6.911
 8809SOL    HW127326   6.108   4.280   6.955
 8809SOL    HW227327   6.009   4.407   6.928
 8810SOL     OW27328   4.809   1.623   4.261
 8810SOL    HW127329   4.855   1.712   4.260
 8810SOL    HW227330   4.871   1.553   4.226
 8811SOL     OW27331   0.547   0.610   3.508
 8811SOL    HW127332   0.508   0.676   3.572
 8811SOL    HW227333   0.647   0.611   3.517
 8812SOL     OW27334   2.807   1.027   0.306
 8812SOL    HW127335   2.803   1.120   0.270
 8812SOL    HW227336   2.714   0.993   0.321
 8813SOL     OW27337   0.781   5.328   0.841
 8813SOL    HW127338   0.842   5.257   0.875
 8813SOL    HW227339   0.835   5.408   0.815
 8814SOL     OW27340   5.501   0.067   6.267
 8814SOL    HW127341   5.418   0.021   6.300
 8814SOL    HW227342   5.513   0.045   6.170
 8815SOL     OW27343   6.333   4.271   3.469
 8815SOL    HW127344   6.270   4.240   3.540
 8815SOL    HW227345   6.283   4.328   3.403
 8816SOL     OW27346   0.914   5.721   2.345
 8816SOL    HW127347   0.978   5.649   2.373
 8816SOL    HW227348   0.966   5.799   2.310
 8817SOL     OW27349   2.077   3.984   5.186
 8817SOL    HW127350   2.175   4.005   5.187
 8817SOL    HW227351   2.064   3.886   5.197
 8818SOL     OW27352   6.775   5.010   5.197
 8818SOL    HW127353   6.844   5.055   5.254
 8818SOL    HW227354   6.693   4.992   5.251
 8819SOL     OW27355   0.530   1.036   4.810
 8819SOL    HW127356   0.434   1.007   4.805
 8819SOL    HW227357   0.571   1.000   4.894
 8820SOL     OW27358   1.272   2.301   3.346
 8820SOL    HW127359   1.220   2.378   3.309
 8820SOL    HW227360   1.351   2.283   3.288
 8821SOL     OW27361   1.459   6.871   6.845
 8821SOL    HW127362   1.387   6.824   6.793
 8821SOL    HW227363   1.546   6.826   6.829
 8822SOL     OW27364   1.097   2.374   3.840
 8822SOL    HW127365   1.060   2.432   3.913
 8822SOL    HW227366   1.103   2.426   3.755
 8823SOL     OW27367   2.664   5.403   0.871
 8823SOL    HW127368   2.627   5.322   0.918
 8823SOL    HW227369   2.757   5.420   0.904
 8824SOL     OW27370   5.010   4.378   1.573
 8824SOL    HW127371   4.996   4.347   1.666
 8824SOL    HW227372   4.976   4.309   1.509
 8825SOL     OW27373   2.504   1.975   6.904
 8825SOL    HW127374   2.422   2.012   6.860
 8825SOL    HW227375   2.582   2.036   6.886
 8826SOL     OW27376   5.321   0.270   1.251
 8826SOL    HW127377   5.276   0.187   1.286
 8826SOL    HW227378   5.257   0.347   1.256
 8827SOL     OW27379   6.544   1.352   3.888
 8827SOL    HW127380   6.554   1.326   3.984
 8827SOL    HW227381   6.485   1.432   3.881
 8828SOL     OW27382   1.647   5.622   3.196
 8828SOL    HW127383   1.629   5.639   3.099
 8828SOL    HW227384   1.603   5.692   3.252
 8829SOL     OW27385   0.690   0.479   1.217
 8829SOL    HW127386   0.725   0.557   1.165
 8829SOL    HW227387   0.611   0.507   1.271
 8830SOL     OW27388   1.299   1.365   1.019
 8830SOL    HW127389   1.389   1.338   0.984
 8830SOL    HW227390   1.253   1.422   0.951
 8831SOL     OW27391   0.379   0.322   1.289
 8831SOL    HW127392   0.427   0.404   1.318
 8831SOL    HW227393   0.281   0.340   1.286
 8832SOL     OW27394   6.683   0.877   1.847
 8832SOL    HW127395   6.597   0.830   1.867
 8832SOL    HW227396   6.680   0.969   1.884
 8833SOL     OW27397   0.529   5.323   1.549
 8833SOL    HW127398   0.523   5.414   1.592
 8833SOL    HW227399   0.547   5.255   1.620
 8834SOL     OW27400   6.505   4.451   4.373
 8834SOL    HW127401   6.488   4.354   4.388
 8834SOL    HW227402   6.537   4.465   4.279
 8835SOL     OW27403   0.584   1.598   0.654
 8835SOL    HW127404   0.531   1.593   0.569
 8835SOL    HW227405   0.545   1.536   0.721
 8836SOL     OW27406   4.790   2.061   1.665
 8836SOL    HW127407   4.816   2.114   1.584
 8836SOL    HW227408   4.809   1.964   1.649
 8837SOL     OW27409   0.599   2.936   2.391
 8837SOL    HW127410   0.661   2.911   2.317
 8837SOL    HW227411   0.507   2.901   2.372
 8838SOL     OW27412   1.494   7.000   3.497
 8838SOL    HW127413   1.462   0.071   3.502
 8838SOL    HW227414   1.586   6.999   3.456
 8839SOL     OW27415   5.987   5.266   4.752
 8839SOL    HW127416   6.049   5.342   4.766
 8839SOL    HW227417   5.894   5.294   4.778
 8840SOL     OW27418   4.422   0.530   1.747
 8840SOL    HW127419   4.324   0.524   1.728
 8840SOL    HW227420   4.469   0.452   1.706
 8841SOL     OW27421   4.153   6.787   3.139
 8841SOL    HW127422   4.100   6.745   3.212
 8841SOL    HW227423   4.101   6.862   3.099
 8842SOL     OW27424   1.747   1.336   1.849
 8842SOL    HW127425   1.811   1.405   1.883
 8842SOL    HW227426   1.748   1.335   1.749
 8843SOL     OW27427   6.922   2.713   4.290
 8843SOL    HW127428   6.994   2.644   4.299
 8843SOL    HW227429   6.854   2.681   4.224
 8844SOL     OW27430   5.637   2.028   6.857
 8844SOL    HW127431   5.655   2.038   6.955
 8844SOL    HW227432   5.625   1.932   6.835
 8845SOL     OW27433   5.283   2.583   6.897
 8845SOL    HW127434   5.346   2.658   6.918
 8845SOL    HW227435   5.196   2.621   6.865
 8846SOL     OW27436   3.082   4.931   4.215
 8846SOL    HW127437   3.070   4.955   4.311
 8846SOL    HW227438   2.999   4.887   4.181
 8847SOL     OW27439   1.154   1.542   3.632
 8847SOL    HW127440   1.163   1.443   3.627
 8847SOL    HW227441   1.128   1.569   3.725
 8848SOL     OW27442   0.434   1.242   3.812
 8848SOL    HW127443   0.360   1.188   3.854
 8848SOL    HW227444   0.455   1.204   3.722
 8849SOL     OW27445   3.388   6.981   1.405
 8849SOL    HW127446   3.296   6.942   1.400
 8849SOL    HW227447   3.389   0.030   1.474
 8850SOL     OW27448   3.361   1.580   6.970
 8850SOL    HW127449   3.325   1.552   6.881
 8850SOL    HW227450   3.294   1.558   0.018
 8851SOL     OW27451   2.208   3.634   1.353
 8851SOL    HW127452   2.230   3.538   1.372
 8851SOL    HW227453   2.239   3.658   1.262
 8852SOL     OW27454   0.865   2.523   4.897
 8852SOL    HW127455   0.855   2.554   4.803
 8852SOL    HW227456   0.815   2.438   4.910
 8853SOL     OW27457   4.711   0.432   1.867
 8853SOL    HW127458   4.758   0.442   1.779
 8853SOL    HW227459   4.655   0.513   1.884
 8854SOL     OW27460   0.066   2.320   4.816
 8854SOL    HW127461   0.126   2.330   4.737
 8854SOL    HW227462   0.103   2.250   4.877
 8855SOL     OW27463   4.983   4.984   1.151
 8855SOL    HW127464   4.973   4.890   1.184
 8855SOL    HW227465   4.988   4.984   1.051
 8856SOL     OW27466   6.446   0.952   5.811
 8856SOL    HW127467   6.459   0.863   5.767
 8856SOL    HW227468   6.510   1.018   5.773
 8857SOL     OW27469   0.110   2.522   6.359
 8857SOL    HW127470   0.150   2.546   6.448
 8857SOL    HW227471   0.142   2.432   6.331
 8858SOL     OW27472   6.964   5.492   4.990
 8858SOL    HW127473   6.992   5.400   4.961
 8858SOL    HW227474   6.883   5.520   4.937
 8859SOL     OW27475   0.340   5.892   3.211
 8859SOL    HW127476   0.362   5.987   3.231
 8859SOL    HW227477   0.330   5.880   3.112
 8860SOL     OW27478   6.493   2.479   2.815
 8860SOL    HW127479   6.421   2.425   2.858
 8860SOL    HW227480   6.453   2.556   2.767
 8861SOL     OW27481   3.055   2.746   1.462
 8861SOL    HW127482   3.051   2.792   1.551
 8861SOL    HW227483   3.130   2.680   1.462
 8862SOL     OW27484   4.434   4.649   4.716
 8862SOL    HW127485   4.532   4.631   4.703
 8862SOL    HW227486   4.402   4.601   4.798
 8863SOL     OW27487   1.473   3.532   1.573
 8863SOL    HW127488   1.404   3.592   1.614
 8863SOL    HW227489   1.505   3.467   1.642
 8864SOL     OW27490   6.910   1.747   4.285
 8864SOL    HW127491   6.911   1.782   4.192
 8864SOL    HW227492   6.832   1.685   4.296
 8865SOL     OW27493   2.745   1.481   0.402
 8865SOL    HW127494   2.813   1.422   0.359
 8865SOL    HW227495   2.665   1.489   0.343
 8866SOL     OW27496   6.430   0.259   1.821
 8866SOL    HW127497   6.530   0.267   1.820
 8866SOL    HW227498   6.390   0.343   1.784
 8867SOL     OW27499   5.631   2.479   3.252
 8867SOL    HW127500   5.668   2.443   3.166
 8867SOL    HW227501   5.541   2.439   3.268
 8868SOL     OW27502   0.303   3.020   3.695
 8868SOL    HW127503   0.296   3.101   3.753
 8868SOL    HW227504   0.399   3.007   3.669
 8869SOL     OW27505   4.458   0.264   3.279
 8869SOL    HW127506   4.434   0.259   3.182
 8869SOL    HW227507   4.412   0.191   3.329
 8870SOL     OW27508   0.951   0.524   1.681
 8870SOL    HW127509   0.909   0.615   1.674
 8870SOL    HW227510   0.941   0.489   1.774
 8871SOL     OW27511   0.069   6.722   0.815
 8871SOL    HW127512   7.004   6.681   0.792
 8871SOL    HW227513   0.093   6.791   0.747
 8872SOL     OW27514   6.594   5.015   3.686
 8872SOL    HW127515   6.558   5.052   3.600
 8872SOL    HW227516   6.527   4.953   3.727
 8873SOL     OW27517   1.916   1.529   3.426
 8873SOL    HW127518   1.955   1.450   3.379
 8873SOL    HW227519   1.817   1.519   3.432
 8874SOL     OW27520   2.634   6.120   0.453
 8874SOL    HW127521   2.567   6.132   0.526
 8874SOL    HW227522   2.712   6.068   0.487
 8875SOL     OW27523   6.667   2.352   4.227
 8875SOL    HW127524   6.618   2.342   4.141
 8875SOL    HW227525   6.721   2.270   4.246
 8876SOL     OW27526   5.001   7.008   0.595
 8876SOL    HW127527   4.936   0.051   0.632
 8876SOL    HW227528   5.063   6.978   0.668
 8877SOL     OW27529   1.157   4.513   1.679
 8877SOL    HW127530   1.248   4.508   1.720
 8877SOL    HW227531   1.148   4.441   1.611
 8878SOL     OW27532   5.009   3.610   2.573
 8878SOL    HW127533   4.931   3.575   2.522
 8878SOL    HW227534   5.070   3.535   2.597
 8879SOL     OW27535   6.605   4.484   4.117
 8879SOL    HW127536   6.629   4.433   4.034
 8879SOL    HW227537   6.683   4.483   4.180
 8880SOL     OW27538   3.979   1.822   2.513
 8880SOL    HW127539   3.915   1.895   2.536
 8880SOL    HW227540   4.036   1.802   2.593
 8881SOL     OW27541   3.981   5.547   2.933
 8881SOL    HW127542   3.925   5.628   2.952
 8881SOL    HW227543   3.945   5.499   2.854
 8882SOL     OW27544   4.083   1.631   0.216
 8882SOL    HW127545   4.097   1.535   0.239
 8882SOL    HW227546   4.171   1.676   0.206
 8883SOL     OW27547   0.635   6.676   2.805
 8883SOL    HW127548   0.701   6.634   2.868
 8883SOL    HW227549   0.650   6.640   2.712
 8884SOL     OW27550   4.543   1.795   5.873
 8884SOL    HW127551   4.572   1.708   5.833
 8884SOL    HW227552   4.508   1.855   5.800
 8885SOL     OW27553   5.534   5.239   0.868
 8885SOL    HW127554   5.613   5.299   0.882
 8885SOL    HW227555   5.526   5.216   0.771
 8886SOL     OW27556   4.549   6.502   0.476
 8886SOL    HW127557   4.541   6.593   0.435
 8886SOL    HW227558   4.638   6.493   0.521
 8887SOL     OW27559   4.059   0.812   2.183
 8887SOL    HW127560   4.141   0.866   2.200
 8887SOL    HW227561   4.078   0.742   2.114
 8888SOL     OW27562   3.804   1.805   1.970
 8888SOL    HW127563   3.743   1.852   1.905
 8888SOL    HW227564   3.755   1.793   2.056
 8889SOL     OW27565   1.664   4.400   6.790
 8889SOL    HW127566   1.727   4.330   6.755
 8889SOL    HW227567   1.609   4.435   6.714
 8890SOL     OW27568   1.826   5.780   6.923
 8890SOL    HW127569   1.859   5.705   6.865
 8890SOL    HW227570   1.899   5.809   6.984
 8891SOL     OW27571   5.679   3.609   5.221
 8891SOL    HW127572   5.724   3.540   5.277
 8891SOL    HW227573   5.602   3.649   5.271
 8892SOL     OW27574   2.580   5.292   5.342
 8892SOL    HW127575   2.646   5.274   5.269
 8892SOL    HW227576   2.567   5.209   5.396
 8893SOL     OW27577   0.641   4.460   5.569
 8893SOL    HW127578   0.724   4.507   5.601
 8893SOL    HW227579   0.640   4.458   5.469
 8894SOL     OW27580   5.695   2.023   1.555
 8894SOL    HW127581   5.614   2.062   1.511
 8894SOL    HW227582   5.749   1.973   1.486
 8895SOL     OW27583   7.008   3.338   2.178
 8895SOL    HW127584   7.021   3.403   2.253
 8895SOL    HW227585   6.973   3.386   2.098
 8896SOL     OW27586   0.596   0.576   3.795
 8896SOL    HW127587   0.617   0.663   3.839
 8896SOL    HW227588   0.497   0.567   3.784
 8897SOL     OW27589   1.332   5.213   4.659
 8897SOL    HW127590   1.358   5.254   4.746
 8897SOL    HW227591   1.406   5.152   4.627
 8898SOL     OW27592   5.928   5.148   2.839
 8898SOL    HW127593   5.839   5.133   2.881
 8898SOL    HW227594   5.985   5.202   2.900
 8899SOL     OW27595   2.289   4.770   1.899
 8899SOL    HW127596   2.375   4.778   1.848
 8899SOL    HW227597   2.299   4.699   1.969
 8900SOL     OW27598   4.654   1.592   4.839
 8900SOL    HW127599   4.645   1.545   4.751
 8900SOL    HW227600   4.607   1.681   4.834
 8901SOL     OW27601   1.058   4.570   6.243
 8901SOL    HW127602   1.079   4.581   6.146
 8901SOL    HW227603   1.142   4.552   6.293
 8902SOL     OW27604   1.336   4.128   6.728
 8902SOL    HW127605   1.282   4.050   6.758
 8902SOL    HW227606   1.298   4.165   6.643
 8903SOL     OW27607   0.748   0.851   4.271
 8903SOL    HW127608   0.740   0.751   4.265
 8903SOL    HW227609   0.656   0.891   4.265
 8904SOL     OW27610   6.671   1.157   2.570
 8904SOL    HW127611   6.692   1.061   2.551
 8904SOL    HW227612   6.655   1.206   2.485
 8905SOL     OW27613   1.493   5.227   1.284
 8905SOL    HW127614   1.519   5.264   1.195
 8905SOL    HW227615   1.573   5.186   1.328
 8906SOL     OW27616   6.731   1.028   6.485
 8906SOL    HW127617   6.731   1.031   6.385
 8906SOL    HW227618   6.695   0.940   6.516
 8907SOL     OW27619   2.665   3.084   5.370
 8907SOL    HW127620   2.592   3.091   5.301
 8907SOL    HW227621   2.671   2.989   5.401
 8908SOL     OW27622   1.668   5.632   5.401
 8908SOL    HW127623   1.760   5.639   5.364
 8908SOL    HW227624   1.641   5.536   5.404
 8909SOL     OW27625   2.496   6.401   1.715
 8909SOL    HW127626   2.437   6.332   1.757
 8909SOL    HW227627   2.519   6.374   1.622
 8910SOL     OW27628   1.159   0.877   3.937
 8910SOL    HW127629   1.224   0.875   4.012
 8910SOL    HW227630   1.206   0.857   3.851
 8911SOL     OW27631   4.727   2.858   4.214
 8911SOL    HW127632   4.679   2.827   4.296
 8911SOL    HW227633   4.767   2.779   4.167
 8912SOL     OW27634   3.621   3.213   3.272
 8912SOL    HW127635   3.667   3.290   3.316
 8912SOL    HW227636   3.671   3.129   3.293
 8913SOL     OW27637   4.829   5.549   0.431
 8913SOL    HW127638   4.840   5.592   0.520
 8913SOL    HW227639   4.741   5.574   0.392
 8914SOL     OW27640   5.173   4.581   4.619
 8914SOL    HW127641   5.237   4.657   4.631
 8914SOL    HW227642   5.191   4.511   4.688
 8915SOL     OW27643   2.699   1.164   3.016
 8915SOL    HW127644   2.638   1.172   2.937
 8915SOL    HW227645   2.647   1.134   3.096
 8916SOL     OW27646   6.447   6.938   2.613
 8916SOL    HW127647   6.543   6.911   2.620
 8916SOL    HW227648   6.430   6.977   2.522
 8917SOL     OW27649   5.665   2.527   0.303
 8917SOL    HW127650   5.663   2.438   0.258
 8917SOL    HW227651   5.574   2.568   0.300
 8918SOL     OW27652   1.498   3.058   3.121
 8918SOL    HW127653   1.411   3.058   3.170
 8918SOL    HW227654   1.482   3.049   3.023
 8919SOL     OW27655   6.799   2.118   3.070
 8919SOL    HW127656   6.844   2.053   3.131
 8919SOL    HW227657   6.830   2.104   2.976
 8920SOL     OW27658   0.995   1.618   0.384
 8920SOL    HW127659   0.947   1.631   0.470
 8920SOL    HW227660   0.993   1.521   0.359
 8921SOL     OW27661   0.835   2.325   1.291
 8921SOL    HW127662   0.810   2.307   1.386
 8921SOL    HW227663   0.888   2.249   1.255
 8922SOL     OW27664   2.992   5.705   3.075
 8922SOL    HW127665   3.027   5.799   3.068
 8922SOL    HW227666   3.030   5.662   3.157
 8923SOL     OW27667   2.516   2.202   3.443
 8923SOL    HW127668   2.556   2.193   3.352
 8923SOL    HW227669   2.430   2.252   3.437
 8924SOL     OW27670   6.245   5.244   5.119
 8924SOL    HW127671   6.276   5.150   5.127
 8924SOL    HW227672   6.280   5.284   5.034
 8925SOL     OW27673   0.383   6.566   3.946
 8925SOL    HW127674   0.289   6.600   3.936
 8925SOL    HW227675   0.394   6.527   4.037
 8926SOL     OW27676   5.973   2.763   6.828
 8926SOL    HW127677   5.914   2.684   6.815
 8926SOL    HW227678   5.934   2.822   6.899
 8927SOL     OW27679   1.012   1.688   6.401
 8927SOL    HW127680   1.000   1.636   6.317
 8927SOL    HW227681   1.101   1.665   6.442
 8928SOL     OW27682   0.438   6.561   4.839
 8928SOL    HW127683   0.419   6.470   4.877
 8928SOL    HW227684   0.514   6.602   4.889
 8929SOL     OW27685   6.773   1.317   3.415
 8929SOL    HW127686   6.811   1.268   3.493
 8929SOL    HW227687   6.674   1.307   3.414
 8930SOL     OW27688   2.093   5.427   2.372
 8930SOL    HW127689   2.177   5.374   2.365
 8930SOL    HW227690   2.037   5.413   2.290
 8931SOL     OW27691   4.823   3.014   0.021
 8931SOL    HW127692   4.873   2.931   0.048
 8931SOL    HW227693   4.882   3.093   0.033
 8932SOL     OW27694   0.597   3.563   2.410
 8932SOL    HW127695   0.499   3.581   2.411
 8932SOL    HW227696   0.616   3.481   2.356
 8933SOL     OW27697   4.952   2.396   5.992
 8933SOL    HW127698   4.904   2.474   6.033
 8933SOL    HW227699   4.889   2.318   5.985
 8934SOL     OW27700   2.641   5.866   2.461
 8934SOL    HW127701   2.676   5.772   2.461
 8934SOL    HW227702   2.558   5.871   2.405
 8935SOL     OW27703   0.031   5.675   6.330
 8935SOL    HW127704   6.990   5.623   6.272
 8935SOL    HW227705   0.083   5.738   6.273
 8936SOL     OW27706   4.214   3.575   0.733
 8936SOL    HW127707   4.219   3.648   0.802
 8936SOL    HW227708   4.287   3.509   0.749
 8937SOL     OW27709   0.025   1.461   6.404
 8937SOL    HW127710   0.078   1.523   6.464
 8937SOL    HW227711   6.955   1.496   6.395
 8938SOL     OW27712   5.170   5.280   1.840
 8938SOL    HW127713   5.077   5.308   1.818
 8938SOL    HW227714   5.234   5.326   1.779
 8939SOL     OW27715   5.603   1.926   4.100
 8939SOL    HW127716   5.693   1.912   4.141
 8939SOL    HW227717   5.544   1.975   4.166
 8940SOL     OW27718   5.558   6.772   2.122
 8940SOL    HW127719   5.578   6.864   2.158
 8940SOL    HW227720   5.605   6.704   2.177
 8941SOL     OW27721   3.984   2.274   0.146
 8941SOL    HW127722   3.935   2.189   0.166
 8941SOL    HW227723   4.069   2.254   0.099
 8942SOL     OW27724   1.446   2.204   5.765
 8942SOL    HW127725   1.545   2.187   5.772
 8942SOL    HW227726   1.415   2.180   5.673
 8943SOL     OW27727   4.867   3.356   0.867
 8943SOL    HW127728   4.919   3.441   0.866
 8943SOL    HW227729   4.827   3.339   0.777
 8944SOL     OW27730   4.980   5.497   0.843
 8944SOL    HW127731   4.998   5.428   0.913
 8944SOL    HW227732   4.956   5.452   0.757
 8945SOL     OW27733   2.078   1.221   3.433
 8945SOL    HW127734   2.081   1.250   3.529
 8945SOL    HW227735   2.171   1.210   3.399
 8946SOL     OW27736   3.623   0.229   5.109
 8946SOL    HW127737   3.664   0.145   5.143
 8946SOL    HW227738   3.649   0.243   5.013
 8947SOL     OW27739   3.264   3.742   5.863
 8947SOL    HW127740   3.271   3.715   5.767
 8947SOL    HW227741   3.320   3.823   5.879
 8948SOL     OW27742   5.274   4.845   3.834
 8948SOL    HW127743   5.186   4.797   3.838
 8948SOL    HW227744   5.329   4.807   3.759
 8949SOL     OW27745   1.836   5.406   6.458
 8949SOL    HW127746   1.916   5.351   6.434
 8949SOL    HW227747   1.799   5.374   6.545
 8950SOL     OW27748   4.838   2.909   5.075
 8950SOL    HW127749   4.743   2.877   5.077
 8950SOL    HW227750   4.858   2.950   4.987
 8951SOL     OW27751   3.009   1.846   5.433
 8951SOL    HW127752   2.971   1.776   5.373
 8951SOL    HW227753   2.939   1.913   5.454
 8952SOL     OW27754   5.560   6.571   3.670
 8952SOL    HW127755   5.498   6.649   3.666
 8952SOL    HW227756   5.645   6.594   3.622
 8953SOL     OW27757   1.336   4.998   6.133
 8953SOL    HW127758   1.315   5.071   6.069
 8953SOL    HW227759   1.374   4.919   6.083
 8954SOL     OW27760   2.417   6.809   6.385
 8954SOL    HW127761   2.431   6.775   6.292
 8954SOL    HW227762   2.345   6.755   6.429
 8955SOL     OW27763   6.852   3.365   4.158
 8955SOL    HW127764   6.810   3.278   4.133
 8955SOL    HW227765   6.942   3.372   4.115
 8956SOL     OW27766   1.466   0.582   4.011
 8956SOL    HW127767   1.420   0.496   4.031
 8956SOL    HW227768   1.437   0.652   4.077
 8957SOL     OW27769   3.291   6.197   1.729
 8957SOL    HW127770   3.223   6.200   1.803
 8957SOL    HW227771   3.318   6.102   1.712
 8958SOL     OW27772   3.087   0.610   4.866
 8958SOL    HW127773   3.091   0.688   4.803
 8958SOL    HW227774   3.061   0.642   4.957
 8959SOL     OW27775   3.772   4.673   6.807
 8959SOL    HW127776   3.806   4.696   6.716
 8959SOL    HW227777   3.686   4.720   6.824
 8960SOL     OW27778   4.408   5.460   1.092
 8960SOL    HW127779   4.480   5.525   1.114
 8960SOL    HW227780   4.359   5.491   1.010
 8961SOL     OW27781   0.647   2.916   4.764
 8961SOL    HW127782   0.696   2.949   4.684
 8961SOL    HW227783   0.698   2.939   4.847
 8962SOL     OW27784   4.392   0.522   3.945
 8962SOL    HW127785   4.462   0.570   3.997
 8962SOL    HW227786   4.398   0.549   3.849
 8963SOL     OW27787   1.641   0.786   4.192
 8963SOL    HW127788   1.711   0.793   4.121
 8963SOL    HW227789   1.677   0.734   4.269
 8964SOL     OW27790   0.888   2.470   3.177
 8964SOL    HW127791   0.977   2.472   3.222
 8964SOL    HW227792   0.821   2.520   3.233
 8965SOL     OW27793   1.853   5.326   1.459
 8965SOL    HW127794   1.797   5.249   1.431
 8965SOL    HW227795   1.883   5.313   1.553
 8966SOL     OW27796   3.501   2.090   5.004
 8966SOL    HW127797   3.576   2.024   4.992
 8966SOL    HW227798   3.511   2.135   5.093
 8967SOL     OW27799   5.343   6.395   0.834
 8967SOL    HW127800   5.342   6.421   0.737
 8967SOL    HW227801   5.437   6.372   0.861
 8968SOL     OW27802   6.432   3.807   3.832
 8968SOL    HW127803   6.524   3.846   3.826
 8968SOL    HW227804   6.431   3.734   3.900
 8969SOL     OW27805   6.397   6.889   4.078
 8969SOL    HW127806   6.381   6.948   4.157
 8969SOL    HW227807   6.475   6.924   4.026
 8970SOL     OW27808   3.203   2.958   1.604
 8970SOL    HW127809   3.127   3.022   1.607
 8970SOL    HW227810   3.201   2.900   1.686
 8971SOL     OW27811   3.437   6.644   2.783
 8971SOL    HW127812   3.371   6.665   2.855
 8971SOL    HW227813   3.389   6.611   2.701
 8972SOL     OW27814   5.251   0.521   5.382
 8972SOL    HW127815   5.341   0.531   5.340
 8972SOL    HW227816   5.181   0.559   5.321
 8973SOL     OW27817   2.187   4.702   6.869
 8973SOL    HW127818   2.141   4.620   6.901
 8973SOL    HW227819   2.265   4.722   6.928
 8974SOL     OW27820   0.721   2.506   4.250
 8974SOL    HW127821   0.630   2.496   4.290
 8974SOL    HW227822   0.734   2.437   4.179
 8975SOL     OW27823   3.515   1.056   5.899
 8975SOL    HW127824   3.564   0.976   5.934
 8975SOL    HW227825   3.549   1.079   5.808
 8976SOL     OW27826   1.769   5.721   3.977
 8976SOL    HW127827   1.688   5.773   4.004
 8976SOL    HW227828   1.744   5.624   3.965
 8977SOL     OW27829   5.384   1.605   6.911
 8977SOL    HW127830   5.296   1.578   6.950
 8977SOL    HW227831   5.440   1.524   6.896
 8978SOL     OW27832   5.529   4.833   2.070
 8978SOL    HW127833   5.579   4.770   2.011
 8978SOL    HW227834   5.580   4.919   2.077
 8979SOL     OW27835   0.977   4.638   5.047
 8979SOL    HW127836   0.962   4.717   4.987
 8979SOL    HW227837   1.074   4.630   5.069
 8980SOL     OW27838   2.962   3.384   3.569
 8980SOL    HW127839   2.911   3.402   3.485
 8980SOL    HW227840   2.952   3.462   3.631
 8981SOL     OW27841   2.847   2.046   5.376
 8981SOL    HW127842   2.761   2.065   5.423
 8981SOL    HW227843   2.838   2.072   5.280
 8982SOL     OW27844   2.931   5.260   0.673
 8982SOL    HW127845   2.915   5.290   0.766
 8982SOL    HW227846   2.847   5.270   0.619
 8983SOL     OW27847   5.174   4.293   0.846
 8983SOL    HW127848   5.250   4.266   0.905
 8983SOL    HW227849   5.143   4.385   0.872
 8984SOL     OW27850   1.443   6.518   3.470
 8984SOL    HW127851   1.539   6.518   3.441
 8984SOL    HW227852   1.410   6.612   3.473
 8985SOL     OW27853   2.908   3.247   6.344
 8985SOL    HW127854   3.004   3.273   6.354
 8985SOL    HW227855   2.876   3.272   6.253
 8986SOL     OW27856   2.650   5.912   2.033
 8986SOL    HW127857   2.678   6.005   2.053
 8986SOL    HW227858   2.550   5.907   2.030
 8987SOL     OW27859   5.177   6.685   2.520
 8987SOL    HW127860   5.230   6.642   2.447
 8987SOL    HW227861   5.214   6.657   2.608
 8988SOL     OW27862   0.639   4.397   5.307
 8988SOL    HW127863   0.624   4.315   5.252
 8988SOL    HW227864   0.677   4.469   5.249
 8989SOL     OW27865   2.474   2.420   6.942
 8989SOL    HW127866   2.517   2.333   6.920
 8989SOL    HW227867   2.494   2.445   0.014
 8990SOL     OW27868   0.237   4.985   4.610
 8990SOL    HW127869   0.145   5.019   4.593
 8990SOL    HW227870   0.242   4.888   4.586
 8991SOL     OW27871   1.006   2.654   5.087
 8991SOL    HW127872   0.953   2.603   5.019
 8991SOL    HW227873   1.048   2.591   5.151
 8992SOL     OW27874   6.491   1.224   1.435
 8992SOL    HW127875   6.583   1.217   1.396
 8992SOL    HW227876   6.439   1.295   1.386
 8993SOL     OW27877   4.387   2.227   1.144
 8993SOL    HW127878   4.469   2.176   1.170
 8993SOL    HW227879   4.410   2.294   1.073
 8994SOL     OW27880   1.950   5.677   2.722
 8994SOL    HW127881   1.982   5.694   2.816
 8994SOL    HW227882   1.956   5.579   2.702
 8995SOL     OW27883   0.323   0.112   1.140
 8995SOL    HW127884   0.352   0.101   1.045
 8995SOL    HW227885   0.370   0.191   1.180
 8996SOL     OW27886   4.482   5.406   5.399
 8996SOL    HW127887   4.384   5.400   5.379
 8996SOL    HW227888   4.520   5.489   5.359
 8997SOL     OW27889   5.536   0.202   5.085
 8997SOL    HW127890   5.504   0.117   5.043
 8997SOL    HW227891   5.459   0.250   5.126
 8998SOL     OW27892   6.728   3.740   5.148
 8998SOL    HW127893   6.705   3.837   5.144
 8998SOL    HW227894   6.678   3.698   5.224
 8999SOL     OW27895   4.447   5.973   6.220
 8999SOL    HW127896   4.418   6.012   6.132
 8999SOL    HW227897   4.398   6.019   6.294
 9000SOL     OW27898   1.033   4.173   1.018
 9000SOL    HW127899   1.112   4.151   0.961
 9000SOL    HW227900   0.955   4.117   0.990
 9001SOL     OW27901   1.250   5.595   0.784
 9001SOL    HW127902   1.215   5.547   0.703
 9001SOL    HW227903   1.211   5.554   0.867
 9002SOL     OW27904   6.425   6.224   6.237
 9002SOL    HW127905   6.426   6.141   6.183
 9002SOL    HW227906   6.330   6.253   6.253
 9003SOL     OW27907   4.862   6.373   0.796
 9003SOL    HW127908   4.944   6.396   0.849
 9003SOL    HW227909   4.875   6.404   0.701
 9004SOL     OW27910   6.541   4.766   2.352
 9004SOL    HW127911   6.628   4.805   2.322
 9004SOL    HW227912   6.552   4.725   2.443
 9005SOL     OW27913   4.861   0.907   4.791
 9005SOL    HW127914   4.913   0.925   4.875
 9005SOL    HW227915   4.907   0.950   4.713
 9006SOL     OW27916   3.704   6.304   0.281
 9006SOL    HW127917   3.791   6.340   0.315
 9006SOL    HW227918   3.722   6.231   0.215
 9007SOL     OW27919   0.253   0.504   3.227
 9007SOL    HW127920   0.209   0.424   3.188
 9007SOL    HW227921   0.184   0.562   3.272
 9008SOL     OW27922   6.790   5.072   2.080
 9008SOL    HW127923   6.740   5.107   2.000
 9008SOL    HW227924   6.886   5.057   2.055
 9009SOL     OW27925   3.506   6.826   2.106
 9009SOL    HW127926   3.576   6.773   2.059
 9009SOL    HW227927   3.428   6.767   2.126
 9010SOL     OW27928   1.985   5.024   5.023
 9010SOL    HW127929   2.039   5.068   4.951
 9010SOL    HW227930   2.011   4.928   5.030
 9011SOL     OW27931   2.542   2.037   1.983
 9011SOL    HW127932   2.519   2.119   2.036
 9011SOL    HW227933   2.639   2.039   1.959
 9012SOL     OW27934   2.134   6.233   0.262
 9012SOL    HW127935   2.066   6.163   0.241
 9012SOL    HW227936   2.096   6.297   0.329
 9013SOL     OW27937   2.143   0.387   4.600
 9013SOL    HW127938   2.166   0.306   4.546
 9013SOL    HW227939   2.091   0.360   4.681
 9014SOL     OW27940   5.456   3.305   3.461
 9014SOL    HW127941   5.403   3.282   3.380
 9014SOL    HW227942   5.517   3.381   3.441
 9015SOL     OW27943   3.879   6.338   6.011
 9015SOL    HW127944   3.830   6.344   6.099
 9015SOL    HW227945   3.866   6.423   5.961
 9016SOL     OW27946   4.980   4.186   6.361
 9016SOL    HW127947   5.062   4.131   6.373
 9016SOL    HW227948   4.902   4.137   6.400
 9017SOL     OW27949   2.733   7.022   5.692
 9017SOL    HW127950   2.634   7.018   5.705
 9017SOL    HW227951   2.753   0.037   5.602
 9018SOL     OW27952   3.571   4.921   0.508
 9018SOL    HW127953   3.635   4.904   0.433
 9018SOL    HW227954   3.522   5.007   0.490
 9019SOL     OW27955   0.429   3.819   4.649
 9019SOL    HW127956   0.467   3.861   4.567
 9019SOL    HW227957   0.347   3.869   4.678
 9020SOL     OW27958   5.833   5.141   3.369
 9020SOL    HW127959   5.849   5.064   3.430
 9020SOL    HW227960   5.750   5.190   3.396
 9021SOL     OW27961   0.208   1.122   4.485
 9021SOL    HW127962   0.140   1.076   4.429
 9021SOL    HW227963   0.297   1.119   4.440
 9022SOL     OW27964   4.818   3.415   6.679
 9022SOL    HW127965   4.803   3.348   6.752
 9022SOL    HW227966   4.914   3.411   6.650
 9023SOL     OW27967   0.285   4.973   0.978
 9023SOL    HW127968   0.252   5.046   1.037
 9023SOL    HW227969   0.282   5.002   0.882
 9024SOL     OW27970   2.178   4.921   6.365
 9024SOL    HW127971   2.273   4.890   6.364
 9024SOL    HW227972   2.143   4.923   6.272
 9025SOL     OW27973   0.477   5.826   1.754
 9025SOL    HW127974   0.406   5.895   1.768
 9025SOL    HW227975   0.486   5.769   1.836
 9026SOL     OW27976   5.816   1.191   6.951
 9026SOL    HW127977   5.906   1.232   6.937
 9026SOL    HW227978   5.773   1.175   6.863
 9027SOL     OW27979   0.023   4.150   3.193
 9027SOL    HW127980   0.017   4.051   3.199
 9027SOL    HW227981   0.079   4.176   3.114
 9028SOL     OW27982   3.270   4.786   7.004
 9028SOL    HW127983   3.318   4.832   0.056
 9028SOL    HW227984   3.171   4.794   7.019
 9029SOL     OW27985   4.271   6.350   5.085
 9029SOL    HW127986   4.303   6.260   5.055
 9029SOL    HW227987   4.172   6.347   5.099
 9030SOL     OW27988   2.893   2.221   2.243
 9030SOL    HW127989   2.945   2.136   2.256
 9030SOL    HW227990   2.925   2.268   2.161
 9031SOL     OW27991   5.210   6.571   4.945
 9031SOL    HW127992   5.154   6.653   4.951
 9031SOL    HW227993   5.296   6.586   4.993
 9032SOL     OW27994   4.934   3.178   1.265
 9032SOL    HW127995   5.013   3.127   1.300
 9032SOL    HW227996   4.851   3.146   1.309
 9033SOL     OW27997   1.284   5.977   2.674
 9033SOL    HW127998   1.308   6.056   2.617
 9033SOL    HW227999   1.343   5.975   2.755
 9034SOL     OW28000   3.868   6.681   5.077
 9034SOL    HW128001   3.922   6.688   4.993
 9034SOL    HW228002   3.926   6.644   5.150
 9035SOL     OW28003   2.555   5.577   6.135
 9035SOL    HW128004   2.653   5.584   6.117
 9035SOL    HW228005   2.507   5.561   6.049
 9036SOL     OW28006   0.227   5.211   5.161
 9036SOL    HW128007   0.201   5.202   5.257
 9036SOL    HW228008   0.193   5.132   5.110
 9037SOL     OW28009   6.766   0.867   2.249
 9037SOL    HW128010   6.751   0.769   2.244
 9037SOL    HW228011   6.854   0.890   2.207
 9038SOL     OW28012   3.381   3.669   5.603
 9038SOL    HW128013   3.419   3.713   5.522
 9038SOL    HW228014   3.438   3.591   5.629
 9039SOL     OW28015   4.665   6.418   6.204
 9039SOL    HW128016   4.593   6.361   6.164
 9039SOL    HW228017   4.641   6.440   6.299
 9040SOL     OW28018   2.437   2.399   1.512
 9040SOL    HW128019   2.418   2.303   1.531
 9040SOL    HW228020   2.510   2.406   1.444
 9041SOL     OW28021   6.346   2.322   2.998
 9041SOL    HW128022   6.259   2.368   3.018
 9041SOL    HW228023   6.357   2.243   3.057
 9042SOL     OW28024   6.121   5.570   6.440
 9042SOL    HW128025   6.071   5.650   6.408
 9042SOL    HW228026   6.062   5.515   6.499
 9043SOL     OW28027   2.951   3.086   1.597
 9043SOL    HW128028   2.918   3.066   1.689
 9043SOL    HW228029   2.907   3.024   1.532
 9044SOL     OW28030   2.031   0.684   6.890
 9044SOL    HW128031   1.942   0.642   6.910
 9044SOL    HW228032   2.064   0.732   6.971
 9045SOL     OW28033   3.590   0.559   3.970
 9045SOL    HW128034   3.566   0.622   4.044
 9045SOL    HW228035   3.512   0.497   3.954
 9046SOL     OW28036   4.050   3.544   2.062
 9046SOL    HW128037   4.000   3.459   2.048
 9046SOL    HW228038   3.986   3.617   2.083
 9047SOL     OW28039   0.613   4.409   5.850
 9047SOL    HW128040   0.606   4.413   5.751
 9047SOL    HW228041   0.698   4.453   5.880
 9048SOL     OW28042   0.593   2.260   5.403
 9048SOL    HW128043   0.582   2.161   5.397
 9048SOL    HW228044   0.690   2.283   5.393
 9049SOL     OW28045   0.746   6.652   5.393
 9049SOL    HW128046   0.790   6.701   5.317
 9049SOL    HW228047   0.660   6.612   5.362
 9050SOL     OW28048   1.149   4.494   0.167
 9050SOL    HW128049   1.179   4.568   0.228
 9050SOL    HW228050   1.223   4.428   0.156
 9051SOL     OW28051   2.043   0.774   1.399
 9051SOL    HW128052   2.039   0.801   1.496
 9051SOL    HW228053   2.033   0.675   1.392
 9052SOL     OW28054   2.112   2.664   6.436
 9052SOL    HW128055   2.071   2.716   6.511
 9052SOL    HW228056   2.194   2.711   6.404
 9053SOL     OW28057   0.551   1.351   0.375
 9053SOL    HW128058   0.489   1.273   0.369
 9053SOL    HW228059   0.498   1.435   0.389
 9054SOL     OW28060   1.433   5.432   3.269
 9054SOL    HW128061   1.485   5.510   3.237
 9054SOL    HW228062   1.337   5.458   3.282
 9055SOL     OW28063   0.620   2.427   6.169
 9055SOL    HW128064   0.554   2.494   6.205
 9055SOL    HW228065   0.698   2.475   6.129
 9056SOL     OW28066   4.754   1.239   4.533
 9056SOL    HW128067   4.669   1.280   4.567
 9056SOL    HW228068   4.828   1.305   4.543
 9057SOL     OW28069   4.795   1.380   3.763
 9057SOL    HW128070   4.742   1.376   3.848
 9057SOL    HW228071   4.788   1.471   3.724
 9058SOL     OW28072   2.261   6.811   5.983
 9058SOL    HW128073   2.251   6.883   5.914
 9058SOL    HW228074   2.173   6.798   6.030
 9059SOL     OW28075   1.756   2.238   3.531
 9059SOL    HW128076   1.698   2.261   3.609
 9059SOL    HW228077   1.773   2.139   3.530
 9060SOL     OW28078   5.353   2.518   5.329
 9060SOL    HW128079   5.341   2.597   5.388
 9060SOL    HW228080   5.271   2.460   5.333
 9061SOL     OW28081   2.209   4.828   3.818
 9061SOL    HW128082   2.141   4.755   3.822
 9061SOL    HW228083   2.163   4.915   3.803
 9062SOL     OW28084   1.823   6.221   2.005
 9062SOL    HW128085   1.875   6.138   2.024
 9062SOL    HW228086   1.804   6.269   2.091
 9063SOL     OW28087   3.068   1.640   1.687
 9063SOL    HW128088   3.093   1.735   1.703
 9063SOL    HW228089   3.019   1.632   1.600
 9064SOL     OW28090   4.319   3.700   0.085
 9064SOL    HW128091   4.394   3.706   0.019
 9064SOL    HW228092   4.356   3.708   0.178
 9065SOL     OW28093   2.884   1.337   0.980
 9065SOL    HW128094   2.872   1.283   0.897
 9065SOL    HW228095   2.942   1.416   0.961
 9066SOL     OW28096   5.168   6.600   0.106
 9066SOL    HW128097   5.136   6.694   0.100
 9066SOL    HW228098   5.155   6.554   0.018
 9067SOL     OW28099   0.697   0.144   1.759
 9067SOL    HW128100   0.795   0.153   1.741
 9067SOL    HW228101   0.645   0.184   1.683
 9068SOL     OW28102   1.071   6.031   6.328
 9068SOL    HW128103   1.107   6.032   6.235
 9068SOL    HW228104   1.126   6.092   6.386
 9069SOL     OW28105   1.380   2.536   5.404
 9069SOL    HW128106   1.354   2.461   5.465
 9069SOL    HW228107   1.307   2.605   5.404
 9070SOL     OW28108   1.001   4.439   4.511
 9070SOL    HW128109   0.918   4.406   4.557
 9070SOL    HW228110   1.022   4.531   4.543
 9071SOL     OW28111   5.006   5.544   6.880
 9071SOL    HW128112   5.092   5.579   6.843
 9071SOL    HW228113   5.005   5.444   6.874
 9072SOL     OW28114   5.030   4.503   0.505
 9072SOL    HW128115   5.090   4.425   0.488
 9072SOL    HW228116   5.010   4.509   0.603
 9073SOL     OW28117   1.826   6.993   1.067
 9073SOL    HW128118   1.764   0.047   1.081
 9073SOL    HW228119   1.880   6.978   1.150
 9074SOL     OW28120   0.461   0.593   1.332
 9074SOL    HW128121   0.440   0.632   1.422
 9074SOL    HW228122   0.384   0.612   1.269
 9075SOL     OW28123   6.876   0.188   1.322
 9075SOL    HW128124   6.791   0.156   1.281
 9075SOL    HW228125   6.947   0.193   1.252
 9076SOL     OW28126   1.115   2.649   5.442
 9076SOL    HW128127   1.112   2.556   5.407
 9076SOL    HW228128   1.027   2.672   5.484
 9077SOL     OW28129   6.114   6.004   1.648
 9077SOL    HW128130   6.041   6.072   1.658
 9077SOL    HW228131   6.175   6.032   1.573
 9078SOL     OW28132   4.839   3.106   5.282
 9078SOL    HW128133   4.878   3.171   5.217
 9078SOL    HW228134   4.830   3.017   5.237
 9079SOL     OW28135   2.202   0.169   5.594
 9079SOL    HW128136   2.150   0.254   5.609
 9079SOL    HW228137   2.179   0.103   5.665
 9080SOL     OW28138   4.413   0.752   0.175
 9080SOL    HW128139   4.458   0.827   0.128
 9080SOL    HW228140   4.410   0.672   0.115
 9081SOL     OW28141   5.311   6.959   3.906
 9081SOL    HW128142   5.272   6.892   3.969
 9081SOL    HW228143   5.261   0.022   3.913
 9082SOL     OW28144   2.307   0.628   1.939
 9082SOL    HW128145   2.321   0.529   1.940
 9082SOL    HW228146   2.319   0.662   1.846
 9083SOL     OW28147   4.135   5.315   3.299
 9083SOL    HW128148   4.224   5.314   3.254
 9083SOL    HW228149   4.070   5.259   3.248
 9084SOL     OW28150   3.803   3.716   2.385
 9084SOL    HW128151   3.802   3.697   2.287
 9084SOL    HW228152   3.790   3.814   2.400
 9085SOL     OW28153   1.502   1.665   0.614
 9085SOL    HW128154   1.436   1.681   0.541
 9085SOL    HW228155   1.565   1.742   0.620
 9086SOL     OW28156   6.970   3.504   0.824
 9086SOL    HW128157   0.023   3.467   0.877
 9086SOL    HW228158   6.909   3.555   0.884
 9087SOL     OW28159   5.205   3.861   1.901
 9087SOL    HW128160   5.219   3.762   1.903
 9087SOL    HW228161   5.161   3.890   1.987
 9088SOL     OW28162   6.378   4.657   2.670
 9088SOL    HW128163   6.378   4.619   2.762
 9088SOL    HW228164   6.399   4.755   2.674
 9089SOL     OW28165   3.915   1.001   5.600
 9089SOL    HW128166   4.014   0.988   5.604
 9089SOL    HW228167   3.890   1.079   5.657
 9090SOL     OW28168   6.902   1.916   4.032
 9090SOL    HW128169   6.815   1.954   4.061
 9090SOL    HW228170   6.911   1.925   3.933
 9091SOL     OW28171   4.368   2.859   5.743
 9091SOL    HW128172   4.306   2.928   5.707
 9091SOL    HW228173   4.359   2.855   5.843
 9092SOL     OW28174   6.768   4.218   5.950
 9092SOL    HW128175   6.703   4.250   5.882
 9092SOL    HW228176   6.782   4.119   5.940
 9093SOL     OW28177   2.501   6.309   4.910
 9093SOL    HW128178   2.573   6.258   4.956
 9093SOL    HW228179   2.420   6.314   4.969
 9094SOL     OW28180   1.832   3.918   0.623
 9094SOL    HW128181   1.732   3.915   0.622
 9094SOL    HW228182   1.864   3.973   0.545
 9095SOL     OW28183   0.163   0.231   5.966
 9095SOL    HW128184   0.134   0.235   6.062
 9095SOL    HW228185   0.222   0.152   5.953
 9096SOL     OW28186   6.712   5.562   3.818
 9096SOL    HW128187   6.798   5.571   3.767
 9096SOL    HW228188   6.732   5.545   3.914
 9097SOL     OW28189   0.559   3.709   0.543
 9097SOL    HW128190   0.510   3.657   0.613
 9097SOL    HW228191   0.657   3.709   0.565
 9098SOL     OW28192   1.952   5.441   4.871
 9098SOL    HW128193   2.006   5.514   4.911
 9098SOL    HW228194   1.975   5.431   4.775
 9099SOL     OW28195   2.427   1.351   6.083
 9099SOL    HW128196   2.506   1.311   6.129
 9099SOL    HW228197   2.391   1.427   6.138
 9100SOL     OW28198   1.712   4.887   4.625
 9100SOL    HW128199   1.671   4.874   4.715
 9100SOL    HW228200   1.673   4.820   4.561
 9101SOL     OW28201   6.602   1.907   1.570
 9101SOL    HW128202   6.546   1.885   1.650
 9101SOL    HW228203   6.551   1.887   1.486
 9102SOL     OW28204   3.885   1.082   2.779
 9102SOL    HW128205   3.849   1.020   2.848
 9102SOL    HW228206   3.970   1.122   2.811
 9103SOL     OW28207   6.143   0.642   1.336
 9103SOL    HW128208   6.200   0.690   1.403
 9103SOL    HW228209   6.201   0.608   1.262
 9104SOL     OW28210   5.211   2.416   5.880
 9104SOL    HW128211   5.252   2.329   5.909
 9104SOL    HW228212   5.121   2.425   5.921
 9105SOL     OW28213   3.065   0.917   0.239
 9105SOL    HW128214   3.089   0.905   0.335
 9105SOL    HW228215   2.978   0.967   0.233
 9106SOL     OW28216   2.633   3.059   6.129
 9106SOL    HW128217   2.579   3.130   6.172
 9106SOL    HW228218   2.683   3.007   6.198
 9107SOL     OW28219   4.011   0.367   1.131
 9107SOL    HW128220   4.092   0.353   1.188
 9107SOL    HW228221   3.931   0.377   1.189
 9108SOL     OW28222   5.926   6.735   5.411
 9108SOL    HW128223   5.972   6.809   5.459
 9108SOL    HW228224   5.942   6.649   5.460
 9109SOL     OW28225   5.431   3.770   3.155
 9109SOL    HW128226   5.361   3.757   3.226
 9109SOL    HW228227   5.521   3.776   3.199
 9110SOL     OW28228   1.151   6.328   2.006
 9110SOL    HW128229   1.054   6.310   2.022
 9110SOL    HW228230   1.203   6.244   2.019
 9111SOL     OW28231   4.988   2.838   6.086
 9111SOL    HW128232   5.043   2.922   6.086
 9111SOL    HW228233   4.903   2.854   6.037
 9112SOL     OW28234   0.915   4.780   1.713
 9112SOL    HW128235   0.961   4.763   1.625
 9112SOL    HW228236   0.838   4.842   1.698
 9113SOL     OW28237   5.627   0.626   4.835
 9113SOL    HW128238   5.561   0.578   4.777
 9113SOL    HW228239   5.578   0.670   4.910
 9114SOL     OW28240   6.931   1.148   5.984
 9114SOL    HW128241   6.965   1.205   6.059
 9114SOL    HW228242   7.006   1.125   5.922
 9115SOL     OW28243   5.234   3.796   4.320
 9115SOL    HW128244   5.291   3.739   4.379
 9115SOL    HW228245   5.209   3.746   4.237
 9116SOL     OW28246   0.387   5.456   3.778
 9116SOL    HW128247   0.381   5.399   3.860
 9116SOL    HW228248   0.474   5.437   3.731
 9117SOL     OW28249   2.106   6.651   6.770
 9117SOL    HW128250   2.070   6.571   6.817
 9117SOL    HW228251   2.161   6.621   6.691
 9118SOL     OW28252   0.006   5.135   0.824
 9118SOL    HW128253   0.054   5.158   0.909
 9118SOL    HW228254   6.936   5.105   0.845
 9119SOL     OW28255   3.786   1.981   0.594
 9119SOL    HW128256   3.820   2.067   0.556
 9119SOL    HW228257   3.853   1.909   0.581
 9120SOL     OW28258   6.479   4.373   5.024
 9120SOL    HW128259   6.528   4.302   4.975
 9120SOL    HW228260   6.414   4.330   5.088
 9121SOL     OW28261   4.585   1.036   4.796
 9121SOL    HW128262   4.659   0.974   4.769
 9121SOL    HW228263   4.623   1.127   4.814
 9122SOL     OW28264   0.171   1.567   2.161
 9122SOL    HW128265   0.098   1.539   2.099
 9122SOL    HW228266   0.174   1.504   2.239
 9123SOL     OW28267   0.465   6.120   4.667
 9123SOL    HW128268   0.536   6.189   4.683
 9123SOL    HW228269   0.486   6.038   4.719
 9124SOL     OW28270   3.382   5.766   0.964
 9124SOL    HW128271   3.298   5.767   1.019
 9124SOL    HW228272   3.373   5.700   0.890
 9125SOL     OW28273   4.901   6.548   1.855
 9125SOL    HW128274   4.950   6.600   1.925
 9125SOL    HW228275   4.958   6.540   1.773
 9126SOL     OW28276   3.742   4.841   0.298
 9126SOL    HW128277   3.707   4.840   0.204
 9126SOL    HW228278   3.839   4.864   0.297
 9127SOL     OW28279   6.148   4.395   6.166
 9127SOL    HW128280   6.065   4.374   6.113
 9127SOL    HW228281   6.181   4.486   6.142
 9128SOL     OW28282   5.296   3.509   6.832
 9128SOL    HW128283   5.267   3.568   6.908
 9128SOL    HW228284   5.362   3.559   6.776
 9129SOL     OW28285   0.821   2.637   1.666
 9129SOL    HW128286   0.774   2.617   1.752
 9129SOL    HW228287   0.859   2.729   1.669
 9130SOL     OW28288   2.908   4.130   6.045
 9130SOL    HW128289   2.959   4.051   6.010
 9130SOL    HW228290   2.852   4.102   6.123
 9131SOL     OW28291   5.991   3.135   0.745
 9131SOL    HW128292   6.075   3.085   0.764
 9131SOL    HW228293   5.952   3.104   0.658
 9132SOL     OW28294   0.906   4.342   3.999
 9132SOL    HW128295   0.971   4.375   3.931
 9132SOL    HW228296   0.910   4.401   4.080
 9133SOL     OW28297   5.204   6.263   0.288
 9133SOL    HW128298   5.176   6.169   0.266
 9133SOL    HW228299   5.291   6.261   0.337
 9134SOL     OW28300   5.110   4.345   0.103
 9134SOL    HW128301   5.174   4.405   0.151
 9134SOL    HW228302   5.031   4.398   0.072
 9135SOL     OW28303   6.477   5.433   2.609
 9135SOL    HW128304   6.437   5.439   2.701
 9135SOL    HW228305   6.552   5.367   2.609
 9136SOL     OW28306   0.661   4.890   6.762
 9136SOL    HW128307   0.611   4.974   6.740
 9136SOL    HW228308   0.638   4.819   6.695
 9137SOL     OW28309   5.516   5.401   5.797
 9137SOL    HW128310   5.419   5.416   5.815
 9137SOL    HW228311   5.554   5.342   5.868
 9138SOL     OW28312   1.445   3.827   5.889
 9138SOL    HW128313   1.529   3.778   5.863
 9138SOL    HW228314   1.371   3.761   5.900
 9139SOL     OW28315   0.462   6.998   0.907
 9139SOL    HW128316   0.383   6.944   0.934
 9139SOL    HW228317   0.503   6.958   0.825
 9140SOL     OW28318   0.210   4.022   2.976
 9140SOL    HW128319   0.212   3.948   2.909
 9140SOL    HW228320   0.298   4.069   2.976
 9141SOL     OW28321   0.276   5.671   4.189
 9141SOL    HW128322   0.208   5.619   4.139
 9141SOL    HW228323   0.342   5.609   4.231
 9142SOL     OW28324   1.679   5.040   3.217
 9142SOL    HW128325   1.669   5.114   3.283
 9142SOL    HW228326   1.659   5.074   3.125
 9143SOL     OW28327   5.379   3.322   2.336
 9143SOL    HW128328   5.322   3.291   2.259
 9143SOL    HW228329   5.386   3.249   2.403
 9144SOL     OW28330   2.636   4.572   5.442
 9144SOL    HW128331   2.735   4.584   5.452
 9144SOL    HW228332   2.615   4.550   5.347
 9145SOL     OW28333   2.569   5.533   6.804
 9145SOL    HW128334   2.503   5.595   6.761
 9145SOL    HW228335   2.662   5.559   6.777
 9146SOL     OW28336   5.444   1.635   4.329
 9146SOL    HW128337   5.423   1.732   4.321
 9146SOL    HW228338   5.367   1.580   4.298
 9147SOL     OW28339   4.004   6.938   6.243
 9147SOL    HW128340   4.057   6.888   6.312
 9147SOL    HW228341   3.912   6.954   6.277
 9148SOL     OW28342   3.413   5.698   2.290
 9148SOL    HW128343   3.469   5.701   2.208
 9148SOL    HW228344   3.348   5.774   2.289
 9149SOL     OW28345   1.076   3.808   1.727
 9149SOL    HW128346   1.106   3.891   1.680
 9149SOL    HW228347   1.080   3.822   1.826
 9150SOL     OW28348   3.941   3.548   6.828
 9150SOL    HW128349   3.937   3.637   6.783
 9150SOL    HW228350   3.998   3.555   6.910
 9151SOL     OW28351   2.035   3.946   3.679
 9151SOL    HW128352   2.109   3.962   3.744
 9151SOL    HW228353   2.023   4.027   3.622
 9152SOL     OW28354   1.808   5.572   1.798
 9152SOL    HW128355   1.743   5.540   1.730
 9152SOL    HW228356   1.778   5.660   1.834
 9153SOL     OW28357   0.752   3.532   0.852
 9153SOL    HW128358   0.701   3.614   0.877
 9153SOL    HW228359   0.695   3.473   0.795
 9154SOL     OW28360   4.499   5.584   3.102
 9154SOL    HW128361   4.502   5.505   3.041
 9154SOL    HW228362   4.405   5.603   3.128
 9155SOL     OW28363   0.712   6.590   2.256
 9155SOL    HW128364   0.638   6.645   2.215
 9155SOL    HW228365   0.798   6.610   2.208
 9156SOL     OW28366   6.698   4.671   5.675
 9156SOL    HW128367   6.599   4.686   5.674
 9156SOL    HW228368   6.745   4.755   5.646
 9157SOL     OW28369   2.031   4.756   5.054
 9157SOL    HW128370   1.945   4.706   5.039
 9157SOL    HW228371   2.108   4.695   5.036
 9158SOL     OW28372   6.974   2.458   4.027
 9158SOL    HW128373   0.030   2.433   3.971
 9158SOL    HW228374   6.907   2.507   3.971
 9159SOL     OW28375   2.245   0.949   3.489
 9159SOL    HW128376   2.149   0.977   3.484
 9159SOL    HW228377   2.269   0.927   3.584
 9160SOL     OW28378   0.566   3.592   6.475
 9160SOL    HW128379   0.544   3.499   6.504
 9160SOL    HW228380   0.482   3.639   6.448
 9161SOL     OW28381   5.671   3.050   2.685
 9161SOL    HW128382   5.740   2.979   2.698
 9161SOL    HW228383   5.693   3.129   2.743
 9162SOL     OW28384   5.465   2.148   1.786
 9162SOL    HW128385   5.479   2.049   1.789
 9162SOL    HW228386   5.369   2.167   1.763
 9163SOL     OW28387   1.335   3.349   3.047
 9163SOL    HW128388   1.355   3.255   3.020
 9163SOL    HW228389   1.319   3.404   2.965
 9164SOL     OW28390   4.240   0.710   0.918
 9164SOL    HW128391   4.180   0.694   0.839
 9164SOL    HW228392   4.190   0.760   0.988
 9165SOL     OW28393   7.010   0.379   0.115
 9165SOL    HW128394   0.080   0.347   0.094
 9165SOL    HW228395   6.944   0.313   0.078
 9166SOL     OW28396   4.161   5.534   2.065
 9166SOL    HW128397   4.070   5.576   2.058
 9166SOL    HW228398   4.161   5.465   2.137
 9167SOL     OW28399   0.400   2.402   5.258
 9167SOL    HW128400   0.454   2.334   5.309
 9167SOL    HW228401   0.453   2.487   5.251
 9168SOL     OW28402   5.961   5.989   4.864
 9168SOL    HW128403   5.883   6.052   4.872
 9168SOL    HW228404   6.031   6.030   4.806
 9169SOL     OW28405   5.635   5.895   0.285
 9169SOL    HW128406   5.540   5.871   0.264
 9169SOL    HW228407   5.689   5.894   0.202
 9170SOL     OW28408   1.237   6.774   5.085
 9170SOL    HW128409   1.163   6.795   5.148
 9170SOL    HW228410   1.279   6.686   5.110
 9171SOL     OW28411   4.633   5.799   6.646
 9171SOL    HW128412   4.603   5.890   6.672
 9171SOL    HW228413   4.729   5.802   6.616
 9172SOL     OW28414   5.517   0.523   5.693
 9172SOL    HW128415   5.429   0.566   5.678
 9172SOL    HW228416   5.570   0.526   5.608
 9173SOL     OW28417   5.873   3.816   6.935
 9173SOL    HW128418   5.918   3.837   7.022
 9173SOL    HW228419   5.877   3.896   6.876
 9174SOL     OW28420   5.532   5.149   0.210
 9174SOL    HW128421   5.583   5.226   0.248
 9174SOL    HW228422   5.595   5.072   0.196
 9175SOL     OW28423   2.105   1.066   1.788
 9175SOL    HW128424   2.203   1.066   1.766
 9175SOL    HW228425   2.094   1.048   1.886
 9176SOL     OW28426   1.243   6.736   2.065
 9176SOL    HW128427   1.247   6.836   2.067
 9176SOL    HW228428   1.185   6.706   1.989
 9177SOL     OW28429   0.374   5.685   3.604
 9177SOL    HW128430   0.323   5.599   3.597
 9177SOL    HW228431   0.380   5.712   3.700
 9178SOL     OW28432   0.855   3.329   1.012
 9178SOL    HW128433   0.806   3.396   0.956
 9178SOL    HW228434   0.793   3.255   1.038
 9179SOL     OW28435   3.830   5.860   2.664
 9179SOL    HW128436   3.892   5.930   2.699
 9179SOL    HW228437   3.782   5.895   2.584
 9180SOL     OW28438   0.769   1.144   4.524
 9180SOL    HW128439   0.670   1.130   4.532
 9180SOL    HW228440   0.811   1.063   4.483
 9181SOL     OW28441   2.912   1.761   2.705
 9181SOL    HW128442   3.006   1.738   2.680
 9181SOL    HW228443   2.849   1.695   2.663
 9182SOL     OW28444   6.695   1.354   2.905
 9182SOL    HW128445   6.624   1.424   2.897
 9182SOL    HW228446   6.694   1.297   2.822
 9183SOL     OW28447   3.087   1.634   5.629
 9183SOL    HW128448   3.160   1.588   5.578
 9183SOL    HW228449   3.052   1.711   5.576
 9184SOL     OW28450   2.630   6.430   0.462
 9184SOL    HW128451   2.603   6.337   0.488
 9184SOL    HW228452   2.605   6.446   0.367
 9185SOL     OW28453   0.795   1.110   5.052
 9185SOL    HW128454   0.716   1.053   5.072
 9185SOL    HW228455   0.835   1.143   5.137
 9186SOL     OW28456   5.041   6.639   5.768
 9186SOL    HW128457   5.002   6.552   5.798
 9186SOL    HW228458   5.139   6.628   5.753
 9187SOL     OW28459   5.183   3.641   1.074
 9187SOL    HW128460   5.128   3.561   1.100
 9187SOL    HW228461   5.133   3.724   1.095
 9188SOL     OW28462   1.301   0.894   2.655
 9188SOL    HW128463   1.223   0.853   2.610
 9188SOL    HW228464   1.353   0.824   2.704
 9189SOL     OW28465   3.074   0.573   6.993
 9189SOL    HW128466   3.054   0.641   6.922
 9189SOL    HW228467   3.151   0.516   6.962
 9190SOL     OW28468   3.580   1.057   5.638
 9190SOL    HW128469   3.660   1.015   5.597
 9190SOL    HW228470   3.588   1.156   5.634
 9191SOL     OW28471   5.106   0.039   1.723
 9191SOL    HW128472   5.192   0.073   1.761
 9191SOL    HW228473   5.052   0.117   1.691
 9192SOL     OW28474   4.053   4.820   3.596
 9192SOL    HW128475   4.140   4.825   3.645
 9192SOL    HW228476   3.979   4.850   3.657
 9193SOL     OW28477   3.866   4.030   2.158
 9193SOL    HW128478   3.826   4.041   2.249
 9193SOL    HW228479   3.930   4.104   2.140
 9194SOL     OW28480   2.736   5.478   3.549
 9194SOL    HW128481   2.672   5.553   3.565
 9194SOL    HW228482   2.756   5.433   3.637
 9195SOL     OW28483   0.088   3.240   3.422
 9195SOL    HW128484   0.052   3.196   3.504
 9195SOL    HW228485   0.075   3.338   3.428
 9196SOL     OW28486   5.703   5.371   3.050
 9196SOL    HW128487   5.776   5.309   3.078
 9196SOL    HW228488   5.708   5.456   3.103
 9197SOL     OW28489   4.416   2.345   6.417
 9197SOL    HW128490   4.326   2.362   6.377
 9197SOL    HW228491   4.406   2.285   6.497
 9198SOL     OW28492   6.675   2.500   4.454
 9198SOL    HW128493   6.664   2.459   4.363
 9198SOL    HW228494   6.772   2.517   4.471
 9199SOL     OW28495   0.637   3.737   0.020
 9199SOL    HW128496   0.695   3.817   0.035
 9199SOL    HW228497   0.639   3.678   0.100
 9200SOL     OW28498   4.809   5.973   2.041
 9200SOL    HW128499   4.850   5.973   2.132
 9200SOL    HW228500   4.743   6.048   2.033
 9201SOL     OW28501   0.288   2.882   2.575
 9201SOL    HW128502   0.293   2.843   2.483
 9201SOL    HW228503   0.272   2.809   2.641
 9202SOL     OW28504   2.016   6.111   3.415
 9202SOL    HW128505   1.981   6.198   3.451
 9202SOL    HW228506   2.075   6.068   3.485
 9203SOL     OW28507   5.162   2.223   0.237
 9203SOL    HW128508   5.108   2.193   0.316
 9203SOL    HW228509   5.247   2.171   0.233
 9204SOL     OW28510   4.847   4.323   1.306
 9204SOL    HW128511   4.911   4.252   1.278
 9204SOL    HW228512   4.806   4.365   1.224
 9205SOL     OW28513   4.427   2.748   1.045
 9205SOL    HW128514   4.359   2.695   0.995
 9205SOL    HW228515   4.425   2.843   1.013
 9206SOL     OW28516   6.592   0.619   5.173
 9206SOL    HW128517   6.525   0.604   5.246
 9206SOL    HW228518   6.575   0.554   5.099
 9207SOL     OW28519   6.139   6.120   0.860
 9207SOL    HW128520   6.145   6.072   0.773
 9207SOL    HW228521   6.045   6.151   0.876
 9208SOL     OW28522   6.290   3.988   1.885
 9208SOL    HW128523   6.238   3.902   1.882
 9208SOL    HW228524   6.354   3.990   1.809
 9209SOL     OW28525   4.969   0.735   4.482
 9209SOL    HW128526   5.004   0.740   4.388
 9209SOL    HW228527   4.952   0.828   4.516
 9210SOL     OW28528   1.612   6.669   0.469
 9210SOL    HW128529   1.648   6.717   0.549
 9210SOL    HW228530   1.670   6.689   0.390
 9211SOL     OW28531   5.427   1.136   6.302
 9211SOL    HW128532   5.478   1.138   6.216
 9211SOL    HW228533   5.329   1.124   6.282
 9212SOL     OW28534   5.878   3.643   6.643
 9212SOL    HW128535   5.853   3.694   6.561
 9212SOL    HW228536   5.948   3.692   6.694
 9213SOL     OW28537   0.484   5.641   3.280
 9213SOL    HW128538   0.425   5.722   3.280
 9213SOL    HW228539   0.430   5.561   3.306
 9214SOL     OW28540   1.618   1.260   5.727
 9214SOL    HW128541   1.608   1.353   5.691
 9214SOL    HW228542   1.714   1.246   5.754
 9215SOL     OW28543   6.662   4.370   3.877
 9215SOL    HW128544   6.755   4.362   3.841
 9215SOL    HW228545   6.605   4.299   3.838
 9216SOL     OW28546   1.547   0.264   3.176
 9216SOL    HW128547   1.632   0.259   3.123
 9216SOL    HW228548   1.551   0.201   3.253
 9217SOL     OW28549   3.665   2.583   0.268
 9217SOL    HW128550   3.622   2.604   0.356
 9217SOL    HW228551   3.681   2.667   0.217
 9218SOL     OW28552   5.088   5.635   5.889
 9218SOL    HW128553   5.081   5.665   5.984
 9218SOL    HW228554   5.011   5.672   5.836
 9219SOL     OW28555   3.805   2.993   5.865
 9219SOL    HW128556   3.718   3.039   5.846
 9219SOL    HW228557   3.807   2.963   5.961
 9220SOL     OW28558   0.695   6.584   3.494
 9220SOL    HW128559   0.636   6.648   3.446
 9220SOL    HW228560   0.758   6.634   3.554
 9221SOL     OW28561   2.583   1.472   2.261
 9221SOL    HW128562   2.542   1.518   2.182
 9221SOL    HW228563   2.586   1.535   2.338
 9222SOL     OW28564   2.772   6.128   3.496
 9222SOL    HW128565   2.743   6.205   3.553
 9222SOL    HW228566   2.808   6.162   3.410
 9223SOL     OW28567   5.956   2.411   5.050
 9223SOL    HW128568   6.029   2.434   5.114
 9223SOL    HW228569   5.903   2.493   5.028
 9224SOL     OW28570   1.784   5.887   2.768
 9224SOL    HW128571   1.850   5.812   2.767
 9224SOL    HW228572   1.791   5.936   2.855
 9225SOL     OW28573   0.068   5.888   5.473
 9225SOL    HW128574   0.048   5.882   5.375
 9225SOL    HW228575   7.008   5.867   5.525
 9226SOL     OW28576   0.623   6.698   4.990
 9226SOL    HW128577   0.651   6.705   5.086
 9226SOL    HW228578   0.570   6.778   4.965
 9227SOL     OW28579   4.184   2.945   0.662
 9227SOL    HW128580   4.150   2.899   0.744
 9227SOL    HW228581   4.158   3.042   0.664
 9228SOL     OW28582   3.222   3.561   4.193
 9228SOL    HW128583   3.136   3.607   4.175
 9228SOL    HW228584   3.280   3.618   4.251
 9229SOL     OW28585   0.355   6.110   1.323
 9229SOL    HW128586   0.418   6.067   1.258
 9229SOL    HW228587   0.261   6.096   1.294
 9230SOL     OW28588   3.725   6.793   5.734
 9230SOL    HW128589   3.733   6.830   5.641
 9230SOL    HW228590   3.653   6.842   5.783
 9231SOL     OW28591   5.195   6.073   2.013
 9231SOL    HW128592   5.158   6.054   2.104
 9231SOL    HW228593   5.212   5.987   1.965
 9232SOL     OW28594   1.071   5.095   1.781
 9232SOL    HW128595   1.049   5.071   1.686
 9232SOL    HW228596   1.150   5.157   1.782
 9233SOL     OW28597   0.960   0.630   6.051
 9233SOL    HW128598   1.044   0.591   6.014
 9233SOL    HW228599   0.919   0.691   5.984
 9234SOL     OW28600   2.965   4.278   0.238
 9234SOL    HW128601   2.955   4.336   0.319
 9234SOL    HW228602   2.934   4.329   0.157
 9235SOL     OW28603   1.134   2.349   2.616
 9235SOL    HW128604   1.160   2.325   2.522
 9235SOL    HW228605   1.216   2.378   2.666
 9236SOL     OW28606   1.881   3.868   6.492
 9236SOL    HW128607   1.957   3.837   6.435
 9236SOL    HW228608   1.875   3.968   6.487
 9237SOL     OW28609   6.711   6.261   3.946
 9237SOL    HW128610   6.655   6.305   3.876
 9237SOL    HW228611   6.782   6.324   3.976
 9238SOL     OW28612   1.830   2.970   5.234
 9238SOL    HW128613   1.894   2.893   5.238
 9238SOL    HW228614   1.814   2.994   5.138
 9239SOL     OW28615   2.088   6.064   6.166
 9239SOL    HW128616   2.078   6.013   6.251
 9239SOL    HW228617   2.170   6.032   6.117
 9240SOL     OW28618   3.771   1.612   5.022
 9240SOL    HW128619   3.733   1.705   5.025
 9240SOL    HW228620   3.867   1.616   4.996
 9241SOL     OW28621   5.151   6.150   7.016
 9241SOL    HW128622   5.209   6.228   0.015
 9241SOL    HW228623   5.154   6.083   0.068
 9242SOL     OW28624   2.163   2.583   0.175
 9242SOL    HW128625   2.110   2.616   0.097
 9242SOL    HW228626   2.124   2.618   0.260
 9243SOL     OW28627   2.270   7.022   7.007
 9243SOL    HW128628   2.275   0.075   0.048
 9243SOL    HW228629   2.330   0.017   6.929
 9244SOL     OW28630   3.171   6.438   6.209
 9244SOL    HW128631   3.124   6.508   6.155
 9244SOL    HW228632   3.265   6.468   6.226
 9245SOL     OW28633   0.741   4.321   3.506
 9245SOL    HW128634   0.765   4.261   3.583
 9245SOL    HW228635   0.675   4.390   3.537
 9246SOL     OW28636   4.964   1.990   6.681
 9246SOL    HW128637   4.981   1.921   6.751
 9246SOL    HW228638   5.051   2.023   6.644
 9247SOL     OW28639   3.121   6.397   2.465
 9247SOL    HW128640   3.040   6.450   2.491
 9247SOL    HW228641   3.107   6.301   2.490
 9248SOL     OW28642   3.002   0.229   6.336
 9248SOL    HW128643   2.940   0.197   6.408
 9248SOL    HW228644   3.085   0.266   6.378
 9249SOL     OW28645   2.811   1.611   0.625
 9249SOL    HW128646   2.813   1.711   0.628
 9249SOL    HW228647   2.784   1.581   0.533
 9250SOL     OW28648   0.891   3.549   1.903
 9250SOL    HW128649   0.895   3.571   1.805
 9250SOL    HW228650   0.984   3.539   1.938
 9251SOL     OW28651   4.149   1.437   0.966
 9251SOL    HW128652   4.061   1.473   0.999
 9251SOL    HW228653   4.146   1.426   0.867
 9252SOL     OW28654   5.801   1.621   4.658
 9252SOL    HW128655   5.862   1.696   4.630
 9252SOL    HW228656   5.706   1.648   4.643
 9253SOL     OW28657   2.744   5.308   3.778
 9253SOL    HW128658   2.738   5.220   3.732
 9253SOL    HW228659   2.820   5.306   3.844
 9254SOL     OW28660   6.256   5.496   2.081
 9254SOL    HW128661   6.216   5.567   2.139
 9254SOL    HW228662   6.330   5.536   2.027
 9255SOL     OW28663   0.352   3.380   1.904
 9255SOL    HW128664   0.425   3.419   1.847
 9255SOL    HW228665   0.389   3.356   1.994
 9256SOL     OW28666   1.508   6.398   0.535
 9256SOL    HW128667   1.550   6.489   0.526
 9256SOL    HW228668   1.567   6.330   0.491
 9257SOL     OW28669   6.543   6.658   5.365
 9257SOL    HW128670   6.530   6.723   5.440
 9257SOL    HW228671   6.626   6.681   5.315
 9258SOL     OW28672   5.066   3.529   3.019
 9258SOL    HW128673   5.151   3.559   2.976
 9258SOL    HW228674   5.001   3.500   2.949
 9259SOL     OW28675   1.134   3.124   6.198
 9259SOL    HW128676   1.090   3.147   6.111
 9259SOL    HW228677   1.181   3.036   6.190
 9260SOL     OW28678   5.159   4.850   4.985
 9260SOL    HW128679   5.182   4.862   5.081
 9260SOL    HW228680   5.202   4.766   4.950
 9261SOL     OW28681   1.648   2.721   0.909
 9261SOL    HW128682   1.610   2.720   0.816
 9261SOL    HW228683   1.741   2.757   0.906
 9262SOL     OW28684   6.221   6.485   5.594
 9262SOL    HW128685   6.251   6.524   5.507
 9262SOL    HW228686   6.276   6.405   5.615
 9263SOL     OW28687   2.213   4.539   2.663
 9263SOL    HW128688   2.298   4.511   2.617
 9263SOL    HW228689   2.159   4.458   2.686
 9264SOL     OW28690   6.021   3.897   5.516
 9264SOL    HW128691   6.050   3.852   5.432
 9264SOL    HW228692   6.014   3.995   5.502
 9265SOL     OW28693   4.171   0.629   2.013
 9265SOL    HW128694   4.235   0.552   2.012
 9265SOL    HW228695   4.207   0.702   1.955
 9266SOL     OW28696   6.723   4.632   1.267
 9266SOL    HW128697   6.817   4.605   1.288
 9266SOL    HW228698   6.691   4.698   1.335
 9267SOL     OW28699   6.740   1.126   3.126
 9267SOL    HW128700   6.643   1.102   3.134
 9267SOL    HW228701   6.749   1.215   3.082
 9268SOL     OW28702   0.212   0.334   0.686
 9268SOL    HW128703   0.140   0.278   0.727
 9268SOL    HW228704   0.301   0.305   0.720
 9269SOL     OW28705   3.748   6.515   1.381
 9269SOL    HW128706   3.731   6.601   1.429
 9269SOL    HW228707   3.665   6.486   1.335
 9270SOL     OW28708   1.897   1.184   5.569
 9270SOL    HW128709   1.974   1.150   5.623
 9270SOL    HW228710   1.931   1.247   5.500
 9271SOL     OW28711   1.246   4.990   5.645
 9271SOL    HW128712   1.161   5.034   5.674
 9271SOL    HW228713   1.290   4.946   5.724
 9272SOL     OW28714   6.525   6.757   6.298
 9272SOL    HW128715   6.469   6.675   6.308
 9272SOL    HW228716   6.472   6.837   6.326
 9273SOL     OW28717   6.254   3.919   3.229
 9273SOL    HW128718   6.265   3.978   3.308
 9273SOL    HW228719   6.161   3.927   3.193
 9274SOL     OW28720   0.020   3.076   1.628
 9274SOL    HW128721   0.114   3.107   1.642
 9274SOL    HW228722   6.981   3.154   1.632
 9275SOL     OW28723   4.669   1.545   0.463
 9275SOL    HW128724   4.699   1.470   0.521
 9275SOL    HW228725   4.619   1.612   0.518
 9276SOL     OW28726   1.298   4.116   0.897
 9276SOL    HW128727   1.396   4.129   0.882
 9276SOL    HW228728   1.255   4.086   0.811
 9277SOL     OW28729   3.177   6.252   3.140
 9277SOL    HW128730   3.276   6.243   3.136
 9277SOL    HW228731   3.138   6.177   3.194
 9278SOL     OW28732   1.134   6.695   4.501
 9278SOL    HW128733   1.168   6.601   4.506
 9278SOL    HW228734   1.159   6.744   4.585
 9279SOL     OW28735   3.918   5.950   2.102
 9279SOL    HW128736   3.888   5.955   2.006
 9279SOL    HW228737   3.895   5.860   2.139
 9280SOL     OW28738   1.212   4.222   1.921
 9280SOL    HW128739   1.255   4.301   1.964
 9280SOL    HW228740   1.229   4.141   1.977
 9281SOL     OW28741   1.298   5.738   0.496
 9281SOL    HW128742   1.204   5.758   0.523
 9281SOL    HW228743   1.300   5.652   0.446
 9282SOL     OW28744   1.978   0.870   3.650
 9282SOL    HW128745   1.937   0.786   3.686
 9282SOL    HW228746   1.971   0.872   3.551
 9283SOL     OW28747   5.588   4.942   6.582
 9283SOL    HW128748   5.577   5.009   6.656
 9283SOL    HW228749   5.568   4.850   6.618
 9284SOL     OW28750   3.991   6.331   1.682
 9284SOL    HW128751   3.989   6.428   1.708
 9284SOL    HW228752   4.083   6.307   1.649
 9285SOL     OW28753   6.950   5.778   3.259
 9285SOL    HW128754   0.013   5.798   3.308
 9285SOL    HW228755   6.892   5.859   3.259
 9286SOL     OW28756   5.563   5.752   1.446
 9286SOL    HW128757   5.562   5.803   1.532
 9286SOL    HW228758   5.629   5.677   1.452
 9287SOL     OW28759   4.329   4.101   0.682
 9287SOL    HW128760   4.279   4.162   0.743
 9287SOL    HW228761   4.272   4.021   0.662
 9288SOL     OW28762   3.415   0.972   3.446
 9288SOL    HW128763   3.374   1.034   3.378
 9288SOL    HW228764   3.360   0.972   3.529
 9289SOL     OW28765   4.464   5.870   2.238
 9289SOL    HW128766   4.536   5.884   2.306
 9289SOL    HW228767   4.377   5.902   2.275
 9290SOL     OW28768   5.290   0.357   3.796
 9290SOL    HW128769   5.306   0.299   3.716
 9290SOL    HW228770   5.356   0.432   3.797
 9291SOL     OW28771   0.149   5.185   5.460
 9291SOL    HW128772   0.204   5.107   5.428
 9291SOL    HW228773   0.185   5.217   5.547
 9292SOL     OW28774   1.869   2.106   6.902
 9292SOL    HW128775   1.805   2.031   6.919
 9292SOL    HW228776   1.916   2.129   6.986
 9293SOL     OW28777   4.068   1.321   6.236
 9293SOL    HW128778   3.971   1.300   6.231
 9293SOL    HW228779   4.099   1.359   6.149
 9294SOL     OW28780   5.464   6.532   6.251
 9294SOL    HW128781   5.367   6.522   6.273
 9294SOL    HW228782   5.481   6.627   6.224
 9295SOL     OW28783   6.021   0.667   2.890
 9295SOL    HW128784   6.113   0.635   2.867
 9295SOL    HW228785   6.024   0.763   2.916
 9296SOL     OW28786   2.538   3.244   5.713
 9296SOL    HW128787   2.466   3.285   5.657
 9296SOL    HW228788   2.625   3.247   5.663
 9297SOL     OW28789   0.066   5.217   1.903
 9297SOL    HW128790   7.004   5.266   1.883
 9297SOL    HW228791   0.107   5.186   1.817
 9298SOL     OW28792   6.338   4.736   6.957
 9298SOL    HW128793   6.432   4.712   6.979
 9298SOL    HW228794   6.323   4.728   6.858
 9299SOL     OW28795   3.726   2.110   4.256
 9299SOL    HW128796   3.628   2.089   4.246
 9299SOL    HW228797   3.748   2.118   4.353
 9300SOL     OW28798   2.750   6.096   6.352
 9300SOL    HW128799   2.684   6.169   6.370
 9300SOL    HW228800   2.765   6.043   6.435
 9301SOL     OW28801   0.034   3.273   3.929
 9301SOL    HW128802   0.095   3.312   3.998
 9301SOL    HW228803   0.019   3.176   3.949
 9302SOL     OW28804   2.989   6.180   4.117
 9302SOL    HW128805   3.088   6.166   4.123
 9302SOL    HW228806   2.942   6.094   4.132
 9303SOL     OW28807   2.876   4.434   0.042
 9303SOL    HW128808   2.794   4.474   0.002
 9303SOL    HW228809   2.950   4.436   6.998
 9304SOL     OW28810   6.107   5.865   6.829
 9304SOL    HW128811   6.100   5.878   6.928
 9304SOL    HW228812   6.175   5.929   6.792
 9305SOL     OW28813   2.303   1.612   0.729
 9305SOL    HW128814   2.295   1.710   0.744
 9305SOL    HW228815   2.393   1.581   0.758
 9306SOL     OW28816   6.524   6.420   3.796
 9306SOL    HW128817   6.488   6.356   3.728
 9306SOL    HW228818   6.458   6.493   3.812
 9307SOL     OW28819   1.781   4.094   0.914
 9307SOL    HW128820   1.828   4.022   0.965
 9307SOL    HW228821   1.818   4.100   0.822
 9308SOL     OW28822   2.504   3.149   1.073
 9308SOL    HW128823   2.528   3.212   1.146
 9308SOL    HW228824   2.404   3.144   1.063
 9309SOL     OW28825   3.669   5.082   6.160
 9309SOL    HW128826   3.735   5.043   6.095
 9309SOL    HW228827   3.639   5.011   6.223
 9310SOL     OW28828   6.258   6.776   5.978
 9310SOL    HW128829   6.356   6.762   5.959
 9310SOL    HW228830   6.235   6.872   5.963
 9311SOL     OW28831   5.236   4.561   0.284
 9311SOL    HW128832   5.316   4.605   0.243
 9311SOL    HW228833   5.241   4.570   0.383
 9312SOL     OW28834   6.446   3.354   4.123
 9312SOL    HW128835   6.450   3.305   4.035
 9312SOL    HW228836   6.512   3.314   4.186
 9313SOL     OW28837   0.464   0.183   1.553
 9313SOL    HW128838   0.519   0.203   1.472
 9313SOL    HW228839   0.421   0.267   1.586
 9314SOL     OW28840   5.764   4.685   1.843
 9314SOL    HW128841   5.752   4.766   1.785
 9314SOL    HW228842   5.860   4.655   1.837
 9315SOL     OW28843   5.302   5.483   5.124
 9315SOL    HW128844   5.203   5.496   5.125
 9315SOL    HW228845   5.347   5.571   5.135
 9316SOL     OW28846   5.811   5.892   0.033
 9316SOL    HW128847   5.747   5.897   6.980
 9316SOL    HW228848   5.845   5.799   0.043
 9317SOL     OW28849   2.701   6.579   2.951
 9317SOL    HW128850   2.717   6.627   3.037
 9317SOL    HW228851   2.640   6.634   2.893
 9318SOL     OW28852   3.592   0.238   3.712
 9318SOL    HW128853   3.599   0.139   3.712
 9318SOL    HW228854   3.532   0.267   3.637
 9319SOL     OW28855   4.017   2.383   0.740
 9319SOL    HW128856   3.952   2.449   0.779
 9319SOL    HW228857   4.084   2.432   0.685
 9320SOL     OW28858   6.604   0.066   0.039
 9320SOL    HW128859   6.633   0.154   0.001
 9320SOL    HW228860   6.516   0.077   0.085
 9321SOL     OW28861   1.451   2.491   4.167
 9321SOL    HW128862   1.370   2.445   4.203
 9321SOL    HW228863   1.429   2.587   4.149
 9322SOL     OW28864   5.363   3.889   1.005
 9322SOL    HW128865   5.390   3.877   0.909
 9322SOL    HW228866   5.266   3.867   1.015
 9323SOL     OW28867   0.508   2.651   5.149
 9323SOL    HW128868   0.447   2.708   5.092
 9323SOL    HW228869   0.603   2.678   5.131
 9324SOL     OW28870   1.152   4.279   1.536
 9324SOL    HW128871   1.124   4.190   1.570
 9324SOL    HW228872   1.252   4.281   1.525
 9325SOL     OW28873   0.075   3.940   2.559
 9325SOL    HW128874   0.045   3.846   2.538
 9325SOL    HW228875   0.030   3.972   2.642
 9326SOL     OW28876   3.713   4.854   1.455
 9326SOL    HW128877   3.740   4.928   1.393
 9326SOL    HW228878   3.638   4.885   1.514
 9327SOL     OW28879   1.835   1.990   3.247
 9327SOL    HW128880   1.905   2.041   3.298
 9327SOL    HW228881   1.855   1.994   3.149
 9328SOL     OW28882   0.708   0.067   3.585
 9328SOL    HW128883   0.661   0.065   3.497
 9328SOL    HW228884   0.642   0.057   3.659
 9329SOL     OW28885   1.481   5.152   6.312
 9329SOL    HW128886   1.496   5.249   6.294
 9329SOL    HW228887   1.444   5.108   6.230
 9330SOL     OW28888   0.681   6.219   0.822
 9330SOL    HW128889   0.778   6.210   0.799
 9330SOL    HW228890   0.672   6.249   0.917
 9331SOL     OW28891   2.600   5.279   4.884
 9331SOL    HW128892   2.508   5.285   4.923
 9331SOL    HW228893   2.634   5.186   4.895
 9332SOL     OW28894   6.315   6.159   0.365
 9332SOL    HW128895   6.385   6.148   0.295
 9332SOL    HW228896   6.253   6.080   0.363
 9333SOL     OW28897   1.116   5.505   0.997
 9333SOL    HW128898   1.167   5.422   1.021
 9333SOL    HW228899   1.095   5.556   1.080
 9334SOL     OW28900   0.005   6.554   0.447
 9334SOL    HW128901   6.996   6.504   0.527
 9334SOL    HW228902   0.104   6.540   0.437
 9335SOL     OW28903   0.138   3.616   1.056
 9335SOL    HW128904   0.218   3.570   1.017
 9335SOL    HW228905   0.136   3.711   1.027
 9336SOL     OW28906   4.418   5.596   5.634
 9336SOL    HW128907   4.483   5.528   5.601
 9336SOL    HW228908   4.325   5.570   5.607
 9337SOL     OW28909   2.857   1.748   4.649
 9337SOL    HW128910   2.770   1.778   4.610
 9337SOL    HW228911   2.885   1.813   4.720
 9338SOL     OW28912   4.145   0.110   1.823
 9338SOL    HW128913   4.112   0.129   1.915
 9338SOL    HW228914   4.224   0.049   1.827
 9339SOL     OW28915   0.132   3.655   4.319
 9339SOL    HW128916   0.154   3.580   4.381
 9339SOL    HW228917   0.198   3.729   4.333
 9340SOL     OW28918   2.754   4.744   2.175
 9340SOL    HW128919   2.819   4.688   2.124
 9340SOL    HW228920   2.669   4.752   2.124
 9341SOL     OW28921   5.265   5.869   1.698
 9341SOL    HW128922   5.238   5.837   1.789
 9341SOL    HW228923   5.262   5.792   1.633
 9342SOL     OW28924   2.980   0.416   4.593
 9342SOL    HW128925   2.971   0.515   4.601
 9342SOL    HW228926   3.073   0.393   4.562
 9343SOL     OW28927   5.650   4.003   1.133
 9343SOL    HW128928   5.688   4.072   1.071
 9343SOL    HW228929   5.711   3.989   1.210
 9344SOL     OW28930   5.206   6.301   4.972
 9344SOL    HW128931   5.212   6.263   4.879
 9344SOL    HW228932   5.194   6.400   4.966
 9345SOL     OW28933   0.104   4.832   6.388
 9345SOL    HW128934   0.058   4.745   6.369
 9345SOL    HW228935   0.167   4.819   6.465
 9346SOL     OW28936   4.876   0.809   2.314
 9346SOL    HW128937   4.945   0.783   2.382
 9346SOL    HW228938   4.785   0.789   2.351
 9347SOL     OW28939   4.712   6.539   2.364
 9347SOL    HW128940   4.631   6.596   2.380
 9347SOL    HW228941   4.686   6.459   2.309
 9348SOL     OW28942   2.326   5.380   2.145
 9348SOL    HW128943   2.344   5.423   2.234
 9348SOL    HW228944   2.339   5.281   2.153
 9349SOL     OW28945   0.689   4.741   1.502
 9349SOL    HW128946   0.733   4.651   1.509
 9349SOL    HW228947   0.658   4.769   1.593
 9350SOL     OW28948   6.308   0.786   6.984
 9350SOL    HW128949   6.381   0.718   6.982
 9350SOL    HW228950   6.306   0.835   6.897
 9351SOL     OW28951   4.559   4.014   6.266
 9351SOL    HW128952   4.492   4.011   6.192
 9351SOL    HW228953   4.523   3.966   6.346
 9352SOL     OW28954   2.627   1.799   0.364
 9352SOL    HW128955   2.572   1.717   0.377
 9352SOL    HW228956   2.571   1.881   0.375
 9353SOL     OW28957   1.081   3.229   2.253
 9353SOL    HW128958   1.086   3.134   2.282
 9353SOL    HW228959   1.143   3.243   2.175
 9354SOL     OW28960   5.778   2.111   2.324
 9354SOL    HW128961   5.766   2.150   2.233
 9354SOL    HW228962   5.815   2.019   2.317
 9355SOL     OW28963   0.453   2.066   1.927
 9355SOL    HW128964   0.404   2.114   2.000
 9355SOL    HW228965   0.401   2.072   1.842
 9356SOL     OW28966   4.618   2.371   1.978
 9356SOL    HW128967   4.683   2.335   2.045
 9356SOL    HW228968   4.641   2.467   1.958
 9357SOL     OW28969   2.127   4.255   6.831
 9357SOL    HW128970   2.174   4.209   6.906
 9357SOL    HW228971   2.103   4.348   6.858
 9358SOL     OW28972   5.322   4.440   3.408
 9358SOL    HW128973   5.235   4.491   3.403
 9358SOL    HW228974   5.389   4.484   3.348
 9359SOL     OW28975   4.207   5.383   5.321
 9359SOL    HW128976   4.115   5.404   5.289
 9359SOL    HW228977   4.238   5.297   5.281
 9360SOL     OW28978   0.904   0.258   5.446
 9360SOL    HW128979   0.878   0.321   5.518
 9360SOL    HW228980   0.990   0.288   5.404
 9361SOL     OW28981   1.141   1.548   2.376
 9361SOL    HW128982   1.115   1.464   2.329
 9361SOL    HW228983   1.059   1.597   2.405
 9362SOL     OW28984   1.166   1.591   3.025
 9362SOL    HW128985   1.094   1.633   3.080
 9362SOL    HW228986   1.253   1.598   3.073
 9363SOL     OW28987   1.133   6.199   2.410
 9363SOL    HW128988   1.201   6.258   2.451
 9363SOL    HW228989   1.044   6.213   2.454
 9364SOL     OW28990   5.826   4.075   0.710
 9364SOL    HW128991   5.768   4.014   0.655
 9364SOL    HW228992   5.812   4.169   0.681
 9365SOL     OW28993   2.583   1.183   4.254
 9365SOL    HW128994   2.608   1.122   4.329
 9365SOL    HW228995   2.486   1.174   4.234
 9366SOL     OW28996   2.549   1.478   1.241
 9366SOL    HW128997   2.551   1.530   1.156
 9366SOL    HW228998   2.565   1.381   1.222
 9367SOL     OW28999   5.207   6.509   4.612
 9367SOL    HW129000   5.235   6.597   4.651
 9367SOL    HW229001   5.202   6.516   4.513
 9368SOL     OW29002   5.449   2.931   1.034
 9368SOL    HW129003   5.537   2.957   1.074
 9368SOL    HW229004   5.375   2.978   1.083
 9369SOL     OW29005   0.424   2.393   5.598
 9369SOL    HW129006   0.496   2.388   5.529
 9369SOL    HW229007   0.460   2.358   5.685
 9370SOL     OW29008   5.712   5.574   2.103
 9370SOL    HW129009   5.653   5.558   2.024
 9370SOL    HW229010   5.692   5.665   2.141
 9371SOL     OW29011   2.164   6.881   0.592
 9371SOL    HW129012   2.109   6.963   0.571
 9371SOL    HW229013   2.243   6.878   0.531
 9372SOL     OW29014   5.309   5.414   0.614
 9372SOL    HW129015   5.278   5.498   0.660
 9372SOL    HW229016   5.246   5.340   0.635
 9373SOL     OW29017   4.729   2.929   4.645
 9373SOL    HW129018   4.804   2.960   4.587
 9373SOL    HW229019   4.677   2.858   4.597
 9374SOL     OW29020   5.168   4.020   0.120
 9374SOL    HW129021   5.265   4.003   0.105
 9374SOL    HW229022   5.146   4.114   0.096
 9375SOL     OW29023   6.432   6.735   4.328
 9375SOL    HW129024   6.529   6.721   4.307
 9375SOL    HW229025   6.393   6.802   4.264
 9376SOL     OW29026   2.727   3.624   1.633
 9376SOL    HW129027   2.772   3.637   1.721
 9376SOL    HW229028   2.663   3.547   1.639
 9377SOL     OW29029   6.900   4.686   3.734
 9377SOL    HW129030   6.929   4.595   3.763
 9377SOL    HW229031   6.830   4.678   3.663
 9378SOL     OW29032   4.435   5.775   1.654
 9378SOL    HW129033   4.418   5.784   1.555
 9378SOL    HW229034   4.355   5.732   1.697
 9379SOL     OW29035   4.531   4.724   5.168
 9379SOL    HW129036   4.483   4.660   5.108
 9379SOL    HW229037   4.630   4.716   5.153
 9380SOL     OW29038   6.982   5.547   5.505
 9380SOL    HW129039   6.919   5.509   5.437
 9380SOL    HW229040   0.052   5.542   5.470
 9381SOL     OW29041   0.732   0.581   0.000
 9381SOL    HW129042   0.689   0.661   0.041
 9381SOL    HW229043   0.683   0.499   0.030
 9382SOL     OW29044   6.200   2.165   2.131
 9382SOL    HW129045   6.218   2.128   2.223
 9382SOL    HW229046   6.129   2.235   2.137
 9383SOL     OW29047   6.822   5.713   6.884
 9383SOL    HW129048   6.907   5.738   6.838
 9383SOL    HW229049   6.784   5.631   6.841
 9384SOL     OW29050   3.350   0.050   2.499
 9384SOL    HW129051   3.336   0.148   2.512
 9384SOL    HW229052   3.381   0.009   2.584
 9385SOL     OW29053   3.975   6.013   3.790
 9385SOL    HW129054   3.984   5.996   3.888
 9385SOL    HW229055   3.931   5.935   3.746
 9386SOL     OW29056   3.315   6.759   5.058
 9386SOL    HW129057   3.221   6.794   5.062
 9386SOL    HW229058   3.317   6.666   5.094
 9387SOL     OW29059   4.685   5.922   0.994
 9387SOL    HW129060   4.653   5.832   0.966
 9387SOL    HW229061   4.673   5.987   0.919
 9388SOL     OW29062   6.554   0.169   1.560
 9388SOL    HW129063   6.512   0.133   1.643
 9388SOL    HW229064   6.612   0.099   1.518
 9389SOL     OW29065   3.260   1.273   0.869
 9389SOL    HW129066   3.350   1.231   0.867
 9389SOL    HW229067   3.213   1.246   0.953
 9390SOL     OW29068   3.643   6.158   0.931
 9390SOL    HW129069   3.613   6.067   0.902
 9390SOL    HW229070   3.566   6.205   0.976
 9391SOL     OW29071   5.628   0.486   4.053
 9391SOL    HW129072   5.635   0.550   4.129
 9391SOL    HW229073   5.541   0.436   4.059
 9392SOL     OW29074   0.899   6.797   5.229
 9392SOL    HW129075   0.967   6.865   5.256
 9392SOL    HW229076   0.906   6.778   5.132
 9393SOL     OW29077   4.803   1.412   5.502
 9393SOL    HW129078   4.763   1.334   5.454
 9393SOL    HW229079   4.782   1.406   5.599
 9394SOL     OW29080   6.075   1.548   2.300
 9394SOL    HW129081   6.071   1.477   2.230
 9394SOL    HW229082   6.074   1.638   2.256
 9395SOL     OW29083   1.796   2.923   6.749
 9395SOL    HW129084   1.705   2.947   6.716
 9395SOL    HW229085   1.793   2.904   6.847
 9396SOL     OW29086   0.481   1.009   5.469
 9396SOL    HW129087   0.499   0.915   5.497
 9396SOL    HW229088   0.567   1.058   5.457
 9397SOL     OW29089   1.601   2.139   1.092
 9397SOL    HW129090   1.630   2.080   1.167
 9397SOL    HW229091   1.501   2.144   1.089
 9398SOL     OW29092   2.399   1.913   1.429
 9398SOL    HW129093   2.310   1.869   1.441
 9398SOL    HW229094   2.468   1.865   1.484
 9399SOL     OW29095   0.067   0.661   5.363
 9399SOL    HW129096   0.037   0.746   5.406
 9399SOL    HW229097   0.048   0.584   5.425
 9400SOL     OW29098   4.116   1.402   3.783
 9400SOL    HW129099   4.118   1.327   3.849
 9400SOL    HW229100   4.096   1.488   3.830
 9401SOL     OW29101   3.994   6.704   3.832
 9401SOL    HW129102   4.083   6.690   3.789
 9401SOL    HW229103   3.960   6.616   3.866
 9402SOL     OW29104   2.498   4.848   6.100
 9402SOL    HW129105   2.449   4.862   6.186
 9402SOL    HW229106   2.548   4.762   6.103
 9403SOL     OW29107   6.197   0.453   4.186
 9403SOL    HW129108   6.136   0.511   4.240
 9403SOL    HW229109   6.165   0.451   4.091
 9404SOL     OW29110   1.830   4.595   4.956
 9404SOL    HW129111   1.828   4.566   5.052
 9404SOL    HW229112   1.747   4.647   4.935
 9405SOL     OW29113   0.416   0.627   0.987
 9405SOL    HW129114   0.405   0.703   0.923
 9405SOL    HW229115   0.338   0.625   1.050
 9406SOL     OW29116   6.252   1.633   4.888
 9406SOL    HW129117   6.166   1.627   4.836
 9406SOL    HW229118   6.231   1.654   4.984
 9407SOL     OW29119   3.595   5.562   3.563
 9407SOL    HW129120   3.587   5.656   3.597
 9407SOL    HW229121   3.691   5.543   3.541
 9408SOL     OW29122   3.442   2.088   6.751
 9408SOL    HW129123   3.535   2.106   6.784
 9408SOL    HW229124   3.383   2.065   6.829
 9409SOL     OW29125   6.354   3.980   3.508
 9409SOL    HW129126   6.326   4.055   3.567
 9409SOL    HW229127   6.433   4.007   3.453
 9410SOL     OW29128   4.352   6.928   1.815
 9410SOL    HW129129   4.403   6.842   1.817
 9410SOL    HW229130   4.387   6.985   1.741
 9411SOL     OW29131   5.345   4.549   2.188
 9411SOL    HW129132   5.407   4.552   2.266
 9411SOL    HW229133   5.388   4.500   2.112
 9412SOL     OW29134   6.734   1.815   3.419
 9412SOL    HW129135   6.793   1.866   3.356
 9412SOL    HW229136   6.699   1.877   3.489
 9413SOL     OW29137   3.877   5.549   3.489
 9413SOL    HW129138   3.927   5.542   3.403
 9413SOL    HW229139   3.858   5.457   3.523
 9414SOL     OW29140   2.332   0.363   1.999
 9414SOL    HW129141   2.258   0.304   1.968
 9414SOL    HW229142   2.414   0.308   2.014
 9415SOL     OW29143   0.951   6.963   1.944
 9415SOL    HW129144   0.891   6.991   2.019
 9415SOL    HW229145   1.046   6.986   1.966
 9416SOL     OW29146   1.162   1.992   1.379
 9416SOL    HW129147   1.200   1.966   1.290
 9416SOL    HW229148   1.104   1.918   1.414
 9417SOL     OW29149   1.102   0.420   4.541
 9417SOL    HW129150   1.155   0.339   4.567
 9417SOL    HW229151   1.040   0.396   4.466
 9418SOL     OW29152   4.033   4.421   0.753
 9418SOL    HW129153   4.052   4.515   0.781
 9418SOL    HW229154   4.114   4.364   0.768
 9419SOL     OW29155   2.291   5.945   4.007
 9419SOL    HW129156   2.270   6.043   3.998
 9419SOL    HW229157   2.378   5.934   4.057
 9420SOL     OW29158   1.416   0.482   3.021
 9420SOL    HW129159   1.439   0.546   3.093
 9420SOL    HW229160   1.450   0.391   3.044
 9421SOL     OW29161   1.805   4.524   5.211
 9421SOL    HW129162   1.888   4.477   5.241
 9421SOL    HW229163   1.735   4.457   5.188
 9422SOL     OW29164   3.767   1.262   3.111
 9422SOL    HW129165   3.818   1.294   3.032
 9422SOL    HW229166   3.678   1.226   3.081
 9423SOL     OW29167   4.367   0.017   5.283
 9423SOL    HW129168   4.321   6.966   5.234
 9423SOL    HW229169   4.316   0.102   5.271
 9424SOL     OW29170   3.147   5.630   3.292
 9424SOL    HW129171   3.102   5.686   3.362
 9424SOL    HW229172   3.165   5.539   3.329
 9425SOL     OW29173   0.265   5.603   2.137
 9425SOL    HW129174   0.302   5.566   2.222
 9425SOL    HW229175   0.192   5.668   2.159
 9426SOL     OW29176   3.502   6.030   0.621
 9426SOL    HW129177   3.516   6.118   0.665
 9426SOL    HW229178   3.436   5.976   0.674
 9427SOL     OW29179   2.731   5.239   4.104
 9427SOL    HW129180   2.755   5.288   4.188
 9427SOL    HW229181   2.664   5.168   4.124
 9428SOL     OW29182   4.656   6.286   2.233
 9428SOL    HW129183   4.615   6.230   2.305
 9428SOL    HW229184   4.618   6.261   2.145
 9429SOL     OW29185   0.193   3.796   2.812
 9429SOL    HW129186   0.099   3.767   2.800
 9429SOL    HW229187   0.255   3.724   2.780
 9430SOL     OW29188   6.425   6.931   1.715
 9430SOL    HW129189   6.428   6.872   1.634
 9430SOL    HW229190   6.518   6.954   1.743
 9431SOL     OW29191   6.679   4.702   0.434
 9431SOL    HW129192   6.691   4.754   0.350
 9431SOL    HW229193   6.701   4.761   0.512
 9432SOL     OW29194   6.352   6.717   3.757
 9432SOL    HW129195   6.293   6.701   3.678
 9432SOL    HW229196   6.303   6.693   3.841
 9433SOL     OW29197   2.446   5.213   4.430
 9433SOL    HW129198   2.360   5.163   4.422
 9433SOL    HW229199   2.478   5.238   4.339
 9434SOL     OW29200   6.149   4.601   3.771
 9434SOL    HW129201   6.131   4.694   3.802
 9434SOL    HW229202   6.201   4.604   3.685
 9435SOL     OW29203   2.725   2.425   5.998
 9435SOL    HW129204   2.647   2.434   5.935
 9435SOL    HW229205   2.729   2.507   6.056
 9436SOL     OW29206   3.664   2.237   5.386
 9436SOL    HW129207   3.653   2.308   5.456
 9436SOL    HW229208   3.593   2.248   5.316
 9437SOL     OW29209   0.451   5.866   4.519
 9437SOL    HW129210   0.415   5.952   4.555
 9437SOL    HW229211   0.449   5.868   4.419
 9438SOL     OW29212   0.311   6.331   1.480
 9438SOL    HW129213   0.349   6.274   1.407
 9438SOL    HW229214   0.313   6.280   1.566
 9439SOL     OW29215   1.942   3.060   1.319
 9439SOL    HW129216   1.953   2.961   1.311
 9439SOL    HW229217   2.020   3.098   1.369
 9440SOL     OW29218   3.194   6.027   3.738
 9440SOL    HW129219   3.160   6.120   3.723
 9440SOL    HW229220   3.117   5.967   3.757
 9441SOL     OW29221   1.038   5.125   5.758
 9441SOL    HW129222   1.001   5.191   5.693
 9441SOL    HW229223   0.996   5.140   5.848
 9442SOL     OW29224   0.904   2.790   1.269
 9442SOL    HW129225   0.947   2.700   1.272
 9442SOL    HW229226   0.874   2.816   1.360
 9443SOL     OW29227   1.378   2.048   0.842
 9443SOL    HW129228   1.348   2.097   0.923
 9443SOL    HW229229   1.335   1.958   0.839
 9444SOL     OW29230   1.325   3.964   5.231
 9444SOL    HW129231   1.322   4.005   5.139
 9444SOL    HW229232   1.333   4.036   5.299
 9445SOL     OW29233   5.820   1.774   1.867
 9445SOL    HW129234   5.889   1.702   1.857
 9445SOL    HW229235   5.729   1.737   1.851
 9446SOL     OW29236   5.583   4.594   0.577
 9446SOL    HW129237   5.485   4.573   0.585
 9446SOL    HW229238   5.604   4.621   0.484
 9447SOL     OW29239   5.892   0.954   1.757
 9447SOL    HW129240   5.813   1.007   1.788
 9447SOL    HW229241   5.870   0.857   1.760
 9448SOL     OW29242   6.011   6.467   0.217
 9448SOL    HW129243   5.993   6.558   0.253
 9448SOL    HW229244   6.106   6.442   0.236
 9449SOL     OW29245   5.759   5.360   5.056
 9449SOL    HW129246   5.750   5.336   4.960
 9449SOL    HW229247   5.722   5.451   5.072
 9450SOL     OW29248   1.987   6.123   3.986
 9450SOL    HW129249   1.924   6.199   4.005
 9450SOL    HW229250   2.008   6.075   4.071
 9451SOL     OW29251   4.186   3.578   5.122
 9451SOL    HW129252   4.162   3.635   5.200
 9451SOL    HW229253   4.284   3.562   5.121
 9452SOL     OW29254   3.921   4.776   0.645
 9452SOL    HW129255   3.870   4.707   0.592
 9452SOL    HW229256   3.857   4.837   0.690
 9453SOL     OW29257   3.650   6.111   1.294
 9453SOL    HW129258   3.558   6.141   1.320
 9453SOL    HW229259   3.666   6.129   1.197
 9454SOL     OW29260   2.118   1.945   5.740
 9454SOL    HW129261   2.126   1.990   5.652
 9454SOL    HW229262   2.106   1.847   5.727
 9455SOL     OW29263   1.811   2.411   1.936
 9455SOL    HW129264   1.904   2.391   1.906
 9455SOL    HW229265   1.770   2.477   1.872
 9456SOL     OW29266   1.283   3.255   0.369
 9456SOL    HW129267   1.277   3.229   0.466
 9456SOL    HW229268   1.295   3.173   0.313
 9457SOL     OW29269   5.962   4.061   0.368
 9457SOL    HW129270   5.897   4.096   0.435
 9457SOL    HW229271   6.008   3.980   0.405
 9458SOL     OW29272   0.838   5.982   3.822
 9458SOL    HW129273   0.771   6.050   3.792
 9458SOL    HW229274   0.883   5.942   3.743
 9459SOL     OW29275   3.972   6.443   0.577
 9459SOL    HW129276   3.990   6.468   0.672
 9459SOL    HW229277   3.946   6.346   0.572
 9460SOL     OW29278   1.519   3.763   5.204
 9460SOL    HW129279   1.468   3.846   5.226
 9460SOL    HW229280   1.456   3.686   5.196
 9461SOL     OW29281   1.644   0.435   2.755
 9461SOL    HW129282   1.668   0.487   2.837
 9461SOL    HW229283   1.591   0.493   2.693
 9462SOL     OW29284   0.399   3.260   3.827
 9462SOL    HW129285   0.415   3.335   3.763
 9462SOL    HW229286   0.371   3.297   3.916
 9463SOL     OW29287   5.254   2.173   6.310
 9463SOL    HW129288   5.345   2.213   6.296
 9463SOL    HW229289   5.259   2.074   6.297
 9464SOL     OW29290   4.012   6.661   6.680
 9464SOL    HW129291   3.989   6.652   6.776
 9464SOL    HW229292   4.104   6.626   6.664
 9465SOL     OW29293   4.232   6.285   4.288
 9465SOL    HW129294   4.255   6.235   4.204
 9465SOL    HW229295   4.279   6.242   4.365
 9466SOL     OW29296   3.523   1.944   6.486
 9466SOL    HW129297   3.437   1.906   6.452
 9466SOL    HW229298   3.514   1.965   6.583
 9467SOL     OW29299   1.458   3.127   2.268
 9467SOL    HW129300   1.395   3.169   2.203
 9467SOL    HW229301   1.552   3.147   2.241
 9468SOL     OW29302   0.602   2.162   6.176
 9468SOL    HW129303   0.532   2.122   6.236
 9468SOL    HW229304   0.590   2.262   6.173
 9469SOL     OW29305   0.643   4.297   2.593
 9469SOL    HW129306   0.603   4.208   2.613
 9469SOL    HW229307   0.742   4.288   2.582
 9470SOL     OW29308   6.356   3.896   2.138
 9470SOL    HW129309   6.455   3.887   2.123
 9470SOL    HW229310   6.313   3.925   2.052
 9471SOL     OW29311   6.836   2.323   5.750
 9471SOL    HW129312   6.921   2.307   5.800
 9471SOL    HW229313   6.817   2.421   5.748
 9472SOL     OW29314   6.760   2.127   5.082
 9472SOL    HW129315   6.832   2.068   5.119
 9472SOL    HW229316   6.800   2.194   5.020
 9473SOL     OW29317   2.807   4.729   5.663
 9473SOL    HW129318   2.752   4.803   5.625
 9473SOL    HW229319   2.899   4.732   5.623
 9474SOL     OW29320   4.054   5.727   4.214
 9474SOL    HW129321   4.037   5.825   4.224
 9474SOL    HW229322   4.150   5.712   4.193
 9475SOL     OW29323   2.373   3.401   1.389
 9475SOL    HW129324   2.392   3.459   1.468
 9475SOL    HW229325   2.304   3.333   1.414
 9476SOL     OW29326   2.408   3.697   5.705
 9476SOL    HW129327   2.332   3.755   5.735
 9476SOL    HW229328   2.381   3.649   5.621
 9477SOL     OW29329   1.265   2.864   0.374
 9477SOL    HW129330   1.289   2.957   0.346
 9477SOL    HW229331   1.232   2.812   0.295
 9478SOL     OW29332   5.805   3.773   6.422
 9478SOL    HW129333   5.721   3.801   6.377
 9478SOL    HW229334   5.880   3.832   6.392
 9479SOL     OW29335   5.553   4.599   5.028
 9479SOL    HW129336   5.461   4.564   5.011
 9479SOL    HW229337   5.591   4.636   4.943
 9480SOL     OW29338   6.845   3.392   6.138
 9480SOL    HW129339   6.780   3.419   6.209
 9480SOL    HW229340   6.838   3.293   6.123
 9481SOL     OW29341   0.540   2.294   2.908
 9481SOL    HW129342   0.618   2.240   2.941
 9481SOL    HW229343   0.558   2.391   2.924
 9482SOL     OW29344   4.642   1.564   1.959
 9482SOL    HW129345   4.584   1.593   2.035
 9482SOL    HW229346   4.590   1.502   1.900
 9483SOL     OW29347   1.988   0.858   0.672
 9483SOL    HW129348   1.908   0.870   0.613
 9483SOL    HW229349   1.990   0.764   0.706
 9484SOL     OW29350   6.012   0.177   3.512
 9484SOL    HW129351   6.104   0.158   3.477
 9484SOL    HW229352   6.003   0.275   3.531
 9485SOL     OW29353   0.033   6.759   3.203
 9485SOL    HW129354   0.054   6.675   3.254
 9485SOL    HW229355   0.083   6.836   3.244
 9486SOL     OW29356   3.087   0.056   2.272
 9486SOL    HW129357   3.161   0.060   2.204
 9486SOL    HW229358   3.010   0.112   2.240
 9487SOL     OW29359   3.412   3.060   3.203
 9487SOL    HW129360   3.478   3.129   3.234
 9487SOL    HW229361   3.461   2.983   3.163
 9488SOL     OW29362   1.960   0.495   1.505
 9488SOL    HW129363   2.028   0.487   1.578
 9488SOL    HW229364   1.870   0.513   1.546
 9489SOL     OW29365   2.503   4.670   0.914
 9489SOL    HW129366   2.449   4.724   0.978
 9489SOL    HW229367   2.534   4.728   0.838
 9490SOL     OW29368   4.955   1.634   0.467
 9490SOL    HW129369   4.860   1.604   0.459
 9490SOL    HW229370   4.962   1.729   0.439
 9491SOL     OW29371   5.617   6.116   6.109
 9491SOL    HW129372   5.688   6.061   6.065
 9491SOL    HW229373   5.537   6.120   6.049
 9492SOL     OW29374   2.461   5.589   0.893
 9492SOL    HW129375   2.510   5.506   0.868
 9492SOL    HW229376   2.506   5.633   0.971
 9493SOL     OW29377   5.177   6.151   2.575
 9493SOL    HW129378   5.272   6.150   2.545
 9493SOL    HW229379   5.156   6.240   2.616
 9494SOL     OW29380   3.640   3.512   6.615
 9494SOL    HW129381   3.712   3.520   6.546
 9494SOL    HW229382   3.679   3.526   6.706
 9495SOL     OW29383   5.465   2.679   4.328
 9495SOL    HW129384   5.437   2.764   4.373
 9495SOL    HW229385   5.469   2.605   4.395
 9496SOL     OW29386   6.547   4.313   6.689
 9496SOL    HW129387   6.558   4.219   6.658
 9496SOL    HW229388   6.458   4.324   6.734
 9497SOL     OW29389   1.206   5.921   6.069
 9497SOL    HW129390   1.198   5.988   5.995
 9497SOL    HW229391   1.166   5.834   6.041
 9498SOL     OW29392   4.364   6.841   6.555
 9498SOL    HW129393   4.343   6.939   6.548
 9498SOL    HW229394   4.290   6.788   6.514
 9499SOL     OW29395   4.930   4.190   5.711
 9499SOL    HW129396   4.940   4.142   5.798
 9499SOL    HW229397   5.018   4.229   5.684
 9500SOL     OW29398   4.527   5.725   0.848
 9500SOL    HW129399   4.477   5.648   0.886
 9500SOL    HW229400   4.599   5.692   0.787
 9501SOL     OW29401   3.214   1.624   4.928
 9501SOL    HW129402   3.129   1.633   4.981
 9501SOL    HW229403   3.218   1.697   4.860
 9502SOL     OW29404   3.603   3.263   6.055
 9502SOL    HW129405   3.630   3.356   6.032
 9502SOL    HW229406   3.558   3.220   5.977
 9503SOL     OW29407   1.097   6.743   1.387
 9503SOL    HW129408   1.181   6.786   1.422
 9503SOL    HW229409   1.066   6.793   1.306
 9504SOL     OW29410   0.177   2.861   0.626
 9504SOL    HW129411   0.185   2.852   0.527
 9504SOL    HW229412   0.267   2.846   0.668
 9505SOL     OW29413   4.879   3.227   3.228
 9505SOL    HW129414   4.892   3.211   3.130
 9505SOL    HW229415   4.887   3.325   3.246
 9506SOL     OW29416   6.474   2.120   1.191
 9506SOL    HW129417   6.528   2.198   1.223
 9506SOL    HW229418   6.427   2.145   1.107
 9507SOL     OW29419   1.282   3.279   5.505
 9507SOL    HW129420   1.227   3.261   5.586
 9507SOL    HW229421   1.378   3.257   5.524
 9508SOL     OW29422   4.332   1.161   5.349
 9508SOL    HW129423   4.396   1.131   5.420
 9508SOL    HW229424   4.365   1.132   5.259
 9509SOL     OW29425   3.714   0.075   6.301
 9509SOL    HW129426   3.652   0.136   6.350
 9509SOL    HW229427   3.697   7.004   6.329
 9510SOL     OW29428   6.876   4.594   2.934
 9510SOL    HW129429   6.955   4.595   2.872
 9510SOL    HW229430   6.860   4.501   2.965
 9511SOL     OW29431   2.155   1.796   1.435
 9511SOL    HW129432   2.137   1.734   1.359
 9511SOL    HW229433   2.079   1.859   1.447
 9512SOL     OW29434   1.728   3.827   5.345
 9512SOL    HW129435   1.722   3.810   5.444
 9512SOL    HW229436   1.650   3.785   5.299
 9513SOL     OW29437   2.709   4.664   4.230
 9513SOL    HW129438   2.675   4.649   4.137
 9513SOL    HW229439   2.632   4.660   4.295
 9514SOL     OW29440   2.950   2.922   5.653
 9514SOL    HW129441   2.971   2.889   5.561
 9514SOL    HW229442   2.899   2.851   5.702
 9515SOL     OW29443   2.390   5.469   5.878
 9515SOL    HW129444   2.372   5.519   5.793
 9515SOL    HW229445   2.422   5.376   5.855
 9516SOL     OW29446   6.336   4.163   4.801
 9516SOL    HW129447   6.305   4.090   4.862
 9516SOL    HW229448   6.272   4.171   4.724
 9517SOL     OW29449   0.698   5.285   2.626
 9517SOL    HW129450   0.691   5.306   2.529
 9517SOL    HW229451   0.610   5.254   2.660
 9518SOL     OW29452   0.939   3.055   5.662
 9518SOL    HW129453   0.915   3.148   5.691
 9518SOL    HW229454   1.002   3.060   5.585
 9519SOL     OW29455   3.367   3.615   3.402
 9519SOL    HW129456   3.425   3.677   3.455
 9519SOL    HW229457   3.424   3.561   3.340
 9520SOL     OW29458   4.944   1.328   6.459
 9520SOL    HW129459   4.992   1.389   6.395
 9520SOL    HW229460   4.992   1.328   6.547
 9521SOL     OW29461   3.902   1.236   1.423
 9521SOL    HW129462   3.939   1.217   1.332
 9521SOL    HW229463   3.874   1.332   1.428
 9522SOL     OW29464   3.955   6.883   1.309
 9522SOL    HW129465   3.981   6.859   1.215
 9522SOL    HW229466   3.996   6.816   1.372
 9523SOL     OW29467   2.601   4.613   4.580
 9523SOL    HW129468   2.701   4.616   4.568
 9523SOL    HW229469   2.579   4.613   4.678
 9524SOL     OW29470   1.932   3.549   0.266
 9524SOL    HW129471   1.983   3.601   0.335
 9524SOL    HW229472   1.888   3.471   0.309
 9525SOL     OW29473   2.625   2.792   6.623
 9525SOL    HW129474   2.724   2.803   6.619
 9525SOL    HW229475   2.581   2.881   6.619
 9526SOL     OW29476   5.243   4.963   6.282
 9526SOL    HW129477   5.335   4.928   6.302
 9526SOL    HW229478   5.175   4.898   6.315
 9527SOL     OW29479   3.934   6.129   4.469
 9527SOL    HW129480   3.848   6.094   4.431
 9527SOL    HW229481   3.922   6.225   4.495
 9528SOL     OW29482   4.897   2.216   0.895
 9528SOL    HW129483   4.972   2.247   0.953
 9528SOL    HW229484   4.817   2.197   0.952
 9529SOL     OW29485   6.015   0.185   2.251
 9529SOL    HW129486   6.035   0.188   2.153
 9529SOL    HW229487   5.917   0.194   2.265
 9530SOL     OW29488   0.942   5.689   3.485
 9530SOL    HW129489   0.990   5.767   3.444
 9530SOL    HW229490   0.847   5.714   3.503
 9531SOL     OW29491   3.722   6.239   1.622
 9531SOL    HW129492   3.740   6.211   1.527
 9531SOL    HW229493   3.808   6.270   1.664
 9532SOL     OW29494   0.054   5.148   4.472
 9532SOL    HW129495   0.058   5.191   4.382
 9532SOL    HW229496   6.982   5.145   4.503
 9533SOL     OW29497   1.111   4.132   3.759
 9533SOL    HW129498   1.075   4.087   3.677
 9533SOL    HW229499   1.082   4.080   3.840
 9534SOL     OW29500   5.034   5.984   4.147
 9534SOL    HW129501   5.041   5.897   4.099
 9534SOL    HW229502   5.001   6.054   4.084
 9535SOL     OW29503   0.331   1.581   4.251
 9535SOL    HW129504   0.399   1.646   4.285
 9535SOL    HW229505   0.262   1.565   4.321
 9536SOL     OW29506   3.504   3.829   5.407
 9536SOL    HW129507   3.495   3.881   5.321
 9536SOL    HW229508   3.520   3.892   5.482
 9537SOL     OW29509   0.379   0.661   4.024
 9537SOL    HW129510   0.285   0.657   4.059
 9537SOL    HW229511   0.377   0.672   3.925
 9538SOL     OW29512   5.434   0.877   5.314
 9538SOL    HW129513   5.521   0.880   5.364
 9538SOL    HW229514   5.422   0.788   5.271
 9539SOL     OW29515   3.765   4.016   2.418
 9539SOL    HW129516   3.671   4.043   2.440
 9539SOL    HW229517   3.817   4.005   2.502
 9540SOL     OW29518   4.482   4.621   3.052
 9540SOL    HW129519   4.491   4.575   2.964
 9540SOL    HW229520   4.386   4.633   3.075
 9541SOL     OW29521   1.371   5.476   5.912
 9541SOL    HW129522   1.341   5.565   5.947
 9541SOL    HW229523   1.466   5.482   5.882
 9542SOL     OW29524   6.074   3.667   3.323
 9542SOL    HW129525   6.027   3.730   3.260
 9542SOL    HW229526   6.104   3.718   3.404
 9543SOL     OW29527   2.389   0.441   5.639
 9543SOL    HW129528   2.312   0.503   5.648
 9543SOL    HW229529   2.385   0.395   5.551
 9544SOL     OW29530   6.254   2.801   4.723
 9544SOL    HW129531   6.188   2.820   4.796
 9544SOL    HW229532   6.244   2.706   4.693
 9545SOL     OW29533   6.369   4.247   2.052
 9545SOL    HW129534   6.295   4.296   2.006
 9545SOL    HW229535   6.378   4.155   2.013
 9546SOL     OW29536   3.202   2.935   0.985
 9546SOL    HW129537   3.282   2.933   1.045
 9546SOL    HW229538   3.162   2.844   0.978
 9547SOL     OW29539   4.362   0.509   3.259
 9547SOL    HW129540   4.390   0.416   3.283
 9547SOL    HW229541   4.420   0.543   3.186
 9548SOL     OW29542   0.892   4.838   5.773
 9548SOL    HW129543   0.969   4.901   5.771
 9548SOL    HW229544   0.816   4.880   5.823
 9549SOL     OW29545   4.782   1.000   1.612
 9549SOL    HW129546   4.741   1.047   1.534
 9549SOL    HW229547   4.881   1.011   1.610
 9550SOL     OW29548   6.868   2.273   1.595
 9550SOL    HW129549   6.842   2.356   1.547
 9550SOL    HW229550   6.914   2.296   1.680
 9551SOL     OW29551   6.318   2.949   6.604
 9551SOL    HW129552   6.300   2.869   6.548
 9551SOL    HW229553   6.268   3.028   6.568
 9552SOL     OW29554   3.058   1.900   6.909
 9552SOL    HW129555   3.039   1.823   6.848
 9552SOL    HW229556   3.055   1.985   6.856
 9553SOL     OW29557   5.481   1.112   6.986
 9553SOL    HW129558   5.558   1.134   0.023
 9553SOL    HW229559   5.494   1.021   6.947
 9554SOL     OW29560   2.667   1.032   4.472
 9554SOL    HW129561   2.623   1.014   4.560
 9554SOL    HW229562   2.751   0.978   4.465
 9555SOL     OW29563   0.514   6.272   2.742
 9555SOL    HW129564   0.460   6.318   2.672
 9555SOL    HW229565   0.459   6.260   2.824
 9556SOL     OW29566   2.300   4.464   6.600
 9556SOL    HW129567   2.209   4.445   6.638
 9556SOL    HW229568   2.290   4.517   6.516
 9557SOL     OW29569   5.824   1.155   0.818
 9557SOL    HW129570   5.729   1.179   0.839
 9557SOL    HW229571   5.886   1.218   0.863
 9558SOL     OW29572   5.224   6.006   5.498
 9558SOL    HW129573   5.194   6.096   5.531
 9558SOL    HW229574   5.144   5.947   5.485
 9559SOL     OW29575   2.430   4.438   0.170
 9559SOL    HW129576   2.414   4.452   0.268
 9559SOL    HW229577   2.374   4.362   0.138
 9560SOL     OW29578   2.524   0.668   1.693
 9560SOL    HW129579   2.622   0.684   1.688
 9560SOL    HW229580   2.480   0.748   1.735
 9561SOL     OW29581   0.157   1.075   0.326
 9561SOL    HW129582   0.214   1.083   0.408
 9561SOL    HW229583   0.175   1.153   0.265
 9562SOL     OW29584   1.790   5.998   3.029
 9562SOL    HW129585   1.716   6.061   3.052
 9562SOL    HW229586   1.839   5.974   3.113
 9563SOL     OW29587   0.427   5.439   6.689
 9563SOL    HW129588   0.520   5.466   6.715
 9563SOL    HW229589   0.414   5.454   6.591
 9564SOL     OW29590   1.269   1.399   0.631
 9564SOL    HW129591   1.352   1.406   0.576
 9564SOL    HW229592   1.251   1.302   0.651
 9565SOL     OW29593   1.873   2.132   4.278
 9565SOL    HW129594   1.902   2.216   4.232
 9565SOL    HW229595   1.900   2.135   4.374
 9566SOL     OW29596   2.824   0.412   6.965
 9566SOL    HW129597   2.909   0.459   6.991
 9566SOL    HW229598   2.795   0.353   0.017
 9567SOL     OW29599   0.041   4.581   1.041
 9567SOL    HW129600   0.063   4.650   0.972
 9567SOL    HW229601   0.015   4.495   0.996
 9568SOL     OW29602   4.498   1.997   5.692
 9568SOL    HW129603   4.474   2.088   5.726
 9568SOL    HW229604   4.595   1.980   5.707
 9569SOL     OW29605   5.924   0.404   1.977
 9569SOL    HW129606   5.907   0.433   2.071
 9569SOL    HW229607   5.854   0.340   1.948
 9570SOL     OW29608   0.984   3.601   2.324
 9570SOL    HW129609   0.936   3.524   2.281
 9570SOL    HW229610   1.081   3.594   2.304
 9571SOL     OW29611   1.781   1.326   6.333
 9571SOL    HW129612   1.789   1.313   6.432
 9571SOL    HW229613   1.841   1.402   6.305
 9572SOL     OW29614   2.421   4.810   4.425
 9572SOL    HW129615   2.447   4.736   4.486
 9572SOL    HW229616   2.328   4.794   4.390
 9573SOL     OW29617   5.956   0.181   4.579
 9573SOL    HW129618   5.928   0.085   4.581
 9573SOL    HW229619   5.980   0.207   4.486
 9574SOL     OW29620   4.450   2.598   0.479
 9574SOL    HW129621   4.430   2.625   0.385
 9574SOL    HW229622   4.539   2.636   0.506
 9575SOL     OW29623   5.292   0.226   1.772
 9575SOL    HW129624   5.312   0.276   1.688
 9575SOL    HW229625   5.219   0.273   1.822
 9576SOL     OW29626   1.376   1.275   5.370
 9576SOL    HW129627   1.397   1.193   5.422
 9576SOL    HW229628   1.312   1.252   5.296
 9577SOL     OW29629   0.180   5.466   2.978
 9577SOL    HW129630   0.193   5.368   2.964
 9577SOL    HW229631   0.230   5.494   3.060
 9578SOL     OW29632   2.131   3.368   3.137
 9578SOL    HW129633   2.093   3.390   3.047
 9578SOL    HW229634   2.200   3.296   3.128
 9579SOL     OW29635   5.280   5.021   2.437
 9579SOL    HW129636   5.226   5.105   2.445
 9579SOL    HW229637   5.312   4.993   2.528
 9580SOL     OW29638   4.894   3.756   3.841
 9580SOL    HW129639   4.898   3.774   3.939
 9580SOL    HW229640   4.913   3.659   3.824
 9581SOL     OW29641   5.201   2.140   6.611
 9581SOL    HW129642   5.222   2.196   6.531
 9581SOL    HW229643   5.225   2.190   6.695
 9582SOL     OW29644   4.131   6.628   5.177
 9582SOL    HW129645   4.160   6.620   5.273
 9582SOL    HW229646   4.174   6.556   5.123
 9583SOL     OW29647   2.713   5.351   1.330
 9583SOL    HW129648   2.810   5.374   1.339
 9583SOL    HW229649   2.660   5.403   1.397
 9584SOL     OW29650   2.236   5.077   4.343
 9584SOL    HW129651   2.163   5.118   4.397
 9584SOL    HW229652   2.227   4.978   4.344
 9585SOL     OW29653   4.613   6.669   0.907
 9585SOL    HW129654   4.670   6.703   0.983
 9585SOL    HW229655   4.645   6.708   0.821
 9586SOL     OW29656   3.222   5.241   3.209
 9586SOL    HW129657   3.301   5.215   3.154
 9586SOL    HW229658   3.243   5.227   3.306
 9587SOL     OW29659   3.809   6.582   0.143
 9587SOL    HW129660   3.758   6.517   0.087
 9587SOL    HW229661   3.819   6.545   0.235
 9588SOL     OW29662   6.717   5.812   0.656
 9588SOL    HW129663   6.644   5.861   0.608
 9588SOL    HW229664   6.758   5.745   0.594
 9589SOL     OW29665   1.363   1.651   5.924
 9589SOL    HW129666   1.435   1.671   5.858
 9589SOL    HW229667   1.274   1.650   5.878
 9590SOL     OW29668   5.908   0.756   1.345
 9590SOL    HW129669   5.923   0.848   1.382
 9590SOL    HW229670   5.995   0.708   1.339
 9591SOL     OW29671   4.867   0.465   6.934
 9591SOL    HW129672   4.882   0.560   6.908
 9591SOL    HW229673   4.818   0.461   7.021
 9592SOL     OW29674   1.807   5.602   5.779
 9592SOL    HW129675   1.765   5.675   5.725
 9592SOL    HW229676   1.894   5.576   5.739
 9593SOL     OW29677   2.058   2.283   3.797
 9593SOL    HW129678   1.965   2.317   3.788
 9593SOL    HW229679   2.075   2.212   3.729
 9594SOL     OW29680   0.054   6.521   3.356
 9594SOL    HW129681   0.151   6.495   3.361
 9594SOL    HW229682   7.021   6.445   3.389
 9595SOL     OW29683   0.246   3.472   3.387
 9595SOL    HW129684   0.292   3.529   3.319
 9595SOL    HW229685   0.271   3.376   3.372
 9596SOL     OW29686   1.573   6.601   1.048
 9596SOL    HW129687   1.516   6.664   1.099
 9596SOL    HW229688   1.636   6.652   0.989
 9597SOL     OW29689   1.247   3.569   2.271
 9597SOL    HW129690   1.247   3.663   2.307
 9597SOL    HW229691   1.329   3.522   2.304
 9598SOL     OW29692   2.356   4.423   3.841
 9598SOL    HW129693   2.271   4.476   3.833
 9598SOL    HW229694   2.385   4.421   3.936
 9599SOL     OW29695   4.796   0.230   5.004
 9599SOL    HW129696   4.883   0.254   5.047
 9599SOL    HW229697   4.732   0.307   5.012
 9600SOL     OW29698   3.938   0.953   0.550
 9600SOL    HW129699   3.976   0.938   0.459
 9600SOL    HW229700   3.839   0.941   0.548
 9601SOL     OW29701   0.295   3.584   0.527
 9601SOL    HW129702   0.208   3.631   0.542
 9601SOL    HW229703   0.301   3.553   0.433
 9602SOL     OW29704   4.103   4.322   5.754
 9602SOL    HW129705   4.203   4.329   5.756
 9602SOL    HW229706   4.065   4.366   5.836
 9603SOL     OW29707   5.456   6.871   5.837
 9603SOL    HW129708   5.393   6.887   5.913
 9603SOL    HW229709   5.549   6.897   5.864
 9604SOL     OW29710   4.801   6.638   1.369
 9604SOL    HW129711   4.764   6.607   1.456
 9604SOL    HW229712   4.807   6.560   1.306
 9605SOL     OW29713   4.987   4.860   1.452
 9605SOL    HW129714   4.967   4.831   1.358
 9605SOL    HW229715   4.953   4.953   1.466
 9606SOL     OW29716   1.564   2.003   6.473
 9606SOL    HW129717   1.622   1.999   6.554
 9606SOL    HW229718   1.471   1.977   6.497
 9607SOL     OW29719   1.492   2.468   6.917
 9607SOL    HW129720   1.566   2.502   6.859
 9607SOL    HW229721   1.480   2.369   6.902
 9608SOL     OW29722   6.427   2.204   4.316
 9608SOL    HW129723   6.389   2.216   4.408
 9608SOL    HW229724   6.524   2.227   4.316
 9609SOL     OW29725   4.976   3.114   0.966
 9609SOL    HW129726   4.945   3.194   0.914
 9609SOL    HW229727   4.947   3.123   1.061
 9610SOL     OW29728   1.157   4.848   2.753
 9610SOL    HW129729   1.079   4.908   2.738
 9610SOL    HW229730   1.236   4.884   2.702
 9611SOL     OW29731   2.767   0.696   0.618
 9611SOL    HW129732   2.759   0.621   0.684
 9611SOL    HW229733   2.861   0.701   0.584
 9612SOL     OW29734   0.023   1.647   3.741
 9612SOL    HW129735   7.008   1.555   3.752
 9612SOL    HW229736   0.111   1.652   3.787
 9613SOL     OW29737   5.935   4.747   4.472
 9613SOL    HW129738   5.872   4.802   4.527
 9613SOL    HW229739   5.989   4.806   4.413
 9614SOL     OW29740   4.026   1.937   3.214
 9614SOL    HW129741   4.120   1.960   3.237
 9614SOL    HW229742   3.998   1.856   3.266
 9615SOL     OW29743   1.539   4.104   1.200
 9615SOL    HW129744   1.634   4.073   1.189
 9615SOL    HW229745   1.492   4.044   1.265
 9616SOL     OW29746   4.412   3.957   6.011
 9616SOL    HW129747   4.406   3.868   6.056
 9616SOL    HW229748   4.490   3.958   5.948
 9617SOL     OW29749   1.245   3.166   2.834
 9617SOL    HW129750   1.164   3.203   2.788
 9617SOL    HW229751   1.217   3.093   2.897
 9618SOL     OW29752   2.291   2.331   0.571
 9618SOL    HW129753   2.239   2.329   0.657
 9618SOL    HW229754   2.354   2.253   0.569
 9619SOL     OW29755   2.465   0.043   6.836
 9619SOL    HW129756   2.464   0.141   6.816
 9619SOL    HW229757   2.488   7.015   6.753
 9620SOL     OW29758   5.509   1.082   4.933
 9620SOL    HW129759   5.584   1.064   4.997
 9620SOL    HW229760   5.430   1.116   4.984
 9621SOL     OW29761   1.766   3.626   3.248
 9621SOL    HW129762   1.731   3.535   3.271
 9621SOL    HW229763   1.704   3.695   3.285
 9622SOL     OW29764   4.330   6.986   0.297
 9622SOL    HW129765   4.289   6.990   0.388
 9622SOL    HW229766   4.326   6.892   0.263
 9623SOL     OW29767   1.208   3.228   6.820
 9623SOL    HW129768   1.121   3.183   6.800
 9623SOL    HW229769   1.200   3.326   6.801
 9624SOL     OW29770   6.562   3.201   3.631
 9624SOL    HW129771   6.655   3.164   3.627
 9624SOL    HW229772   6.510   3.169   3.552
 9625SOL     OW29773   5.822   5.980   1.529
 9625SOL    HW129774   5.844   5.969   1.626
 9625SOL    HW229775   5.813   5.890   1.487
 9626SOL     OW29776   4.058   0.391   0.596
 9626SOL    HW129777   4.037   0.477   0.549
 9626SOL    HW229778   4.135   0.406   0.659
 9627SOL     OW29779   1.018   0.475   0.471
 9627SOL    HW129780   0.973   0.398   0.517
 9627SOL    HW229781   1.038   0.450   0.377
 9628SOL     OW29782   3.832   6.607   2.114
 9628SOL    HW129783   3.784   6.591   2.027
 9628SOL    HW229784   3.910   6.668   2.099
 9629SOL     OW29785   2.369   0.291   0.709
 9629SOL    HW129786   2.351   0.367   0.771
 9629SOL    HW229787   2.454   0.308   0.659
 9630SOL     OW29788   0.216   2.298   6.226
 9630SOL    HW129789   0.128   2.276   6.185
 9630SOL    HW229790   0.281   2.323   6.155
 9631SOL     OW29791   6.857   5.558   0.580
 9631SOL    HW129792   6.876   5.570   0.482
 9631SOL    HW229793   6.874   5.463   0.605
 9632SOL     OW29794   1.644   5.770   2.566
 9632SOL    HW129795   1.699   5.829   2.625
 9632SOL    HW229796   1.552   5.762   2.604
 9633SOL     OW29797   0.299   5.085   6.857
 9633SOL    HW129798   0.313   4.997   6.811
 9633SOL    HW229799   0.220   5.078   6.918
 9634SOL     OW29800   6.962   5.851   5.749
 9634SOL    HW129801   6.889   5.816   5.690
 9634SOL    HW229802   6.987   5.781   5.816
 9635SOL     OW29803   6.845   6.182   5.361
 9635SOL    HW129804   6.871   6.145   5.450
 9635SOL    HW229805   6.762   6.137   5.329
 9636SOL     OW29806   4.291   1.496   0.446
 9636SOL    HW129807   4.207   1.452   0.414
 9636SOL    HW229808   4.368   1.434   0.433
 9637SOL     OW29809   2.465   0.820   6.950
 9637SOL    HW129810   2.444   0.740   6.894
 9637SOL    HW229811   2.427   0.808   0.018
 9638SOL     OW29812   6.664   2.554   6.981
 9638SOL    HW129813   6.655   2.498   6.899
 9638SOL    HW229814   6.587   2.536   0.019
 9639SOL     OW29815   3.512   0.717   2.785
 9639SOL    HW129816   3.426   0.671   2.809
 9639SOL    HW229817   3.503   0.761   2.696
 9640SOL     OW29818   1.626   1.822   3.294
 9640SOL    HW129819   1.705   1.881   3.308
 9640SOL    HW229820   1.653   1.742   3.239
 9641SOL     OW29821   5.094   5.671   6.413
 9641SOL    HW129822   5.057   5.588   6.455
 9641SOL    HW229823   5.184   5.690   6.451
 9642SOL     OW29824   3.050   6.761   3.246
 9642SOL    HW129825   3.104   6.681   3.222
 9642SOL    HW229826   2.964   6.761   3.196
 9643SOL     OW29827   3.876   4.872   2.573
 9643SOL    HW129828   3.932   4.847   2.494
 9643SOL    HW229829   3.927   4.852   2.657
 9644SOL     OW29830   2.511   0.904   0.790
 9644SOL    HW129831   2.551   0.974   0.732
 9644SOL    HW229832   2.583   0.844   0.825
 9645SOL     OW29833   2.937   5.083   5.472
 9645SOL    HW129834   2.856   5.032   5.446
 9645SOL    HW229835   2.937   5.097   5.571
 9646SOL     OW29836   3.409   5.154   3.837
 9646SOL    HW129837   3.392   5.135   3.741
 9646SOL    HW229838   3.351   5.097   3.894
 9647SOL     OW29839   6.655   3.154   6.123
 9647SOL    HW129840   6.712   3.179   6.044
 9647SOL    HW229841   6.684   3.064   6.157
 9648SOL     OW29842   4.157   3.870   0.709
 9648SOL    HW129843   4.171   3.833   0.801
 9648SOL    HW229844   4.061   3.860   0.683
 9649SOL     OW29845   1.898   4.858   1.553
 9649SOL    HW129846   1.824   4.799   1.521
 9649SOL    HW229847   1.941   4.817   1.633
 9650SOL     OW29848   1.681   0.586   1.231
 9650SOL    HW129849   1.686   0.685   1.242
 9650SOL    HW229850   1.590   0.560   1.200
 9651SOL     OW29851   0.754   1.752   0.008
 9651SOL    HW129852   0.828   1.685   0.004
 9651SOL    HW229853   0.791   1.840   0.037
 9652SOL     OW29854   1.679   4.700   1.488
 9652SOL    HW129855   1.609   4.722   1.420
 9652SOL    HW229856   1.710   4.606   1.475
 9653SOL     OW29857   6.148   6.117   4.688
 9653SOL    HW129858   6.244   6.093   4.675
 9653SOL    HW229859   6.096   6.093   4.606
 9654SOL     OW29860   2.035   2.912   2.213
 9654SOL    HW129861   1.998   2.941   2.124
 9654SOL    HW229862   2.133   2.896   2.204
 9655SOL     OW29863   6.553   1.940   0.061
 9655SOL    HW129864   6.481   1.976   0.003
 9655SOL    HW229865   6.642   1.977   0.033
 9656SOL     OW29866   2.498   1.895   2.633
 9656SOL    HW129867   2.520   1.956   2.557
 9656SOL    HW229868   2.402   1.906   2.658
 9657SOL     OW29869   0.270   0.489   4.722
 9657SOL    HW129870   0.368   0.503   4.707
 9657SOL    HW229871   0.225   0.577   4.736
 9658SOL     OW29872   5.827   1.021   2.631
 9658SOL    HW129873   5.737   0.980   2.618
 9658SOL    HW229874   5.859   1.060   2.545
 9659SOL     OW29875   1.451   5.050   6.692
 9659SOL    HW129876   1.483   4.962   6.658
 9659SOL    HW229877   1.409   5.038   6.782
 9660SOL     OW29878   1.045   4.704   0.527
 9660SOL    HW129879   1.134   4.672   0.560
 9660SOL    HW229880   0.997   4.629   0.482
 9661SOL     OW29881   4.050   0.745   0.685
 9661SOL    HW129882   4.027   0.834   0.647
 9661SOL    HW229883   3.970   0.706   0.729
 9662SOL     OW29884   5.173   2.459   4.009
 9662SOL    HW129885   5.248   2.526   4.016
 9662SOL    HW229886   5.180   2.411   3.922
 9663SOL     OW29887   3.137   5.437   2.488
 9663SOL    HW129888   3.098   5.394   2.406
 9663SOL    HW229889   3.231   5.464   2.470
 9664SOL     OW29890   2.997   5.960   1.588
 9664SOL    HW129891   2.977   5.953   1.685
 9664SOL    HW229892   3.095   5.950   1.572
 9665SOL     OW29893   5.554   4.339   3.615
 9665SOL    HW129894   5.528   4.347   3.711
 9665SOL    HW229895   5.471   4.326   3.560
 9666SOL     OW29896   5.928   4.841   4.813
 9666SOL    HW129897   6.014   4.892   4.805
 9666SOL    HW229898   5.888   4.858   4.903
 9667SOL     OW29899   2.932   3.659   3.039
 9667SOL    HW129900   3.008   3.602   3.070
 9667SOL    HW229901   2.909   3.725   3.110
 9668SOL     OW29902   0.530   1.766   4.986
 9668SOL    HW129903   0.474   1.691   5.019
 9668SOL    HW229904   0.491   1.802   4.902
 9669SOL     OW29905   1.908   6.845   6.786
 9669SOL    HW129906   1.939   6.935   6.816
 9669SOL    HW229907   1.981   6.778   6.803
 9670SOL     OW29908   6.482   4.111   0.120
 9670SOL    HW129909   6.449   4.063   0.039
 9670SOL    HW229910   6.440   4.072   0.201
 9671SOL     OW29911   6.683   1.394   0.208
 9671SOL    HW129912   6.781   1.414   0.203
 9671SOL    HW229913   6.634   1.474   0.242
 9672SOL     OW29914   0.635   6.637   5.690
 9672SOL    HW129915   0.682   6.602   5.610
 9672SOL    HW229916   0.590   6.723   5.668
 9673SOL     OW29917   1.955   2.536   5.772
 9673SOL    HW129918   1.887   2.492   5.713
 9673SOL    HW229919   2.003   2.466   5.824
 9674SOL     OW29920   2.517   6.357   2.050
 9674SOL    HW129921   2.578   6.279   2.058
 9674SOL    HW229922   2.565   6.433   2.007
 9675SOL     OW29923   6.681   2.191   2.150
 9675SOL    HW129924   6.735   2.170   2.231
 9675SOL    HW229925   6.591   2.224   2.177
 9676SOL     OW29926   6.876   2.861   4.637
 9676SOL    HW129927   6.811   2.891   4.567
 9676SOL    HW229928   6.900   2.938   4.695
 9677SOL     OW29929   1.740   3.420   5.497
 9677SOL    HW129930   1.745   3.459   5.405
 9677SOL    HW229931   1.833   3.407   5.533
 9678SOL     OW29932   3.844   3.605   3.007
 9678SOL    HW129933   3.944   3.604   3.015
 9678SOL    HW229934   3.810   3.511   3.005
 9679SOL     OW29935   0.603   3.503   1.437
 9679SOL    HW129936   0.590   3.545   1.347
 9679SOL    HW229937   0.680   3.548   1.483
 9680SOL     OW29938   4.517   5.411   2.893
 9680SOL    HW129939   4.460   5.354   2.834
 9680SOL    HW229940   4.582   5.463   2.837
 9681SOL     OW29941   1.007   0.661   3.940
 9681SOL    HW129942   0.907   0.664   3.937
 9681SOL    HW229943   1.043   0.753   3.926
 9682SOL     OW29944   0.796   4.186   2.137
 9682SOL    HW129945   0.847   4.116   2.187
 9682SOL    HW229946   0.706   4.150   2.113
 9683SOL     OW29947   4.068   6.939   5.077
 9683SOL    HW129948   3.999   6.915   5.008
 9683SOL    HW229949   4.116   6.857   5.106
 9684SOL     OW29950   0.877   4.063   3.285
 9684SOL    HW129951   0.827   3.982   3.316
 9684SOL    HW229952   0.918   4.109   3.363
 9685SOL     OW29953   1.691   1.757   6.473
 9685SOL    HW129954   1.740   1.737   6.388
 9685SOL    HW229955   1.667   1.854   6.476
 9686SOL     OW29956   6.000   2.382   2.139
 9686SOL    HW129957   5.942   2.374   2.058
 9686SOL    HW229958   6.048   2.469   2.137
 9687SOL     OW29959   3.146   1.366   4.742
 9687SOL    HW129960   3.054   1.406   4.736
 9687SOL    HW229961   3.212   1.428   4.700
 9688SOL     OW29962   5.349   1.888   4.316
 9688SOL    HW129963   5.287   1.928   4.248
 9688SOL    HW229964   5.416   1.956   4.344
 9689SOL     OW29965   2.911   5.082   5.753
 9689SOL    HW129966   2.846   5.111   5.823
 9689SOL    HW229967   3.003   5.081   5.792
 9690SOL     OW29968   6.401   3.489   0.075
 9690SOL    HW129969   6.454   3.550   0.134
 9690SOL    HW229970   6.440   3.491   7.006
 9691SOL     OW29971   1.537   4.874   0.736
 9691SOL    HW129972   1.517   4.890   0.832
 9691SOL    HW229973   1.585   4.787   0.726
 9692SOL     OW29974   3.147   5.661   0.607
 9692SOL    HW129975   3.223   5.601   0.630
 9692SOL    HW229976   3.164   5.753   0.644
 9693SOL     OW29977   5.949   5.255   1.302
 9693SOL    HW129978   5.964   5.338   1.248
 9693SOL    HW229979   5.866   5.264   1.356
 9694SOL     OW29980   1.043   1.045   0.045
 9694SOL    HW129981   1.016   0.950   0.031
 9694SOL    HW229982   1.143   1.050   0.051
 9695SOL     OW29983   6.340   5.005   0.080
 9695SOL    HW129984   6.353   4.909   0.055
 9695SOL    HW229985   6.261   5.042   0.031
 9696SOL     OW29986   4.214   4.104   6.922
 9696SOL    HW129987   4.149   4.048   6.974
 9696SOL    HW229988   4.197   4.093   6.824
 9697SOL     OW29989   0.329   5.857   6.645
 9697SOL    HW129990   0.350   5.880   6.741
 9697SOL    HW229991   0.257   5.918   6.611
 9698SOL     OW29992   4.772   1.360   5.761
 9698SOL    HW129993   4.870   1.377   5.773
 9698SOL    HW229994   4.753   1.262   5.771
 9699SOL     OW29995   1.442   2.374   6.171
 9699SOL    HW129996   1.392   2.305   6.118
 9699SOL    HW229997   1.481   2.331   6.253
 9700SOL     OW29998   3.708   2.922   3.618
 9700SOL    HW129999   3.724   2.923   3.520
 9700SOL    HW230000   3.728   3.012   3.657
 9701SOL     OW30001   4.118   4.860   4.011
 9701SOL    HW130002   4.164   4.829   4.094
 9701SOL    HW230003   4.020   4.841   4.019
 9702SOL     OW30004   5.394   0.525   0.308
 9702SOL    HW130005   5.340   0.527   0.393
 9702SOL    HW230006   5.468   0.458   0.318
 9703SOL     OW30007   2.616   5.858   4.463
 9703SOL    HW130008   2.657   5.769   4.482
 9703SOL    HW230009   2.687   5.924   4.441
 9704SOL     OW30010   2.791   1.337   4.151
 9704SOL    HW130011   2.725   1.268   4.181
 9704SOL    HW230012   2.790   1.342   4.051
 9705SOL     OW30013   3.594   4.520   0.642
 9705SOL    HW130014   3.649   4.553   0.566
 9705SOL    HW230015   3.652   4.507   0.723
 9706SOL     OW30016   0.092   2.128   3.469
 9706SOL    HW130017   0.051   2.058   3.527
 9706SOL    HW230018   0.030   2.206   3.462
 9707SOL     OW30019   3.372   5.204   1.264
 9707SOL    HW130020   3.418   5.133   1.316
 9707SOL    HW230021   3.440   5.263   1.220
 9708SOL     OW30022   1.874   1.679   1.545
 9708SOL    HW130023   1.785   1.671   1.588
 9708SOL    HW230024   1.867   1.657   1.448
 9709SOL     OW30025   1.685   6.264   3.845
 9709SOL    HW130026   1.614   6.280   3.776
 9709SOL    HW230027   1.763   6.219   3.802
 9710SOL     OW30028   1.494   0.203   3.788
 9710SOL    HW130029   1.517   0.273   3.721
 9710SOL    HW230030   1.454   0.245   3.869
 9711SOL     OW30031   2.239   3.073   5.981
 9711SOL    HW130032   2.255   2.980   6.015
 9711SOL    HW230033   2.181   3.070   5.901
 9712SOL     OW30034   4.996   3.836   4.783
 9712SOL    HW130035   4.935   3.900   4.830
 9712SOL    HW230036   4.958   3.744   4.787
 9713SOL     OW30037   0.244   5.436   3.469
 9713SOL    HW130038   0.295   5.350   3.479
 9713SOL    HW230039   0.158   5.430   3.519
 9714SOL     OW30040   2.599   1.816   2.191
 9714SOL    HW130041   2.584   1.912   2.166
 9714SOL    HW230042   2.511   1.774   2.214
 9715SOL     OW30043   5.595   5.726   6.200
 9715SOL    HW130044   5.548   5.663   6.139
 9715SOL    HW230045   5.624   5.677   6.283
 9716SOL     OW30046   3.378   0.818   5.762
 9716SOL    HW130047   3.312   0.829   5.688
 9716SOL    HW230048   3.354   0.879   5.837
 9717SOL     OW30049   6.142   5.548   3.211
 9717SOL    HW130050   6.207   5.518   3.281
 9717SOL    HW230051   6.073   5.607   3.252
 9718SOL     OW30052   5.845   2.438   1.938
 9718SOL    HW130053   5.756   2.482   1.947
 9718SOL    HW230054   5.863   2.419   1.841
 9719SOL     OW30055   0.265   1.294   0.178
 9719SOL    HW130056   0.322   1.256   0.105
 9719SOL    HW230057   0.295   1.387   0.199
 9720SOL     OW30058   0.900   0.710   0.778
 9720SOL    HW130059   0.933   0.645   0.710
 9720SOL    HW230060   0.977   0.746   0.831
 9721SOL     OW30061   0.280   2.354   3.540
 9721SOL    HW130062   0.193   2.306   3.556
 9721SOL    HW230063   0.335   2.302   3.475
 9722SOL     OW30064   0.126   0.285   4.789
 9722SOL    HW130065   0.174   0.250   4.869
 9722SOL    HW230066   0.167   0.372   4.761
 9723SOL     OW30067   6.783   0.828   4.220
 9723SOL    HW130068   6.812   0.762   4.289
 9723SOL    HW230069   6.843   0.821   4.141
 9724SOL     OW30070   3.943   2.597   1.543
 9724SOL    HW130071   3.909   2.689   1.521
 9724SOL    HW230072   3.876   2.549   1.600
 9725SOL     OW30073   4.065   2.785   5.915
 9725SOL    HW130074   4.161   2.784   5.943
 9725SOL    HW230075   4.011   2.838   5.980
 9726SOL     OW30076   4.590   6.260   4.785
 9726SOL    HW130077   4.665   6.282   4.722
 9726SOL    HW230078   4.585   6.161   4.798
 9727SOL     OW30079   0.517   0.624   6.608
 9727SOL    HW130080   0.492   0.558   6.679
 9727SOL    HW230081   0.541   0.711   6.651
 9728SOL     OW30082   3.048   5.950   6.366
 9728SOL    HW130083   3.085   6.043   6.360
 9728SOL    HW230084   2.984   5.944   6.443
 9729SOL     OW30085   3.348   5.427   2.708
 9729SOL    HW130086   3.356   5.458   2.613
 9729SOL    HW230087   3.261   5.379   2.720
 9730SOL     OW30088   5.235   3.845   2.696
 9730SOL    HW130089   5.204   3.938   2.715
 9730SOL    HW230090   5.158   3.791   2.661
 9731SOL     OW30091   5.107   4.545   0.887
 9731SOL    HW130092   5.148   4.634   0.868
 9731SOL    HW230093   5.010   4.557   0.908
 9732SOL     OW30094   4.932   6.525   4.709
 9732SOL    HW130095   4.929   6.506   4.807
 9732SOL    HW230096   5.026   6.515   4.676
 9733SOL     OW30097   4.929   4.398   4.288
 9733SOL    HW130098   4.949   4.300   4.288
 9733SOL    HW230099   4.930   4.431   4.193
 9734SOL     OW30100   6.542   2.283   6.057
 9734SOL    HW130101   6.637   2.312   6.048
 9734SOL    HW230102   6.519   2.220   5.983
 9735SOL     OW30103   2.959   4.948   0.850
 9735SOL    HW130104   2.927   5.034   0.891
 9735SOL    HW230105   3.056   4.937   0.870
 9736SOL     OW30106   3.653   1.995   1.831
 9736SOL    HW130107   3.616   2.045   1.753
 9736SOL    HW230108   3.651   2.053   1.912
 9737SOL     OW30109   4.079   1.500   4.821
 9737SOL    HW130110   4.040   1.558   4.893
 9737SOL    HW230111   4.070   1.546   4.733
 9738SOL     OW30112   2.502   0.631   2.270
 9738SOL    HW130113   2.429   0.564   2.266
 9738SOL    HW230114   2.580   0.598   2.216
 9739SOL     OW30115   5.192   4.629   2.526
 9739SOL    HW130116   5.167   4.663   2.435
 9739SOL    HW230117   5.267   4.685   2.562
 9740SOL     OW30118   6.805   3.006   3.085
 9740SOL    HW130119   6.878   2.938   3.078
 9740SOL    HW230120   6.717   2.959   3.095
 9741SOL     OW30121   3.788   2.037   2.525
 9741SOL    HW130122   3.692   2.024   2.549
 9741SOL    HW230123   3.795   2.067   2.430
 9742SOL     OW30124   3.719   1.460   3.331
 9742SOL    HW130125   3.644   1.419   3.383
 9742SOL    HW230126   3.740   1.403   3.252
 9743SOL     OW30127   1.134   1.180   5.618
 9743SOL    HW130128   1.040   1.213   5.619
 9743SOL    HW230129   1.196   1.258   5.605
 9744SOL     OW30130   2.747   0.406   1.360
 9744SOL    HW130131   2.738   0.331   1.295
 9744SOL    HW230132   2.696   0.486   1.327
 9745SOL     OW30133   0.848   0.805   4.610
 9745SOL    HW130134   0.874   0.818   4.705
 9745SOL    HW230135   0.917   0.847   4.551
 9746SOL     OW30136   5.841   6.942   4.891
 9746SOL    HW130137   5.939   6.930   4.876
 9746SOL    HW230138   5.824   0.009   4.932
 9747SOL     OW30139   6.663   0.024   6.258
 9747SOL    HW130140   6.571   0.024   6.298
 9747SOL    HW230141   6.729   7.012   6.325
 9748SOL     OW30142   2.005   4.618   4.743
 9748SOL    HW130143   1.972   4.593   4.652
 9748SOL    HW230144   1.927   4.627   4.806
 9749SOL     OW30145   0.246   4.766   4.875
 9749SOL    HW130146   0.259   4.695   4.945
 9749SOL    HW230147   0.214   4.723   4.790
 9750SOL     OW30148   2.618   5.489   2.267
 9750SOL    HW130149   2.638   5.447   2.178
 9750SOL    HW230150   2.558   5.428   2.320
 9751SOL     OW30151   1.306   1.718   0.414
 9751SOL    HW130152   1.233   1.655   0.440
 9751SOL    HW230153   1.267   1.808   0.395
 9752SOL     OW30154   3.431   6.732   5.892
 9752SOL    HW130155   3.458   6.781   5.808
 9752SOL    HW230156   3.477   6.774   5.970
 9753SOL     OW30157   0.076   0.007   6.896
 9753SOL    HW130158   0.073   6.996   6.990
 9753SOL    HW230159   0.007   6.982   6.841
 9754SOL     OW30160   0.084   3.559   6.499
 9754SOL    HW130161   0.017   3.629   6.472
 9754SOL    HW230162   0.169   3.604   6.528
 9755SOL     OW30163   3.977   5.636   4.838
 9755SOL    HW130164   3.921   5.694   4.779
 9755SOL    HW230165   4.073   5.660   4.827
 9756SOL     OW30166   4.706   3.170   6.163
 9756SOL    HW130167   4.738   3.222   6.084
 9756SOL    HW230168   4.622   3.210   6.198
 9757SOL     OW30169   6.102   0.939   4.352
 9757SOL    HW130170   6.034   0.974   4.415
 9757SOL    HW230171   6.057   0.896   4.274
 9758SOL     OW30172   3.345   0.668   0.342
 9758SOL    HW130173   3.408   0.611   0.395
 9758SOL    HW230174   3.339   0.759   0.383
 9759SOL     OW30175   2.826   5.860   1.814
 9759SOL    HW130176   2.778   5.856   1.726
 9759SOL    HW230177   2.761   5.880   1.887
 9760SOL     OW30178   5.160   3.826   6.694
 9760SOL    HW130179   5.182   3.828   6.791
 9760SOL    HW230180   5.075   3.775   6.680
 9761SOL     OW30181   5.106   5.526   3.005
 9761SOL    HW130182   5.180   5.585   3.037
 9761SOL    HW230183   5.018   5.567   3.029
 9762SOL     OW30184   3.447   1.033   2.235
 9762SOL    HW130185   3.357   0.990   2.231
 9762SOL    HW230186   3.513   0.970   2.276
 9763SOL     OW30187   2.005   2.061   1.780
 9763SOL    HW130188   2.095   2.103   1.767
 9763SOL    HW230189   1.962   2.097   1.863
 9764SOL     OW30190   0.446   2.635   4.043
 9764SOL    HW130191   0.492   2.553   4.010
 9764SOL    HW230192   0.406   2.685   3.965
 9765SOL     OW30193   0.377   1.090   5.724
 9765SOL    HW130194   0.387   0.993   5.745
 9765SOL    HW230195   0.390   1.105   5.626
 9766SOL     OW30196   2.865   0.803   2.005
 9766SOL    HW130197   2.802   0.864   2.053
 9766SOL    HW230198   2.904   0.851   1.927
 9767SOL     OW30199   4.044   0.122   5.361
 9767SOL    HW130200   4.064   0.217   5.340
 9767SOL    HW230201   4.035   0.070   5.276
 9768SOL     OW30202   4.527   2.221   3.219
 9768SOL    HW130203   4.506   2.307   3.265
 9768SOL    HW230204   4.611   2.231   3.166
 9769SOL     OW30205   0.138   2.146   0.389
 9769SOL    HW130206   0.226   2.120   0.428
 9769SOL    HW230207   0.144   2.239   0.354
 9770SOL     OW30208   0.718   3.020   5.017
 9770SOL    HW130209   0.747   2.972   5.100
 9770SOL    HW230210   0.727   3.118   5.030
 9771SOL     OW30211   1.842   6.361   4.037
 9771SOL    HW130212   1.783   6.312   3.973
 9771SOL    HW230213   1.828   6.459   4.027
 9772SOL     OW30214   5.774   6.570   1.387
 9772SOL    HW130215   5.854   6.603   1.439
 9772SOL    HW230216   5.713   6.521   1.449
 9773SOL     OW30217   5.347   5.154   4.158
 9773SOL    HW130218   5.251   5.127   4.164
 9773SOL    HW230219   5.369   5.214   4.235
 9774SOL     OW30220   6.513   5.738   4.360
 9774SOL    HW130221   6.452   5.800   4.311
 9774SOL    HW230222   6.603   5.781   4.371
 9775SOL     OW30223   2.629   1.794   4.504
 9775SOL    HW130224   2.585   1.715   4.547
 9775SOL    HW230225   2.588   1.811   4.415
 9776SOL     OW30226   0.549   4.738   4.483
 9776SOL    HW130227   0.557   4.656   4.427
 9776SOL    HW230228   0.460   4.738   4.529
 9777SOL     OW30229   4.689   6.065   5.972
 9777SOL    HW130230   4.671   5.977   5.927
 9777SOL    HW230231   4.787   6.075   5.987
 9778SOL     OW30232   3.311   1.072   4.748
 9778SOL    HW130233   3.260   1.123   4.818
 9778SOL    HW230234   3.391   1.028   4.790
 9779SOL     OW30235   3.403   2.329   6.615
 9779SOL    HW130236   3.417   2.230   6.608
 9779SOL    HW230237   3.487   2.377   6.588
 9780SOL     OW30238   1.328   3.422   1.351
 9780SOL    HW130239   1.313   3.348   1.416
 9780SOL    HW230240   1.398   3.484   1.386
 9781SOL     OW30241   0.556   0.063   4.202
 9781SOL    HW130242   0.490   7.019   4.236
 9781SOL    HW230243   0.618   0.088   4.276
 9782SOL     OW30244   5.855   0.359   1.387
 9782SOL    HW130245   5.763   0.374   1.350
 9782SOL    HW230246   5.910   0.310   1.319
 9783SOL     OW30247   5.962   6.846   3.598
 9783SOL    HW130248   6.030   6.871   3.529
 9783SOL    HW230249   5.946   6.924   3.659
 9784SOL     OW30250   4.683   0.712   4.752
 9784SOL    HW130251   4.612   0.703   4.683
 9784SOL    HW230252   4.744   0.788   4.729
 9785SOL     OW30253   1.289   1.780   0.894
 9785SOL    HW130254   1.259   1.687   0.874
 9785SOL    HW230255   1.285   1.797   0.992
 9786SOL     OW30256   1.829   0.272   3.389
 9786SOL    HW130257   1.840   0.175   3.408
 9786SOL    HW230258   1.918   0.313   3.369
 9787SOL     OW30259   5.937   4.221   1.419
 9787SOL    HW130260   5.852   4.244   1.465
 9787SOL    HW230261   5.950   4.281   1.340
 9788SOL     OW30262   6.875   0.003   6.434
 9788SOL    HW130263   6.846   6.996   6.525
 9788SOL    HW230264   6.908   6.948   6.382
 9789SOL     OW30265   1.692   4.590   4.556
 9789SOL    HW130266   1.720   4.495   4.563
 9789SOL    HW230267   1.710   4.624   4.464
 9790SOL     OW30268   0.423   0.909   3.775
 9790SOL    HW130269   0.362   0.872   3.705
 9790SOL    HW230270   0.369   0.956   3.846
 9791SOL     OW30271   1.301   2.741   0.624
 9791SOL    HW130272   1.401   2.752   0.624
 9791SOL    HW230273   1.267   2.754   0.530
 9792SOL     OW30274   4.779   5.442   2.492
 9792SOL    HW130275   4.846   5.467   2.422
 9792SOL    HW230276   4.719   5.370   2.457
 9793SOL     OW30277   5.494   6.193   2.095
 9793SOL    HW130278   5.398   6.168   2.108
 9793SOL    HW230279   5.519   6.264   2.161
 9794SOL     OW30280   3.472   4.066   6.896
 9794SOL    HW130281   3.436   4.111   6.814
 9794SOL    HW230282   3.548   4.119   6.933
 9795SOL     OW30283   2.217   4.840   2.873
 9795SOL    HW130284   2.243   4.779   2.798
 9795SOL    HW230285   2.156   4.911   2.838
 9796SOL     OW30286   4.214   5.205   6.171
 9796SOL    HW130287   4.222   5.260   6.088
 9796SOL    HW230288   4.165   5.256   6.241
 9797SOL     OW30289   6.127   3.057   5.138
 9797SOL    HW130290   6.203   3.120   5.154
 9797SOL    HW230291   6.149   2.968   5.178
 9798SOL     OW30292   3.459   1.359   1.894
 9798SOL    HW130293   3.383   1.357   1.958
 9798SOL    HW230294   3.429   1.401   1.808
 9799SOL     OW30295   4.080   3.610   3.379
 9799SOL    HW130296   4.102   3.682   3.446
 9799SOL    HW230297   4.093   3.521   3.422
 9800SOL     OW30298   4.163   6.841   0.657
 9800SOL    HW130299   4.212   6.810   0.738
 9800SOL    HW230300   4.188   6.784   0.578
 9801SOL     OW30301   6.210   4.929   1.485
 9801SOL    HW130302   6.232   4.842   1.529
 9801SOL    HW230303   6.257   5.003   1.534
 9802SOL     OW30304   0.640   5.720   2.242
 9802SOL    HW130305   0.598   5.800   2.284
 9802SOL    HW230306   0.731   5.706   2.282
 9803SOL     OW30307   5.368   0.353   6.469
 9803SOL    HW130308   5.332   0.281   6.411
 9803SOL    HW230309   5.339   0.442   6.435
 9804SOL     OW30310   4.751   5.871   4.157
 9804SOL    HW130311   4.839   5.913   4.136
 9804SOL    HW230312   4.677   5.933   4.131
 9805SOL     OW30313   3.761   4.457   0.832
 9805SOL    HW130314   3.854   4.457   0.795
 9805SOL    HW230315   3.756   4.397   0.911
 9806SOL     OW30316   6.936   1.277   2.613
 9806SOL    HW130317   6.836   1.274   2.607
 9806SOL    HW230318   6.964   1.356   2.666
 9807SOL     OW30319   2.264   3.730   1.105
 9807SOL    HW130320   2.353   3.751   1.064
 9807SOL    HW230321   2.213   3.669   1.044
 9808SOL     OW30322   2.460   2.199   2.949
 9808SOL    HW130323   2.519   2.280   2.943
 9808SOL    HW230324   2.515   2.117   2.935
 9809SOL     OW30325   0.660   0.100   4.489
 9809SOL    HW130326   0.583   0.067   4.543
 9809SOL    HW230327   0.746   0.063   4.526
 9810SOL     OW30328   4.829   1.870   2.843
 9810SOL    HW130329   4.786   1.854   2.755
 9810SOL    HW230330   4.783   1.816   2.913
 9811SOL     OW30331   1.119   0.645   3.235
 9811SOL    HW130332   1.089   0.724   3.288
 9811SOL    HW230333   1.205   0.667   3.188
 9812SOL     OW30334   5.904   2.782   6.526
 9812SOL    HW130335   5.807   2.773   6.548
 9812SOL    HW230336   5.958   2.779   6.610
 9813SOL     OW30337   6.354   4.467   0.268
 9813SOL    HW130338   6.287   4.516   0.212
 9813SOL    HW230339   6.391   4.528   0.338
 9814SOL     OW30340   6.534   1.313   6.048
 9814SOL    HW130341   6.439   1.341   6.040
 9814SOL    HW230342   6.585   1.345   5.967
 9815SOL     OW30343   0.044   5.100   2.206
 9815SOL    HW130344   0.097   5.106   2.291
 9815SOL    HW230345   6.992   5.167   2.209
 9816SOL     OW30346   6.964   1.894   5.004
 9816SOL    HW130347   6.884   1.843   5.036
 9816SOL    HW230348   7.003   1.946   5.080
 9817SOL     OW30349   2.116   1.884   0.369
 9817SOL    HW130350   2.131   1.787   0.387
 9817SOL    HW230351   2.021   1.899   0.340
 9818SOL     OW30352   0.238   6.787   2.745
 9818SOL    HW130353   0.283   6.873   2.771
 9818SOL    HW230354   0.239   6.778   2.645
 9819SOL     OW30355   5.909   1.312   4.993
 9819SOL    HW130356   6.004   1.294   4.967
 9819SOL    HW230357   5.856   1.333   4.910
 9820SOL     OW30358   3.432   0.603   6.441
 9820SOL    HW130359   3.518   0.613   6.390
 9820SOL    HW230360   3.368   0.548   6.387
 9821SOL     OW30361   5.122   4.119   6.761
 9821SOL    HW130362   5.037   4.118   6.815
 9821SOL    HW230363   5.138   4.027   6.724
 9822SOL     OW30364   3.597   6.621   3.814
 9822SOL    HW130365   3.527   6.553   3.835
 9822SOL    HW230366   3.604   6.632   3.715
 9823SOL     OW30367   4.217   5.584   3.081
 9823SOL    HW130368   4.143   5.572   3.014
 9823SOL    HW230369   4.252   5.677   3.076
 9824SOL     OW30370   1.340   6.066   5.638
 9824SOL    HW130371   1.277   6.143   5.624
 9824SOL    HW230372   1.295   5.981   5.612
 9825SOL     OW30373   0.775   6.203   4.559
 9825SOL    HW130374   0.816   6.170   4.644
 9825SOL    HW230375   0.745   6.125   4.504
 9826SOL     OW30376   1.724   5.829   5.631
 9826SOL    HW130377   1.754   5.922   5.610
 9826SOL    HW230378   1.729   5.773   5.548
 9827SOL     OW30379   1.303   4.786   1.652
 9827SOL    HW130380   1.293   4.821   1.745
 9827SOL    HW230381   1.213   4.779   1.609
 9828SOL     OW30382   4.896   2.277   4.412
 9828SOL    HW130383   4.996   2.274   4.415
 9828SOL    HW230384   4.861   2.313   4.499
 9829SOL     OW30385   5.400   3.802   5.612
 9829SOL    HW130386   5.347   3.883   5.639
 9829SOL    HW230387   5.485   3.799   5.664
 9830SOL     OW30388   5.826   0.990   3.353
 9830SOL    HW130389   5.837   1.088   3.371
 9830SOL    HW230390   5.784   0.946   3.433
 9831SOL     OW30391   0.842   5.087   1.256
 9831SOL    HW130392   0.760   5.062   1.204
 9831SOL    HW230393   0.816   5.112   1.349
 9832SOL     OW30394   5.435   5.997   5.331
 9832SOL    HW130395   5.428   6.090   5.294
 9832SOL    HW230396   5.367   5.986   5.404
 9833SOL     OW30397   3.755   3.140   4.249
 9833SOL    HW130398   3.701   3.214   4.209
 9833SOL    HW230399   3.824   3.179   4.310
 9834SOL     OW30400   3.304   5.733   6.129
 9834SOL    HW130401   3.318   5.636   6.151
 9834SOL    HW230402   3.329   5.749   6.034
 9835SOL     OW30403   3.625   2.939   3.901
 9835SOL    HW130404   3.668   2.952   3.811
 9835SOL    HW230405   3.695   2.943   3.972
 9836SOL     OW30406   6.786   2.997   6.688
 9836SOL    HW130407   6.779   3.070   6.756
 9836SOL    HW230408   6.733   2.918   6.718
 9837SOL     OW30409   6.175   0.808   4.762
 9837SOL    HW130410   6.214   0.769   4.845
 9837SOL    HW230411   6.224   0.772   4.682
 9838SOL     OW30412   0.546   5.854   0.760
 9838SOL    HW130413   0.486   5.922   0.719
 9838SOL    HW230414   0.497   5.807   0.834
 9839SOL     OW30415   3.960   6.454   3.924
 9839SOL    HW130416   3.943   6.435   4.021
 9839SOL    HW230417   3.918   6.382   3.868
 9840SOL     OW30418   6.356   2.183   6.337
 9840SOL    HW130419   6.389   2.276   6.324
 9840SOL    HW230420   6.421   2.119   6.296
 9841SOL     OW30421   6.915   5.568   2.125
 9841SOL    HW130422   6.974   5.640   2.090
 9841SOL    HW230423   6.819   5.597   2.117
 9842SOL     OW30424   4.225   0.248   0.353
 9842SOL    HW130425   4.161   0.228   0.427
 9842SOL    HW230426   4.226   0.172   0.289
 9843SOL     OW30427   0.581   0.245   0.579
 9843SOL    HW130428   0.627   0.303   0.512
 9843SOL    HW230429   0.539   0.303   0.649
 9844SOL     OW30430   5.777   1.372   4.761
 9844SOL    HW130431   5.682   1.361   4.732
 9844SOL    HW230432   5.814   1.456   4.722
 9845SOL     OW30433   1.207   3.375   2.501
 9845SOL    HW130434   1.175   3.357   2.408
 9845SOL    HW230435   1.277   3.307   2.526
 9846SOL     OW30436   6.183   2.317   2.708
 9846SOL    HW130437   6.112   2.293   2.643
 9846SOL    HW230438   6.160   2.404   2.752
 9847SOL     OW30439   4.122   3.747   6.731
 9847SOL    HW130440   4.221   3.764   6.733
 9847SOL    HW230441   4.085   3.777   6.643
 9848SOL     OW30442   3.025   3.924   5.653
 9848SOL    HW130443   3.122   3.929   5.631
 9848SOL    HW230444   2.987   3.839   5.614
 9849SOL     OW30445   1.550   1.734   2.103
 9849SOL    HW130446   1.475   1.670   2.086
 9849SOL    HW230447   1.603   1.703   2.182
 9850SOL     OW30448   2.074   0.694   4.018
 9850SOL    HW130449   2.067   0.691   3.919
 9850SOL    HW230450   2.170   0.681   4.045
 9851SOL     OW30451   3.321   5.917   3.995
 9851SOL    HW130452   3.350   5.875   3.909
 9851SOL    HW230453   3.229   5.888   4.018
 9852SOL     OW30454   2.535   0.356   6.722
 9852SOL    HW130455   2.447   0.388   6.757
 9852SOL    HW230456   2.602   0.430   6.730
 9853SOL     OW30457   0.199   4.130   3.997
 9853SOL    HW130458   0.178   4.048   3.943
 9853SOL    HW230459   0.120   4.191   3.996
 9854SOL     OW30460   6.331   3.795   0.224
 9854SOL    HW130461   6.335   3.886   0.265
 9854SOL    HW230462   6.420   3.750   0.232
 9855SOL     OW30463   0.667   6.576   0.644
 9855SOL    HW130464   0.723   6.495   0.627
 9855SOL    HW230465   0.573   6.547   0.663
 9856SOL     OW30466   4.695   4.799   2.993
 9856SOL    HW130467   4.699   4.835   3.086
 9856SOL    HW230468   4.624   4.729   2.987
 9857SOL     OW30469   4.498   6.775   5.609
 9857SOL    HW130470   4.589   6.772   5.651
 9857SOL    HW230471   4.458   6.865   5.624
 9858SOL     OW30472   6.570   5.666   2.813
 9858SOL    HW130473   6.594   5.716   2.730
 9858SOL    HW230474   6.482   5.700   2.848
 9859SOL     OW30475   0.317   6.330   2.949
 9859SOL    HW130476   0.317   6.424   2.915
 9859SOL    HW230477   0.228   6.309   2.988
 9860SOL     OW30478   0.973   3.432   3.543
 9860SOL    HW130479   0.888   3.381   3.534
 9860SOL    HW230480   1.026   3.396   3.619
 9861SOL     OW30481   4.154   2.243   4.475
 9861SOL    HW130482   4.213   2.324   4.474
 9861SOL    HW230483   4.156   2.199   4.386
 9862SOL     OW30484   1.357   2.870   6.705
 9862SOL    HW130485   1.307   2.810   6.643
 9862SOL    HW230486   1.356   2.963   6.669
 9863SOL     OW30487   3.646   6.028   1.806
 9863SOL    HW130488   3.738   5.994   1.828
 9863SOL    HW230489   3.654   6.110   1.748
 9864SOL     OW30490   3.123   5.910   5.394
 9864SOL    HW130491   3.056   5.984   5.390
 9864SOL    HW230492   3.075   5.822   5.399
 9865SOL     OW30493   2.453   5.156   6.272
 9865SOL    HW130494   2.420   5.200   6.355
 9865SOL    HW230495   2.541   5.111   6.291
 9866SOL     OW30496   0.529   5.763   5.270
 9866SOL    HW130497   0.583   5.693   5.224
 9866SOL    HW230498   0.433   5.739   5.266
 9867SOL     OW30499   4.918   1.519   2.835
 9867SOL    HW130500   4.836   1.575   2.826
 9867SOL    HW230501   4.998   1.579   2.846
 9868SOL     OW30502   2.435   4.966   2.979
 9868SOL    HW130503   2.430   5.051   3.033
 9868SOL    HW230504   2.347   4.951   2.934
 9869SOL     OW30505   5.602   1.566   2.545
 9869SOL    HW130506   5.586   1.467   2.542
 9869SOL    HW230507   5.540   1.611   2.480
 9870SOL     OW30508   2.248   2.898   2.739
 9870SOL    HW130509   2.274   2.973   2.799
 9870SOL    HW230510   2.154   2.869   2.760
 9871SOL     OW30511   5.936   5.274   3.147
 9871SOL    HW130512   6.034   5.294   3.144
 9871SOL    HW230513   5.915   5.220   3.228
 9872SOL     OW30514   0.697   6.397   4.874
 9872SOL    HW130515   0.620   6.438   4.825
 9872SOL    HW230516   0.782   6.440   4.845
 9873SOL     OW30517   0.805   0.577   5.018
 9873SOL    HW130518   0.783   0.534   5.106
 9873SOL    HW230519   0.904   0.580   5.006
 9874SOL     OW30520   6.743   1.745   3.784
 9874SOL    HW130521   6.672   1.684   3.749
 9874SOL    HW230522   6.739   1.833   3.736
 9875SOL     OW30523   5.994   5.810   0.842
 9875SOL    HW130524   5.933   5.744   0.799
 9875SOL    HW230525   6.001   5.790   0.940
 9876SOL     OW30526   0.318   0.064   3.250
 9876SOL    HW130527   0.280   0.121   3.178
 9876SOL    HW230528   0.415   0.085   3.262
 9877SOL     OW30529   1.488   5.694   5.203
 9877SOL    HW130530   1.413   5.627   5.202
 9877SOL    HW230531   1.562   5.660   5.261
 9878SOL     OW30532   4.602   4.216   0.693
 9878SOL    HW130533   4.624   4.300   0.742
 9878SOL    HW230534   4.508   4.189   0.713
 9879SOL     OW30535   5.464   5.704   4.413
 9879SOL    HW130536   5.547   5.649   4.417
 9879SOL    HW230537   5.488   5.801   4.407
 9880SOL     OW30538   2.540   1.260   0.730
 9880SOL    HW130539   2.635   1.234   0.717
 9880SOL    HW230540   2.482   1.212   0.665
 9881SOL     OW30541   6.255   0.214   2.978
 9881SOL    HW130542   6.221   0.120   2.966
 9881SOL    HW230543   6.252   0.238   3.075
 9882SOL     OW30544   3.062   3.967   4.194
 9882SOL    HW130545   3.052   3.970   4.293
 9882SOL    HW230546   3.049   3.873   4.162
 9883SOL     OW30547   1.390   5.311   3.003
 9883SOL    HW130548   1.405   5.212   3.001
 9883SOL    HW230549   1.418   5.347   3.092
 9884SOL     OW30550   3.252   2.593   5.302
 9884SOL    HW130551   3.231   2.671   5.243
 9884SOL    HW230552   3.193   2.516   5.278
 9885SOL     OW30553   4.968   2.144   5.314
 9885SOL    HW130554   4.946   2.058   5.360
 9885SOL    HW230555   5.006   2.125   5.223
 9886SOL     OW30556   2.505   6.381   1.430
 9886SOL    HW130557   2.483   6.418   1.340
 9886SOL    HW230558   2.598   6.345   1.430
 9887SOL     OW30559   3.813   1.632   0.102
 9887SOL    HW130560   3.912   1.632   0.117
 9887SOL    HW230561   3.780   1.538   0.097
 9888SOL     OW30562   6.280   6.535   4.466
 9888SOL    HW130563   6.299   6.592   4.386
 9888SOL    HW230564   6.264   6.441   4.436
 9889SOL     OW30565   6.730   6.041   2.093
 9889SOL    HW130566   6.779   5.993   2.167
 9889SOL    HW230567   6.786   6.041   2.011
 9890SOL     OW30568   2.045   3.036   3.297
 9890SOL    HW130569   2.061   3.127   3.336
 9890SOL    HW230570   1.954   3.033   3.255
 9891SOL     OW30571   3.808   0.291   1.948
 9891SOL    HW130572   3.715   0.278   1.915
 9891SOL    HW230573   3.806   0.342   2.035
 9892SOL     OW30574   2.450   5.837   3.175
 9892SOL    HW130575   2.386   5.914   3.174
 9892SOL    HW230576   2.506   5.840   3.258
 9893SOL     OW30577   5.746   4.897   4.628
 9893SOL    HW130578   5.725   4.994   4.615
 9893SOL    HW230579   5.805   4.886   4.708
 9894SOL     OW30580   4.260   3.727   5.683
 9894SOL    HW130581   4.284   3.651   5.623
 9894SOL    HW230582   4.287   3.813   5.641
 9895SOL     OW30583   5.235   2.717   5.908
 9895SOL    HW130584   5.327   2.753   5.919
 9895SOL    HW230585   5.239   2.618   5.896
 9896SOL     OW30586   4.020   3.858   6.994
 9896SOL    HW130587   4.055   3.819   6.909
 9896SOL    HW230588   3.920   3.848   6.996
 9897SOL     OW30589   0.957   1.038   2.656
 9897SOL    HW130590   0.917   0.946   2.653
 9897SOL    HW230591   1.020   1.045   2.733
 9898SOL     OW30592   0.411   5.303   0.007
 9898SOL    HW130593   0.385   5.245   6.952
 9898SOL    HW230594   0.399   5.399   7.006
 9899SOL     OW30595   3.553   4.876   0.771
 9899SOL    HW130596   3.561   4.872   0.672
 9899SOL    HW230597   3.457   4.890   0.796
 9900SOL     OW30598   2.583   5.402   3.085
 9900SOL    HW130599   2.541   5.313   3.105
 9900SOL    HW230600   2.511   5.466   3.057
 9901SOL     OW30601   3.206   1.574   6.217
 9901SOL    HW130602   3.112   1.602   6.198
 9901SOL    HW230603   3.214   1.475   6.207
 9902SOL     OW30604   4.224   4.650   6.986
 9902SOL    HW130605   4.227   4.652   0.063
 9902SOL    HW230606   4.258   4.562   6.953
 9903SOL     OW30607   2.796   1.187   0.740
 9903SOL    HW130608   2.836   1.097   0.750
 9903SOL    HW230609   2.857   1.245   0.686
 9904SOL     OW30610   6.464   6.044   1.833
 9904SOL    HW130611   6.409   6.073   1.911
 9904SOL    HW230612   6.550   6.095   1.833
 9905SOL     OW30613   2.471   6.806   0.050
 9905SOL    HW130614   2.387   6.845   0.012
 9905SOL    HW230615   2.520   6.876   0.101
 9906SOL     OW30616   3.588   3.693   6.411
 9906SOL    HW130617   3.617   3.644   6.493
 9906SOL    HW230618   3.538   3.776   6.437
 9907SOL     OW30619   1.145   6.981   3.398
 9907SOL    HW130620   1.205   0.026   3.358
 9907SOL    HW230621   1.099   7.020   3.478
 9908SOL     OW30622   6.798   2.918   6.137
 9908SOL    HW130623   6.838   2.844   6.082
 9908SOL    HW230624   6.841   2.920   6.227
 9909SOL     OW30625   2.363   6.238   2.971
 9909SOL    HW130626   2.312   6.263   3.053
 9909SOL    HW230627   2.363   6.139   2.961
 9910SOL     OW30628   0.932   5.561   0.830
 9910SOL    HW130629   1.005   5.545   0.896
 9910SOL    HW230630   0.866   5.626   0.869
 9911SOL     OW30631   3.052   4.782   1.885
 9911SOL    HW130632   2.985   4.708   1.893
 9911SOL    HW230633   3.118   4.760   1.813
 9912SOL     OW30634   5.902   6.235   0.335
 9912SOL    HW130635   5.953   6.229   0.421
 9912SOL    HW230636   5.937   6.310   0.280
 9913SOL     OW30637   6.482   1.571   2.122
 9913SOL    HW130638   6.421   1.626   2.064
 9913SOL    HW230639   6.458   1.474   2.112
 9914SOL     OW30640   2.163   5.848   3.470
 9914SOL    HW130641   2.133   5.774   3.409
 9914SOL    HW230642   2.180   5.811   3.561
 9915SOL     OW30643   6.178   5.425   3.804
 9915SOL    HW130644   6.263   5.383   3.774
 9915SOL    HW230645   6.159   5.506   3.748
 9916SOL     OW30646   1.703   3.439   0.932
 9916SOL    HW130647   1.693   3.483   0.843
 9916SOL    HW230648   1.642   3.360   0.937
 9917SOL     OW30649   1.927   4.164   4.423
 9917SOL    HW130650   1.930   4.221   4.341
 9917SOL    HW230651   1.939   4.068   4.397
 9918SOL     OW30652   1.887   1.931   3.826
 9918SOL    HW130653   1.826   1.952   3.749
 9918SOL    HW230654   1.867   1.994   3.902
 9919SOL     OW30655   0.550   5.922   1.465
 9919SOL    HW130656   0.544   5.886   1.558
 9919SOL    HW230657   0.466   5.970   1.442
 9920SOL     OW30658   3.370   0.762   3.098
 9920SOL    HW130659   3.354   0.860   3.087
 9920SOL    HW230660   3.346   0.715   3.013
 9921SOL     OW30661   4.739   0.428   2.300
 9921SOL    HW130662   4.709   0.339   2.263
 9921SOL    HW230663   4.836   0.440   2.283
 9922SOL     OW30664   6.457   2.927   2.279
 9922SOL    HW130665   6.443   2.933   2.180
 9922SOL    HW230666   6.397   2.857   2.316
 9923SOL     OW30667   5.659   0.006   6.668
 9923SOL    HW130668   5.697   6.940   6.644
 9923SOL    HW230669   5.722   0.078   6.638
 9924SOL     OW30670   5.633   0.018   3.946
 9924SOL    HW130671   5.670   0.018   3.853
 9924SOL    HW230672   5.536   7.016   3.943
 9925SOL     OW30673   4.135   2.111   5.108
 9925SOL    HW130674   4.163   2.201   5.076
 9925SOL    HW230675   4.073   2.121   5.186
 9926SOL     OW30676   1.362   1.277   6.050
 9926SOL    HW130677   1.380   1.312   5.958
 9926SOL    HW230678   1.289   1.330   6.092
 9927SOL     OW30679   2.267   4.243   4.101
 9927SOL    HW130680   2.177   4.285   4.093
 9927SOL    HW230681   2.329   4.306   4.149
 9928SOL     OW30682   6.684   3.343   3.044
 9928SOL    HW130683   6.710   3.288   3.124
 9928SOL    HW230684   6.604   3.301   3.000
 9929SOL     OW30685   1.078   4.977   5.204
 9929SOL    HW130686   0.998   4.920   5.187
 9929SOL    HW230687   1.135   4.935   5.275
 9930SOL     OW30688   6.665   6.408   6.932
 9930SOL    HW130689   6.757   6.372   6.947
 9930SOL    HW230690   6.667   6.478   6.861
 9931SOL     OW30691   1.375   4.044   0.230
 9931SOL    HW130692   1.375   3.949   0.197
 9931SOL    HW230693   1.452   4.058   0.292
 9932SOL     OW30694   1.581   1.731   1.263
 9932SOL    HW130695   1.601   1.796   1.336
 9932SOL    HW230696   1.496   1.682   1.284
 9933SOL     OW30697   1.760   1.957   3.591
 9933SOL    HW130698   1.813   1.880   3.554
 9933SOL    HW230699   1.662   1.940   3.577
 9934SOL     OW30700   4.886   0.312   5.794
 9934SOL    HW130701   4.823   0.390   5.792
 9934SOL    HW230702   4.860   0.250   5.867
 9935SOL     OW30703   3.423   2.781   0.101
 9935SOL    HW130704   3.371   2.772   0.016
 9935SOL    HW230705   3.485   2.703   0.112
 9936SOL     OW30706   4.532   6.006   0.475
 9936SOL    HW130707   4.480   5.998   0.560
 9936SOL    HW230708   4.506   5.932   0.413
 9937SOL     OW30709   1.403   0.119   4.965
 9937SOL    HW130710   1.319   0.098   4.914
 9937SOL    HW230711   1.481   0.115   4.902
 9938SOL     OW30712   1.003   1.654   3.369
 9938SOL    HW130713   1.071   1.643   3.442
 9938SOL    HW230714   0.997   1.751   3.345
 9939SOL     OW30715   3.192   3.956   0.586
 9939SOL    HW130716   3.275   3.961   0.531
 9939SOL    HW230717   3.167   3.861   0.601
 9940SOL     OW30718   6.477   0.957   2.630
 9940SOL    HW130719   6.507   1.051   2.642
 9940SOL    HW230720   6.555   0.900   2.606
 9941SOL     OW30721   5.630   3.364   0.393
 9941SOL    HW130722   5.710   3.409   0.353
 9941SOL    HW230723   5.649   3.339   0.487
 9942SOL     OW30724   5.251   4.689   2.835
 9942SOL    HW130725   5.213   4.605   2.796
 9942SOL    HW230726   5.177   4.746   2.870
 9943SOL     OW30727   1.256   4.642   5.104
 9943SOL    HW130728   1.305   4.642   5.016
 9943SOL    HW230729   1.310   4.595   5.173
 9944SOL     OW30730   2.004   5.348   6.806
 9944SOL    HW130731   2.067   5.345   6.883
 9944SOL    HW230732   1.972   5.256   6.785
 9945SOL     OW30733   6.036   3.449   5.665
 9945SOL    HW130734   6.050   3.372   5.728
 9945SOL    HW230735   5.939   3.475   5.665
 9946SOL     OW30736   6.039   1.700   0.850
 9946SOL    HW130737   6.130   1.664   0.826
 9946SOL    HW230738   6.017   1.777   0.790
 9947SOL     OW30739   6.827   0.390   3.173
 9947SOL    HW130740   6.851   0.488   3.176
 9947SOL    HW230741   6.799   0.365   3.081
 9948SOL     OW30742   4.771   1.097   5.347
 9948SOL    HW130743   4.686   1.124   5.393
 9948SOL    HW230744   4.822   1.034   5.405
 9949SOL     OW30745   6.587   2.965   2.566
 9949SOL    HW130746   6.632   3.029   2.629
 9949SOL    HW230747   6.650   2.942   2.491
 9950SOL     OW30748   5.413   4.342   6.559
 9950SOL    HW130749   5.343   4.384   6.617
 9950SOL    HW230750   5.499   4.336   6.610
 9951SOL     OW30751   6.708   2.207   2.477
 9951SOL    HW130752   6.699   2.223   2.576
 9951SOL    HW230753   6.618   2.186   2.439
 9952SOL     OW30754   1.775   4.467   1.381
 9952SOL    HW130755   1.788   4.389   1.442
 9952SOL    HW230756   1.761   4.434   1.287
 9953SOL     OW30757   6.217   4.050   5.014
 9953SOL    HW130758   6.118   4.059   5.016
 9953SOL    HW230759   6.259   4.132   5.053
 9954SOL     OW30760   4.341   2.447   1.917
 9954SOL    HW130761   4.429   2.411   1.947
 9954SOL    HW230762   4.319   2.410   1.826
 9955SOL     OW30763   6.271   4.759   2.341
 9955SOL    HW130764   6.212   4.723   2.414
 9955SOL    HW230765   6.366   4.742   2.364
 9956SOL     OW30766   1.230   4.409   3.495
 9956SOL    HW130767   1.297   4.470   3.538
 9956SOL    HW230768   1.215   4.438   3.400
 9957SOL     OW30769   5.888   6.752   0.860
 9957SOL    HW130770   5.913   6.846   0.885
 9957SOL    HW230771   5.797   6.751   0.819
 9958SOL     OW30772   6.529   6.400   5.318
 9958SOL    HW130773   6.549   6.344   5.398
 9958SOL    HW230774   6.515   6.495   5.346
 9959SOL     OW30775   6.136   5.492   0.130
 9959SOL    HW130776   6.134   5.464   0.226
 9959SOL    HW230777   6.201   5.435   0.080
 9960SOL     OW30778   6.500   7.008   6.589
 9960SOL    HW130779   6.564   0.059   6.610
 9960SOL    HW230780   6.463   6.971   6.675
 9961SOL     OW30781   2.848   7.016   0.271
 9961SOL    HW130782   2.890   0.002   0.361
 9961SOL    HW230783   2.886   6.935   0.225
 9962SOL     OW30784   4.121   0.936   1.630
 9962SOL    HW130785   4.072   0.930   1.717
 9962SOL    HW230786   4.144   1.031   1.610
 9963SOL     OW30787   0.258   6.979   6.491
 9963SOL    HW130788   0.354   7.007   6.494
 9963SOL    HW230789   0.203   0.029   6.452
 9964SOL     OW30790   4.686   5.461   4.944
 9964SOL    HW130791   4.688   5.378   4.887
 9964SOL    HW230792   4.739   5.445   5.027
 9965SOL     OW30793   2.131   5.185   4.845
 9965SOL    HW130794   2.090   5.267   4.804
 9965SOL    HW230795   2.192   5.141   4.779
 9966SOL     OW30796   1.872   4.249   2.041
 9966SOL    HW130797   1.966   4.229   2.070
 9966SOL    HW230798   1.872   4.329   1.981
 9967SOL     OW30799   6.858   0.423   2.349
 9967SOL    HW130800   6.924   0.423   2.424
 9967SOL    HW230801   6.866   0.338   2.297
 9968SOL     OW30802   4.130   6.151   0.211
 9968SOL    HW130803   4.177   6.115   0.292
 9968SOL    HW230804   4.192   6.150   0.133
 9969SOL     OW30805   0.842   6.990   2.865
 9969SOL    HW130806   0.885   6.951   2.784
 9969SOL    HW230807   0.838   6.921   2.937
 9970SOL     OW30808   1.019   3.036   1.462
 9970SOL    HW130809   1.041   3.032   1.365
 9970SOL    HW230810   1.089   2.988   1.514
 9971SOL     OW30811   0.447   5.619   5.989
 9971SOL    HW130812   0.389   5.620   5.907
 9971SOL    HW230813   0.425   5.539   6.044
 9972SOL     OW30814   3.182   4.558   5.697
 9972SOL    HW130815   3.102   4.505   5.669
 9972SOL    HW230816   3.252   4.496   5.734
 9973SOL     OW30817   3.197   2.135   2.579
 9973SOL    HW130818   3.261   2.133   2.502
 9973SOL    HW230819   3.205   2.050   2.632
 9974SOL     OW30820   0.411   3.594   3.165
 9974SOL    HW130821   0.429   3.687   3.132
 9974SOL    HW230822   0.442   3.528   3.096
 9975SOL     OW30823   1.551   4.748   6.845
 9975SOL    HW130824   1.553   4.732   6.746
 9975SOL    HW230825   1.459   4.729   6.880
 9976SOL     OW30826   4.250   5.728   4.844
 9976SOL    HW130827   4.324   5.765   4.788
 9976SOL    HW230828   4.289   5.676   4.920
 9977SOL     OW30829   3.996   0.362   5.807
 9977SOL    HW130830   3.915   0.343   5.752
 9977SOL    HW230831   3.972   0.357   5.904
 9978SOL     OW30832   6.309   3.273   6.913
 9978SOL    HW130833   6.392   3.328   6.922
 9978SOL    HW230834   6.334   3.180   6.883
 9979SOL     OW30835   3.461   4.051   3.516
 9979SOL    HW130836   3.530   4.095   3.573
 9979SOL    HW230837   3.372   4.058   3.560
 9980SOL     OW30838   6.989   6.684   6.640
 9980SOL    HW130839   0.053   6.663   6.597
 9980SOL    HW230840   6.930   6.603   6.638
 9981SOL     OW30841   5.351   0.975   1.148
 9981SOL    HW130842   5.257   1.009   1.143
 9981SOL    HW230843   5.414   1.053   1.145
 9982SOL     OW30844   2.606   1.699   5.151
 9982SOL    HW130845   2.617   1.676   5.054
 9982SOL    HW230846   2.570   1.620   5.200
 9983SOL     OW30847   0.648   2.659   1.881
 9983SOL    HW130848   0.665   2.753   1.912
 9983SOL    HW230849   0.613   2.605   1.957
 9984SOL     OW30850   1.377   4.933   0.980
 9984SOL    HW130851   1.337   4.988   1.054
 9984SOL    HW230852   1.305   4.885   0.931
 9985SOL     OW30853   5.467   4.825   6.336
 9985SOL    HW130854   5.495   4.845   6.429
 9985SOL    HW230855   5.538   4.770   6.291
 9986SOL     OW30856   5.799   4.238   6.941
 9986SOL    HW130857   5.803   4.327   6.987
 9986SOL    HW230858   5.737   4.244   6.864
 9987SOL     OW30859   5.144   1.632   0.673
 9987SOL    HW130860   5.194   1.718   0.670
 9987SOL    HW230861   5.091   1.621   0.589
 9988SOL     OW30862   5.201   6.807   4.099
 9988SOL    HW130863   5.111   6.782   4.064
 9988SOL    HW230864   5.249   6.724   4.129
 9989SOL     OW30865   6.517   5.132   2.170
 9989SOL    HW130866   6.614   5.111   2.184
 9989SOL    HW230867   6.483   5.186   2.246
 9990SOL     OW30868   0.220   6.044   2.819
 9990SOL    HW130869   0.131   5.999   2.831
 9990SOL    HW230870   0.206   6.140   2.796
 9991SOL     OW30871   1.957   3.428   1.861
 9991SOL    HW130872   1.891   3.494   1.826
 9991SOL    HW230873   2.035   3.477   1.901
 9992SOL     OW30874   2.136   4.103   0.424
 9992SOL    HW130875   2.180   4.166   0.488
 9992SOL    HW230876   2.037   4.104   0.440
 9993SOL     OW30877   3.735   7.012   4.362
 9993SOL    HW130878   3.646   7.018   4.317
 9993SOL    HW230879   3.766   0.080   4.386
 9994SOL     OW30880   5.887   4.780   5.433
 9994SOL    HW130881   5.831   4.756   5.512
 9994SOL    HW230882   5.830   4.822   5.363
 9995SOL     OW30883   4.590   1.793   6.177
 9995SOL    HW130884   4.580   1.744   6.091
 9995SOL    HW230885   4.607   1.890   6.158
 9996SOL     OW30886   2.525   4.628   1.380
 9996SOL    HW130887   2.497   4.533   1.367
 9996SOL    HW230888   2.608   4.645   1.327
 9997SOL     OW30889   5.500   0.255   3.074
 9997SOL    HW130890   5.492   0.343   3.120
 9997SOL    HW230891   5.513   0.270   2.976
 9998SOL     OW30892   5.613   3.932   2.497
 9998SOL    HW130893   5.538   3.944   2.432
 9998SOL    HW230894   5.592   3.979   2.583
 9999SOL     OW30895   0.839   0.520   4.532
 9999SOL    HW130896   0.936   0.497   4.535
 9999SOL    HW230897   0.826   0.615   4.558
10000SOL     OW30898   4.472   3.399   1.722
10000SOL    HW130899   4.486   3.301   1.731
10000SOL    HW230900   4.433   3.419   1.632
10001SOL     OW30901   4.082   6.688   1.503
10001SOL    HW130902   4.018   6.697   1.580
10001SOL    HW230903   4.089   6.591   1.477
10002SOL     OW30904   2.146   6.490   2.657
10002SOL    HW130905   2.053   6.484   2.620
10002SOL    HW230906   2.157   6.423   2.731
10003SOL     OW30907   0.238   1.284   2.805
10003SOL    HW130908   0.147   1.249   2.825
10003SOL    HW230909   0.304   1.247   2.871
10004SOL     OW30910   0.140   2.606   3.423
10004SOL    HW130911   0.164   2.538   3.492
10004SOL    HW230912   0.160   2.569   3.332
10005SOL     OW30913   2.835   6.047   2.389
10005SOL    HW130914   2.776   5.970   2.414
10005SOL    HW230915   2.801   6.131   2.429
10006SOL     OW30916   5.497   1.803   6.565
10006SOL    HW130917   5.550   1.815   6.649
10006SOL    HW230918   5.460   1.710   6.562
10007SOL     OW30919   1.908   4.904   3.311
10007SOL    HW130920   1.950   4.967   3.377
10007SOL    HW230921   1.831   4.949   3.267
10008SOL     OW30922   4.099   0.552   6.027
10008SOL    HW130923   4.187   0.510   6.005
10008SOL    HW230924   4.056   0.585   5.943
10009SOL     OW30925   1.309   5.421   1.903
10009SOL    HW130926   1.248   5.436   1.981
10009SOL    HW230927   1.258   5.377   1.829
10010SOL     OW30928   1.966   5.119   0.989
10010SOL    HW130929   1.911   5.036   0.977
10010SOL    HW230930   1.949   5.181   0.913
10011SOL     OW30931   3.033   3.611   0.145
10011SOL    HW130932   3.121   3.570   0.170
10011SOL    HW230933   3.043   3.657   0.056
10012SOL     OW30934   5.720   1.957   3.007
10012SOL    HW130935   5.689   1.980   2.915
10012SOL    HW230936   5.694   1.863   3.029
10013SOL     OW30937   0.050   6.111   5.719
10013SOL    HW130938   0.003   6.024   5.708
10013SOL    HW230939   0.130   6.099   5.778
10014SOL     OW30940   1.079   1.210   3.070
10014SOL    HW130941   1.023   1.292   3.082
10014SOL    HW230942   1.020   1.129   3.068
10015SOL     OW30943   4.124   0.843   0.013
10015SOL    HW130944   4.108   0.857   0.111
10015SOL    HW230945   4.081   0.916   6.984
10016SOL     OW30946   2.627   1.152   4.949
10016SOL    HW130947   2.683   1.213   4.893
10016SOL    HW230948   2.577   1.205   5.017
10017SOL     OW30949   3.285   1.678   2.917
10017SOL    HW130950   3.255   1.773   2.925
10017SOL    HW230951   3.383   1.672   2.936
10018SOL     OW30952   6.855   4.651   5.382
10018SOL    HW130953   6.847   4.751   5.384
10018SOL    HW230954   6.835   4.614   5.472
10019SOL     OW30955   0.046   1.934   2.577
10019SOL    HW130956   0.106   1.863   2.539
10019SOL    HW230957   6.982   1.893   2.605
10020SOL     OW30958   6.705   0.860   2.922
10020SOL    HW130959   6.683   0.777   2.974
10020SOL    HW230960   6.704   0.939   2.982
10021SOL     OW30961   2.238   3.887   1.480
10021SOL    HW130962   2.250   3.788   1.467
10021SOL    HW230963   2.188   3.903   1.564
10022SOL     OW30964   1.074   6.548   6.065
10022SOL    HW130965   1.059   6.646   6.049
10022SOL    HW230966   1.045   6.525   6.158
10023SOL     OW30967   1.087   1.513   4.977
10023SOL    HW130968   1.042   1.424   4.983
10023SOL    HW230969   1.044   1.577   5.041
10024SOL     OW30970   1.886   3.958   3.388
10024SOL    HW130971   1.809   3.956   3.451
10024SOL    HW230972   1.948   3.882   3.408
10025SOL     OW30973   0.617   2.729   1.401
10025SOL    HW130974   0.657   2.686   1.321
10025SOL    HW230975   0.664   2.816   1.419
10026SOL     OW30976   6.462   1.295   4.632
10026SOL    HW130977   6.419   1.316   4.545
10026SOL    HW230978   6.454   1.375   4.693
10027SOL     OW30979   3.227   1.391   5.990
10027SOL    HW130980   3.223   1.327   5.914
10027SOL    HW230981   3.178   1.475   5.965
10028SOL     OW30982   3.741   6.147   2.126
10028SOL    HW130983   3.794   6.229   2.150
10028SOL    HW230984   3.800   6.066   2.132
10029SOL     OW30985   0.123   5.236   3.946
10029SOL    HW130986   0.222   5.232   3.931
10029SOL    HW230987   0.088   5.144   3.960
10030SOL     OW30988   2.716   6.870   4.032
10030SOL    HW130989   2.744   6.808   3.959
10030SOL    HW230990   2.796   6.894   4.088
10031SOL     OW30991   1.540   6.674   3.740
10031SOL    HW130992   1.472   6.630   3.681
10031SOL    HW230993   1.527   6.773   3.738
10032SOL     OW30994   2.731   5.647   4.579
10032SOL    HW130995   2.693   5.555   4.587
10032SOL    HW230996   2.778   5.672   4.664
10033SOL     OW30997   1.973   1.449   4.710
10033SOL    HW130998   2.037   1.453   4.633
10033SOL    HW230999   1.880   1.469   4.677
10034SOL     OW31000   2.336   1.449   2.010
10034SOL    HW131001   2.424   1.480   1.975
10034SOL    HW231002   2.348   1.360   2.054
10035SOL     OW31003   0.354   2.804   2.307
10035SOL    HW131004   0.347   2.853   2.221
10035SOL    HW231005   0.377   2.708   2.289
10036SOL     OW31006   0.383   1.547   0.192
10036SOL    HW131007   0.327   1.589   0.120
10036SOL    HW231008   0.372   1.598   0.277
10037SOL     OW31009   6.109   0.772   6.114
10037SOL    HW131010   6.169   0.697   6.143
10037SOL    HW231011   6.074   0.819   6.195
10038SOL     OW31012   4.523   0.160   6.703
10038SOL    HW131013   4.438   0.172   6.754
10038SOL    HW231014   4.581   0.094   6.750
10039SOL     OW31015   0.100   4.983   1.282
10039SOL    HW131016   0.166   5.058   1.291
10039SOL    HW231017   0.043   4.999   1.202
10040SOL     OW31018   2.971   0.481   0.444
10040SOL    HW131019   3.007   0.546   0.511
10040SOL    HW231020   2.973   0.522   0.353
10041SOL     OW31021   5.683   4.329   5.318
10041SOL    HW131022   5.740   4.348   5.239
10041SOL    HW231023   5.704   4.394   5.391
10042SOL     OW31024   6.256   0.729   5.248
10042SOL    HW131025   6.194   0.655   5.222
10042SOL    HW231026   6.304   0.705   5.332
10043SOL     OW31027   0.531   0.380   2.845
10043SOL    HW131028   0.570   0.435   2.771
10043SOL    HW231029   0.601   0.363   2.914
10044SOL     OW31030   3.134   2.326   6.587
10044SOL    HW131031   3.112   2.423   6.578
10044SOL    HW231032   3.233   2.314   6.577
10045SOL     OW31033   4.076   6.978   4.283
10045SOL    HW131034   4.038   6.979   4.191
10045SOL    HW231035   4.010   7.020   4.346
10046SOL     OW31036   6.751   2.044   1.130
10046SOL    HW131037   6.652   2.056   1.140
10046SOL    HW231038   6.790   2.013   1.216
10047SOL     OW31039   0.874   2.804   3.133
10047SOL    HW131040   0.931   2.776   3.055
10047SOL    HW231041   0.895   2.747   3.212
10048SOL     OW31042   3.187   2.185   1.741
10048SOL    HW131043   3.127   2.206   1.664
10048SOL    HW231044   3.134   2.186   1.826
10049SOL     OW31045   1.167   5.463   4.826
10049SOL    HW131046   1.127   5.441   4.915
10049SOL    HW231047   1.254   5.415   4.816
10050SOL     OW31048   5.860   1.171   5.396
10050SOL    HW131049   5.912   1.245   5.354
10050SOL    HW231050   5.923   1.109   5.444
10051SOL     OW31051   6.155   1.697   0.468
10051SOL    HW131052   6.193   1.700   0.560
10051SOL    HW231053   6.155   1.603   0.434
10052SOL     OW31054   1.563   5.351   1.054
10052SOL    HW131055   1.538   5.281   0.988
10052SOL    HW231056   1.619   5.421   1.010
10053SOL     OW31057   3.064   6.609   3.633
10053SOL    HW131058   3.076   6.699   3.590
10053SOL    HW231059   2.980   6.567   3.599
10054SOL     OW31060   4.831   4.526   3.793
10054SOL    HW131061   4.802   4.487   3.706
10054SOL    HW231062   4.751   4.537   3.853
10055SOL     OW31063   5.071   2.748   6.867
10055SOL    HW131064   5.031   2.805   6.795
10055SOL    HW231065   5.088   2.803   6.948
10056SOL     OW31066   4.888   3.764   2.956
10056SOL    HW131067   4.851   3.808   3.038
10056SOL    HW231068   4.965   3.707   2.981
10057SOL     OW31069   2.457   2.605   2.647
10057SOL    HW131070   2.369   2.621   2.602
10057SOL    HW231071   2.528   2.593   2.579
10058SOL     OW31072   1.056   4.893   3.892
10058SOL    HW131073   0.973   4.882   3.837
10058SOL    HW231074   1.070   4.990   3.911
10059SOL     OW31075   4.624   6.431   1.853
10059SOL    HW131076   4.710   6.477   1.873
10059SOL    HW231077   4.610   6.427   1.754
10060SOL     OW31078   2.386   2.318   2.377
10060SOL    HW131079   2.366   2.265   2.459
10060SOL    HW231080   2.449   2.267   2.319
10061SOL     OW31081   0.363   1.697   5.595
10061SOL    HW131082   0.267   1.700   5.567
10061SOL    HW231083   0.418   1.661   5.520
10062SOL     OW31084   5.452   5.799   3.181
10062SOL    HW131085   5.400   5.807   3.096
10062SOL    HW231086   5.533   5.742   3.165
10063SOL     OW31087   0.813   2.553   2.427
10063SOL    HW131088   0.907   2.583   2.409
10063SOL    HW231089   0.770   2.616   2.491
10064SOL     OW31090   5.115   4.899   5.889
10064SOL    HW131091   5.069   4.881   5.802
10064SOL    HW231092   5.061   4.861   5.964
10065SOL     OW31093   0.327   0.224   2.971
10065SOL    HW131094   0.245   0.282   2.974
10065SOL    HW231095   0.397   0.269   2.916
10066SOL     OW31096   6.977   0.451   4.265
10066SOL    HW131097   6.888   0.444   4.310
10066SOL    HW231098   0.027   0.452   4.334
10067SOL     OW31099   4.767   6.472   3.444
10067SOL    HW131100   4.750   6.570   3.430
10067SOL    HW231101   4.684   6.421   3.421
10068SOL     OW31102   5.491   3.388   5.414
10068SOL    HW131103   5.539   3.326   5.477
10068SOL    HW231104   5.424   3.336   5.361
10069SOL     OW31105   4.585   1.728   4.436
10069SOL    HW131106   4.645   1.671   4.380
10069SOL    HW231107   4.536   1.792   4.377
10070SOL     OW31108   1.388   0.015   4.305
10070SOL    HW131109   1.436   6.969   4.359
10070SOL    HW231110   1.378   0.098   4.359
10071SOL     OW31111   4.951   4.548   5.251
10071SOL    HW131112   4.968   4.560   5.349
10071SOL    HW231113   5.024   4.492   5.212
10072SOL     OW31114   0.740   6.258   4.141
10072SOL    HW131115   0.791   6.278   4.058
10072SOL    HW231116   0.644   6.285   4.129
10073SOL     OW31117   6.813   6.156   6.024
10073SOL    HW131118   6.796   6.163   5.926
10073SOL    HW231119   6.747   6.213   6.074
10074SOL     OW31120   2.264   6.660   4.675
10074SOL    HW131121   2.252   6.758   4.666
10074SOL    HW231122   2.181   6.613   4.643
10075SOL     OW31123   0.909   2.856   4.695
10075SOL    HW131124   0.860   2.770   4.706
10075SOL    HW231125   1.007   2.840   4.705
10076SOL     OW31126   5.956   0.029   3.759
10076SOL    HW131127   6.041   0.048   3.710
10076SOL    HW231128   5.878   0.061   3.705
10077SOL     OW31129   2.542   1.528   5.769
10077SOL    HW131130   2.510   1.536   5.674
10077SOL    HW231131   2.539   1.432   5.798
10078SOL     OW31132   5.337   6.214   5.213
10078SOL    HW131133   5.404   6.282   5.243
10078SOL    HW231134   5.294   6.245   5.129
10079SOL     OW31135   0.706   2.641   6.019
10079SOL    HW131136   0.735   2.578   5.948
10079SOL    HW231137   0.742   2.732   6.000
10080SOL     OW31138   1.276   2.871   5.495
10080SOL    HW131139   1.192   2.817   5.503
10080SOL    HW231140   1.312   2.863   5.402
10081SOL     OW31141   0.770   1.062   0.496
10081SOL    HW131142   0.855   1.041   0.448
10081SOL    HW231143   0.697   1.081   0.429
10082SOL     OW31144   6.822   0.502   0.465
10082SOL    HW131145   6.757   0.574   0.439
10082SOL    HW231146   6.898   0.500   0.400
10083SOL     OW31147   5.254   1.363   4.828
10083SOL    HW131148   5.354   1.368   4.821
10083SOL    HW231149   5.220   1.443   4.877
10084SOL     OW31150   2.801   0.791   6.287
10084SOL    HW131151   2.716   0.746   6.312
10084SOL    HW231152   2.869   0.722   6.260
10085SOL     OW31153   1.061   5.575   2.933
10085SOL    HW131154   1.053   5.672   2.953
10085SOL    HW231155   0.980   5.526   2.968
10086SOL     OW31156   6.906   2.773   2.403
10086SOL    HW131157   6.850   2.845   2.362
10086SOL    HW231158   6.903   2.691   2.346
10087SOL     OW31159   2.137   0.768   3.246
10087SOL    HW131160   2.057   0.778   3.305
10087SOL    HW231161   2.135   0.677   3.203
10088SOL     OW31162   5.714   0.203   4.703
10088SOL    HW131163   5.797   0.210   4.647
10088SOL    HW231164   5.638   0.174   4.645
10089SOL     OW31165   2.297   2.824   2.146
10089SOL    HW131166   2.378   2.878   2.124
10089SOL    HW231167   2.318   2.726   2.138
10090SOL     OW31168   0.621   5.480   2.116
10090SOL    HW131169   0.695   5.417   2.141
10090SOL    HW231170   0.626   5.561   2.175
10091SOL     OW31171   0.766   1.480   4.683
10091SOL    HW131172   0.701   1.408   4.706
10091SOL    HW231173   0.791   1.472   4.586
10092SOL     OW31174   1.907   2.883   5.615
10092SOL    HW131175   2.004   2.891   5.639
10092SOL    HW231176   1.881   2.960   5.557
10093SOL     OW31177   6.525   6.789   5.974
10093SOL    HW131178   6.597   6.771   6.041
10093SOL    HW231179   6.529   6.886   5.948
10094SOL     OW31180   1.552   0.430   1.783
10094SOL    HW131181   1.465   0.477   1.794
10094SOL    HW231182   1.619   0.493   1.744
10095SOL     OW31183   0.302   2.058   5.259
10095SOL    HW131184   0.263   2.042   5.169
10095SOL    HW231185   0.262   2.140   5.299
10096SOL     OW31186   6.146   5.761   2.688
10096SOL    HW131187   6.110   5.853   2.672
10096SOL    HW231188   6.209   5.737   2.614
10097SOL     OW31189   1.302   2.822   6.052
10097SOL    HW131190   1.275   2.746   6.111
10097SOL    HW231191   1.242   2.825   5.972
10098SOL     OW31192   3.400   5.432   6.482
10098SOL    HW131193   3.489   5.466   6.514
10098SOL    HW231194   3.327   5.486   6.523
10099SOL     OW31195   0.454   3.794   4.042
10099SOL    HW131196   0.490   3.806   3.950
10099SOL    HW231197   0.407   3.706   4.048
10100SOL     OW31198   5.016   0.287   6.154
10100SOL    HW131199   5.016   0.369   6.096
10100SOL    HW231200   4.923   0.253   6.165
10101SOL     OW31201   0.027   4.506   2.738
10101SOL    HW131202   0.031   4.418   2.690
10101SOL    HW231203   7.012   4.575   2.677
10102SOL     OW31204   3.997   1.005   4.279
10102SOL    HW131205   4.019   1.102   4.269
10102SOL    HW231206   3.914   0.995   4.335
10103SOL     OW31207   0.471   2.703   0.448
10103SOL    HW131208   0.483   2.750   0.535
10103SOL    HW231209   0.506   2.760   0.374
10104SOL     OW31210   2.210   5.447   5.547
10104SOL    HW131211   2.123   5.496   5.549
10104SOL    HW231212   2.197   5.355   5.582
10105SOL     OW31213   3.662   0.520   0.160
10105SOL    HW131214   3.665   0.618   0.183
10105SOL    HW231215   3.591   0.476   0.215
10106SOL     OW31216   4.613   5.656   1.162
10106SOL    HW131217   4.617   5.649   1.262
10106SOL    HW231218   4.707   5.661   1.126
10107SOL     OW31219   5.854   1.176   6.043
10107SOL    HW131220   5.894   1.100   5.992
10107SOL    HW231221   5.885   1.172   6.138
10108SOL     OW31222   4.922   6.174   6.081
10108SOL    HW131223   5.012   6.138   6.105
10108SOL    HW231224   4.931   6.238   6.005
10109SOL     OW31225   5.122   5.599   3.470
10109SOL    HW131226   5.215   5.578   3.438
10109SOL    HW231227   5.056   5.541   3.423
10110SOL     OW31228   3.297   2.177   5.675
10110SOL    HW131229   3.392   2.171   5.706
10110SOL    HW231230   3.292   2.233   5.592
10111SOL     OW31231   6.634   2.503   1.464
10111SOL    HW131232   6.694   2.503   1.544
10111SOL    HW231233   6.546   2.545   1.488
10112SOL     OW31234   4.709   3.723   5.750
10112SOL    HW131235   4.751   3.640   5.787
10112SOL    HW231236   4.743   3.739   5.657
10113SOL     OW31237   3.549   6.937   1.192
10113SOL    HW131238   3.474   6.957   1.255
10113SOL    HW231239   3.521   6.864   1.129
10114SOL     OW31240   4.746   1.798   1.878
10114SOL    HW131241   4.845   1.782   1.885
10114SOL    HW231242   4.697   1.734   1.937
10115SOL     OW31243   1.150   1.684   4.762
10115SOL    HW131244   1.124   1.622   4.836
10115SOL    HW231245   1.215   1.638   4.702
10116SOL     OW31246   0.659   0.553   0.901
10116SOL    HW131247   0.674   0.455   0.908
10116SOL    HW231248   0.577   0.578   0.952
10117SOL     OW31249   4.299   0.006   6.255
10117SOL    HW131250   4.331   0.058   6.335
10117SOL    HW231251   4.199   7.019   6.261
10118SOL     OW31252   5.451   5.143   2.667
10118SOL    HW131253   5.363   5.183   2.640
10118SOL    HW231254   5.442   5.043   2.671
10119SOL     OW31255   1.894   0.004   6.251
10119SOL    HW131256   1.811   6.973   6.260
10119SOL    HW231257   1.944   0.003   6.338
10120SOL     OW31258   5.726   3.485   3.417
10120SOL    HW131259   5.822   3.493   3.444
10120SOL    HW231260   5.670   3.542   3.478
10121SOL     OW31261   5.900   4.774   3.855
10121SOL    HW131262   5.895   4.688   3.905
10121SOL    HW231263   5.817   4.827   3.870
10122SOL     OW31264   5.207   2.563   1.068
10122SOL    HW131265   5.128   2.583   1.127
10122SOL    HW231266   5.190   2.477   1.019
10123SOL     OW31267   0.352   6.804   0.327
10123SOL    HW131268   0.348   6.873   0.399
10123SOL    HW231269   0.300   6.723   0.355
10124SOL     OW31270   3.209   4.210   0.723
10124SOL    HW131271   3.141   4.182   0.791
10124SOL    HW231272   3.224   4.135   0.658
10125SOL     OW31273   2.577   0.433   0.146
10125SOL    HW131274   2.577   0.530   0.124
10125SOL    HW231275   2.668   0.406   0.178
10126SOL     OW31276   5.629   5.357   6.044
10126SOL    HW131277   5.575   5.302   6.108
10126SOL    HW231278   5.727   5.346   6.064
10127SOL     OW31279   4.082   4.868   5.248
10127SOL    HW131280   4.086   4.773   5.281
10127SOL    HW231281   4.010   4.876   5.179
10128SOL     OW31282   1.339   0.970   0.969
10128SOL    HW131283   1.336   1.026   1.051
10128SOL    HW231284   1.248   0.936   0.947
10129SOL     OW31285   5.588   2.644   2.891
10129SOL    HW131286   5.578   2.662   2.794
10129SOL    HW231287   5.498   2.647   2.935
10130SOL     OW31288   5.860   5.610   1.195
10130SOL    HW131289   5.772   5.590   1.153
10130SOL    HW231290   5.872   5.710   1.200
10131SOL     OW31291   0.691   6.951   0.202
10131SOL    HW131292   0.615   7.015   0.214
10131SOL    HW231293   0.655   6.862   0.175
10132SOL     OW31294   2.441   6.839   2.607
10132SOL    HW131295   2.494   6.756   2.623
10132SOL    HW231296   2.499   6.905   2.558
10133SOL     OW31297   6.293   4.251   2.725
10133SOL    HW131298   6.336   4.251   2.815
10133SOL    HW231299   6.209   4.196   2.728
10134SOL     OW31300   0.391   1.487   1.434
10134SOL    HW131301   0.457   1.544   1.484
10134SOL    HW231302   0.300   1.527   1.440
10135SOL     OW31303   3.136   6.140   2.751
10135SOL    HW131304   3.063   6.093   2.799
10135SOL    HW231305   3.131   6.119   2.653
10136SOL     OW31306   6.246   6.790   2.718
10136SOL    HW131307   6.158   6.798   2.670
10136SOL    HW231308   6.314   6.847   2.672
10137SOL     OW31309   5.637   4.845   4.389
10137SOL    HW131310   5.551   4.795   4.402
10137SOL    HW231311   5.664   4.886   4.476
10138SOL     OW31312   5.981   3.148   6.064
10138SOL    HW131313   6.039   3.118   6.140
10138SOL    HW231314   5.916   3.075   6.041
10139SOL     OW31315   4.079   3.346   3.512
10139SOL    HW131316   4.111   3.318   3.421
10139SOL    HW231317   4.079   3.266   3.573
10140SOL     OW31318   1.003   5.084   4.245
10140SOL    HW131319   1.066   5.099   4.168
10140SOL    HW231320   1.053   5.095   4.331
10141SOL     OW31321   2.409   0.681   3.480
10141SOL    HW131322   2.409   0.714   3.575
10141SOL    HW231323   2.349   0.738   3.425
10142SOL     OW31324   5.236   5.794   4.543
10142SOL    HW131325   5.314   5.761   4.490
10142SOL    HW231326   5.204   5.881   4.506
10143SOL     OW31327   4.560   6.404   1.297
10143SOL    HW131328   4.498   6.458   1.240
10143SOL    HW231329   4.653   6.410   1.261
10144SOL     OW31330   3.058   4.861   2.719
10144SOL    HW131331   3.099   4.819   2.638
10144SOL    HW231332   3.022   4.951   2.695
10145SOL     OW31333   2.891   0.360   6.127
10145SOL    HW131334   2.830   0.296   6.080
10145SOL    HW231335   2.922   0.319   6.213
10146SOL     OW31336   4.529   4.846   4.021
10146SOL    HW131337   4.607   4.835   3.960
10146SOL    HW231338   4.478   4.760   4.026
10147SOL     OW31339   4.815   5.926   4.495
10147SOL    HW131340   4.808   5.871   4.578
10147SOL    HW231341   4.724   5.959   4.469
10148SOL     OW31342   6.317   5.696   0.972
10148SOL    HW131343   6.408   5.722   0.941
10148SOL    HW231344   6.296   5.744   1.057
10149SOL     OW31345   3.814   2.840   1.509
10149SOL    HW131346   3.896   2.868   1.457
10149SOL    HW231347   3.759   2.921   1.530
10150SOL     OW31348   5.739   4.349   0.806
10150SOL    HW131349   5.760   4.441   0.840
10150SOL    HW231350   5.694   4.357   0.717
10151SOL     OW31351   0.466   5.382   6.124
10151SOL    HW131352   0.536   5.314   6.146
10151SOL    HW231353   0.397   5.339   6.065
10152SOL     OW31354   0.610   5.676   4.071
10152SOL    HW131355   0.608   5.580   4.101
10152SOL    HW231356   0.668   5.684   3.990
10153SOL     OW31357   5.521   5.387   4.039
10153SOL    HW131358   5.517   5.466   4.099
10153SOL    HW231359   5.467   5.312   4.079
10154SOL     OW31360   6.329   5.890   5.348
10154SOL    HW131361   6.351   5.834   5.268
10154SOL    HW231362   6.315   5.985   5.319
10155SOL     OW31363   3.851   1.205   5.802
10155SOL    HW131364   3.761   1.235   5.834
10155SOL    HW231365   3.895   1.151   5.873
10156SOL     OW31366   5.544   0.004   2.337
10156SOL    HW131367   5.581   0.095   2.359
10156SOL    HW231368   5.611   6.957   2.361
10157SOL     OW31369   5.113   0.553   3.926
10157SOL    HW131370   5.070   0.625   3.872
10157SOL    HW231371   5.189   0.513   3.875
10158SOL     OW31372   4.793   3.366   5.996
10158SOL    HW131373   4.795   3.393   5.900
10158SOL    HW231374   4.885   3.377   6.035
10159SOL     OW31375   1.426   1.023   6.446
10159SOL    HW131376   1.481   1.081   6.386
10159SOL    HW231377   1.487   0.970   6.505
10160SOL     OW31378   0.637   6.428   3.925
10160SOL    HW131379   0.710   6.478   3.971
10160SOL    HW231380   0.559   6.488   3.911
10161SOL     OW31381   2.850   5.681   4.841
10161SOL    HW131382   2.940   5.719   4.861
10161SOL    HW231383   2.852   5.581   4.853
10162SOL     OW31384   2.996   2.689   6.373
10162SOL    HW131385   2.965   2.597   6.350
10162SOL    HW231386   3.032   2.689   6.467
10163SOL     OW31387   0.611   3.497   5.623
10163SOL    HW131388   0.615   3.553   5.540
10163SOL    HW231389   0.651   3.547   5.699
10164SOL     OW31390   1.612   2.469   5.981
10164SOL    HW131391   1.562   2.418   6.051
10164SOL    HW231392   1.678   2.530   6.025
10165SOL     OW31393   6.861   2.455   3.060
10165SOL    HW131394   6.922   2.430   2.985
10165SOL    HW231395   6.818   2.373   3.098
10166SOL     OW31396   0.656   0.848   2.423
10166SOL    HW131397   0.610   0.909   2.487
10166SOL    HW231398   0.589   0.787   2.380
10167SOL     OW31399   4.887   0.593   0.876
10167SOL    HW131400   4.815   0.661   0.887
10167SOL    HW231401   4.974   0.631   0.907
10168SOL     OW31402   6.749   4.619   4.616
10168SOL    HW131403   6.679   4.662   4.558
10168SOL    HW231404   6.723   4.627   4.712
10169SOL     OW31405   6.692   4.041   5.109
10169SOL    HW131406   6.714   4.086   5.022
10169SOL    HW231407   6.702   4.106   5.184
10170SOL     OW31408   1.342   4.655   4.821
10170SOL    HW131409   1.400   4.575   4.803
10170SOL    HW231410   1.265   4.655   4.758
10171SOL     OW31411   6.252   2.722   6.480
10171SOL    HW131412   6.158   2.689   6.477
10171SOL    HW231413   6.284   2.739   6.386
10172SOL     OW31414   4.929   0.643   4.960
10172SOL    HW131415   4.929   0.728   4.907
10172SOL    HW231416   4.910   0.566   4.900
10173SOL     OW31417   1.983   2.827   2.768
10173SOL    HW131418   1.973   2.785   2.858
10173SOL    HW231419   1.940   2.769   2.699
10174SOL     OW31420   6.411   4.421   1.079
10174SOL    HW131421   6.511   4.416   1.069
10174SOL    HW231422   6.388   4.471   1.162
10175SOL     OW31423   5.785   2.573   5.638
10175SOL    HW131424   5.758   2.527   5.722
10175SOL    HW231425   5.723   2.548   5.564
10176SOL     OW31426   2.570   3.155   0.819
10176SOL    HW131427   2.527   3.239   0.784
10176SOL    HW231428   2.545   3.141   0.914
10177SOL     OW31429   1.113   6.959   5.309
10177SOL    HW131430   1.128   0.015   5.369
10177SOL    HW231431   1.167   6.882   5.342
10178SOL     OW31432   5.443   2.864   4.911
10178SOL    HW131433   5.428   2.890   5.006
10178SOL    HW231434   5.491   2.938   4.863
10179SOL     OW31435   6.787   3.463   0.253
10179SOL    HW131436   6.730   3.513   0.318
10179SOL    HW231437   6.780   3.365   0.271
10180SOL     OW31438   1.995   6.738   6.095
10180SOL    HW131439   1.946   6.656   6.066
10180SOL    HW231440   1.951   6.776   6.176
10181SOL     OW31441   6.257   3.611   2.267
10181SOL    HW131442   6.246   3.552   2.347
10181SOL    HW231443   6.332   3.676   2.284
10182SOL     OW31444   3.977   1.760   0.534
10182SOL    HW131445   4.075   1.758   0.513
10182SOL    HW231446   3.928   1.700   0.471
10183SOL     OW31447   1.917   1.349   6.024
10183SOL    HW131448   1.917   1.363   5.925
10183SOL    HW231449   1.837   1.394   6.064
10184SOL     OW31450   4.725   0.056   6.863
10184SOL    HW131451   4.684   0.073   6.953
10184SOL    HW231452   4.820   0.026   6.875
10185SOL     OW31453   4.540   1.077   0.243
10185SOL    HW131454   4.444   1.053   0.258
10185SOL    HW231455   4.574   1.028   0.163
10186SOL     OW31456   4.686   2.316   2.928
10186SOL    HW131457   4.650   2.300   2.836
10186SOL    HW231458   4.688   2.230   2.979
10187SOL     OW31459   0.462   2.449   2.540
10187SOL    HW131460   0.380   2.504   2.558
10187SOL    HW231461   0.539   2.510   2.519
10188SOL     OW31462   4.152   5.580   0.445
10188SOL    HW131463   4.180   5.670   0.411
10188SOL    HW231464   4.083   5.542   0.384
10189SOL     OW31465   0.960   6.469   4.855
10189SOL    HW131466   1.005   6.471   4.765
10189SOL    HW231467   1.023   6.431   4.923
10190SOL     OW31468   5.751   2.902   0.022
10190SOL    HW131469   5.720   2.980   0.075
10190SOL    HW231470   5.719   2.817   0.064
10191SOL     OW31471   6.708   4.521   6.686
10191SOL    HW131472   6.807   4.511   6.691
10191SOL    HW231473   6.665   4.431   6.699
10192SOL     OW31474   3.558   1.742   0.029
10192SOL    HW131475   3.505   1.682   6.992
10192SOL    HW231476   3.647   1.701   0.048
10193SOL     OW31477   5.061   4.094   0.693
10193SOL    HW131478   5.086   4.181   0.734
10193SOL    HW231479   4.989   4.108   0.626
10194SOL     OW31480   4.916   2.625   5.030
10194SOL    HW131481   4.869   2.622   4.942
10194SOL    HW231482   4.922   2.720   5.061
10195SOL     OW31483   5.850   4.533   2.562
10195SOL    HW131484   5.948   4.520   2.573
10195SOL    HW231485   5.825   4.525   2.465
10196SOL     OW31486   0.552   1.760   4.305
10196SOL    HW131487   0.608   1.685   4.271
10196SOL    HW231488   0.542   1.830   4.235
10197SOL     OW31489   5.249   0.413   0.069
10197SOL    HW131490   5.295   0.457   7.015
10197SOL    HW231491   5.291   0.443   0.155
10198SOL     OW31492   4.083   0.049   2.731
10198SOL    HW131493   4.093   0.148   2.742
10198SOL    HW231494   3.989   0.028   2.704
10199SOL     OW31495   0.703   2.414   5.843
10199SOL    HW131496   0.772   2.367   5.898
10199SOL    HW231497   0.614   2.372   5.858
10200SOL     OW31498   5.521   2.325   2.180
10200SOL    HW131499   5.606   2.284   2.146
10200SOL    HW231500   5.450   2.319   2.110
10201SOL     OW31501   1.800   3.513   0.661
10201SOL    HW131502   1.818   3.446   0.588
10201SOL    HW231503   1.865   3.589   0.653
10202SOL     OW31504   5.379   0.222   3.552
10202SOL    HW131505   5.289   0.226   3.508
10202SOL    HW231506   5.447   0.188   3.487
10203SOL     OW31507   0.291   2.723   5.316
10203SOL    HW131508   0.366   2.663   5.289
10203SOL    HW231509   0.328   2.805   5.361
10204SOL     OW31510   5.116   4.394   6.614
10204SOL    HW131511   5.097   4.303   6.651
10204SOL    HW231512   5.096   4.396   6.517
10205SOL     OW31513   0.170   1.580   6.623
10205SOL    HW131514   0.239   1.595   6.552
10205SOL    HW231515   0.212   1.585   6.713
10206SOL     OW31516   1.812   1.926   4.596
10206SOL    HW131517   1.799   1.882   4.508
10206SOL    HW231518   1.861   2.012   4.583
10207SOL     OW31519   2.403   2.542   6.084
10207SOL    HW131520   2.428   2.511   5.992
10207SOL    HW231521   2.328   2.485   6.119
10208SOL     OW31522   6.681   0.213   5.972
10208SOL    HW131523   6.627   0.155   5.910
10208SOL    HW231524   6.678   0.175   6.064
10209SOL     OW31525   6.828   6.686   5.234
10209SOL    HW131526   6.840   6.613   5.301
10209SOL    HW231527   6.887   6.763   5.258
10210SOL     OW31528   3.591   0.426   1.747
10210SOL    HW131529   3.580   0.510   1.801
10210SOL    HW231530   3.682   0.425   1.705
10211SOL     OW31531   5.216   5.479   6.246
10211SOL    HW131532   5.200   5.380   6.248
10211SOL    HW231533   5.148   5.525   6.303
10212SOL     OW31534   0.558   0.138   0.280
10212SOL    HW131535   0.480   0.111   0.336
10212SOL    HW231536   0.619   0.197   0.333
10213SOL     OW31537   6.789   3.091   1.367
10213SOL    HW131538   6.775   2.995   1.390
10213SOL    HW231539   6.872   3.100   1.313
10214SOL     OW31540   1.578   2.720   0.649
10214SOL    HW131541   1.567   2.632   0.603
10214SOL    HW231542   1.650   2.773   0.604
10215SOL     OW31543   3.466   3.816   2.199
10215SOL    HW131544   3.447   3.915   2.201
10215SOL    HW231545   3.551   3.798   2.249
10216SOL     OW31546   0.258   6.258   1.759
10216SOL    HW131547   0.328   6.327   1.772
10216SOL    HW231548   0.168   6.297   1.777
10217SOL     OW31549   4.028   1.646   5.041
10217SOL    HW131550   4.010   1.617   5.135
10217SOL    HW231551   4.092   1.722   5.041
10218SOL     OW31552   1.033   2.717   2.927
10218SOL    HW131553   1.077   2.746   2.842
10218SOL    HW231554   0.974   2.638   2.908
10219SOL     OW31555   6.333   6.279   2.876
10219SOL    HW131556   6.283   6.266   2.961
10219SOL    HW231557   6.342   6.377   2.857
10220SOL     OW31558   3.317   3.457   6.939
10220SOL    HW131559   3.274   3.535   6.893
10220SOL    HW231560   3.307   3.467   0.015
10221SOL     OW31561   1.281   5.470   2.819
10221SOL    HW131562   1.192   5.493   2.858
10221SOL    HW231563   1.328   5.406   2.879
10222SOL     OW31564   3.246   3.594   3.656
10222SOL    HW131565   3.275   3.525   3.722
10222SOL    HW231566   3.299   3.584   3.572
10223SOL     OW31567   2.922   6.962   0.807
10223SOL    HW131568   2.843   6.907   0.837
10223SOL    HW231569   3.006   6.910   0.823
10224SOL     OW31570   6.797   3.203   3.282
10224SOL    HW131571   6.739   3.161   3.352
10224SOL    HW231572   6.818   3.135   3.211
10225SOL     OW31573   1.913   3.850   6.143
10225SOL    HW131574   1.924   3.899   6.057
10225SOL    HW231575   1.954   3.759   6.135
10226SOL     OW31576   4.471   4.230   6.734
10226SOL    HW131577   4.564   4.222   6.697
10226SOL    HW231578   4.442   4.141   6.768
10227SOL     OW31579   5.334   4.117   1.137
10227SOL    HW131580   5.340   4.025   1.098
10227SOL    HW231581   5.396   4.178   1.089
10228SOL     OW31582   5.616   0.344   0.308
10228SOL    HW131583   5.553   0.269   0.287
10228SOL    HW231584   5.668   0.368   0.226
10229SOL     OW31585   0.302   1.789   4.546
10229SOL    HW131586   0.240   1.845   4.491
10229SOL    HW231587   0.290   1.693   4.521
10230SOL     OW31588   6.403   5.992   1.565
10230SOL    HW131589   6.404   5.893   1.575
10230SOL    HW231590   6.401   6.035   1.655
10231SOL     OW31591   0.368   3.933   2.194
10231SOL    HW131592   0.328   3.887   2.273
10231SOL    HW231593   0.306   4.004   2.162
10232SOL     OW31594   4.646   4.912   2.263
10232SOL    HW131595   4.724   4.894   2.203
10232SOL    HW231596   4.561   4.891   2.215
10233SOL     OW31597   3.362   3.547   6.279
10233SOL    HW131598   3.439   3.585   6.330
10233SOL    HW231599   3.381   3.551   6.181
10234SOL     OW31600   0.531   0.622   2.216
10234SOL    HW131601   0.489   0.531   2.218
10234SOL    HW231602   0.496   0.674   2.139
10235SOL     OW31603   0.718   0.631   3.187
10235SOL    HW131604   0.627   0.607   3.155
10235SOL    HW231605   0.772   0.665   3.110
10236SOL     OW31606   1.272   0.391   2.757
10236SOL    HW131607   1.294   0.429   2.847
10236SOL    HW231608   1.283   0.292   2.760
10237SOL     OW31609   6.707   3.814   5.669
10237SOL    HW131610   6.651   3.871   5.609
10237SOL    HW231611   6.700   3.847   5.763
10238SOL     OW31612   2.727   0.190   1.183
10238SOL    HW131613   2.671   0.144   1.115
10238SOL    HW231614   2.824   0.183   1.158
10239SOL     OW31615   1.421   2.257   5.149
10239SOL    HW131616   1.397   2.170   5.107
10239SOL    HW231617   1.349   2.324   5.132
10240SOL     OW31618   1.569   6.258   1.468
10240SOL    HW131619   1.620   6.313   1.534
10240SOL    HW231620   1.562   6.308   1.381
10241SOL     OW31621   4.190   3.737   1.909
10241SOL    HW131622   4.193   3.659   1.973
10241SOL    HW231623   4.099   3.778   1.911
10242SOL     OW31624   0.369   3.730   1.400
10242SOL    HW131625   0.392   3.737   1.303
10242SOL    HW231626   0.333   3.638   1.419
10243SOL     OW31627   3.678   5.356   2.063
10243SOL    HW131628   3.638   5.326   1.977
10243SOL    HW231629   3.711   5.277   2.114
10244SOL     OW31630   1.949   5.609   1.446
10244SOL    HW131631   1.917   5.514   1.448
10244SOL    HW231632   1.931   5.648   1.356
10245SOL     OW31633   6.404   4.252   1.529
10245SOL    HW131634   6.490   4.295   1.555
10245SOL    HW231635   6.394   4.253   1.429
10246SOL     OW31636   3.713   3.373   3.483
10246SOL    HW131637   3.750   3.443   3.544
10246SOL    HW231638   3.695   3.289   3.536
10247SOL     OW31639   0.647   3.649   4.760
10247SOL    HW131640   0.576   3.712   4.728
10247SOL    HW231641   0.697   3.691   4.837
10248SOL     OW31642   0.795   1.414   4.409
10248SOL    HW131643   0.887   1.418   4.370
10248SOL    HW231644   0.778   1.323   4.446
10249SOL     OW31645   2.506   4.343   6.034
10249SOL    HW131646   2.530   4.253   6.070
10249SOL    HW231647   2.539   4.351   5.940
10250SOL     OW31648   3.105   2.774   0.187
10250SOL    HW131649   3.094   2.767   0.286
10250SOL    HW231650   3.201   2.794   0.166
10251SOL     OW31651   1.305   0.645   5.123
10251SOL    HW131652   1.213   0.669   5.091
10251SOL    HW231653   1.308   0.548   5.146
10252SOL     OW31654   5.252   4.102   6.062
10252SOL    HW131655   5.250   4.131   6.158
10252SOL    HW231656   5.347   4.100   6.030
10253SOL     OW31657   3.828   5.767   0.299
10253SOL    HW131658   3.747   5.826   0.305
10253SOL    HW231659   3.799   5.674   0.279
10254SOL     OW31660   6.522   1.446   6.537
10254SOL    HW131661   6.620   1.434   6.526
10254SOL    HW231662   6.504   1.525   6.596
10255SOL     OW31663   4.015   4.594   1.773
10255SOL    HW131664   3.922   4.622   1.747
10255SOL    HW231665   4.015   4.496   1.795
10256SOL     OW31666   2.327   1.394   4.488
10256SOL    HW131667   2.372   1.455   4.553
10256SOL    HW231668   2.330   1.434   4.396
10257SOL     OW31669   3.356   5.941   3.553
10257SOL    HW131670   3.444   5.906   3.583
10257SOL    HW231671   3.310   5.987   3.630
10258SOL     OW31672   3.039   1.679   2.272
10258SOL    HW131673   3.058   1.703   2.177
10258SOL    HW231674   2.975   1.603   2.276
10259SOL     OW31675   1.764   3.887   3.811
10259SOL    HW131676   1.750   3.942   3.728
10259SOL    HW231677   1.675   3.864   3.851
10260SOL     OW31678   0.495   0.021   3.819
10260SOL    HW131679   0.442   0.055   3.742
10260SOL    HW231680   0.478   0.079   3.899
10261SOL     OW31681   6.941   4.209   1.526
10261SOL    HW131682   6.987   4.123   1.550
10261SOL    HW231683   7.010   4.282   1.519
10262SOL     OW31684   3.797   0.660   6.847
10262SOL    HW131685   3.726   0.709   6.898
10262SOL    HW231686   3.869   0.630   6.909
10263SOL     OW31687   5.385   0.026   3.200
10263SOL    HW131688   5.407   0.117   3.164
10263SOL    HW231689   5.380   6.984   3.124
10264SOL     OW31690   6.809   1.050   6.208
10264SOL    HW131691   6.867   1.071   6.129
10264SOL    HW231692   6.809   0.951   6.224
10265SOL     OW31693   1.547   1.054   2.630
10265SOL    HW131694   1.479   0.983   2.611
10265SOL    HW231695   1.638   1.013   2.630
10266SOL     OW31696   2.673   3.573   1.214
10266SOL    HW131697   2.766   3.609   1.208
10266SOL    HW231698   2.674   3.489   1.269
10267SOL     OW31699   6.289   0.691   0.893
10267SOL    HW131700   6.285   0.686   0.793
10267SOL    HW231701   6.207   0.735   0.928
10268SOL     OW31702   3.304   5.693   2.597
10268SOL    HW131703   3.337   5.665   2.507
10268SOL    HW231704   3.222   5.749   2.587
10269SOL     OW31705   2.462   1.526   0.021
10269SOL    HW131706   2.541   1.473   7.014
10269SOL    HW231707   2.450   1.605   6.985
10270SOL     OW31708   2.495   0.019   3.515
10270SOL    HW131709   2.464   0.028   3.420
10270SOL    HW231710   2.462   6.955   3.552
10271SOL     OW31711   2.151   1.382   6.842
10271SOL    HW131712   2.223   1.335   6.791
10271SOL    HW231713   2.098   1.440   6.780
10272SOL     OW31714   5.746   6.673   4.942
10272SOL    HW131715   5.783   6.644   5.030
10272SOL    HW231716   5.785   6.762   4.917
10273SOL     OW31717   1.866   5.563   3.038
10273SOL    HW131718   1.911   5.646   3.005
10273SOL    HW231719   1.795   5.588   3.104
10274SOL     OW31720   1.057   4.076   5.104
10274SOL    HW131721   1.028   4.069   5.199
10274SOL    HW231722   0.984   4.117   5.049
10275SOL     OW31723   0.277   0.845   1.762
10275SOL    HW131724   0.187   0.859   1.803
10275SOL    HW231725   0.318   0.934   1.739
10276SOL     OW31726   3.431   4.677   5.424
10276SOL    HW131727   3.425   4.596   5.365
10276SOL    HW231728   3.384   4.754   5.380
10277SOL     OW31729   0.833   5.466   3.785
10277SOL    HW131730   0.772   5.390   3.806
10277SOL    HW231731   0.882   5.447   3.700
10278SOL     OW31732   6.296   0.116   4.254
10278SOL    HW131733   6.244   0.161   4.180
10278SOL    HW231734   6.231   0.075   4.319
10279SOL     OW31735   1.208   4.797   4.212
10279SOL    HW131736   1.227   4.801   4.114
10279SOL    HW231737   1.112   4.819   4.229
10280SOL     OW31738   6.288   5.422   1.062
10280SOL    HW131739   6.327   5.511   1.037
10280SOL    HW231740   6.191   5.421   1.039
10281SOL     OW31741   6.071   0.256   5.204
10281SOL    HW131742   5.982   0.229   5.239
10281SOL    HW231743   6.109   0.181   5.149
10282SOL     OW31744   4.903   2.589   3.248
10282SOL    HW131745   4.946   2.602   3.159
10282SOL    HW231746   4.928   2.499   3.285
10283SOL     OW31747   0.191   2.579   0.698
10283SOL    HW131748   0.168   2.674   0.678
10283SOL    HW231749   0.135   2.546   0.774
10284SOL     OW31750   0.462   4.650   5.131
10284SOL    HW131751   0.540   4.587   5.124
10284SOL    HW231752   0.402   4.619   5.205
10285SOL     OW31753   6.776   6.424   6.329
10285SOL    HW131754   6.703   6.407   6.262
10285SOL    HW231755   6.865   6.412   6.286
10286SOL     OW31756   2.985   0.943   1.816
10286SOL    HW131757   2.995   0.910   1.722
10286SOL    HW231758   3.055   1.012   1.835
10287SOL     OW31759   0.249   6.003   2.518
10287SOL    HW131760   0.333   5.952   2.498
10287SOL    HW231761   0.242   6.019   2.617
10288SOL     OW31762   4.073   5.995   4.293
10288SOL    HW131763   4.172   5.996   4.311
10288SOL    HW231764   4.027   6.054   4.359
10289SOL     OW31765   4.134   6.321   6.771
10289SOL    HW131766   4.144   6.347   6.867
10289SOL    HW231767   4.199   6.373   6.715
10290SOL     OW31768   3.363   3.423   2.540
10290SOL    HW131769   3.309   3.488   2.487
10290SOL    HW231770   3.438   3.388   2.484
10291SOL     OW31771   3.356   2.032   2.353
10291SOL    HW131772   3.327   1.937   2.358
10291SOL    HW231773   3.379   2.055   2.259
10292SOL     OW31774   0.161   0.140   5.622
10292SOL    HW131775   0.164   0.061   5.683
10292SOL    HW231776   0.066   0.166   5.606
10293SOL     OW31777   1.553   3.222   5.517
10293SOL    HW131778   1.558   3.168   5.601
10293SOL    HW231779   1.627   3.289   5.517
10294SOL     OW31780   1.395   6.891   1.763
10294SOL    HW131781   1.312   6.931   1.802
10294SOL    HW231782   1.470   6.897   1.829
10295SOL     OW31783   2.105   1.530   0.896
10295SOL    HW131784   2.168   1.576   0.833
10295SOL    HW231785   2.155   1.503   0.979
10296SOL     OW31786   6.701   2.564   4.877
10296SOL    HW131787   6.756   2.648   4.887
10296SOL    HW231788   6.604   2.589   4.871
10297SOL     OW31789   4.454   1.156   1.211
10297SOL    HW131790   4.365   1.161   1.166
10297SOL    HW231791   4.526   1.175   1.145
10298SOL     OW31792   1.050   1.741   1.797
10298SOL    HW131793   1.051   1.732   1.896
10298SOL    HW231794   1.133   1.701   1.759
10299SOL     OW31795   5.131   0.151   2.876
10299SOL    HW131796   5.085   0.080   2.928
10299SOL    HW231797   5.212   0.114   2.831
10300SOL     OW31798   1.247   2.892   0.847
10300SOL    HW131799   1.260   2.825   0.774
10300SOL    HW231800   1.327   2.952   0.852
10301SOL     OW31801   4.301   1.842   6.919
10301SOL    HW131802   4.227   1.910   6.918
10301SOL    HW231803   4.281   1.771   6.851
10302SOL     OW31804   3.492   5.878   5.327
10302SOL    HW131805   3.423   5.897   5.398
10302SOL    HW231806   3.560   5.951   5.327
10303SOL     OW31807   0.787   4.119   5.456
10303SOL    HW131808   0.781   4.195   5.392
10303SOL    HW231809   0.782   4.032   5.407
10304SOL     OW31810   5.236   6.005   1.396
10304SOL    HW131811   5.157   6.044   1.348
10304SOL    HW231812   5.246   6.049   1.485
10305SOL     OW31813   2.644   3.603   5.378
10305SOL    HW131814   2.717   3.602   5.446
10305SOL    HW231815   2.598   3.514   5.377
10306SOL     OW31816   4.167   0.892   1.115
10306SOL    HW131817   4.221   0.847   1.187
10306SOL    HW231818   4.199   0.985   1.102
10307SOL     OW31819   1.885   0.000   4.975
10307SOL    HW131820   1.861   6.934   5.012
10307SOL    HW231821   1.929   0.055   5.046
10308SOL     OW31822   2.730   4.644   1.680
10308SOL    HW131823   2.648   4.588   1.681
10308SOL    HW231824   2.792   4.615   1.753
10309SOL     OW31825   0.232   0.567   5.162
10309SOL    HW131826   0.178   0.602   5.239
10309SOL    HW231827   0.171   0.526   5.095
10310SOL     OW31828   3.421   4.193   6.154
10310SOL    HW131829   3.321   4.191   6.162
10310SOL    HW231830   3.461   4.126   6.217
10311SOL     OW31831   5.632   6.485   0.024
10311SOL    HW131832   5.566   6.556   7.020
10311SOL    HW231833   5.720   6.505   7.005
10312SOL     OW31834   3.002   6.814   2.331
10312SOL    HW131835   3.037   6.902   2.298
10312SOL    HW231836   3.036   6.797   2.423
10313SOL     OW31837   5.205   6.443   3.338
10313SOL    HW131838   5.280   6.404   3.392
10313SOL    HW231839   5.213   6.413   3.243
10314SOL     OW31840   0.935   6.958   0.549
10314SOL    HW131841   1.010   6.894   0.533
10314SOL    HW231842   0.850   6.919   0.513
10315SOL     OW31843   4.775   4.843   3.900
10315SOL    HW131844   4.846   4.783   3.937
10315SOL    HW231845   4.816   4.933   3.881
10316SOL     OW31846   1.182   2.017   0.094
10316SOL    HW131847   1.269   1.974   0.068
10316SOL    HW231848   1.201   2.102   0.142
10317SOL     OW31849   4.338   6.145   4.504
10317SOL    HW131850   4.294   6.056   4.519
10317SOL    HW231851   4.332   6.199   4.588
10318SOL     OW31852   6.091   0.030   0.058
10318SOL    HW131853   6.115   6.966   0.101
10318SOL    HW231854   6.050   0.091   0.125
10319SOL     OW31855   0.983   4.518   4.255
10319SOL    HW131856   0.995   4.486   4.349
10319SOL    HW231857   0.960   4.615   4.255
10320SOL     OW31858   6.625   6.912   3.004
10320SOL    HW131859   6.559   6.985   2.986
10320SOL    HW231860   6.629   6.851   2.924
10321SOL     OW31861   6.021   2.537   3.049
10321SOL    HW131862   6.058   2.541   2.956
10321SOL    HW231863   6.021   2.442   3.082
10322SOL     OW31864   4.622   4.500   4.913
10322SOL    HW131865   4.655   4.423   4.967
10322SOL    HW231866   4.523   4.511   4.927
10323SOL     OW31867   1.439   4.461   6.078
10323SOL    HW131868   1.345   4.455   6.044
10323SOL    HW231869   1.492   4.384   6.043
10324SOL     OW31870   2.925   3.451   2.796
10324SOL    HW131871   2.883   3.493   2.876
10324SOL    HW231872   3.007   3.503   2.770
10325SOL     OW31873   5.592   5.908   4.870
10325SOL    HW131874   5.621   5.915   4.966
10325SOL    HW231875   5.493   5.914   4.865
10326SOL     OW31876   5.510   3.686   7.010
10326SOL    HW131877   5.520   3.685   6.910
10326SOL    HW231878   5.422   3.645   0.011
10327SOL     OW31879   1.639   5.298   6.639
10327SOL    HW131880   1.591   5.384   6.658
10327SOL    HW231881   1.581   5.221   6.666
10328SOL     OW31882   5.975   2.485   2.406
10328SOL    HW131883   5.906   2.548   2.441
10328SOL    HW231884   5.941   2.445   2.320
10329SOL     OW31885   3.461   2.182   1.729
10329SOL    HW131886   3.512   2.248   1.783
10329SOL    HW231887   3.364   2.192   1.747
10330SOL     OW31888   5.372   6.762   1.931
10330SOL    HW131889   5.283   6.780   1.972
10330SOL    HW231890   5.442   6.757   2.002
10331SOL     OW31891   5.212   5.383   5.881
10331SOL    HW131892   5.160   5.467   5.876
10331SOL    HW231893   5.174   5.324   5.953
10332SOL     OW31894   2.177   1.691   6.483
10332SOL    HW131895   2.223   1.717   6.398
10332SOL    HW231896   2.107   1.759   6.504
10333SOL     OW31897   1.489   3.817   4.430
10333SOL    HW131898   1.531   3.839   4.517
10333SOL    HW231899   1.550   3.844   4.355
10334SOL     OW31900   3.353   1.277   4.348
10334SOL    HW131901   3.400   1.236   4.426
10334SOL    HW231902   3.338   1.375   4.365
10335SOL     OW31903   2.141   3.273   4.411
10335SOL    HW131904   2.107   3.188   4.451
10335SOL    HW231905   2.179   3.331   4.482
10336SOL     OW31906   5.567   6.130   3.495
10336SOL    HW131907   5.580   6.112   3.592
10336SOL    HW231908   5.651   6.168   3.456
10337SOL     OW31909   6.481   6.122   0.146
10337SOL    HW131910   6.486   6.042   0.086
10337SOL    HW231911   6.474   6.205   0.090
10338SOL     OW31912   0.930   6.341   1.677
10338SOL    HW131913   1.001   6.382   1.620
10338SOL    HW231914   0.919   6.244   1.653
10339SOL     OW31915   5.433   2.531   5.743
10339SOL    HW131916   5.371   2.469   5.790
10339SOL    HW231917   5.528   2.506   5.765
10340SOL     OW31918   2.850   4.305   6.457
10340SOL    HW131919   2.934   4.344   6.421
10340SOL    HW231920   2.833   4.217   6.414
10341SOL     OW31921   2.672   4.789   3.339
10341SOL    HW131922   2.644   4.870   3.287
10341SOL    HW231923   2.597   4.759   3.398
10342SOL     OW31924   0.518   1.166   3.534
10342SOL    HW131925   0.533   1.093   3.468
10342SOL    HW231926   0.474   1.244   3.488
10343SOL     OW31927   4.110   5.253   1.758
10343SOL    HW131928   4.089   5.223   1.665
10343SOL    HW231929   4.182   5.323   1.755
10344SOL     OW31930   4.815   6.978   6.606
10344SOL    HW131931   4.802   7.003   6.702
10344SOL    HW231932   4.895   0.003   6.570
10345SOL     OW31933   0.955   4.150   4.674
10345SOL    HW131934   1.006   4.228   4.708
10345SOL    HW231935   1.014   4.070   4.670
10346SOL     OW31936   0.388   6.072   0.544
10346SOL    HW131937   0.453   6.145   0.567
10346SOL    HW231938   0.429   6.010   0.477
10347SOL     OW31939   6.770   1.784   5.153
10347SOL    HW131940   6.773   1.713   5.084
10347SOL    HW231941   6.685   1.836   5.144
10348SOL     OW31942   0.404   5.022   1.346
10348SOL    HW131943   0.443   5.086   1.279
10348SOL    HW231944   0.453   4.935   1.341
10349SOL     OW31945   6.882   6.427   6.612
10349SOL    HW131946   6.834   6.362   6.671
10349SOL    HW231947   6.826   6.443   6.530
10350SOL     OW31948   3.934   0.567   6.252
10350SOL    HW131949   3.982   0.579   6.166
10350SOL    HW231950   3.989   0.605   6.327
10351SOL     OW31951   4.300   6.038   5.668
10351SOL    HW131952   4.358   6.075   5.596
10351SOL    HW231953   4.254   6.114   5.715
10352SOL     OW31954   4.504   5.194   6.122
10352SOL    HW131955   4.410   5.192   6.088
10352SOL    HW231956   4.543   5.285   6.106
10353SOL     OW31957   0.588   3.668   5.342
10353SOL    HW131958   0.671   3.613   5.332
10353SOL    HW231959   0.508   3.610   5.324
10354SOL     OW31960   5.167   1.453   0.891
10354SOL    HW131961   5.184   1.483   0.797
10354SOL    HW231962   5.136   1.358   0.890
10355SOL     OW31963   1.084   4.190   2.862
10355SOL    HW131964   1.097   4.131   2.942
10355SOL    HW231965   1.009   4.154   2.806
10356SOL     OW31966   0.597   2.589   5.410
10356SOL    HW131967   0.631   2.621   5.321
10356SOL    HW231968   0.664   2.527   5.450
10357SOL     OW31969   2.878   3.363   6.069
10357SOL    HW131970   2.860   3.313   5.985
10357SOL    HW231971   2.801   3.425   6.088
10358SOL     OW31972   0.618   0.561   2.671
10358SOL    HW131973   0.563   0.603   2.599
10358SOL    HW231974   0.685   0.499   2.630
10359SOL     OW31975   1.176   1.534   0.847
10359SOL    HW131976   1.180   1.506   0.751
10359SOL    HW231977   1.086   1.510   0.885
10360SOL     OW31978   6.918   4.774   3.999
10360SOL    HW131979   6.836   4.742   4.045
10360SOL    HW231980   6.918   4.744   3.904
10361SOL     OW31981   2.696   5.383   0.566
10361SOL    HW131982   2.639   5.325   0.508
10361SOL    HW231983   2.680   5.360   0.662
10362SOL     OW31984   0.888   4.574   5.703
10362SOL    HW131985   0.867   4.669   5.729
10362SOL    HW231986   0.880   4.515   5.783
10363SOL     OW31987   5.210   0.703   4.919
10363SOL    HW131988   5.210   0.657   4.831
10363SOL    HW231989   5.132   0.672   4.973
10364SOL     OW31990   1.541   4.189   0.833
10364SOL    HW131991   1.555   4.232   0.745
10364SOL    HW231992   1.630   4.166   0.874
10365SOL     OW31993   5.368   5.384   0.134
10365SOL    HW131994   5.425   5.303   0.146
10365SOL    HW231995   5.392   5.429   0.048
10366SOL     OW31996   4.410   6.900   4.100
10366SOL    HW131997   4.321   6.855   4.089
10366SOL    HW231998   4.467   6.848   4.163
10367SOL     OW31999   6.269   1.240   2.919
10367SOL    HW132000   6.301   1.259   2.827
10367SOL    HW232001   6.188   1.295   2.939
10368SOL     OW32002   2.612   0.423   0.960
10368SOL    HW132003   2.641   0.329   0.973
10368SOL    HW232004   2.663   0.464   0.885
10369SOL     OW32005   4.169   2.670   6.432
10369SOL    HW132006   4.261   2.632   6.425
10369SOL    HW232007   4.171   2.753   6.489
10370SOL     OW32008   2.607   0.601   5.454
10370SOL    HW132009   2.513   0.608   5.422
10370SOL    HW232010   2.625   0.508   5.486
10371SOL     OW32011   4.827   6.853   5.434
10371SOL    HW132012   4.883   6.933   5.453
10371SOL    HW232013   4.751   6.879   5.375
10372SOL     OW32014   0.327   0.607   3.731
10372SOL    HW132015   0.279   0.521   3.714
10372SOL    HW232016   0.295   0.676   3.666
10373SOL     OW32017   1.387   6.350   5.405
10373SOL    HW132018   1.374   6.302   5.492
10373SOL    HW232019   1.304   6.402   5.383
10374SOL     OW32020   3.531   1.653   3.209
10374SOL    HW132021   3.605   1.586   3.212
10374SOL    HW232022   3.537   1.707   3.125
10375SOL     OW32023   0.098   2.143   0.795
10375SOL    HW132024   0.026   2.149   0.864
10375SOL    HW232025   0.178   2.193   0.827
10376SOL     OW32026   5.982   0.828   4.138
10376SOL    HW132027   5.960   0.842   4.042
10376SOL    HW232028   6.000   0.731   4.154
10377SOL     OW32029   6.687   6.548   3.374
10377SOL    HW132030   6.588   6.553   3.365
10377SOL    HW232031   6.726   6.639   3.359
10378SOL     OW32032   5.954   6.519   5.571
10378SOL    HW132033   5.917   6.446   5.513
10378SOL    HW232034   6.054   6.516   5.568
10379SOL     OW32035   4.404   1.174   3.957
10379SOL    HW132036   4.330   1.120   3.995
10379SOL    HW232037   4.372   1.267   3.940
10380SOL     OW32038   3.261   0.682   4.399
10380SOL    HW132039   3.263   0.588   4.364
10380SOL    HW232040   3.200   0.737   4.342
10381SOL     OW32041   3.661   5.257   4.841
10381SOL    HW132042   3.751   5.300   4.840
10381SOL    HW232043   3.663   5.174   4.784
10382SOL     OW32044   0.138   5.132   1.646
10382SOL    HW132045   0.123   5.044   1.601
10382SOL    HW232046   0.197   5.190   1.589
10383SOL     OW32047   5.540   3.302   1.106
10383SOL    HW132048   5.637   3.323   1.093
10383SOL    HW232049   5.531   3.211   1.148
10384SOL     OW32050   5.321   1.175   6.712
10384SOL    HW132051   5.385   1.177   6.635
10384SOL    HW232052   5.372   1.161   6.797
10385SOL     OW32053   0.248   2.911   6.546
10385SOL    HW132054   0.225   3.008   6.557
10385SOL    HW232055   0.284   2.876   6.632
10386SOL     OW32056   0.467   1.990   5.884
10386SOL    HW132057   0.509   1.946   5.805
10386SOL    HW232058   0.493   1.940   5.967
10387SOL     OW32059   1.769   3.753   2.851
10387SOL    HW132060   1.712   3.818   2.901
10387SOL    HW232061   1.781   3.670   2.905
10388SOL     OW32062   1.432   4.488   2.051
10388SOL    HW132063   1.516   4.448   2.087
10388SOL    HW232064   1.425   4.583   2.081
10389SOL     OW32065   1.587   5.242   3.389
10389SOL    HW132066   1.657   5.292   3.441
10389SOL    HW232067   1.517   5.306   3.357
10390SOL     OW32068   2.078   3.315   3.413
10390SOL    HW132069   2.140   3.366   3.474
10390SOL    HW232070   2.079   3.357   3.322
10391SOL     OW32071   3.700   5.473   4.470
10391SOL    HW132072   3.668   5.398   4.412
10391SOL    HW232073   3.727   5.551   4.412
10392SOL     OW32074   7.022   5.669   5.942
10392SOL    HW132075   0.080   5.703   5.990
10392SOL    HW232076   6.954   5.641   6.009
10393SOL     OW32077   1.060   1.687   4.320
10393SOL    HW132078   1.032   1.745   4.396
10393SOL    HW232079   1.059   1.591   4.348
10394SOL     OW32080   3.276   0.042   1.017
10394SOL    HW132081   3.361   0.090   0.994
10394SOL    HW232082   3.199   0.104   1.003
10395SOL     OW32083   1.374   0.515   3.489
10395SOL    HW132084   1.292   0.459   3.481
10395SOL    HW232085   1.379   0.555   3.580
10396SOL     OW32086   0.547   0.493   4.623
10396SOL    HW132087   0.624   0.554   4.607
10396SOL    HW232088   0.513   0.458   4.535
10397SOL     OW32089   4.440   2.359   2.366
10397SOL    HW132090   4.426   2.299   2.288
10397SOL    HW232091   4.388   2.325   2.445
10398SOL     OW32092   6.924   2.533   2.277
10398SOL    HW132093   6.929   2.455   2.338
10398SOL    HW232094   6.979   2.516   2.195
10399SOL     OW32095   6.645   2.972   5.832
10399SOL    HW132096   6.657   3.049   5.895
10399SOL    HW232097   6.553   2.934   5.843
10400SOL     OW32098   1.666   5.289   2.524
10400SOL    HW132099   1.672   5.237   2.439
10400SOL    HW232100   1.607   5.369   2.510
10401SOL     OW32101   1.053   5.738   1.181
10401SOL    HW132102   1.087   5.786   1.263
10401SOL    HW232103   0.967   5.778   1.153
10402SOL     OW32104   1.180   2.129   4.727
10402SOL    HW132105   1.191   2.202   4.660
10402SOL    HW232106   1.266   2.080   4.737
10403SOL     OW32107   5.474   1.102   3.559
10403SOL    HW132108   5.410   1.071   3.629
10403SOL    HW232109   5.507   1.193   3.583
10404SOL     OW32110   6.482   0.368   4.552
10404SOL    HW132111   6.502   0.415   4.466
10404SOL    HW232112   6.404   0.410   4.597
10405SOL     OW32113   3.177   6.936   6.515
10405SOL    HW132114   3.103   6.969   6.456
10405SOL    HW232115   3.157   6.842   6.543
10406SOL     OW32116   1.196   6.381   5.086
10406SOL    HW132117   1.242   6.447   5.025
10406SOL    HW232118   1.166   6.428   5.169
10407SOL     OW32119   3.400   0.696   0.067
10407SOL    HW132120   3.330   0.751   0.023
10407SOL    HW232121   3.387   0.698   0.166
10408SOL     OW32122   3.362   0.215   2.785
10408SOL    HW132123   3.323   0.141   2.840
10408SOL    HW232124   3.292   0.251   2.723
10409SOL     OW32125   0.438   5.013   2.256
10409SOL    HW132126   0.488   4.935   2.218
10409SOL    HW232127   0.409   5.073   2.182
10410SOL     OW32128   5.212   5.699   0.541
10410SOL    HW132129   5.256   5.637   0.476
10410SOL    HW232130   5.282   5.746   0.595
10411SOL     OW32131   2.290   5.015   1.711
10411SOL    HW132132   2.282   4.946   1.783
10411SOL    HW232133   2.212   5.008   1.649
10412SOL     OW32134   0.831   3.505   6.506
10412SOL    HW132135   0.751   3.564   6.498
10412SOL    HW232136   0.834   3.465   6.598
10413SOL     OW32137   6.497   0.932   4.481
10413SOL    HW132138   6.419   0.994   4.475
10413SOL    HW232139   6.474   0.846   4.435
10414SOL     OW32140   5.585   5.440   5.433
10414SOL    HW132141   5.529   5.519   5.408
10414SOL    HW232142   5.656   5.468   5.497
10415SOL     OW32143   0.161   4.695   3.170
10415SOL    HW132144   0.197   4.610   3.131
10415SOL    HW232145   0.214   4.719   3.251
10416SOL     OW32146   5.016   0.467   0.296
10416SOL    HW132147   5.086   0.532   0.325
10416SOL    HW232148   4.957   0.510   0.227
10417SOL     OW32149   4.692   4.730   4.619
10417SOL    HW132150   4.745   4.812   4.602
10417SOL    HW232151   4.738   4.651   4.578
10418SOL     OW32152   5.692   3.142   0.199
10418SOL    HW132153   5.682   3.064   0.261
10418SOL    HW232154   5.645   3.221   0.238
10419SOL     OW32155   1.159   6.817   4.730
10419SOL    HW132156   1.080   6.808   4.791
10419SOL    HW232157   1.226   6.877   4.772
10420SOL     OW32158   6.269   4.264   3.925
10420SOL    HW132159   6.324   4.225   3.998
10420SOL    HW232160   6.308   4.352   3.897
10421SOL     OW32161   6.884   3.471   4.431
10421SOL    HW132162   6.955   3.530   4.391
10421SOL    HW232163   6.854   3.404   4.363
10422SOL     OW32164   6.107   3.247   5.834
10422SOL    HW132165   6.197   3.211   5.859
10422SOL    HW232166   6.043   3.231   5.909
10423SOL     OW32167   2.609   5.873   1.634
10423SOL    HW132168   2.538   5.907   1.696
10423SOL    HW232169   2.572   5.867   1.542
10424SOL     OW32170   4.659   0.679   2.397
10424SOL    HW132171   4.697   0.589   2.378
10424SOL    HW232172   4.570   0.689   2.351
10425SOL     OW32173   0.365   4.500   0.926
10425SOL    HW132174   0.331   4.524   0.835
10425SOL    HW232175   0.310   4.426   0.965
10426SOL     OW32176   6.536   2.263   0.062
10426SOL    HW132177   6.622   2.220   0.037
10426SOL    HW232178   6.480   2.277   7.003
10427SOL     OW32179   6.470   0.492   4.288
10427SOL    HW132180   6.387   0.460   4.243
10427SOL    HW232181   6.473   0.591   4.288
10428SOL     OW32182   2.001   0.251   4.813
10428SOL    HW132183   1.908   0.276   4.838
10428SOL    HW232184   2.066   0.293   4.877
10429SOL     OW32185   1.917   4.455   1.828
10429SOL    HW132186   2.013   4.425   1.827
10429SOL    HW232187   1.907   4.531   1.891
10430SOL     OW32188   3.084   1.217   4.293
10430SOL    HW132189   3.176   1.231   4.330
10430SOL    HW232190   3.017   1.261   4.353
10431SOL     OW32191   4.431   2.264   3.627
10431SOL    HW132192   4.457   2.360   3.634
10431SOL    HW232193   4.503   2.207   3.667
10432SOL     OW32194   1.507   4.495   1.123
10432SOL    HW132195   1.451   4.415   1.101
10432SOL    HW232196   1.468   4.541   1.203
10433SOL     OW32197   2.991   6.546   4.191
10433SOL    HW132198   3.047   6.535   4.109
10433SOL    HW232199   3.033   6.616   4.250
10434SOL     OW32200   4.311   2.021   0.479
10434SOL    HW132201   4.364   1.940   0.455
10434SOL    HW232202   4.222   2.017   0.433
10435SOL     OW32203   2.485   1.482   1.644
10435SOL    HW132204   2.568   1.449   1.689
10435SOL    HW232205   2.419   1.510   1.713
10436SOL     OW32206   1.483   3.843   4.926
10436SOL    HW132207   1.522   3.785   4.997
10436SOL    HW232208   1.417   3.907   4.966
10437SOL     OW32209   6.824   0.072   5.114
10437SOL    HW132210   6.759   0.086   5.039
10437SOL    HW232211   6.833   0.157   5.166
10438SOL     OW32212   6.860   5.867   6.484
10438SOL    HW132213   6.887   5.849   6.390
10438SOL    HW232214   6.933   5.839   6.546
10439SOL     OW32215   5.709   4.943   5.339
10439SOL    HW132216   5.670   5.010   5.276
10439SOL    HW232217   5.739   4.989   5.422
10440SOL     OW32218   6.250   2.495   1.607
10440SOL    HW132219   6.265   2.443   1.691
10440SOL    HW232220   6.191   2.442   1.546
10441SOL     OW32221   5.031   1.383   5.795
10441SOL    HW132222   5.086   1.441   5.855
10441SOL    HW232223   5.076   1.294   5.785
10442SOL     OW32224   2.385   0.692   5.931
10442SOL    HW132225   2.359   0.607   5.976
10442SOL    HW232226   2.462   0.674   5.869
10443SOL     OW32227   0.710   1.033   6.872
10443SOL    HW132228   0.791   0.996   6.828
10443SOL    HW232229   0.727   1.128   6.899
10444SOL     OW32230   4.507   5.603   3.674
10444SOL    HW132231   4.546   5.539   3.607
10444SOL    HW232232   4.426   5.562   3.715
10445SOL     OW32233   1.371   3.470   3.952
10445SOL    HW132234   1.357   3.453   4.049
10445SOL    HW232235   1.293   3.435   3.900
10446SOL     OW32236   2.864   4.872   5.098
10446SOL    HW132237   2.776   4.904   5.132
10446SOL    HW232238   2.855   4.777   5.067
10447SOL     OW32239   1.345   2.059   2.903
10447SOL    HW132240   1.408   1.982   2.916
10447SOL    HW232241   1.379   2.137   2.955
10448SOL     OW32242   1.016   5.339   2.416
10448SOL    HW132243   0.995   5.297   2.504
10448SOL    HW232244   1.066   5.425   2.431
10449SOL     OW32245   3.896   5.098   4.117
10449SOL    HW132246   3.920   5.097   4.019
10449SOL    HW232247   3.798   5.082   4.127
10450SOL     OW32248   0.312   2.325   4.216
10450SOL    HW132249   0.258   2.272   4.282
10450SOL    HW232250   0.342   2.265   4.142
10451SOL     OW32251   2.052   2.053   5.001
10451SOL    HW132252   2.069   2.013   5.091
10451SOL    HW232253   1.955   2.077   4.993
10452SOL     OW32254   6.962   2.352   4.487
10452SOL    HW132255   7.008   2.382   4.404
10452SOL    HW232256   6.943   2.431   4.545
10453SOL     OW32257   2.768   5.707   4.165
10453SOL    HW132258   2.852   5.692   4.216
10453SOL    HW232259   2.693   5.657   4.209
10454SOL     OW32260   6.849   1.540   6.715
10454SOL    HW132261   6.805   1.496   6.636
10454SOL    HW232262   6.942   1.504   6.726
10455SOL     OW32263   0.792   5.503   2.822
10455SOL    HW132264   0.704   5.518   2.867
10455SOL    HW232265   0.779   5.441   2.744
10456SOL     OW32266   1.177   5.380   6.135
10456SOL    HW132267   1.193   5.471   6.097
10456SOL    HW232268   1.224   5.312   6.079
10457SOL     OW32269   4.354   1.488   1.106
10457SOL    HW132270   4.352   1.587   1.118
10457SOL    HW232271   4.280   1.461   1.044
10458SOL     OW32272   1.968   0.076   6.880
10458SOL    HW132273   1.902   0.060   6.953
10458SOL    HW232274   2.002   0.170   6.886
10459SOL     OW32275   5.679   5.977   0.996
10459SOL    HW132276   5.632   6.037   1.061
10459SOL    HW232277   5.734   6.032   0.932
10460SOL     OW32278   6.595   1.210   6.693
10460SOL    HW132279   6.644   1.154   6.626
10460SOL    HW232280   6.572   1.298   6.652
10461SOL     OW32281   6.545   4.159   5.734
10461SOL    HW132282   6.578   4.110   5.653
10461SOL    HW232283   6.572   4.255   5.727
10462SOL     OW32284   4.342   3.409   6.928
10462SOL    HW132285   4.260   3.465   6.914
10462SOL    HW232286   4.340   3.369   7.019
10463SOL     OW32287   4.617   2.785   5.193
10463SOL    HW132288   4.677   2.734   5.254
10463SOL    HW232289   4.544   2.829   5.246
10464SOL     OW32290   6.499   4.736   2.079
10464SOL    HW132291   6.468   4.716   2.172
10464SOL    HW232292   6.430   4.788   2.031
10465SOL     OW32293   5.285   4.199   0.520
10465SOL    HW132294   5.208   4.228   0.462
10465SOL    HW232295   5.252   4.132   0.587
10466SOL     OW32296   6.398   3.836   5.769
10466SOL    HW132297   6.402   3.795   5.677
10466SOL    HW232298   6.355   3.927   5.763
10467SOL     OW32299   0.548   3.453   6.821
10467SOL    HW132300   0.555   3.537   6.768
10467SOL    HW232301   0.473   3.461   6.887
10468SOL     OW32302   1.514   3.955   3.886
10468SOL    HW132303   1.498   3.943   3.984
10468SOL    HW232304   1.444   4.016   3.848
10469SOL     OW32305   1.355   0.833   4.161
10469SOL    HW132306   1.295   0.876   4.229
10469SOL    HW232307   1.448   0.828   4.198
10470SOL     OW32308   2.645   3.918   1.460
10470SOL    HW132309   2.727   3.928   1.403
10470SOL    HW232310   2.627   3.821   1.476
10471SOL     OW32311   2.157   4.454   5.890
10471SOL    HW132312   2.173   4.430   5.794
10471SOL    HW232313   2.129   4.550   5.895
10472SOL     OW32314   4.147   5.363   5.960
10472SOL    HW132315   4.169   5.460   5.951
10472SOL    HW232316   4.101   5.332   5.877
10473SOL     OW32317   6.250   5.893   0.701
10473SOL    HW132318   6.185   5.844   0.759
10473SOL    HW232319   6.322   5.933   0.758
10474SOL     OW32320   6.111   5.927   5.074
10474SOL    HW132321   6.040   5.935   5.004
10474SOL    HW232322   6.077   5.873   5.151
10475SOL     OW32323   6.899   5.971   1.778
10475SOL    HW132324   6.913   6.063   1.814
10475SOL    HW232325   6.834   5.974   1.703
10476SOL     OW32326   5.241   6.582   1.429
10476SOL    HW132327   5.224   6.484   1.439
10476SOL    HW232328   5.317   6.609   1.488
10477SOL     OW32329   6.672   5.943   3.567
10477SOL    HW132330   6.723   5.907   3.489
10477SOL    HW232331   6.575   5.921   3.556
10478SOL     OW32332   6.628   1.048   0.199
10478SOL    HW132333   6.632   0.989   0.119
10478SOL    HW232334   6.698   1.019   0.265
10479SOL     OW32335   0.109   4.403   3.003
10479SOL    HW132336   0.021   4.420   3.048
10479SOL    HW232337   0.101   4.421   2.905
10480SOL     OW32338   2.423   0.911   3.267
10480SOL    HW132339   2.495   0.869   3.322
10480SOL    HW232340   2.356   0.955   3.327
10481SOL     OW32341   6.261   0.433   2.108
10481SOL    HW132342   6.230   0.497   2.179
10481SOL    HW232343   6.183   0.406   2.051
10482SOL     OW32344   4.704   4.196   4.356
10482SOL    HW132345   4.788   4.144   4.340
10482SOL    HW232346   4.640   4.141   4.410
10483SOL     OW32347   6.184   1.026   6.723
10483SOL    HW132348   6.183   0.926   6.735
10483SOL    HW232349   6.252   1.051   6.654
10484SOL     OW32350   6.295   0.508   1.711
10484SOL    HW132351   6.230   0.583   1.727
10484SOL    HW232352   6.261   0.451   1.636
10485SOL     OW32353   5.759   3.285   5.810
10485SOL    HW132354   5.749   3.266   5.908
10485SOL    HW232355   5.752   3.384   5.795
10486SOL     OW32356   5.919   2.991   2.771
10486SOL    HW132357   5.985   2.951   2.835
10486SOL    HW232358   5.950   3.083   2.745
10487SOL     OW32359   4.007   6.989   3.045
10487SOL    HW132360   3.990   0.062   3.025
10487SOL    HW232361   3.933   6.933   3.007
10488SOL     OW32362   4.382   3.803   6.780
10488SOL    HW132363   4.399   3.776   6.685
10488SOL    HW232364   4.453   3.865   6.810
10489SOL     OW32365   1.837   5.320   5.379
10489SOL    HW132366   1.878   5.229   5.374
10489SOL    HW232367   1.842   5.364   5.290
10490SOL     OW32368   6.066   0.340   4.750
10490SOL    HW132369   6.026   0.292   4.672
10490SOL    HW232370   6.006   0.332   4.829
10491SOL     OW32371   6.610   5.829   4.901
10491SOL    HW132372   6.685   5.796   4.959
10491SOL    HW232373   6.526   5.836   4.956
10492SOL     OW32374   5.036   3.585   5.654
10492SOL    HW132375   5.043   3.512   5.586
10492SOL    HW232376   5.056   3.673   5.611
10493SOL     OW32377   3.409   1.389   0.364
10493SOL    HW132378   3.428   1.418   0.457
10493SOL    HW232379   3.315   1.355   0.359
10494SOL     OW32380   5.334   1.466   5.227
10494SOL    HW132381   5.358   1.390   5.167
10494SOL    HW232382   5.236   1.462   5.248
10495SOL     OW32383   0.989   0.239   6.949
10495SOL    HW132384   1.059   0.196   7.006
10495SOL    HW232385   0.995   0.203   6.856
10496SOL     OW32386   6.978   6.957   5.299
10496SOL    HW132387   6.956   7.015   5.221
10496SOL    HW232388   0.055   6.950   5.309
10497SOL     OW32389   2.324   1.178   6.696
10497SOL    HW132390   2.385   1.230   6.636
10497SOL    HW232391   2.377   1.130   6.766
10498SOL     OW32392   3.316   5.338   5.697
10498SOL    HW132393   3.343   5.358   5.791
10498SOL    HW232394   3.219   5.356   5.685
10499SOL     OW32395   3.435   6.149   2.733
10499SOL    HW132396   3.336   6.161   2.740
10499SOL    HW232397   3.456   6.081   2.663
10500SOL     OW32398   2.188   1.925   6.803
10500SOL    HW132399   2.144   1.903   6.715
10500SOL    HW232400   2.153   2.012   6.836
10501SOL     OW32401   1.643   3.388   3.301
10501SOL    HW132402   1.553   3.346   3.306
10501SOL    HW232403   1.706   3.339   3.361
10502SOL     OW32404   2.888   6.486   4.988
10502SOL    HW132405   2.985   6.483   5.010
10502SOL    HW232406   2.834   6.478   5.072
10503SOL     OW32407   2.626   3.391   6.732
10503SOL    HW132408   2.547   3.337   6.705
10503SOL    HW232409   2.708   3.356   6.686
10504SOL     OW32410   2.108   3.222   0.440
10504SOL    HW132411   2.201   3.236   0.404
10504SOL    HW232412   2.114   3.173   0.527
10505SOL     OW32413   0.232   6.167   0.052
10505SOL    HW132414   0.181   6.116   7.006
10505SOL    HW232415   0.231   6.118   0.138
10506SOL     OW32416   6.699   5.373   5.957
10506SOL    HW132417   6.704   5.302   5.886
10506SOL    HW232418   6.605   5.381   5.989
10507SOL     OW32419   3.242   1.178   3.607
10507SOL    HW132420   3.300   1.223   3.675
10507SOL    HW232421   3.155   1.153   3.648
10508SOL     OW32422   5.164   5.082   3.241
10508SOL    HW132423   5.101   5.158   3.225
10508SOL    HW232424   5.258   5.113   3.230
10509SOL     OW32425   2.347   0.961   5.197
10509SOL    HW132426   2.441   0.936   5.219
10509SOL    HW232427   2.330   0.947   5.099
10510SOL     OW32428   5.805   0.453   6.316
10510SOL    HW132429   5.748   0.374   6.337
10510SOL    HW232430   5.897   0.421   6.293
10511SOL     OW32431   6.766   2.545   1.702
10511SOL    HW132432   6.855   2.590   1.696
10511SOL    HW232433   6.709   2.594   1.768
10512SOL     OW32434   2.193   6.946   6.594
10512SOL    HW132435   2.213   6.985   6.684
10512SOL    HW232436   2.150   6.857   6.606
10513SOL     OW32437   6.741   2.636   0.880
10513SOL    HW132438   6.762   2.689   0.798
10513SOL    HW232439   6.814   2.650   0.948
10514SOL     OW32440   2.054   2.837   1.512
10514SOL    HW132441   2.037   2.746   1.552
10514SOL    HW232442   2.064   2.904   1.586
10515SOL     OW32443   0.342   3.524   4.921
10515SOL    HW132444   0.272   3.566   4.863
10515SOL    HW232445   0.388   3.596   4.974
10516SOL     OW32446   2.743   6.789   0.509
10516SOL    HW132447   2.839   6.818   0.513
10516SOL    HW232448   2.719   6.742   0.594
10517SOL     OW32449   0.499   2.537   3.628
10517SOL    HW132450   0.598   2.530   3.639
10517SOL    HW232451   0.460   2.446   3.613
10518SOL     OW32452   0.619   6.437   3.024
10518SOL    HW132453   0.577   6.436   2.933
10518SOL    HW232454   0.612   6.346   3.065
10519SOL     OW32455   3.977   3.116   5.392
10519SOL    HW132456   3.928   3.075   5.468
10519SOL    HW232457   4.052   3.172   5.426
10520SOL     OW32458   3.129   4.955   6.768
10520SOL    HW132459   3.124   4.952   6.669
10520SOL    HW232460   3.211   4.907   6.799
10521SOL     OW32461   6.412   5.308   2.361
10521SOL    HW132462   6.342   5.366   2.319
10521SOL    HW232463   6.412   5.323   2.460
10522SOL     OW32464   5.980   6.840   2.614
10522SOL    HW132465   5.910   6.872   2.678
10522SOL    HW232466   6.017   6.918   2.562
10523SOL     OW32467   5.957   6.936   6.528
10523SOL    HW132468   5.880   6.874   6.539
10523SOL    HW232469   5.927   0.007   6.542
10524SOL     OW32470   4.703   0.945   5.118
10524SOL    HW132471   4.686   1.006   5.195
10524SOL    HW232472   4.700   0.997   5.033
10525SOL     OW32473   2.031   0.380   5.619
10525SOL    HW132474   1.934   0.402   5.621
10525SOL    HW232475   2.073   0.405   5.706
10526SOL     OW32476   4.375   5.549   2.516
10526SOL    HW132477   4.450   5.562   2.581
10526SOL    HW232478   4.325   5.635   2.505
10527SOL     OW32479   1.924   2.779   4.036
10527SOL    HW132480   1.967   2.695   4.004
10527SOL    HW232481   1.870   2.760   4.118
10528SOL     OW32482   5.737   4.595   6.356
10528SOL    HW132483   5.733   4.502   6.321
10528SOL    HW232484   5.826   4.610   6.400
10529SOL     OW32485   6.811   5.707   5.104
10529SOL    HW132486   6.887   5.645   5.086
10529SOL    HW232487   6.738   5.657   5.151
10530SOL     OW32488   1.394   1.486   4.992
10530SOL    HW132489   1.298   1.461   4.978
10530SOL    HW232490   1.444   1.406   5.026
10531SOL     OW32491   2.552   2.348   4.520
10531SOL    HW132492   2.573   2.335   4.423
10531SOL    HW232493   2.631   2.320   4.574
10532SOL     OW32494   3.569   3.397   4.389
10532SOL    HW132495   3.557   3.469   4.320
10532SOL    HW232496   3.636   3.427   4.457
10533SOL     OW32497   3.663   0.690   6.297
10533SOL    HW132498   3.675   0.769   6.357
10533SOL    HW232499   3.751   0.666   6.255
10534SOL     OW32500   5.471   4.418   1.990
10534SOL    HW132501   5.442   4.396   1.897
10534SOL    HW232502   5.569   4.437   1.991
10535SOL     OW32503   0.640   1.239   1.784
10535SOL    HW132504   0.710   1.182   1.827
10535SOL    HW232505   0.660   1.335   1.802
10536SOL     OW32506   5.824   5.748   2.957
10536SOL    HW132507   5.810   5.838   2.916
10536SOL    HW232508   5.787   5.677   2.897
10537SOL     OW32509   6.279   5.424   1.416
10537SOL    HW132510   6.346   5.499   1.411
10537SOL    HW232511   6.186   5.462   1.409
10538SOL     OW32512   4.538   3.387   6.458
10538SOL    HW132513   4.555   3.485   6.469
10538SOL    HW232514   4.461   3.360   6.516
10539SOL     OW32515   1.070   2.928   5.080
10539SOL    HW132516   1.042   2.833   5.068
10539SOL    HW232517   1.165   2.931   5.113
10540SOL     OW32518   3.494   1.128   0.849
10540SOL    HW132519   3.477   1.033   0.872
10540SOL    HW232520   3.569   1.163   0.905
10541SOL     OW32521   3.113   2.066   1.454
10541SOL    HW132522   3.212   2.053   1.447
10541SOL    HW232523   3.068   1.976   1.464
10542SOL     OW32524   1.957   2.208   0.415
10542SOL    HW132525   2.029   2.230   0.481
10542SOL    HW232526   1.935   2.111   0.420
10543SOL     OW32527   2.730   0.339   4.115
10543SOL    HW132528   2.781   0.325   4.200
10543SOL    HW232529   2.734   0.257   4.059
10544SOL     OW32530   0.311   2.104   1.054
10544SOL    HW132531   0.267   2.074   1.139
10544SOL    HW232532   0.285   2.199   1.035
10545SOL     OW32533   4.113   1.187   2.892
10545SOL    HW132534   4.152   1.164   2.981
10545SOL    HW232535   4.186   1.193   2.824
10546SOL     OW32536   4.578   0.405   5.053
10546SOL    HW132537   4.513   0.379   5.124
10546SOL    HW232538   4.578   0.505   5.044
10547SOL     OW32539   4.908   6.377   2.173
10547SOL    HW132540   4.898   6.453   2.109
10547SOL    HW232541   4.819   6.337   2.192
10548SOL     OW32542   4.558   4.164   5.324
10548SOL    HW132543   4.490   4.234   5.346
10548SOL    HW232544   4.628   4.161   5.395
10549SOL     OW32545   0.771   1.147   2.090
10549SOL    HW132546   0.817   1.115   2.008
10549SOL    HW232547   0.772   1.076   2.160
10550SOL     OW32548   4.626   6.989   5.314
10550SOL    HW132549   4.527   6.991   5.307
10550SOL    HW232550   4.654   7.022   5.404
10551SOL     OW32551   1.822   2.955   6.081
10551SOL    HW132552   1.868   2.927   6.165
10551SOL    HW232553   1.865   2.909   6.003
10552SOL     OW32554   3.176   1.199   5.544
10552SOL    HW132555   3.202   1.173   5.451
10552SOL    HW232556   3.078   1.183   5.557
10553SOL     OW32557   2.739   4.778   6.427
10553SOL    HW132558   2.694   4.689   6.424
10553SOL    HW232559   2.781   4.791   6.517
10554SOL     OW32560   6.046   3.437   6.145
10554SOL    HW132561   6.005   3.362   6.094
10554SOL    HW232562   6.145   3.438   6.129
10555SOL     OW32563   3.514   2.521   0.994
10555SOL    HW132564   3.419   2.512   1.022
10555SOL    HW232565   3.559   2.432   0.998
10556SOL     OW32566   1.986   4.850   4.080
10556SOL    HW132567   1.956   4.823   3.989
10556SOL    HW232568   2.074   4.809   4.100
10557SOL     OW32569   5.515   1.522   2.839
10557SOL    HW132570   5.449   1.596   2.852
10557SOL    HW232571   5.564   1.535   2.753
10558SOL     OW32572   5.875   5.671   5.904
10558SOL    HW132573   5.965   5.647   5.867
10558SOL    HW232574   5.856   5.613   5.984
10559SOL     OW32575   4.307   2.908   1.274
10559SOL    HW132576   4.330   2.821   1.231
10559SOL    HW232577   4.329   2.904   1.372
10560SOL     OW32578   0.186   1.969   4.037
10560SOL    HW132579   0.208   1.880   3.997
10560SOL    HW232580   0.088   1.986   4.027
10561SOL     OW32581   2.099   3.784   6.655
10561SOL    HW132582   2.084   3.741   6.566
10561SOL    HW232583   2.102   3.884   6.643
10562SOL     OW32584   4.559   2.077   0.905
10562SOL    HW132585   4.477   2.102   0.854
10562SOL    HW232586   4.601   2.159   0.944
10563SOL     OW32587   1.508   2.377   2.325
10563SOL    HW132588   1.559   2.393   2.409
10563SOL    HW232589   1.490   2.464   2.279
10564SOL     OW32590   0.153   2.176   2.511
10564SOL    HW132591   0.178   2.151   2.417
10564SOL    HW232592   0.118   2.095   2.558
10565SOL     OW32593   5.199   2.274   5.030
10565SOL    HW132594   5.240   2.278   5.121
10565SOL    HW232595   5.245   2.204   4.976
10566SOL     OW32596   4.882   5.581   0.098
10566SOL    HW132597   4.887   5.502   0.159
10566SOL    HW232598   4.912   5.554   0.006
10567SOL     OW32599   2.479   5.611   4.821
10567SOL    HW132600   2.506   5.524   4.778
10567SOL    HW232601   2.384   5.631   4.798
10568SOL     OW32602   3.901   0.784   3.700
10568SOL    HW132603   3.852   0.738   3.626
10568SOL    HW232604   3.848   0.779   3.784
10569SOL     OW32605   6.438   2.026   3.869
10569SOL    HW132606   6.409   1.949   3.925
10569SOL    HW232607   6.531   2.010   3.835
10570SOL     OW32608   0.864   3.748   1.336
10570SOL    HW132609   0.840   3.793   1.250
10570SOL    HW232610   0.955   3.707   1.328
10571SOL     OW32611   6.745   6.747   4.448
10571SOL    HW132612   6.706   6.665   4.406
10571SOL    HW232613   6.809   6.789   4.384
10572SOL     OW32614   6.060   3.453   2.787
10572SOL    HW132615   5.990   3.385   2.767
10572SOL    HW232616   6.090   3.496   2.701
10573SOL     OW32617   6.507   5.163   5.578
10573SOL    HW132618   6.415   5.170   5.615
10573SOL    HW232619   6.573   5.174   5.652
10574SOL     OW32620   0.476   2.231   2.354
10574SOL    HW132621   0.464   2.314   2.409
10574SOL    HW232622   0.544   2.248   2.283
10575SOL     OW32623   6.908   6.975   6.125
10575SOL    HW132624   6.890   6.973   6.027
10575SOL    HW232625   6.824   6.998   6.174
10576SOL     OW32626   0.638   5.694   3.686
10576SOL    HW132627   0.543   5.702   3.657
10576SOL    HW232628   0.669   5.599   3.677
10577SOL     OW32629   6.985   2.808   5.691
10577SOL    HW132630   0.007   2.827   5.603
10577SOL    HW232631   6.945   2.716   5.688
10578SOL     OW32632   5.093   0.857   5.322
10578SOL    HW132633   5.032   0.778   5.316
10578SOL    HW232634   5.188   0.825   5.326
10579SOL     OW32635   5.729   6.335   1.126
10579SOL    HW132636   5.657   6.306   1.190
10579SOL    HW232637   5.752   6.431   1.144
10580SOL     OW32638   0.920   5.338   0.420
10580SOL    HW132639   0.974   5.257   0.399
10580SOL    HW232640   0.827   5.327   0.385
10581SOL     OW32641   4.225   2.240   2.945
10581SOL    HW132642   4.288   2.303   2.990
10581SOL    HW232643   4.132   2.255   2.978
10582SOL     OW32644   3.344   4.261   6.691
10582SOL    HW132645   3.317   4.263   6.595
10582SOL    HW232646   3.430   4.310   6.703
10583SOL     OW32647   4.841   1.038   1.117
10583SOL    HW132648   4.791   0.969   1.170
10583SOL    HW232649   4.777   1.105   1.079
10584SOL     OW32650   5.632   6.835   1.430
10584SOL    HW132651   5.658   6.738   1.425
10584SOL    HW232652   5.595   6.864   1.341
10585SOL     OW32653   3.024   4.558   6.673
10585SOL    HW132654   3.046   4.509   6.757
10585SOL    HW232655   3.042   4.499   6.594
10586SOL     OW32656   5.193   2.174   1.741
10586SOL    HW132657   5.188   2.138   1.648
10586SOL    HW232658   5.108   2.154   1.789
10587SOL     OW32659   0.064   3.512   0.320
10587SOL    HW132660   7.016   3.443   0.306
10587SOL    HW232661   0.043   3.564   0.403
10588SOL     OW32662   1.993   5.351   3.574
10588SOL    HW132663   2.054   5.424   3.604
10588SOL    HW232664   1.933   5.385   3.502
10589SOL     OW32665   6.274   1.102   4.466
10589SOL    HW132666   6.318   1.182   4.426
10589SOL    HW232667   6.224   1.052   4.396
10590SOL     OW32668   1.190   0.171   4.600
10590SOL    HW132669   1.124   0.111   4.556
10590SOL    HW232670   1.197   0.148   4.697
10591SOL     OW32671   1.366   2.350   1.659
10591SOL    HW132672   1.318   2.270   1.625
10591SOL    HW232673   1.408   2.329   1.748
10592SOL     OW32674   4.796   1.579   6.022
10592SOL    HW132675   4.823   1.674   6.039
10592SOL    HW232676   4.756   1.572   5.931
10593SOL     OW32677   1.686   3.678   2.117
10593SOL    HW132678   1.759   3.742   2.143
10593SOL    HW232679   1.604   3.699   2.170
10594SOL     OW32680   1.340   1.577   4.574
10594SOL    HW132681   1.372   1.649   4.512
10594SOL    HW232682   1.356   1.487   4.531
10595SOL     OW32683   1.807   5.712   4.826
10595SOL    HW132684   1.770   5.719   4.733
10595SOL    HW232685   1.790   5.620   4.862
10596SOL     OW32686   2.712   1.260   1.223
10596SOL    HW132687   2.648   1.184   1.205
10596SOL    HW232688   2.746   1.296   1.137
10597SOL     OW32689   1.662   0.859   3.795
10597SOL    HW132690   1.679   0.809   3.710
10597SOL    HW232691   1.723   0.825   3.867
10598SOL     OW32692   2.828   0.917   0.773
10598SOL    HW132693   2.810   0.884   0.866
10598SOL    HW232694   2.797   0.849   0.707
10599SOL     OW32695   4.779   0.145   6.257
10599SOL    HW132696   4.781   0.051   6.292
10599SOL    HW232697   4.756   0.207   6.332
10600SOL     OW32698   1.846   3.029   4.949
10600SOL    HW132699   1.943   3.008   4.960
10600SOL    HW232700   1.834   3.090   4.871
10601SOL     OW32701   4.199   6.054   5.278
10601SOL    HW132702   4.153   5.988   5.218
10601SOL    HW232703   4.140   6.133   5.292
10602SOL     OW32704   4.792   2.344   2.163
10602SOL    HW132705   4.891   2.339   2.179
10602SOL    HW232706   4.748   2.388   2.241
10603SOL     OW32707   0.854   5.416   5.273
10603SOL    HW132708   0.903   5.483   5.329
10603SOL    HW232709   0.792   5.363   5.331
10604SOL     OW32710   0.158   4.498   6.449
10604SOL    HW132711   0.221   4.438   6.400
10604SOL    HW232712   0.209   4.556   6.512
10605SOL     OW32713   1.122   5.109   0.053
10605SOL    HW132714   1.089   5.049   0.125
10605SOL    HW232715   1.084   5.080   6.988
10606SOL     OW32716   1.256   1.059   1.998
10606SOL    HW132717   1.264   1.138   2.058
10606SOL    HW232718   1.331   1.059   1.932
10607SOL     OW32719   5.443   3.965   0.053
10607SOL    HW132720   5.480   3.872   0.057
10607SOL    HW232721   5.518   4.029   0.034
10608SOL     OW32722   5.744   5.950   2.717
10608SOL    HW132723   5.776   5.900   2.636
10608SOL    HW232724   5.822   5.973   2.775
10609SOL     OW32725   4.022   6.488   3.220
10609SOL    HW132726   4.058   6.531   3.303
10609SOL    HW232727   4.097   6.474   3.155
10610SOL     OW32728   2.409   4.367   5.165
10610SOL    HW132729   2.404   4.318   5.078
10610SOL    HW232730   2.369   4.311   5.237
10611SOL     OW32731   4.972   2.099   5.983
10611SOL    HW132732   4.929   2.136   6.065
10611SOL    HW232733   5.027   2.170   5.939
10612SOL     OW32734   2.407   0.210   1.482
10612SOL    HW132735   2.329   0.174   1.432
10612SOL    HW232736   2.408   0.310   1.476
10613SOL     OW32737   1.254   6.534   6.908
10613SOL    HW132738   1.193   6.553   6.985
10613SOL    HW232739   1.347   6.560   6.933
10614SOL     OW32740   0.582   1.063   2.599
10614SOL    HW132741   0.494   1.089   2.561
10614SOL    HW232742   0.647   1.138   2.587
10615SOL     OW32743   0.359   6.617   5.948
10615SOL    HW132744   0.382   6.526   5.914
10615SOL    HW232745   0.385   6.686   5.880
10616SOL     OW32746   3.637   5.450   1.674
10616SOL    HW132747   3.724   5.482   1.637
10616SOL    HW232748   3.611   5.508   1.752
10617SOL     OW32749   6.270   2.015   6.541
10617SOL    HW132750   6.267   2.070   6.457
10617SOL    HW232751   6.327   1.934   6.526
10618SOL     OW32752   6.573   4.177   0.889
10618SOL    HW132753   6.481   4.157   0.854
10618SOL    HW232754   6.599   4.270   0.864
10619SOL     OW32755   0.106   3.658   3.564
10619SOL    HW132756   0.162   3.596   3.510
10619SOL    HW232757   0.053   3.607   3.631
10620SOL     OW32758   1.618   5.205   3.779
10620SOL    HW132759   1.610   5.291   3.727
10620SOL    HW232760   1.539   5.147   3.759
10621SOL     OW32761   3.767   0.634   0.720
10621SOL    HW132762   3.780   0.554   0.779
10621SOL    HW232763   3.786   0.609   0.625
10622SOL     OW32764   3.949   2.216   0.543
10622SOL    HW132765   3.983   2.262   0.625
10622SOL    HW232766   3.914   2.284   0.479
10623SOL     OW32767   0.388   1.339   4.206
10623SOL    HW132768   0.369   1.435   4.224
10623SOL    HW232769   0.471   1.331   4.151
10624SOL     OW32770   2.430   1.465   3.627
10624SOL    HW132771   2.507   1.528   3.629
10624SOL    HW232772   2.347   1.516   3.603
10625SOL     OW32773   0.677   2.650   1.117
10625SOL    HW132774   0.725   2.589   1.054
10625SOL    HW232775   0.737   2.727   1.141
10626SOL     OW32776   0.457   2.150   3.147
10626SOL    HW132777   0.406   2.178   3.066
10626SOL    HW232778   0.523   2.079   3.122
10627SOL     OW32779   3.837   5.254   4.565
10627SOL    HW132780   3.794   5.340   4.537
10627SOL    HW232781   3.785   5.177   4.526
10628SOL     OW32782   7.001   6.725   5.009
10628SOL    HW132783   6.925   6.701   5.070
10628SOL    HW232784   0.057   6.669   5.031
10629SOL     OW32785   3.334   4.560   6.623
10629SOL    HW132786   3.250   4.537   6.574
10629SOL    HW232787   3.315   4.562   6.721
10630SOL     OW32788   5.556   1.501   1.606
10630SOL    HW132789   5.569   1.496   1.705
10630SOL    HW232790   5.644   1.494   1.561
10631SOL     OW32791   1.558   0.059   4.097
10631SOL    HW132792   1.476   0.043   4.151
10631SOL    HW232793   1.582   0.156   4.102
10632SOL     OW32794   6.456   2.728   0.398
10632SOL    HW132795   6.445   2.630   0.417
10632SOL    HW232796   6.512   2.740   0.316
10633SOL     OW32797   1.365   4.952   6.951
10633SOL    HW132798   1.305   4.999   7.016
10633SOL    HW232799   1.353   4.854   6.959
10634SOL     OW32800   3.425   6.406   2.097
10634SOL    HW132801   3.507   6.398   2.153
10634SOL    HW232802   3.445   6.375   2.004
10635SOL     OW32803   0.961   0.488   1.338
10635SOL    HW132804   1.021   0.567   1.324
10635SOL    HW232805   0.868   0.510   1.308
10636SOL     OW32806   4.931   1.947   0.068
10636SOL    HW132807   4.958   2.042   0.050
10636SOL    HW232808   4.837   1.933   0.036
10637SOL     OW32809   3.468   3.928   6.482
10637SOL    HW132810   3.547   3.956   6.537
10637SOL    HW232811   3.385   3.935   6.537
10638SOL     OW32812   6.948   1.447   5.434
10638SOL    HW132813   6.953   1.540   5.396
10638SOL    HW232814   6.874   1.443   5.502
10639SOL     OW32815   3.473   1.813   4.611
10639SOL    HW132816   3.481   1.907   4.644
10639SOL    HW232817   3.499   1.810   4.514
10640SOL     OW32818   4.690   6.123   0.827
10640SOL    HW132819   4.702   6.076   0.739
10640SOL    HW232820   4.739   6.210   0.825
10641SOL     OW32821   3.381   6.699   6.896
10641SOL    HW132822   3.393   6.658   6.986
10641SOL    HW232823   3.283   6.711   6.877
10642SOL     OW32824   0.494   5.728   1.996
10642SOL    HW132825   0.407   5.701   2.037
10642SOL    HW232826   0.567   5.724   2.065
10643SOL     OW32827   3.412   3.533   5.999
10643SOL    HW132828   3.355   3.611   5.971
10643SOL    HW232829   3.390   3.454   5.941
10644SOL     OW32830   4.214   1.035   5.641
10644SOL    HW132831   4.282   1.080   5.699
10644SOL    HW232832   4.213   1.078   5.551
10645SOL     OW32833   1.705   0.578   3.431
10645SOL    HW132834   1.622   0.599   3.378
10645SOL    HW232835   1.744   0.492   3.399
10646SOL     OW32836   6.785   5.146   6.547
10646SOL    HW132837   6.704   5.201   6.566
10646SOL    HW232838   6.804   5.147   6.449
10647SOL     OW32839   6.787   5.977   1.196
10647SOL    HW132840   6.691   5.953   1.182
10647SOL    HW232841   6.834   5.981   1.108
10648SOL     OW32842   4.812   3.983   6.506
10648SOL    HW132843   4.822   3.902   6.448
10648SOL    HW232844   4.731   3.972   6.564
10649SOL     OW32845   6.897   5.002   6.235
10649SOL    HW132846   6.982   4.987   6.284
10649SOL    HW232847   6.867   5.096   6.249
10650SOL     OW32848   2.031   0.085   5.786
10650SOL    HW132849   2.085   0.103   5.868
10650SOL    HW232850   2.010   7.010   5.780
10651SOL     OW32851   1.808   0.556   5.635
10651SOL    HW132852   1.779   0.613   5.712
10651SOL    HW232853   1.830   0.615   5.557
10652SOL     OW32854   4.797   0.193   0.349
10652SOL    HW132855   4.844   0.176   0.262
10652SOL    HW232856   4.733   0.269   0.338
10653SOL     OW32857   5.951   3.940   4.145
10653SOL    HW132858   5.888   3.961   4.070
10653SOL    HW232859   6.023   3.878   4.112
10654SOL     OW32860   4.986   0.226   1.565
10654SOL    HW132861   5.061   0.270   1.515
10654SOL    HW232862   4.923   0.296   1.598
10655SOL     OW32863   2.840   6.138   0.955
10655SOL    HW132864   2.893   6.158   1.037
10655SOL    HW232865   2.766   6.074   0.977
10656SOL     OW32866   6.922   2.730   5.975
10656SOL    HW132867   6.989   2.736   6.050
10656SOL    HW232868   6.968   2.748   5.888
10657SOL     OW32869   6.012   0.014   0.319
10657SOL    HW132870   5.946   0.079   0.357
10657SOL    HW232871   6.057   6.988   0.394
10658SOL     OW32872   0.220   6.276   4.065
10658SOL    HW132873   0.281   6.338   4.115
10658SOL    HW232874   0.226   6.184   4.104
10659SOL     OW32875   5.484   1.199   1.614
10659SOL    HW132876   5.545   1.266   1.572
10659SOL    HW232877   5.453   1.233   1.703
10660SOL     OW32878   4.943   5.008   5.064
10660SOL    HW132879   5.014   4.947   5.030
10660SOL    HW232880   4.978   5.102   5.067
10661SOL     OW32881   0.103   0.602   2.033
10661SOL    HW132882   0.136   0.546   1.956
10661SOL    HW232883   0.078   0.542   2.109
10662SOL     OW32884   0.539   2.298   0.569
10662SOL    HW132885   0.468   2.352   0.525
10662SOL    HW232886   0.584   2.353   0.639
10663SOL     OW32887   1.020   2.464   1.907
10663SOL    HW132888   1.000   2.417   1.821
10663SOL    HW232889   0.980   2.414   1.983
10664SOL     OW32890   2.212   5.354   6.485
10664SOL    HW132891   2.203   5.264   6.528
10664SOL    HW232892   2.185   5.347   6.389
10665SOL     OW32893   5.601   2.370   6.476
10665SOL    HW132894   5.698   2.373   6.451
10665SOL    HW232895   5.591   2.334   6.569
10666SOL     OW32896   0.277   6.555   0.453
10666SOL    HW132897   0.294   6.554   0.551
10666SOL    HW232898   0.352   6.508   0.406
10667SOL     OW32899   3.106   2.243   5.414
10667SOL    HW132900   3.016   2.203   5.434
10667SOL    HW232901   3.101   2.292   5.326
10668SOL     OW32902   1.269   0.385   6.190
10668SOL    HW132903   1.272   0.358   6.286
10668SOL    HW232904   1.264   0.485   6.184
10669SOL     OW32905   2.495   5.394   6.561
10669SOL    HW132906   2.534   5.458   6.627
10669SOL    HW232907   2.399   5.415   6.546
10670SOL     OW32908   5.944   4.101   5.132
10670SOL    HW132909   5.953   4.186   5.185
10670SOL    HW232910   5.861   4.107   5.076
10671SOL     OW32911   2.314   2.752   3.325
10671SOL    HW132912   2.384   2.708   3.382
10671SOL    HW232913   2.246   2.795   3.384
10672SOL     OW32914   6.800   2.448   0.491
10672SOL    HW132915   6.751   2.402   0.417
10672SOL    HW232916   6.883   2.397   0.514
10673SOL     OW32917   3.239   4.105   3.121
10673SOL    HW132918   3.162   4.153   3.163
10673SOL    HW232919   3.241   4.011   3.153
10674SOL     OW32920   4.076   1.560   2.653
10674SOL    HW132921   4.032   1.472   2.631
10674SOL    HW232922   4.154   1.544   2.713
10675SOL     OW32923   1.183   1.835   5.304
10675SOL    HW132924   1.240   1.766   5.259
10675SOL    HW232925   1.195   1.829   5.403
10676SOL     OW32926   6.156   0.768   6.727
10676SOL    HW132927   6.072   0.726   6.761
10676SOL    HW232928   6.230   0.701   6.727
10677SOL     OW32929   4.841   0.934   6.579
10677SOL    HW132930   4.849   1.002   6.507
10677SOL    HW232931   4.926   0.930   6.630
10678SOL     OW32932   2.256   5.443   3.905
10678SOL    HW132933   2.215   5.388   3.978
10678SOL    HW232934   2.355   5.429   3.904
10679SOL     OW32935   6.021   5.517   4.016
10679SOL    HW132936   5.944   5.529   3.954
10679SOL    HW232937   6.102   5.491   3.965
10680SOL     OW32938   0.113   2.683   3.710
10680SOL    HW132939   0.117   2.695   3.611
10680SOL    HW232940   0.030   2.632   3.734
10681SOL     OW32941   0.495   3.329   6.552
10681SOL    HW132942   0.521   3.234   6.541
10681SOL    HW232943   0.533   3.365   6.637
10682SOL     OW32944   6.084   2.066   3.408
10682SOL    HW132945   6.160   2.015   3.450
10682SOL    HW232946   6.080   2.157   3.448
10683SOL     OW32947   0.534   0.143   4.812
10683SOL    HW132948   0.582   0.230   4.819
10683SOL    HW232949   0.458   0.151   4.747
10684SOL     OW32950   5.017   6.094   0.869
10684SOL    HW132951   5.037   6.188   0.897
10684SOL    HW232952   4.997   6.039   0.950
10685SOL     OW32953   6.568   2.142   3.176
10685SOL    HW132954   6.654   2.152   3.126
10685SOL    HW232955   6.521   2.059   3.144
10686SOL     OW32956   5.425   4.569   1.521
10686SOL    HW132957   5.326   4.576   1.523
10686SOL    HW232958   5.456   4.550   1.428
10687SOL     OW32959   0.257   5.462   0.976
10687SOL    HW132960   0.168   5.464   0.931
10687SOL    HW232961   0.323   5.513   0.921
10688SOL     OW32962   1.729   4.597   0.950
10688SOL    HW132963   1.656   4.580   0.884
10688SOL    HW232964   1.703   4.558   1.039
10689SOL     OW32965   0.301   0.693   1.538
10689SOL    HW132966   0.230   0.745   1.489
10689SOL    HW232967   0.328   0.743   1.620
10690SOL     OW32968   3.779   0.597   2.875
10690SOL    HW132969   3.683   0.621   2.861
10690SOL    HW232970   3.788   0.544   2.960
10691SOL     OW32971   5.317   1.571   1.367
10691SOL    HW132972   5.234   1.626   1.360
10691SOL    HW232973   5.378   1.611   1.435
10692SOL     OW32974   5.560   6.412   3.877
10692SOL    HW132975   5.463   6.403   3.900
10692SOL    HW232976   5.571   6.475   3.800
10693SOL     OW32977   4.376   2.434   4.496
10693SOL    HW132978   4.398   2.502   4.567
10693SOL    HW232979   4.395   2.343   4.531
10694SOL     OW32980   3.026   6.261   0.178
10694SOL    HW132981   3.036   6.186   0.243
10694SOL    HW232982   3.095   6.331   0.197
10695SOL     OW32983   6.105   2.679   5.780
10695SOL    HW132984   6.013   2.712   5.758
10695SOL    HW232985   6.123   2.691   5.877
10696SOL     OW32986   6.531   0.666   1.120
10696SOL    HW132987   6.534   0.567   1.127
10696SOL    HW232988   6.601   0.705   1.181
10697SOL     OW32989   2.909   5.920   2.778
10697SOL    HW132990   2.853   5.984   2.831
10697SOL    HW232991   2.870   5.828   2.786
10698SOL     OW32992   3.862   6.925   3.727
10698SOL    HW132993   3.907   6.840   3.756
10698SOL    HW232994   3.926   6.981   3.675
10699SOL     OW32995   0.038   4.220   3.473
10699SOL    HW132996   0.010   4.229   3.377
10699SOL    HW232997   0.137   4.208   3.477
10700SOL     OW32998   0.722   3.070   3.065
10700SOL    HW132999   0.729   3.046   2.969
10700SOL    HW233000   0.761   2.997   3.121
10701SOL     OW33001   2.295   6.872   1.415
10701SOL    HW133002   2.352   6.816   1.475
10701SOL    HW233003   2.250   6.943   1.468
10702SOL     OW33004   4.884   1.832   0.944
10702SOL    HW133005   4.839   1.824   0.855
10702SOL    HW233006   4.815   1.833   1.016
10703SOL     OW33007   3.591   3.850   4.039
10703SOL    HW133008   3.659   3.920   4.017
10703SOL    HW233009   3.517   3.852   3.972
10704SOL     OW33010   5.263   4.994   1.200
10704SOL    HW133011   5.164   5.008   1.196
10704SOL    HW233012   5.290   4.978   1.295
10705SOL     OW33013   0.909   2.929   6.890
10705SOL    HW133014   0.936   2.993   6.817
10705SOL    HW233015   0.927   2.835   6.861
10706SOL     OW33016   3.172   3.680   0.643
10706SOL    HW133017   3.081   3.640   0.649
10706SOL    HW233018   3.239   3.609   0.624
10707SOL     OW33019   6.370   0.630   6.644
10707SOL    HW133020   6.425   0.548   6.647
10707SOL    HW233021   6.389   0.680   6.560
10708SOL     OW33022   4.475   3.216   1.460
10708SOL    HW133023   4.421   3.301   1.462
10708SOL    HW233024   4.460   3.166   1.545
10709SOL     OW33025   1.168   1.451   6.157
10709SOL    HW133026   1.105   1.397   6.213
10709SOL    HW233027   1.141   1.547   6.158
10710SOL     OW33028   6.649   6.911   3.531
10710SOL    HW133029   6.663   6.865   3.443
10710SOL    HW233030   6.728   6.895   3.590
10711SOL     OW33031   2.028   3.791   5.433
10711SOL    HW133032   1.996   3.737   5.511
10711SOL    HW233033   1.967   3.869   5.421
10712SOL     OW33034   3.779   2.321   5.938
10712SOL    HW133035   3.791   2.231   5.979
10712SOL    HW233036   3.839   2.330   5.858
10713SOL     OW33037   2.789   0.293   0.452
10713SOL    HW133038   2.841   0.219   0.494
10713SOL    HW233039   2.844   0.376   0.453
10714SOL     OW33040   4.938   5.716   4.312
10714SOL    HW133041   4.934   5.759   4.402
10714SOL    HW233042   4.865   5.752   4.254
10715SOL     OW33043   5.778   0.095   2.617
10715SOL    HW133044   5.862   0.129   2.661
10715SOL    HW233045   5.717   0.059   2.687
10716SOL     OW33046   6.570   1.939   2.312
10716SOL    HW133047   6.554   1.849   2.352
10716SOL    HW233048   6.638   1.988   2.367
10717SOL     OW33049   0.463   6.484   1.205
10717SOL    HW133050   0.501   6.572   1.232
10717SOL    HW233051   0.375   6.498   1.159
10718SOL     OW33052   0.480   4.947   5.178
10718SOL    HW133053   0.468   4.850   5.158
10718SOL    HW233054   0.411   4.977   5.244
10719SOL     OW33055   3.374   6.270   3.648
10719SOL    HW133056   3.398   6.348   3.591
10719SOL    HW233057   3.344   6.194   3.590
10720SOL     OW33058   0.970   3.227   5.994
10720SOL    HW133059   0.969   3.321   5.962
10720SOL    HW233060   0.891   3.178   5.957
10721SOL     OW33061   5.391   1.182   4.375
10721SOL    HW133062   5.376   1.167   4.472
10721SOL    HW233063   5.332   1.256   4.343
10722SOL     OW33064   0.691   4.980   0.456
10722SOL    HW133065   0.697   4.916   0.380
10722SOL    HW233066   0.767   4.965   0.519
10723SOL     OW33067   0.097   4.191   6.071
10723SOL    HW133068   7.022   4.211   6.066
10723SOL    HW233069   0.110   4.100   6.110
10724SOL     OW33070   3.856   6.237   5.636
10724SOL    HW133071   3.756   6.226   5.633
10724SOL    HW233072   3.878   6.329   5.670
10725SOL     OW33073   6.928   0.322   5.209
10725SOL    HW133074   7.011   0.286   5.250
10725SOL    HW233075   6.950   0.403   5.154
10726SOL     OW33076   0.062   0.458   3.534
10726SOL    HW133077   0.048   0.535   3.472
10726SOL    HW233078   0.111   0.385   3.486
10727SOL     OW33079   5.065   5.777   6.126
10727SOL    HW133080   5.130   5.847   6.094
10727SOL    HW233081   5.092   5.746   6.217
10728SOL     OW33082   4.812   6.275   4.631
10728SOL    HW133083   4.840   6.365   4.664
10728SOL    HW233084   4.798   6.279   4.532
10729SOL     OW33085   6.574   3.207   4.342
10729SOL    HW133086   6.498   3.143   4.329
10729SOL    HW233087   6.556   3.266   4.420
10730SOL     OW33088   1.118   5.993   4.152
10730SOL    HW133089   1.077   6.044   4.078
10730SOL    HW233090   1.074   6.017   4.239
10731SOL     OW33091   5.052   4.152   5.334
10731SOL    HW133092   5.045   4.055   5.312
10731SOL    HW233093   5.043   4.165   5.432
10732SOL     OW33094   5.840   5.876   2.481
10732SOL    HW133095   5.821   5.778   2.477
10732SOL    HW233096   5.867   5.908   2.390
10733SOL     OW33097   0.834   1.670   5.929
10733SOL    HW133098   0.813   1.574   5.948
10733SOL    HW233099   0.799   1.727   6.004
10734SOL     OW33100   0.574   0.901   4.548
10734SOL    HW133101   0.659   0.850   4.560
10734SOL    HW233102   0.535   0.923   4.637
10735SOL     OW33103   0.416   0.796   2.015
10735SOL    HW133104   0.361   0.796   1.931
10735SOL    HW233105   0.389   0.874   2.072
10736SOL     OW33106   5.198   6.234   4.255
10736SOL    HW133107   5.155   6.153   4.295
10736SOL    HW233108   5.209   6.221   4.157
10737SOL     OW33109   6.063   0.967   0.296
10737SOL    HW133110   6.090   1.044   0.239
10737SOL    HW233111   6.123   0.889   0.277
10738SOL     OW33112   0.530   6.121   2.212
10738SOL    HW133113   0.505   6.146   2.118
10738SOL    HW233114   0.583   6.195   2.253
10739SOL     OW33115   5.038   2.885   4.047
10739SOL    HW133116   5.119   2.919   3.998
10739SOL    HW233117   4.960   2.945   4.030
10740SOL     OW33118   3.219   1.134   6.338
10740SOL    HW133119   3.265   1.163   6.254
10740SOL    HW233120   3.223   1.034   6.345
10741SOL     OW33121   2.277   2.831   4.021
10741SOL    HW133122   2.308   2.787   3.937
10741SOL    HW233123   2.206   2.898   4.000
10742SOL     OW33124   6.727   0.152   2.682
10742SOL    HW133125   6.674   0.113   2.757
10742SOL    HW233126   6.673   0.224   2.637
10743SOL     OW33127   3.526   2.712   5.829
10743SOL    HW133128   3.496   2.626   5.871
10743SOL    HW233129   3.607   2.695   5.773
10744SOL     OW33130   1.492   1.300   0.846
10744SOL    HW133131   1.537   1.384   0.878
10744SOL    HW233132   1.502   1.294   0.746
10745SOL     OW33133   3.755   5.586   2.228
10745SOL    HW133134   3.840   5.559   2.273
10745SOL    HW233135   3.727   5.514   2.165
10746SOL     OW33136   2.734   5.490   5.644
10746SOL    HW133137   2.786   5.468   5.561
10746SOL    HW233138   2.636   5.476   5.627
10747SOL     OW33139   6.662   0.365   4.756
10747SOL    HW133140   6.594   0.356   4.684
10747SOL    HW233141   6.743   0.310   4.733
10748SOL     OW33142   3.805   6.261   2.728
10748SOL    HW133143   3.826   6.304   2.640
10748SOL    HW233144   3.868   6.186   2.745
10749SOL     OW33145   5.250   2.486   2.403
10749SOL    HW133146   5.235   2.434   2.318
10749SOL    HW233147   5.180   2.461   2.470
10750SOL     OW33148   3.284   1.504   4.446
10750SOL    HW133149   3.195   1.550   4.443
10750SOL    HW233150   3.322   1.514   4.538
10751SOL     OW33151   5.864   6.050   3.691
10751SOL    HW133152   5.852   5.963   3.643
10751SOL    HW233153   5.775   6.093   3.703
10752SOL     OW33154   0.154   6.044   6.549
10752SOL    HW133155   0.112   6.034   6.458
10752SOL    HW233156   0.107   6.118   6.598
10753SOL     OW33157   4.589   6.877   5.042
10753SOL    HW133158   4.624   6.947   5.103
10753SOL    HW233159   4.550   6.802   5.096
10754SOL     OW33160   6.691   5.682   2.041
10754SOL    HW133161   6.591   5.688   2.034
10754SOL    HW233162   6.732   5.705   1.953
10755SOL     OW33163   0.949   1.317   2.241
10755SOL    HW133164   0.881   1.270   2.186
10755SOL    HW233165   0.923   1.413   2.252
10756SOL     OW33166   0.835   6.945   6.974
10756SOL    HW133167   0.916   6.945   6.915
10756SOL    HW233168   0.861   6.977   0.043
10757SOL     OW33169   0.088   2.566   2.064
10757SOL    HW133170   0.095   2.529   1.972
10757SOL    HW233171   0.102   2.665   2.061
10758SOL     OW33172   0.272   1.436   1.023
10758SOL    HW133173   0.249   1.532   1.040
10758SOL    HW233174   0.370   1.422   1.038
10759SOL     OW33175   3.364   5.085   5.796
10759SOL    HW133176   3.397   5.022   5.726
10759SOL    HW233177   3.378   5.179   5.765
10760SOL     OW33178   1.252   4.455   6.794
10760SOL    HW133179   1.205   4.394   6.858
10760SOL    HW233180   1.302   4.400   6.727
10761SOL     OW33181   1.671   1.521   6.617
10761SOL    HW133182   1.684   1.601   6.558
10761SOL    HW233183   1.755   1.465   6.616
10762SOL     OW33184   1.252   5.806   1.002
10762SOL    HW133185   1.194   5.761   1.070
10762SOL    HW233186   1.277   5.741   0.930
10763SOL     OW33187   5.107   1.498   2.273
10763SOL    HW133188   5.036   1.512   2.205
10763SOL    HW233189   5.080   1.424   2.335
10764SOL     OW33190   5.111   0.017   4.225
10764SOL    HW133191   5.132   6.958   4.172
10764SOL    HW233192   5.094   0.094   4.163
10765SOL     OW33193   0.024   2.901   1.877
10765SOL    HW133194   0.024   2.987   1.825
10765SOL    HW233195   0.043   2.921   1.973
10766SOL     OW33196   3.580   5.517   6.978
10766SOL    HW133197   3.489   5.532   6.941
10766SOL    HW233198   3.649   5.537   6.907
10767SOL     OW33199   1.513   5.567   6.719
10767SOL    HW133200   1.527   5.604   6.811
10767SOL    HW233201   1.420   5.587   6.688
10768SOL     OW33202   6.124   6.377   6.956
10768SOL    HW133203   6.040   6.348   7.001
10768SOL    HW233204   6.106   6.457   6.899
10769SOL     OW33205   3.130   3.987   4.489
10769SOL    HW133206   3.178   4.072   4.512
10769SOL    HW233207   3.174   3.911   4.537
10770SOL     OW33208   4.423   0.401   4.453
10770SOL    HW133209   4.371   0.391   4.537
10770SOL    HW233210   4.417   0.317   4.400
10771SOL     OW33211   5.118   6.202   5.636
10771SOL    HW133212   5.026   6.238   5.653
10771SOL    HW233213   5.167   6.196   5.723
10772SOL     OW33214   4.905   3.277   3.903
10772SOL    HW133215   4.898   3.356   3.964
10772SOL    HW233216   4.866   3.197   3.948
10773SOL     OW33217   0.860   3.370   0.530
10773SOL    HW133218   0.804   3.377   0.613
10773SOL    HW233219   0.957   3.383   0.554
10774SOL     OW33220   6.549   3.070   0.780
10774SOL    HW133221   6.500   3.063   0.867
10774SOL    HW233222   6.638   3.112   0.795
10775SOL     OW33223   2.062   4.500   6.382
10775SOL    HW133224   2.133   4.559   6.344
10775SOL    HW233225   2.048   4.523   6.478
10776SOL     OW33226   6.972   3.647   3.078
10776SOL    HW133227   6.892   3.616   3.130
10776SOL    HW233228   0.020   3.577   3.080
10777SOL     OW33229   0.884   6.274   1.985
10777SOL    HW133230   0.855   6.354   1.934
10777SOL    HW233231   0.858   6.191   1.935
10778SOL     OW33232   4.958   6.810   3.525
10778SOL    HW133233   4.982   6.896   3.571
10778SOL    HW233234   4.953   6.737   3.592
10779SOL     OW33235   5.797   2.783   5.395
10779SOL    HW133236   5.763   2.713   5.458
10779SOL    HW233237   5.800   2.871   5.442
10780SOL     OW33238   1.309   5.688   4.936
10780SOL    HW133239   1.373   5.743   4.989
10780SOL    HW233240   1.356   5.652   4.855
10781SOL     OW33241   6.003   2.416   5.630
10781SOL    HW133242   5.918   2.469   5.625
10781SOL    HW233243   6.076   2.475   5.663
10782SOL     OW33244   1.504   3.426   4.839
10782SOL    HW133245   1.570   3.413   4.913
10782SOL    HW233246   1.414   3.448   4.878
10783SOL     OW33247   1.432   3.942   4.157
10783SOL    HW133248   1.374   4.023   4.156
10783SOL    HW233249   1.376   3.860   4.143
10784SOL     OW33250   4.849   5.579   3.811
10784SOL    HW133251   4.854   5.675   3.783
10784SOL    HW233252   4.832   5.521   3.731
10785SOL     OW33253   1.637   5.673   1.997
10785SOL    HW133254   1.627   5.574   1.989
10785SOL    HW233255   1.547   5.716   1.987
10786SOL     OW33256   4.927   1.283   2.683
10786SOL    HW133257   4.915   1.288   2.584
10786SOL    HW233258   4.918   1.374   2.723
10787SOL     OW33259   3.048   1.177   3.808
10787SOL    HW133260   3.099   1.186   3.894
10787SOL    HW233261   3.024   1.268   3.774
10788SOL     OW33262   1.589   2.888   6.502
10788SOL    HW133263   1.507   2.941   6.522
10788SOL    HW233264   1.610   2.829   6.580
10789SOL     OW33265   6.885   2.788   2.853
10789SOL    HW133266   6.843   2.700   2.877
10789SOL    HW233267   6.967   2.802   2.908
10790SOL     OW33268   6.999   2.829   5.147
10790SOL    HW133269   6.975   2.925   5.162
10790SOL    HW233270   0.057   2.806   5.202
10791SOL     OW33271   2.265   2.775   3.056
10791SOL    HW133272   2.279   2.798   3.153
10791SOL    HW233273   2.198   2.837   3.017
10792SOL     OW33274   3.646   0.881   1.985
10792SOL    HW133275   3.696   0.839   2.061
10792SOL    HW233276   3.627   0.977   2.006
10793SOL     OW33277   3.591   2.023   3.658
10793SOL    HW133278   3.523   1.958   3.693
10793SOL    HW233279   3.679   1.977   3.647
10794SOL     OW33280   4.961   2.804   0.152
10794SOL    HW133281   4.969   2.707   0.129
10794SOL    HW233282   5.048   2.850   0.132
10795SOL     OW33283   6.474   2.455   3.256
10795SOL    HW133284   6.502   2.402   3.175
10795SOL    HW233285   6.377   2.475   3.250
10796SOL     OW33286   6.593   2.445   6.750
10796SOL    HW133287   6.593   2.347   6.731
10796SOL    HW233288   6.580   2.495   6.664
10797SOL     OW33289   5.638   4.370   6.720
10797SOL    HW133290   5.574   4.418   6.780
10797SOL    HW233291   5.708   4.434   6.688
10798SOL     OW33292   2.864   5.640   0.633
10798SOL    HW133293   2.830   5.547   0.618
10798SOL    HW233294   2.962   5.644   0.614
10799SOL     OW33295   1.910   0.851   3.383
10799SOL    HW133296   1.823   0.811   3.411
10799SOL    HW233297   1.894   0.916   3.308
10800SOL     OW33298   1.149   0.073   4.886
10800SOL    HW133299   1.125   0.047   4.979
10800SOL    HW233300   1.068   0.114   4.841
10801SOL     OW33301   2.914   6.066   6.885
10801SOL    HW133302   2.894   5.992   6.949
10801SOL    HW233303   2.839   6.132   6.886
10802SOL     OW33304   1.067   4.715   3.327
10802SOL    HW133305   1.155   4.730   3.372
10802SOL    HW233306   1.021   4.636   3.367
10803SOL     OW33307   0.179   4.075   4.455
10803SOL    HW133308   0.177   4.141   4.530
10803SOL    HW233309   0.274   4.057   4.429
10804SOL     OW33310   4.963   5.068   6.494
10804SOL    HW133311   4.931   5.151   6.450
10804SOL    HW233312   4.905   4.991   6.467
10805SOL     OW33313   5.711   5.993   6.361
10805SOL    HW133314   5.664   6.033   6.282
10805SOL    HW233315   5.649   5.990   6.439
10806SOL     OW33316   6.467   3.006   5.367
10806SOL    HW133317   6.416   3.091   5.377
10806SOL    HW233318   6.561   3.025   5.338
10807SOL     OW33319   4.513   2.534   5.030
10807SOL    HW133320   4.424   2.560   4.991
10807SOL    HW233321   4.554   2.614   5.074
10808SOL     OW33322   0.407   2.472   1.299
10808SOL    HW133323   0.355   2.468   1.213
10808SOL    HW233324   0.493   2.520   1.283
10809SOL     OW33325   0.638   0.965   2.871
10809SOL    HW133326   0.610   0.869   2.866
10809SOL    HW233327   0.649   1.001   2.778
10810SOL     OW33328   1.951   2.172   6.471
10810SOL    HW133329   1.919   2.168   6.376
10810SOL    HW233330   2.004   2.256   6.484
10811SOL     OW33331   4.596   5.165   6.388
10811SOL    HW133332   4.559   5.135   6.300
10811SOL    HW233333   4.563   5.258   6.408
10812SOL     OW33334   6.735   2.924   2.263
10812SOL    HW133335   6.766   2.892   2.174
10812SOL    HW233336   6.635   2.927   2.264
10813SOL     OW33337   2.749   6.141   2.147
10813SOL    HW133338   2.777   6.086   2.227
10813SOL    HW233339   2.823   6.203   2.123
10814SOL     OW33340   1.861   6.044   4.382
10814SOL    HW133341   1.830   6.067   4.474
10814SOL    HW233342   1.841   5.948   4.364
10815SOL     OW33343   5.600   2.969   5.773
10815SOL    HW133344   5.695   2.938   5.767
10815SOL    HW233345   5.569   3.001   5.684
10816SOL     OW33346   2.316   2.648   1.326
10816SOL    HW133347   2.382   2.575   1.312
10816SOL    HW233348   2.311   2.670   1.424
10817SOL     OW33349   3.720   1.496   1.679
10817SOL    HW133350   3.801   1.496   1.738
10817SOL    HW233351   3.690   1.590   1.663
10818SOL     OW33352   4.214   3.556   5.460
10818SOL    HW133353   4.183   3.475   5.411
10818SOL    HW233354   4.298   3.591   5.417
10819SOL     OW33355   2.153   3.371   4.716
10819SOL    HW133356   2.182   3.412   4.803
10819SOL    HW233357   2.130   3.443   4.651
10820SOL     OW33358   0.730   6.320   5.148
10820SOL    HW133359   0.818   6.272   5.145
10820SOL    HW233360   0.703   6.346   5.055
10821SOL     OW33361   6.893   0.562   6.479
10821SOL    HW133362   6.894   0.462   6.480
10821SOL    HW233363   6.938   0.597   6.561
10822SOL     OW33364   0.261   5.652   5.812
10822SOL    HW133365   0.283   5.730   5.753
10822SOL    HW233366   0.162   5.644   5.821
10823SOL     OW33367   2.558   2.418   0.434
10823SOL    HW133368   2.521   2.343   0.489
10823SOL    HW233369   2.657   2.409   0.427
10824SOL     OW33370   4.910   1.507   4.556
10824SOL    HW133371   4.929   1.549   4.644
10824SOL    HW233372   4.850   1.566   4.502
10825SOL     OW33373   4.578   1.448   2.329
10825SOL    HW133374   4.515   1.406   2.395
10825SOL    HW233375   4.530   1.518   2.276
10826SOL     OW33376   6.939   3.394   0.572
10826SOL    HW133377   0.006   3.354   0.557
10826SOL    HW233378   6.941   3.453   0.653
10827SOL     OW33379   6.952   2.725   4.878
10827SOL    HW133380   6.949   2.795   4.807
10827SOL    HW233381   7.009   2.757   4.954
10828SOL     OW33382   3.332   4.557   6.901
10828SOL    HW133383   3.316   4.649   6.937
10828SOL    HW233384   3.334   4.492   6.976
10829SOL     OW33385   1.474   3.605   0.990
10829SOL    HW133386   1.554   3.546   0.981
10829SOL    HW233387   1.391   3.549   0.991
10830SOL     OW33388   6.040   0.479   3.937
10830SOL    HW133389   6.095   0.447   3.860
10830SOL    HW233390   5.989   0.402   3.976
10831SOL     OW33391   5.322   3.095   2.528
10831SOL    HW133392   5.295   3.001   2.510
10831SOL    HW233393   5.355   3.103   2.622
10832SOL     OW33394   1.595   2.752   2.423
10832SOL    HW133395   1.564   2.694   2.348
10832SOL    HW233396   1.694   2.764   2.417
10833SOL     OW33397   2.943   0.043   4.664
10833SOL    HW133398   3.003   0.056   4.743
10833SOL    HW233399   2.867   0.108   4.669
10834SOL     OW33400   6.665   2.213   5.536
10834SOL    HW133401   6.688   2.248   5.445
10834SOL    HW233402   6.732   2.246   5.602
10835SOL     OW33403   0.737   0.936   0.752
10835SOL    HW133404   0.779   0.845   0.756
10835SOL    HW233405   0.751   0.975   0.661
10836SOL     OW33406   0.057   1.357   1.155
10836SOL    HW133407   6.994   1.368   1.104
10836SOL    HW233408   0.130   1.405   1.106
10837SOL     OW33409   1.577   5.656   0.620
10837SOL    HW133410   1.645   5.729   0.616
10837SOL    HW233411   1.485   5.696   0.624
10838SOL     OW33412   6.433   6.493   1.398
10838SOL    HW133413   6.436   6.401   1.358
10838SOL    HW233414   6.342   6.532   1.385
10839SOL     OW33415   2.888   1.346   6.628
10839SOL    HW133416   2.931   1.403   6.698
10839SOL    HW233417   2.876   1.400   6.544
10840SOL     OW33418   0.806   0.621   3.465
10840SOL    HW133419   0.802   0.647   3.369
10840SOL    HW233420   0.857   0.690   3.516
10841SOL     OW33421   4.462   4.364   0.153
10841SOL    HW133422   4.503   4.385   0.064
10841SOL    HW233423   4.531   4.320   0.211
10842SOL     OW33424   5.811   1.729   2.244
10842SOL    HW133425   5.717   1.751   2.267
10842SOL    HW233426   5.828   1.632   2.262
10843SOL     OW33427   0.924   2.048   1.194
10843SOL    HW133428   0.829   2.070   1.176
10843SOL    HW233429   0.930   1.969   1.256
10844SOL     OW33430   4.440   6.421   3.600
10844SOL    HW133431   4.519   6.360   3.593
10844SOL    HW233432   4.427   6.468   3.513
10845SOL     OW33433   2.420   3.478   1.113
10845SOL    HW133434   2.492   3.548   1.112
10845SOL    HW233435   2.397   3.455   1.207
10846SOL     OW33436   3.408   1.822   1.504
10846SOL    HW133437   3.436   1.901   1.449
10846SOL    HW233438   3.362   1.755   1.446
10847SOL     OW33439   5.145   1.783   5.686
10847SOL    HW133440   5.210   1.803   5.613
10847SOL    HW233441   5.056   1.822   5.662
10848SOL     OW33442   2.470   0.384   6.321
10848SOL    HW133443   2.482   0.311   6.389
10848SOL    HW233444   2.526   0.463   6.347
10849SOL     OW33445   0.448   4.355   5.046
10849SOL    HW133446   0.536   4.309   5.057
10849SOL    HW233447   0.436   4.424   5.118
10850SOL     OW33448   5.762   0.850   3.120
10850SOL    HW133449   5.779   0.912   3.196
10850SOL    HW233450   5.771   0.899   3.033
10851SOL     OW33451   5.046   2.970   0.527
10851SOL    HW133452   5.015   2.947   0.619
10851SOL    HW233453   5.144   2.950   0.519
10852SOL     OW33454   6.240   1.380   5.620
10852SOL    HW133455   6.151   1.349   5.653
10852SOL    HW233456   6.227   1.449   5.549
10853SOL     OW33457   1.651   6.641   5.704
10853SOL    HW133458   1.689   6.709   5.767
10853SOL    HW233459   1.568   6.602   5.744
10854SOL     OW33460   5.775   6.635   6.849
10854SOL    HW133461   5.731   6.711   6.898
10854SOL    HW233462   5.766   6.650   6.751
10855SOL     OW33463   1.022   5.631   6.764
10855SOL    HW133464   0.957   5.638   6.839
10855SOL    HW233465   0.987   5.567   6.695
10856SOL     OW33466   4.330   0.104   6.508
10856SOL    HW133467   4.249   0.146   6.548
10856SOL    HW233468   4.411   0.130   6.562
10857SOL     OW33469   6.115   6.915   4.886
10857SOL    HW133470   6.102   6.822   4.920
10857SOL    HW233471   6.185   6.915   4.814
10858SOL     OW33472   1.713   2.915   1.641
10858SOL    HW133473   1.777   2.900   1.717
10858SOL    HW233474   1.720   2.840   1.576
10859SOL     OW33475   2.013   4.776   1.790
10859SOL    HW133476   2.107   4.755   1.814
10859SOL    HW233477   1.965   4.812   1.871
10860SOL     OW33478   5.530   1.424   2.231
10860SOL    HW133479   5.612   1.449   2.284
10860SOL    HW233480   5.511   1.327   2.244
10861SOL     OW33481   2.342   4.835   1.452
10861SOL    HW133482   2.408   4.761   1.438
10861SOL    HW233483   2.387   4.923   1.443
10862SOL     OW33484   3.991   4.937   5.508
10862SOL    HW133485   3.899   4.931   5.546
10862SOL    HW233486   3.992   4.903   5.414
10863SOL     OW33487   0.350   0.205   4.351
10863SOL    HW133488   0.376   0.109   4.351
10863SOL    HW233489   0.252   0.213   4.329
10864SOL     OW33490   3.030   3.669   2.590
10864SOL    HW133491   3.119   3.636   2.624
10864SOL    HW233492   2.994   3.738   2.652
10865SOL     OW33493   3.745   2.063   2.250
10865SOL    HW133494   3.704   2.138   2.196
10865SOL    HW233495   3.701   1.977   2.225
10866SOL     OW33496   0.313   3.593   5.312
10866SOL    HW133497   0.230   3.549   5.276
10866SOL    HW233498   0.311   3.690   5.290
10867SOL     OW33499   5.141   3.179   0.352
10867SOL    HW133500   5.161   3.248   0.422
10867SOL    HW233501   5.104   3.098   0.396
10868SOL     OW33502   6.676   0.307   6.260
10868SOL    HW133503   6.702   0.218   6.297
10868SOL    HW233504   6.757   0.353   6.222
10869NA      NA33505   6.558   1.266   0.046
10870NA      NA33506   4.792   4.664   4.841
10871NA      NA33507   1.201   4.647   2.836
10872NA      NA33508   6.635   3.441   3.584
10873NA      NA33509   4.381   2.383   5.182
10874NA      NA33510   2.654   3.468   6.968
10875NA      NA33511   1.458   5.456   0.261
10876NA      NA33512   4.242   4.840   2.017
10877NA      NA33513   5.557   3.790   1.138
10878NA      NA33514   3.601   1.894   0.459
10879NA      NA33515   4.843   6.090   1.503
10880NA      NA33516   2.567   6.479   4.366
10881NA      NA33517   3.391   5.659   2.825
10882NA      NA33518   4.654   5.103   5.677
   7.02303   7.02303   7.02303
