Generated by trjconv : CNT in water t= 254.00000
33518
    1C        C    1   2.837   2.759   4.743
    1C        C    2   2.895   2.713   4.864
    1C        C    3   2.836   2.766   4.980
    1C        C    4   2.842   2.765   4.254
    1C        C    5   2.896   2.722   4.376
    1C        C    6   2.848   2.774   4.499
    1C        C    7   3.009   2.637   4.617
    1C        C    8   2.893   2.717   4.620
    1C        C    9   3.069   2.602   4.739
    1C        C   10   3.003   2.624   4.862
    1C        C   11   3.178   2.491   4.975
    1C        C   12   3.051   2.550   4.972
    1C        C   13   2.846   2.764   3.768
    1C        C   14   2.899   2.720   3.891
    1C        C   15   2.850   2.773   4.012
    1C        C   16   3.014   2.638   4.137
    1C        C   17   2.898   2.718   4.133
    1C        C   18   3.075   2.602   4.259
    1C        C   19   3.010   2.638   4.380
    1C        C   20   3.205   2.542   4.500
    1C        C   21   3.074   2.596   4.498
    1C        C   22   3.272   2.525   4.623
    1C        C   23   3.199   2.543   4.743
    1C        C   24   3.406   2.479   4.860
    1C        C   25   3.265   2.502   4.862
    1C        C   26   3.484   2.477   4.976
    1C        C   27   2.850   2.766   3.276
    1C        C   28   2.904   2.719   3.398
    1C        C   29   2.852   2.763   3.521
    1C        C   30   3.014   2.634   3.645
    1C        C   31   2.900   2.717   3.646
    1C        C   32   3.073   2.600   3.769
    1C        C   33   3.013   2.636   3.892
    1C        C   34   3.204   2.545   4.010
    1C        C   35   3.073   2.600   4.015
    1C        C   36   3.272   2.528   4.132
    1C        C   37   3.205   2.548   4.255
    1C        C   38   3.410   2.502   4.375
    1C        C   39   3.270   2.520   4.377
    1C        C   40   3.480   2.502   4.498
    1C        C   41   3.412   2.506   4.621
    1C        C   42   3.626   2.492   4.740
    1C        C   43   3.484   2.485   4.741
    1C        C   44   3.701   2.494   4.860
    1C        C   45   3.623   2.482   4.976
    1C        C   46   2.832   2.748   2.788
    1C        C   47   2.891   2.708   2.910
    1C        C   48   2.837   2.755   3.032
    1C        C   49   3.012   2.633   3.156
    1C        C   50   2.899   2.717   3.153
    1C        C   51   3.077   2.597   3.277
    1C        C   52   3.018   2.634   3.399
    1C        C   53   3.205   2.541   3.524
    1C        C   54   3.077   2.601   3.523
    1C        C   55   3.272   2.517   3.646
    1C        C   56   3.202   2.543   3.766
    1C        C   57   3.411   2.501   3.889
    1C        C   58   3.271   2.525   3.888
    1C        C   59   3.483   2.498   4.010
    1C        C   60   3.411   2.499   4.132
    1C        C   61   3.623   2.497   4.257
    1C        C   62   3.482   2.494   4.254
    1C        C   63   3.694   2.514   4.378
    1C        C   64   3.621   2.514   4.499
    1C        C   65   3.831   2.553   4.619
    1C        C   66   3.696   2.513   4.619
    1C        C   67   3.902   2.565   4.741
    1C        C   68   3.837   2.529   4.861
    1C        C   69   4.052   2.582   4.976
    1C        C   70   3.921   2.533   4.973
    1C        C   71   2.822   2.733   2.304
    1C        C   72   2.881   2.691   2.426
    1C        C   73   2.829   2.742   2.547
    1C        C   74   3.007   2.622   2.669
    1C        C   75   2.889   2.701   2.668
    1C        C   76   3.072   2.593   2.791
    1C        C   77   3.011   2.633   2.912
    1C        C   78   3.203   2.543   3.035
    1C        C   79   3.073   2.598   3.034
    1C        C   80   3.273   2.522   3.156
    1C        C   81   3.206   2.538   3.279
    1C        C   82   3.410   2.487   3.400
    1C        C   83   3.271   2.515   3.402
    1C        C   84   3.481   2.483   3.522
    1C        C   85   3.412   2.495   3.645
    1C        C   86   3.623   2.494   3.766
    1C        C   87   3.482   2.494   3.767
    1C        C   88   3.693   2.507   3.888
    1C        C   89   3.624   2.503   4.011
    1C        C   90   3.829   2.548   4.133
    1C        C   91   3.692   2.514   4.135
    1C        C   92   3.897   2.574   4.254
    1C        C   93   3.831   2.549   4.377
    1C        C   94   4.023   2.644   4.497
    1C        C   95   3.900   2.574   4.497
    1C        C   96   4.086   2.675   4.619
    1C        C   97   4.029   2.628   4.740
    1C        C   98   4.195   2.761   4.862
    1C        C   99   4.094   2.659   4.862
    1C        C  100   4.220   2.837   4.977
    1C        C  101   2.819   2.728   2.067
    1C        C  102   2.990   2.594   2.184
    1C        C  103   2.871   2.674   2.184
    1C        C  104   3.061   2.570   2.305
    1C        C  105   3.000   2.615   2.425
    1C        C  106   3.196   2.529   2.547
    1C        C  107   3.068   2.589   2.546
    1C        C  108   3.268   2.511   2.668
    1C        C  109   3.199   2.533   2.790
    1C        C  110   3.406   2.490   2.911
    1C        C  111   3.267   2.513   2.912
    1C        C  112   3.479   2.484   3.032
    1C        C  113   3.412   2.496   3.156
    1C        C  114   3.622   2.488   3.277
    1C        C  115   3.481   2.485   3.278
    1C        C  116   3.692   2.501   3.399
    1C        C  117   3.622   2.489   3.521
    1C        C  118   3.828   2.540   3.643
    1C        C  119   3.693   2.498   3.643
    1C        C  120   3.893   2.572   3.765
    1C        C  121   3.829   2.546   3.888
    1C        C  122   4.022   2.634   4.008
    1C        C  123   3.894   2.573   4.010
    1C        C  124   4.081   2.675   4.130
    1C        C  125   4.021   2.640   4.254
    1C        C  126   4.194   2.768   4.373
    1C        C  127   4.079   2.686   4.374
    1C        C  128   4.244   2.815   4.496
    1C        C  129   4.196   2.764   4.619
    1C        C  130   4.328   2.930   4.739
    1C        C  131   4.246   2.814   4.741
    1C        C  132   4.358   3.000   4.858
    1C        C  133   4.283   2.961   4.969
    1C        C  134   3.169   2.464   2.078
    1C        C  135   3.036   2.508   2.079
    1C        C  136   3.258   2.480   2.185
    1C        C  137   3.192   2.515   2.305
    1C        C  138   3.398   2.463   2.425
    1C        C  139   3.261   2.495   2.426
    1C        C  140   3.475   2.470   2.544
    1C        C  141   3.406   2.484   2.666
    1C        C  142   3.618   2.484   2.787
    1C        C  143   3.476   2.478   2.789
    1C        C  144   3.688   2.501   2.908
    1C        C  145   3.620   2.493   3.032
    1C        C  146   3.827   2.534   3.152
    1C        C  147   3.691   2.496   3.154
    1C        C  148   3.894   2.560   3.274
    1C        C  149   3.830   2.532   3.397
    1C        C  150   4.016   2.632   3.520
    1C        C  151   3.894   2.560   3.520
    1C        C  152   4.077   2.674   3.641
    1C        C  153   4.017   2.640   3.764
    1C        C  154   4.182   2.771   3.886
    1C        C  155   4.079   2.674   3.886
    1C        C  156   4.238   2.815   4.008
    1C        C  157   4.191   2.763   4.131
    1C        C  158   4.338   2.920   4.252
    1C        C  159   4.251   2.809   4.251
    1C        C  160   4.375   2.983   4.373
    1C        C  161   4.331   2.927   4.495
    1C        C  162   4.439   3.111   4.613
    1C        C  163   4.373   2.986   4.617
    1C        C  164   4.472   3.177   4.733
    1C        C  165   4.440   3.115   4.855
    1C        C  166   4.509   3.320   4.969
    1C        C  167   4.476   3.185   4.971
    1C        C  168   3.472   2.429   2.069
    1C        C  169   3.396   2.453   2.184
    1C        C  170   3.613   2.462   2.303
    1C        C  171   3.471   2.458   2.304
    1C        C  172   3.688   2.479   2.421
    1C        C  173   3.616   2.477   2.543
    1C        C  174   3.822   2.533   2.665
    1C        C  175   3.687   2.493   2.664
    1C        C  176   3.889   2.560   2.786
    1C        C  177   3.825   2.536   2.909
    1C        C  178   4.020   2.622   3.028
    1C        C  179   3.894   2.559   3.030
    1C        C  180   4.077   2.663   3.151
    1C        C  181   4.017   2.630   3.274
    1C        C  182   4.188   2.753   3.396
    1C        C  183   4.074   2.669   3.397
    1C        C  184   4.241   2.805   3.516
    1C        C  185   4.188   2.761   3.640
    1C        C  186   4.332   2.917   3.760
    1C        C  187   4.234   2.814   3.762
    1C        C  188   4.374   2.975   3.882
    1C        C  189   4.331   2.921   4.005
    1C        C  190   4.443   3.100   4.126
    1C        C  191   4.378   2.974   4.128
    1C        C  192   4.475   3.165   4.247
    1C        C  193   4.448   3.104   4.371
    1C        C  194   4.511   3.311   4.488
    1C        C  195   4.471   3.175   4.491
    1C        C  196   4.527   3.381   4.609
    1C        C  197   4.513   3.314   4.732
    1C        C  198   4.554   3.532   4.849
    1C        C  199   4.531   3.391   4.850
    1C        C  200   4.578   3.619   4.960
    1C        C  201   3.610   2.407   2.071
    1C        C  202   3.823   2.501   2.181
    1C        C  203   3.688   2.453   2.182
    1C        C  204   3.893   2.532   2.300
    1C        C  205   3.824   2.517   2.422
    1C        C  206   4.017   2.614   2.539
    1C        C  207   3.891   2.551   2.542
    1C        C  208   4.077   2.654   2.660
    1C        C  209   4.014   2.625   2.784
    1C        C  210   4.193   2.742   2.905
    1C        C  211   4.081   2.656   2.905
    1C        C  212   4.238   2.795   3.028
    1C        C  213   4.191   2.747   3.152
    1C        C  214   4.331   2.907   3.267
    1C        C  215   4.242   2.798   3.273
    1C        C  216   4.366   2.970   3.389
    1C        C  217   4.328   2.916   3.514
    1C        C  218   4.429   3.101   3.638
    1C        C  219   4.373   2.971   3.636
    1C        C  220   4.459   3.168   3.759
    1C        C  221   4.441   3.099   3.881
    1C        C  222   4.508   3.300   4.000
    1C        C  223   4.468   3.165   4.003
    1C        C  224   4.514   3.374   4.121
    1C        C  225   4.508   3.303   4.243
    1C        C  226   4.522   3.517   4.364
    1C        C  227   4.521   3.376   4.363
    1C        C  228   4.519   3.594   4.483
    1C        C  229   4.530   3.522   4.604
    1C        C  230   4.495   3.734   4.723
    1C        C  231   4.532   3.597   4.724
    1C        C  232   4.483   3.811   4.841
    1C        C  233   4.540   3.753   4.956
    1C        C  234   4.013   2.606   2.063
    1C        C  235   3.892   2.537   2.065
    1C        C  236   4.083   2.641   2.179
    1C        C  237   4.018   2.600   2.298
    1C        C  238   4.195   2.731   2.419
    1C        C  239   4.080   2.647   2.416
    1C        C  240   4.248   2.780   2.539
    1C        C  241   4.189   2.740   2.661
    1C        C  242   4.330   2.901   2.781
    1C        C  243   4.243   2.790   2.782
    1C        C  244   4.370   2.961   2.902
    1C        C  245   4.327   2.905   3.025
    1C        C  246   4.437   3.090   3.145
    1C        C  247   4.371   2.966   3.145
    1C        C  248   4.462   3.156   3.268
    1C        C  249   4.438   3.091   3.392
    1C        C  250   4.500   3.295   3.511
    1C        C  251   4.464   3.158   3.513
    1C        C  252   4.516   3.368   3.631
    1C        C  253   4.504   3.302   3.755
    1C        C  254   4.522   3.512   3.875
    1C        C  255   4.519   3.370   3.878
    1C        C  256   4.513   3.584   3.996
    1C        C  257   4.512   3.515   4.119
    1C        C  258   4.487   3.725   4.238
    1C        C  259   4.512   3.586   4.241
    1C        C  260   4.473   3.798   4.358
    1C        C  261   4.488   3.732   4.482
    1C        C  262   4.413   3.932   4.602
    1C        C  263   4.467   3.802   4.603
    1C        C  264   4.391   4.005   4.721
    1C        C  265   4.429   3.941   4.840
    1C        C  266   4.312   4.127   4.956
    1C        C  267   4.387   4.010   4.955
    1C        C  268   4.258   2.769   2.058
    1C        C  269   4.194   2.729   2.176
    1C        C  270   4.346   2.881   2.296
    1C        C  271   4.250   2.776   2.297
    1C        C  272   4.379   2.949   2.415
    1C        C  273   4.336   2.891   2.536
    1C        C  274   4.438   3.080   2.657
    1C        C  275   4.372   2.955   2.657
    1C        C  276   4.466   3.149   2.777
    1C        C  277   4.439   3.085   2.900
    1C        C  278   4.501   3.288   3.020
    1C        C  279   4.467   3.151   3.021
    1C        C  280   4.510   3.358   3.143
    1C        C  281   4.497   3.292   3.267
    1C        C  282   4.517   3.505   3.386
    1C        C  283   4.509   3.364   3.388
    1C        C  284   4.518   3.577   3.508
    1C        C  285   4.521   3.509   3.632
    1C        C  286   4.487   3.721   3.748
    1C        C  287   4.513   3.582   3.752
    1C        C  288   4.469   3.788   3.871
    1C        C  289   4.486   3.723   3.995
    1C        C  290   4.419   3.925   4.112
    1C        C  291   4.472   3.794   4.116
    1C        C  292   4.389   3.989   4.234
    1C        C  293   4.421   3.930   4.359
    1C        C  294   4.323   4.122   4.474
    1C        C  295   4.388   3.997   4.479
    1C        C  296   4.284   4.186   4.594
    1C        C  297   4.322   4.130   4.717
    1C        C  298   4.197   4.311   4.837
    1C        C  299   4.279   4.193   4.837
    1C        C  300   4.166   4.398   4.945
    1C        C  301   4.345   2.877   2.058
    1C        C  302   4.467   3.060   2.172
    1C        C  303   4.396   2.936   2.174
    1C        C  304   4.474   3.139   2.291
    1C        C  305   4.443   3.075   2.413
    1C        C  306   4.510   3.277   2.532
    1C        C  307   4.472   3.141   2.534
    1C        C  308   4.524   3.351   2.652
    1C        C  309   4.505   3.285   2.776
    1C        C  310   4.517   3.497   2.895
    1C        C  311   4.519   3.356   2.897
    1C        C  312   4.513   3.569   3.017
    1C        C  313   4.518   3.500   3.140
    1C        C  314   4.482   3.710   3.260
    1C        C  315   4.510   3.571   3.261
    1C        C  316   4.465   3.781   3.381
    1C        C  317   4.480   3.713   3.504
    1C        C  318   4.415   3.918   3.623
    1C        C  319   4.462   3.785   3.624
    1C        C  320   4.388   3.983   3.745
    1C        C  321   4.422   3.921   3.868
    1C        C  322   4.311   4.105   3.988
    1C        C  323   4.387   3.986   3.988
    1C        C  324   4.267   4.163   4.109
    1C        C  325   4.314   4.108   4.231
    1C        C  326   4.184   4.280   4.351
    1C        C  327   4.279   4.175   4.350
    1C        C  328   4.131   4.331   4.471
    1C        C  329   4.189   4.291   4.594
    1C        C  330   4.024   4.432   4.711
    1C        C  331   4.135   4.344   4.713
    1C        C  332   3.968   4.490   4.827
    1C        C  333   4.046   4.471   4.942
    1C        C  334   4.545   3.265   2.057
    1C        C  335   4.534   3.125   2.064
    1C        C  336   4.538   3.347   2.170
    1C        C  337   4.511   3.276   2.289
    1C        C  338   4.522   3.490   2.408
    1C        C  339   4.517   3.349   2.411
    1C        C  340   4.516   3.563   2.529
    1C        C  341   4.523   3.492   2.651
    1C        C  342   4.489   3.704   2.769
    1C        C  343   4.514   3.565   2.771
    1C        C  344   4.469   3.773   2.891
    1C        C  345   4.488   3.708   3.015
    1C        C  346   4.419   3.909   3.135
    1C        C  347   4.464   3.775   3.137
    1C        C  348   4.388   3.975   3.255
    1C        C  349   4.421   3.915   3.379
    1C        C  350   4.312   4.100   3.500
    1C        C  351   4.390   3.982   3.499
    1C        C  352   4.270   4.159   3.621
    1C        C  353   4.315   4.104   3.743
    1C        C  354   4.173   4.263   3.863
    1C        C  355   4.269   4.160   3.864
    1C        C  356   4.121   4.315   3.984
    1C        C  357   4.172   4.267   4.106
    1C        C  358   4.011   4.401   4.229
    1C        C  359   4.128   4.322   4.229
    1C        C  360   3.953   4.448   4.348
    1C        C  361   4.018   4.416   4.469
    1C        C  362   3.824   4.509   4.589
    1C        C  363   3.953   4.451   4.590
    1C        C  364   3.758   4.542   4.708
    1C        C  365   3.836   4.539   4.826
    1C        C  366   3.628   4.588   4.942
    1C        C  367   3.766   4.570   4.943
    1C        C  368   4.508   3.564   2.048
    1C        C  369   4.529   3.488   2.164
    1C        C  370   4.499   3.699   2.285
    1C        C  371   4.520   3.560   2.285
    1C        C  372   4.477   3.771   2.404
    1C        C  373   4.494   3.702   2.526
    1C        C  374   4.418   3.902   2.646
    1C        C  375   4.476   3.774   2.647
    1C        C  376   4.389   3.969   2.767
    1C        C  377   4.421   3.906   2.889
    1C        C  378   4.312   4.088   3.009
    1C        C  379   4.390   3.970   3.011
    1C        C  380   4.271   4.148   3.130
    1C        C  381   4.310   4.094   3.254
    1C        C  382   4.172   4.254   3.373
    1C        C  383   4.268   4.151   3.376
    1C        C  384   4.116   4.302   3.494
    1C        C  385   4.170   4.260   3.617
    1C        C  386   4.001   4.386   3.738
    1C        C  387   4.119   4.308   3.740
    1C        C  388   3.942   4.425   3.860
    1C        C  389   4.005   4.395   3.983
    1C        C  390   3.816   4.487   4.105
    1C        C  391   3.945   4.429   4.107
    1C        C  392   3.750   4.519   4.225
    1C        C  393   3.822   4.502   4.346
    1C        C  394   3.615   4.553   4.469
    1C        C  395   3.754   4.526   4.467
    1C        C  396   3.544   4.564   4.590
    1C        C  397   3.618   4.562   4.711
    1C        C  398   3.406   4.550   4.835
    1C        C  399   3.544   4.577   4.830
    1C        C  400   3.338   4.515   4.952
    1C        C  401   4.505   3.703   2.050
    1C        C  402   4.451   3.912   2.163
    1C        C  403   4.493   3.778   2.168
    1C        C  404   4.405   3.973   2.282
    1C        C  405   4.430   3.905   2.403
    1C        C  406   4.319   4.089   2.522
    1C        C  407   4.392   3.968   2.524
    1C        C  408   4.275   4.149   2.642
    1C        C  409   4.312   4.088   2.764
    1C        C  410   4.170   4.245   2.886
    1C        C  411   4.269   4.144   2.886
    1C        C  412   4.118   4.296   3.007
    1C        C  413   4.173   4.250   3.129
    1C        C  414   4.000   4.377   3.249
    1C        C  415   4.116   4.297   3.250
    1C        C  416   3.940   4.418   3.370
    1C        C  417   3.999   4.381   3.493
    1C        C  418   3.809   4.474   3.615
    1C        C  419   3.938   4.416   3.616
    1C        C  420   3.745   4.506   3.737
    1C        C  421   3.814   4.483   3.858
    1C        C  422   3.610   4.531   3.981
    1C        C  423   3.749   4.507   3.982
    1C        C  424   3.540   4.539   4.104
    1C        C  425   3.611   4.539   4.226
    1C        C  426   3.400   4.550   4.352
    1C        C  427   3.541   4.552   4.349
    1C        C  428   3.330   4.543   4.474
    1C        C  429   3.403   4.554   4.594
    1C        C  430   3.193   4.513   4.717
    1C        C  431   3.331   4.549   4.715
    1C        C  432   3.123   4.492   4.839
    1C        C  433   3.200   4.494   4.956
    1C        C  434   4.376   4.116   2.048
    1C        C  435   4.445   3.994   2.049
    1C        C  436   4.299   4.160   2.160
    1C        C  437   4.325   4.090   2.282
    1C        C  438   4.178   4.250   2.397
    1C        C  439   4.275   4.147   2.401
    1C        C  440   4.124   4.296   2.519
    1C        C  441   4.176   4.249   2.642
    1C        C  442   4.007   4.379   2.759
    1C        C  443   4.118   4.292   2.763
    1C        C  444   3.944   4.416   2.881
    1C        C  445   4.002   4.376   3.003
    1C        C  446   3.810   4.464   3.126
    1C        C  447   3.940   4.410   3.125
    1C        C  448   3.743   4.489   3.247
    1C        C  449   3.809   4.471   3.371
    1C        C  450   3.605   4.531   3.491
    1C        C  451   3.740   4.492   3.492
    1C        C  452   3.538   4.544   3.615
    1C        C  453   3.607   4.536   3.738
    1C        C  454   3.396   4.537   3.861
    1C        C  455   3.537   4.539   3.860
    1C        C  456   3.330   4.531   3.986
    1C        C  457   3.399   4.538   4.109
    1C        C  458   3.190   4.507   4.232
    1C        C  459   3.328   4.534   4.231
    1C        C  460   3.123   4.486   4.355
    1C        C  461   3.193   4.507   4.476
    1C        C  462   2.994   4.431   4.600
    1C        C  463   3.124   4.487   4.597
    1C        C  464   2.932   4.395   4.722
    1C        C  465   2.989   4.441   4.844
    1C        C  466   2.794   4.336   4.956
    1C        C  467   2.905   4.422   4.958
    1C        C  468   4.121   4.283   2.037
    1C        C  469   4.186   4.246   2.156
    1C        C  470   4.005   4.373   2.275
    1C        C  471   4.122   4.292   2.274
    1C        C  472   3.939   4.401   2.397
    1C        C  473   4.001   4.364   2.519
    1C        C  474   3.810   4.462   2.641
    1C        C  475   3.940   4.409   2.638
    1C        C  476   3.744   4.495   2.762
    1C        C  477   3.814   4.470   2.882
    1C        C  478   3.606   4.518   3.007
    1C        C  479   3.744   4.491   3.004
    1C        C  480   3.533   4.530   3.128
    1C        C  481   3.606   4.525   3.248
    1C        C  482   3.393   4.531   3.372
    1C        C  483   3.534   4.540   3.369
    1C        C  484   3.324   4.524   3.495
    1C        C  485   3.397   4.538   3.616
    1C        C  486   3.191   4.496   3.742
    1C        C  487   3.327   4.533   3.738
    1C        C  488   3.127   4.469   3.865
    1C        C  489   3.193   4.496   3.987
    1C        C  490   3.002   4.411   4.111
    1C        C  491   3.126   4.478   4.109
    1C        C  492   2.942   4.378   4.235
    1C        C  493   2.998   4.421   4.357
    1C        C  494   2.824   4.302   4.479
    1C        C  495   2.933   4.391   4.479
    1C        C  496   2.774   4.252   4.601
    1C        C  497   2.816   4.313   4.721
    1C        C  498   2.663   4.162   4.839
    1C        C  499   2.745   4.277   4.838
    1C        C  500   2.597   4.114   4.953
    1C        C  501   4.003   4.355   2.039
    1C        C  502   3.810   4.460   2.153
    1C        C  503   3.940   4.405   2.154
    1C        C  504   3.739   4.476   2.273
    1C        C  505   3.809   4.456   2.394
    1C        C  506   3.606   4.507   2.516
    1C        C  507   3.745   4.482   2.517
    1C        C  508   3.536   4.516   2.639
    1C        C  509   3.604   4.513   2.762
    1C        C  510   3.394   4.514   2.882
    1C        C  511   3.535   4.525   2.885
    1C        C  512   3.323   4.515   3.004
    1C        C  513   3.391   4.531   3.127
    1C        C  514   3.185   4.488   3.253
    1C        C  515   3.322   4.524   3.250
    1C        C  516   3.119   4.467   3.377
    1C        C  517   3.186   4.493   3.498
    1C        C  518   2.997   4.404   3.623
    1C        C  519   3.121   4.472   3.622
    1C        C  520   2.940   4.366   3.746
    1C        C  521   3.003   4.401   3.867
    1C        C  522   2.831   4.280   3.992
    1C        C  523   2.944   4.365   3.990
    1C        C  524   2.787   4.231   4.117
    1C        C  525   2.830   4.293   4.237
    1C        C  526   2.693   4.130   4.360
    1C        C  527   2.777   4.244   4.359
    1C        C  528   2.651   4.074   4.483
    1C        C  529   2.687   4.140   4.602
    1C        C  530   2.577   3.958   4.725
    1C        C  531   2.635   4.088   4.723
    1C        C  532   2.539   3.899   4.848
    1C        C  533   2.528   3.992   4.956
    1C        C  534   3.614   4.545   2.032
    1C        C  535   3.748   4.504   2.035
    1C        C  536   3.534   4.530   2.150
    1C        C  537   3.600   4.509   2.273
    1C        C  538   3.390   4.511   2.393
    1C        C  539   3.531   4.515   2.396
    1C        C  540   3.322   4.503   2.517
    1C        C  541   3.395   4.516   2.637
    1C        C  542   3.187   4.475   2.762
    1C        C  543   3.324   4.507   2.759
    1C        C  544   3.118   4.459   2.885
    1C        C  545   3.186   4.482   3.007
    1C        C  546   2.997   4.394   3.131
    1C        C  547   3.120   4.463   3.130
    1C        C  548   2.939   4.358   3.254
    1C        C  549   2.994   4.403   3.377
    1C        C  550   2.831   4.272   3.501
    1C        C  551   2.937   4.365   3.501
    1C        C  552   2.779   4.227   3.624
    1C        C  553   2.828   4.278   3.746
    1C        C  554   2.693   4.120   3.873
    1C        C  555   2.778   4.233   3.870
    1C        C  556   2.655   4.063   3.996
    1C        C  557   2.696   4.122   4.118
    1C        C  558   2.594   3.938   4.244
    1C        C  559   2.658   4.064   4.241
    1C        C  560   2.564   3.875   4.367
    1C        C  561   2.588   3.948   4.486
    1C        C  562   2.526   3.745   4.611
    1C        C  563   2.558   3.883   4.607
    1C        C  564   2.510   3.678   4.735
    1C        C  565   2.512   3.758   4.852
    1C        C  566   2.531   3.544   4.976
    1C        C  567   2.523   3.683   4.970
    1C        C  568   3.324   4.471   2.037
    1C        C  569   3.393   4.507   2.154
    1C        C  570   3.177   4.476   2.275
    1C        C  571   3.316   4.506   2.273
    1C        C  572   3.112   4.458   2.399
    1C        C  573   3.183   4.474   2.520
    1C        C  574   2.987   4.396   2.643
    1C        C  575   3.116   4.454   2.642
    1C        C  576   2.928   4.359   2.766
    1C        C  577   2.993   4.393   2.887
    1C        C  578   2.821   4.272   3.013
    1C        C  579   2.934   4.357   3.010
    1C        C  580   2.776   4.217   3.135
    1C        C  581   2.831   4.267   3.255
    1C        C  582   2.693   4.110   3.383
    1C        C  583   2.782   4.219   3.379
    1C        C  584   2.657   4.051   3.507
    1C        C  585   2.690   4.117   3.627
    1C        C  586   2.588   3.935   3.753
    1C        C  587   2.652   4.061   3.751
    1C        C  588   2.571   3.868   3.876
    1C        C  589   2.599   3.934   3.998
    1C        C  590   2.529   3.736   4.125
    1C        C  591   2.574   3.870   4.122
    1C        C  592   2.517   3.668   4.248
    1C        C  593   2.526   3.739   4.369
    1C        C  594   2.508   3.529   4.494
    1C        C  595   2.515   3.670   4.492
    1C        C  596   2.514   3.462   4.619
    1C        C  597   2.512   3.536   4.739
    1C        C  598   2.535   3.324   4.860
    1C        C  599   2.524   3.465   4.861
    1C        C  600   2.531   3.248   4.978
    1C        C  601   3.191   4.433   2.034
    1C        C  602   2.984   4.382   2.156
    1C        C  603   3.119   4.430   2.154
    1C        C  604   2.927   4.345   2.281
    1C        C  605   2.988   4.390   2.399
    1C        C  606   2.817   4.268   2.526
    1C        C  607   2.924   4.360   2.522
    1C        C  608   2.769   4.214   2.648
    1C        C  609   2.822   4.266   2.768
    1C        C  610   2.686   4.106   2.893
    1C        C  611   2.774   4.216   2.892
    1C        C  612   2.648   4.048   3.017
    1C        C  613   2.690   4.105   3.139
    1C        C  614   2.586   3.924   3.261
    1C        C  615   2.649   4.051   3.263
    1C        C  616   2.564   3.862   3.386
    1C        C  617   2.595   3.924   3.508
    1C        C  618   2.532   3.727   3.636
    1C        C  619   2.568   3.863   3.633
    1C        C  620   2.516   3.661   3.760
    1C        C  621   2.531   3.733   3.881
    1C        C  622   2.515   3.523   4.007
    1C        C  623   2.516   3.665   4.004
    1C        C  624   2.518   3.453   4.129
    1C        C  625   2.514   3.527   4.250
    1C        C  626   2.539   3.317   4.378
    1C        C  627   2.515   3.457   4.373
    1C        C  628   2.555   3.249   4.501
    1C        C  629   2.532   3.322   4.619
    1C        C  630   2.594   3.117   4.742
    1C        C  631   2.547   3.251   4.740
    1C        C  632   2.615   3.047   4.864
    1C        C  633   2.559   3.111   4.980
    1C        C  634   2.780   4.300   2.051
    1C        C  635   2.890   4.387   2.048
    1C        C  636   2.748   4.224   2.165
    1C        C  637   2.807   4.268   2.285
    1C        C  638   2.672   4.106   2.409
    1C        C  639   2.760   4.216   2.408
    1C        C  640   2.638   4.044   2.532
    1C        C  641   2.680   4.105   2.652
    1C        C  642   2.583   3.917   2.776
    1C        C  643   2.641   4.045   2.774
    1C        C  644   2.559   3.849   2.897
    1C        C  645   2.587   3.921   3.016
    1C        C  646   2.525   3.720   3.143
    1C        C  647   2.563   3.856   3.139
    1C        C  648   2.516   3.653   3.267
    1C        C  649   2.525   3.726   3.388
    1C        C  650   2.509   3.518   3.515
    1C        C  651   2.518   3.659   3.513
    1C        C  652   2.510   3.450   3.639
    1C        C  653   2.508   3.520   3.761
    1C        C  654   2.535   3.312   3.887
    1C        C  655   2.517   3.452   3.885
    1C        C  656   2.557   3.246   4.010
    1C        C  657   2.544   3.315   4.133
    1C        C  658   2.606   3.115   4.257
    1C        C  659   2.558   3.248   4.257
    1C        C  660   2.633   3.051   4.380
    1C        C  661   2.600   3.115   4.502
    1C        C  662   2.709   2.933   4.624
    1C        C  663   2.626   3.047   4.623
    1C        C  664   2.744   2.866   4.743
    1C        C  665   2.691   2.926   4.861
    1C        C  666   2.742   2.868   4.978
    1C        C  667   2.676   4.019   2.051
    1C        C  668   2.681   4.100   2.165
    1C        C  669   2.582   3.913   2.289
    1C        C  670   2.638   4.044   2.287
    1C        C  671   2.553   3.846   2.410
    1C        C  672   2.582   3.914   2.530
    1C        C  673   2.518   3.714   2.657
    1C        C  674   2.557   3.850   2.654
    1C        C  675   2.504   3.643   2.778
    1C        C  676   2.524   3.713   2.899
    1C        C  677   2.507   3.505   3.028
    1C        C  678   2.513   3.646   3.023
    1C        C  679   2.507   3.438   3.153
    1C        C  680   2.503   3.512   3.273
    1C        C  681   2.528   3.304   3.398
    1C        C  682   2.503   3.443   3.396
    1C        C  683   2.554   3.240   3.522
    1C        C  684   2.533   3.311   3.643
    1C        C  685   2.606   3.112   3.766
    1C        C  686   2.549   3.241   3.765
    1C        C  687   2.635   3.048   3.888
    1C        C  688   2.608   3.114   4.010
    1C        C  689   2.712   2.933   4.134
    1C        C  690   2.638   3.053   4.134
    1C        C  691   2.754   2.876   4.256
    1C        C  692   2.712   2.934   4.378
    1C        C  693   2.754   2.879   4.501
    1C        C  694   2.627   3.888   2.055
    1C        C  695   2.524   3.702   2.174
    1C        C  696   2.569   3.836   2.172
    1C        C  697   2.500   3.636   2.296
    1C        C  698   2.518   3.709   2.415
    1C        C  699   2.484   3.501   2.541
    1C        C  700   2.498   3.641   2.538
    1C        C  701   2.488   3.429   2.663
    1C        C  702   2.490   3.502   2.784
    1C        C  703   2.516   3.292   2.910
    1C        C  704   2.503   3.433   2.906
    1C        C  705   2.532   3.225   3.033
    1C        C  706   2.528   3.298   3.154
    1C        C  707   2.599   3.102   3.277
    1C        C  708   2.545   3.232   3.278
    1C        C  709   2.640   3.046   3.400
    1C        C  710   2.612   3.112   3.521
    1C        C  711   2.713   2.927   3.642
    1C        C  712   2.638   3.047   3.644
    1C        C  713   2.752   2.869   3.765
    1C        C  714   2.711   2.929   3.886
    1C        C  715   2.757   2.880   4.011
    1C        C  716   2.449   3.500   2.060
    1C        C  717   2.488   3.634   2.057
    1C        C  718   2.464   3.421   2.179
    1C        C  719   2.474   3.496   2.300
    1C        C  720   2.514   3.288   2.424
    1C        C  721   2.483   3.425   2.422
    1C        C  722   2.533   3.218   2.545
    1C        C  723   2.512   3.290   2.665
    1C        C  724   2.588   3.093   2.790
    1C        C  725   2.531   3.223   2.788
    1C        C  726   2.610   3.028   2.913
    1C        C  727   2.573   3.089   3.035
    1C        C  728   2.702   2.917   3.154
    1C        C  729   2.621   3.033   3.155
    1C        C  730   2.753   2.868   3.276
    1C        C  731   2.715   2.926   3.400
    1C        C  732   2.758   2.869   3.522
    1C        C  733   2.483   3.195   2.072
    1C        C  734   2.483   3.279   2.184
    1C        C  735   2.585   3.086   2.304
    1C        C  736   2.526   3.215   2.303
    1C        C  737   2.615   3.019   2.425
    1C        C  738   2.588   3.088   2.545
    1C        C  739   2.698   2.910   2.667
    1C        C  740   2.624   3.030   2.669
    1C        C  741   2.741   2.856   2.791
    1C        C  742   2.694   2.914   2.910
    1C        C  743   2.740   2.858   3.032
    1C        C  744   2.545   3.070   2.069
    1C        C  745   2.688   2.902   2.182
    1C        C  746   2.610   3.019   2.182
    1C        C  747   2.727   2.838   2.302
    1C        C  748   2.686   2.897   2.424
    1C        C  749   2.733   2.846   2.547
    1C        C  750   2.739   2.842   2.066
    1C        C  751   3.655   2.326   1.955
    1C        O  752   3.746   2.241   1.973
    1C        O  753   3.667   2.385   1.829
    1C        C  754   4.623   3.057   1.967
    1C        O  755   4.602   3.065   1.843
    1C        O  756   4.749   3.008   2.001
    1C        C  757   4.451   4.214   1.966
    1C        O  758   4.548   4.281   2.011
    1C        O  759   4.419   4.227   1.831
    1C        C  760   3.586   4.654   1.936
    1C        O  761   3.582   4.773   1.976
    1C        O  762   3.559   4.623   1.802
    1C        C  763   2.861   4.504   1.962
    1C        O  764   2.871   4.506   1.837
    1C        O  765   2.802   4.621   2.011
    1C        C  766   2.354   3.473   1.950
    1C        O  767   2.397   3.426   1.842
    1C        O  768   2.218   3.454   1.979
    1C        C  769   4.688   3.587   5.055
    1C        O  770   4.666   3.577   5.179
    1C        O  771   4.822   3.582   5.016
    1C        C  772   4.273   4.440   5.038
    1C        O  773   4.260   4.450   5.163
    1C        O  774   4.378   4.528   5.007
    1C        C  775   4.149   2.500   5.052
    1C        O  776   4.184   2.381   5.030
    1C        O  777   4.165   2.524   5.189
    1C        C  778   2.902   4.513   5.074
    1C        O  779   2.865   4.633   5.072
    1C        O  780   2.975   4.485   5.190
    1C        C  781   2.481   3.035   5.080
    1C        O  782   2.409   2.931   5.074
    1C        O  783   2.520   3.035   5.214
    1C        C  784   2.409   3.993   5.045
    1C        O  785   2.289   3.984   5.009
    1C        O  786   2.422   3.983   5.184
    1C        C  787   2.956   2.449   1.970
    1C        O  788   2.947   2.505   1.857
    1C        O  789   2.953   2.313   1.943
    1C        C  790   3.189   2.373   5.064
    1C        O  791   3.113   2.275   5.041
    1C        O  792   3.220   2.388   5.199
    1C        H  793   4.252   3.033   5.043
    1C        H  794   4.221   2.796   5.075
    1C        H  795   4.509   3.137   5.061
    1C        H  796   4.450   3.379   5.037
    1C        H  797   4.612   3.820   5.000
    1C        H  798   4.435   3.975   5.044
    1C        H  799   4.252   4.143   5.044
    1C        H  800   4.035   4.543   5.021
    1C        H  801   3.822   4.614   5.022
    1C        H  802   3.591   4.613   5.039
    1C        H  803   3.397   4.475   5.032
    1C        H  804   3.155   4.550   5.035
    1C        H  805   3.875   2.521   5.069
    1C        H  806   3.670   2.450   5.066
    1C        H  807   2.983   2.508   5.043
    1C        H  808   3.434   2.501   5.068
    1C        H  809   2.816   2.695   5.059
    1C        H  810   2.692   2.883   5.071
    1C        H  811   2.468   3.282   5.057
    1C        H  812   2.565   3.503   5.069
    1C        H  813   2.485   3.733   5.057
    1C        H  814   2.591   4.175   5.041
    1C        H  815   2.767   4.299   5.052
    1C        H  816   2.695   2.872   1.973
    1C        H  817   2.792   2.655   1.993
    1C        H  818   3.218   2.477   1.984
    1C        H  819   3.427   2.463   1.977
    1C        H  820   3.865   2.488   1.974
    1C        H  821   4.040   2.639   1.965
    1C        H  822   4.242   2.716   1.967
    1C        H  823   4.370   2.918   1.962
    1C        H  824   4.524   3.308   1.961
    1C        H  825   4.484   3.520   1.953
    1C        H  826   4.541   3.752   1.962
    1C        H  827   3.810   4.526   1.950
    1C        H  828   3.960   4.373   1.942
    1C        H  829   4.138   4.217   1.954
    1C        H  830   4.486   3.965   1.955
    1C        H  831   2.667   3.819   1.983
    1C        H  832   2.732   4.046   1.964
    1C        H  833   2.693   4.325   1.994
    1C        H  834   3.371   4.483   1.942
    1C        H  835   3.139   4.457   1.943
    1C        H  836   2.499   3.004   1.999
    1C        H  837   2.435   3.231   1.983
    1C        H  838   2.464   3.695   1.972
    2V3OU   H29  839   2.801   3.545   2.512
    2V3OU   C27  840   2.787   3.503   2.615
    2V3OU   H27  841   2.731   3.566   2.688
    2V3OU   H28  842   2.736   3.403   2.608
    2V3OU   O11  843   2.914   3.471   2.672
    2V3OU   C15  844   2.924   3.395   2.786
    2V3OU   C13  845   3.054   3.369   2.837
    2V3OU   C14  846   3.074   3.264   2.926
    2V3OU   C16  847   2.973   3.184   2.979
    2V3OU    H6  848   2.989   3.099   3.048
    2V3OU   C12  849   3.208   3.227   2.975
    2V3OU    O2  850   3.232   3.124   3.041
    2V3OU   C10  851   3.319   3.307   2.921
    2V3OU    C8  852   3.451   3.267   2.943
    2V3OU   O10  853   3.484   3.154   3.010
    2V3OU   H26  854   3.399   3.106   3.012
    2V3OU    C6  855   3.562   3.348   2.903
    2V3OU    C5  856   3.533   3.468   2.839
    2V3OU    C4  857   3.701   3.297   2.908
    2V3OU    H4  858   3.719   3.227   2.996
    2V3OU    H5  859   3.707   3.226   2.820
    2V3OU    C2  860   3.819   3.394   2.899
    2V3OU    O6  861   3.809   3.478   3.014
    2V3OU   H21  862   3.757   3.552   2.979
    2V3OU    C3  863   3.783   3.489   2.785
    2V3OU    H2  864   3.862   3.568   2.775
    2V3OU    H3  865   3.777   3.429   2.691
    2V3OU   C25  866   3.954   3.323   2.884
    2V3OU    O7  867   4.000   3.295   2.773
    2V3OU   C26  868   4.029   3.286   3.010
    2V3OU   H22  869   4.062   3.380   3.060
    2V3OU   H23  870   4.115   3.218   2.985
    2V3OU    O8  871   3.959   3.207   3.103
    2V3OU   H24  872   3.923   3.266   3.171
    2V3OU    C1  873   3.648   3.557   2.802
    2V3OU    H1  874   3.620   3.611   2.707
    2V3OU    O3  875   3.654   3.649   2.910
    2V3OU   C19  876   3.620   3.788   2.905
    2V3OU    H9  877   3.520   3.797   2.854
    2V3OU    O4  878   3.714   3.846   2.817
    2V3OU   C20  879   3.846   3.874   2.865
    2V3OU   H10  880   3.893   3.773   2.883
    2V3OU   C24  881   3.611   3.849   3.045
    2V3OU   H16  882   3.538   3.792   3.108
    2V3OU   H17  883   3.568   3.950   3.023
    2V3OU   C23  884   3.751   3.870   3.103
    2V3OU   H15  885   3.796   3.767   3.120
    2V3OU    N1  886   3.738   3.951   3.222
    2V3OU   H19  887   3.805   3.927   3.292
    2V3OU   H20  888   3.647   3.929   3.259
    2V3OU   C21  889   3.848   3.941   3.003
    2V3OU   H11  890   3.951   3.918   3.044
    2V3OU    O5  891   3.822   4.080   3.007
    2V3OU   H18  892   3.778   4.098   3.092
    2V3OU   C22  893   3.910   3.945   2.747
    2V3OU   H12  894   3.868   4.047   2.732
    2V3OU   H13  895   3.903   3.879   2.656
    2V3OU   H14  896   4.021   3.955   2.763
    2V3OU   C11  897   3.156   3.474   2.818
    2V3OU    O1  898   3.129   3.589   2.779
    2V3OU    C9  899   3.292   3.429   2.854
    2V3OU    C7  900   3.399   3.508   2.811
    2V3OU    O9  901   3.381   3.615   2.726
    2V3OU   H25  902   3.285   3.629   2.726
    2V3OU   C17  903   2.824   3.313   2.842
    2V3OU    H7  904   2.726   3.347   2.809
    2V3OU   C18  905   2.845   3.211   2.935
    2V3OU    H8  906   2.778   3.163   3.008
    3SOL     OW  907   2.554   5.510   0.318
    3SOL    HW1  908   2.633   5.491   0.259
    3SOL    HW2  909   2.484   5.558   0.266
    4SOL     OW  910   6.828   0.024   2.110
    4SOL    HW1  911   6.810   0.092   2.039
    4SOL    HW2  912   6.755   6.972   2.110
    5SOL     OW  913   4.385   1.615   2.608
    5SOL    HW1  914   4.471   1.623   2.557
    5SOL    HW2  915   4.348   1.706   2.624
    6SOL     OW  916   3.882   0.958   1.757
    6SOL    HW1  917   3.951   0.919   1.818
    6SOL    HW2  918   3.893   0.919   1.666
    7SOL     OW  919   0.363   3.863   3.199
    7SOL    HW1  920   0.295   3.791   3.183
    7SOL    HW2  921   0.320   3.939   3.248
    8SOL     OW  922   3.366   0.941   6.836
    8SOL    HW1  923   3.338   0.871   6.770
    8SOL    HW2  924   3.452   0.983   6.806
    9SOL     OW  925   4.853   0.467   5.920
    9SOL    HW1  926   4.838   0.485   5.822
    9SOL    HW2  927   4.932   0.520   5.952
   10SOL     OW  928   1.885   5.285   5.413
   10SOL    HW1  929   1.827   5.207   5.389
   10SOL    HW2  930   1.932   5.266   5.499
   11SOL     OW  931   2.874   0.747   5.504
   11SOL    HW1  932   2.795   0.716   5.556
   11SOL    HW2  933   2.859   0.842   5.475
   12SOL     OW  934   3.290   5.451   3.482
   12SOL    HW1  935   3.251   5.522   3.424
   12SOL    HW2  936   3.216   5.402   3.529
   13SOL     OW  937   4.136   6.262   3.671
   13SOL    HW1  938   4.137   6.217   3.582
   13SOL    HW2  939   4.198   6.213   3.733
   14SOL     OW  940   3.596   5.322   5.684
   14SOL    HW1  941   3.667   5.294   5.749
   14SOL    HW2  942   3.527   5.250   5.678
   15SOL     OW  943   0.735   6.481   1.951
   15SOL    HW1  944   0.704   6.495   2.045
   15SOL    HW2  945   0.664   6.511   1.888
   16SOL     OW  946   5.818   2.430   5.870
   16SOL    HW1  947   5.819   2.529   5.861
   16SOL    HW2  948   5.822   2.406   5.967
   17SOL     OW  949   5.313   6.444   6.518
   17SOL    HW1  950   5.313   6.469   6.421
   17SOL    HW2  951   5.305   6.527   6.573
   18SOL     OW  952   3.262   0.964   5.720
   18SOL    HW1  953   3.296   0.971   5.814
   18SOL    HW2  954   3.297   0.880   5.678
   19SOL     OW  955   0.154   1.049   2.794
   19SOL    HW1  956   0.197   1.111   2.860
   19SOL    HW2  957   0.055   1.051   2.807
   20SOL     OW  958   5.499   1.802   4.217
   20SOL    HW1  959   5.434   1.806   4.293
   20SOL    HW2  960   5.451   1.820   4.131
   21SOL     OW  961   3.284   1.150   2.521
   21SOL    HW1  962   3.361   1.159   2.458
   21SOL    HW2  963   3.317   1.150   2.615
   22SOL     OW  964   1.428   6.512   6.759
   22SOL    HW1  965   1.413   6.544   6.853
   22SOL    HW2  966   1.354   6.547   6.701
   23SOL     OW  967   5.643   5.436   3.180
   23SOL    HW1  968   5.618   5.359   3.122
   23SOL    HW2  969   5.564   5.462   3.236
   24SOL     OW  970   3.613   0.104   3.475
   24SOL    HW1  971   3.621   0.102   3.375
   24SOL    HW2  972   3.620   0.199   3.506
   25SOL     OW  973   3.563   0.353   4.654
   25SOL    HW1  974   3.544   0.255   4.654
   25SOL    HW2  975   3.656   0.369   4.687
   26SOL     OW  976   6.863   0.585   0.538
   26SOL    HW1  977   6.832   0.491   0.524
   26SOL    HW2  978   6.829   0.618   0.626
   27SOL     OW  979   1.701   2.182   2.985
   27SOL    HW1  980   1.659   2.151   3.070
   27SOL    HW2  981   1.715   2.104   2.924
   28SOL     OW  982   2.561   1.013   5.829
   28SOL    HW1  983   2.517   0.998   5.918
   28SOL    HW2  984   2.570   0.925   5.782
   29SOL     OW  985   6.240   1.794   2.236
   29SOL    HW1  986   6.296   1.812   2.317
   29SOL    HW2  987   6.216   1.697   2.234
   30SOL     OW  988   3.781   1.079   3.792
   30SOL    HW1  989   3.694   1.040   3.760
   30SOL    HW2  990   3.779   1.178   3.780
   31SOL     OW  991   0.825   2.871   6.457
   31SOL    HW1  992   0.775   2.907   6.536
   31SOL    HW2  993   0.888   2.800   6.486
   32SOL     OW  994   6.787   1.858   2.738
   32SOL    HW1  995   6.688   1.844   2.739
   32SOL    HW2  996   6.831   1.783   2.688
   33SOL     OW  997   1.256   5.072   5.443
   33SOL    HW1  998   1.200   4.991   5.460
   33SOL    HW2  999   1.226   5.117   5.359
   34SOL     OW 1000   3.001   6.939   4.954
   34SOL    HW1 1001   3.045   0.002   4.912
   34SOL    HW2 1002   2.934   6.970   5.021
   35SOL     OW 1003   4.284   3.152   6.517
   35SOL    HW1 1004   4.344   3.229   6.494
   35SOL    HW2 1005   4.311   3.114   6.606
   36SOL     OW 1006   5.704   0.921   4.818
   36SOL    HW1 1007   5.776   0.941   4.885
   36SOL    HW2 1008   5.615   0.946   4.855
   37SOL     OW 1009   1.424   1.960   0.103
   37SOL    HW1 1010   1.334   2.003   0.098
   37SOL    HW2 1011   1.476   1.982   0.021
   38SOL     OW 1012   0.684   5.224   2.573
   38SOL    HW1 1013   0.628   5.143   2.587
   38SOL    HW2 1014   0.638   5.304   2.612
   39SOL     OW 1015   6.957   4.243   6.830
   39SOL    HW1 1016   6.984   4.307   6.758
   39SOL    HW2 1017   6.907   4.292   6.901
   40SOL     OW 1018   4.616   1.767   0.509
   40SOL    HW1 1019   4.610   1.669   0.490
   40SOL    HW2 1020   4.680   1.783   0.584
   41SOL     OW 1021   6.813   4.789   3.288
   41SOL    HW1 1022   6.776   4.726   3.356
   41SOL    HW2 1023   6.775   4.768   3.198
   42SOL     OW 1024   2.962   4.957   4.532
   42SOL    HW1 1025   2.884   4.897   4.514
   42SOL    HW2 1026   2.956   5.037   4.474
   43SOL     OW 1027   5.072   6.732   5.475
   43SOL    HW1 1028   5.131   6.663   5.434
   43SOL    HW2 1029   5.089   6.737   5.573
   44SOL     OW 1030   4.373   2.027   6.528
   44SOL    HW1 1031   4.397   1.997   6.436
   44SOL    HW2 1032   4.396   1.955   6.593
   45SOL     OW 1033   4.730   5.851   1.748
   45SOL    HW1 1034   4.641   5.837   1.792
   45SOL    HW2 1035   4.791   5.898   1.812
   46SOL     OW 1036   0.354   3.418   3.084
   46SOL    HW1 1037   0.447   3.390   3.108
   46SOL    HW2 1038   0.293   3.340   3.091
   47SOL     OW 1039   4.680   4.032   0.883
   47SOL    HW1 1040   4.607   4.099   0.900
   47SOL    HW2 1041   4.768   4.072   0.910
   48SOL     OW 1042   6.510   3.286   6.158
   48SOL    HW1 1043   6.419   3.257   6.127
   48SOL    HW2 1044   6.579   3.257   6.091
   49SOL     OW 1045   5.503   3.549   1.506
   49SOL    HW1 1046   5.599   3.570   1.527
   49SOL    HW2 1047   5.491   3.544   1.407
   50SOL     OW 1048   5.454   0.959   4.913
   50SOL    HW1 1049   5.417   0.960   5.005
   50SOL    HW2 1050   5.403   0.893   4.857
   51SOL     OW 1051   2.160   6.631   3.578
   51SOL    HW1 1052   2.215   6.634   3.495
   51SOL    HW2 1053   2.063   6.626   3.553
   52SOL     OW 1054   6.208   3.274   2.621
   52SOL    HW1 1055   6.255   3.289   2.534
   52SOL    HW2 1056   6.123   3.224   2.604
   53SOL     OW 1057   4.642   6.701   3.702
   53SOL    HW1 1058   4.562   6.735   3.751
   53SOL    HW2 1059   4.704   6.656   3.766
   54SOL     OW 1060   4.730   5.001   1.172
   54SOL    HW1 1061   4.720   5.033   1.267
   54SOL    HW2 1062   4.696   5.072   1.110
   55SOL     OW 1063   1.872   2.925   6.206
   55SOL    HW1 1064   1.820   2.873   6.273
   55SOL    HW2 1065   1.813   2.995   6.165
   56SOL     OW 1066   0.058   1.183   0.692
   56SOL    HW1 1067   0.003   1.157   0.772
   56SOL    HW2 1068   0.043   1.279   0.670
   57SOL     OW 1069   4.445   0.708   1.308
   57SOL    HW1 1070   4.527   0.756   1.277
   57SOL    HW2 1071   4.363   0.758   1.278
   58SOL     OW 1072   0.135   6.736   5.408
   58SOL    HW1 1073   0.115   6.638   5.412
   58SOL    HW2 1074   0.223   6.753   5.453
   59SOL     OW 1075   0.676   2.410   5.747
   59SOL    HW1 1076   0.689   2.377   5.653
   59SOL    HW2 1077   0.763   2.407   5.796
   60SOL     OW 1078   5.362   2.728   4.493
   60SOL    HW1 1079   5.268   2.713   4.465
   60SOL    HW2 1080   5.366   2.800   4.563
   61SOL     OW 1081   6.555   2.246   4.488
   61SOL    HW1 1082   6.483   2.311   4.511
   61SOL    HW2 1083   6.520   2.178   4.423
   62SOL     OW 1084   1.113   1.045   1.787
   62SOL    HW1 1085   1.213   1.052   1.794
   62SOL    HW2 1086   1.089   0.986   1.710
   63SOL     OW 1087   5.368   1.418   3.416
   63SOL    HW1 1088   5.373   1.346   3.486
   63SOL    HW2 1089   5.285   1.472   3.430
   64SOL     OW 1090   0.595   3.090   6.239
   64SOL    HW1 1091   0.565   3.092   6.334
   64SOL    HW2 1092   0.624   3.182   6.212
   65SOL     OW 1093   0.814   4.584   6.543
   65SOL    HW1 1094   0.818   4.530   6.626
   65SOL    HW2 1095   0.765   4.534   6.472
   66SOL     OW 1096   3.968   1.018   5.017
   66SOL    HW1 1097   3.983   1.057   5.108
   66SOL    HW2 1098   4.024   0.936   5.006
   67SOL     OW 1099   6.891   3.293   5.622
   67SOL    HW1 1100   6.935   3.336   5.543
   67SOL    HW2 1101   6.891   3.194   5.611
   68SOL     OW 1102   6.146   1.077   6.900
   68SOL    HW1 1103   6.055   1.094   6.863
   68SOL    HW2 1104   6.212   1.067   6.825
   69SOL     OW 1105   0.709   3.525   6.315
   69SOL    HW1 1106   0.644   3.554   6.385
   69SOL    HW2 1107   0.786   3.589   6.313
   70SOL     OW 1108   5.710   4.418   4.912
   70SOL    HW1 1109   5.613   4.423   4.937
   70SOL    HW2 1110   5.755   4.346   4.965
   71SOL     OW 1111   3.885   1.666   3.838
   71SOL    HW1 1112   3.792   1.645   3.868
   71SOL    HW2 1113   3.921   1.588   3.786
   72SOL     OW 1114   1.568   0.207   3.906
   72SOL    HW1 1115   1.657   0.253   3.912
   72SOL    HW2 1116   1.560   0.142   3.981
   73SOL     OW 1117   3.834   0.494   1.388
   73SOL    HW1 1118   3.845   0.461   1.482
   73SOL    HW2 1119   3.756   0.556   1.384
   74SOL     OW 1120   3.937   0.788   0.218
   74SOL    HW1 1121   3.946   0.689   0.224
   74SOL    HW2 1122   4.026   0.830   0.235
   75SOL     OW 1123   4.406   1.083   1.043
   75SOL    HW1 1124   4.492   1.103   1.090
   75SOL    HW2 1125   4.352   1.021   1.098
   76SOL     OW 1126   2.996   3.680   1.299
   76SOL    HW1 1127   3.094   3.664   1.295
   76SOL    HW2 1128   2.957   3.634   1.379
   77SOL     OW 1129   0.703   0.237   3.586
   77SOL    HW1 1130   0.744   0.179   3.656
   77SOL    HW2 1131   0.759   0.319   3.573
   78SOL     OW 1132   5.518   1.615   6.977
   78SOL    HW1 1133   5.437   1.586   0.012
   78SOL    HW2 1134   5.492   1.633   6.882
   79SOL     OW 1135   3.050   5.824   1.511
   79SOL    HW1 1136   2.989   5.773   1.450
   79SOL    HW2 1137   3.144   5.816   1.479
   80SOL     OW 1138   4.368   1.394   3.825
   80SOL    HW1 1139   4.437   1.457   3.862
   80SOL    HW2 1140   4.399   1.359   3.737
   81SOL     OW 1141   2.753   6.978   2.438
   81SOL    HW1 1142   2.806   0.041   2.409
   81SOL    HW2 1143   2.690   6.951   2.365
   82SOL     OW 1144   5.794   4.818   0.755
   82SOL    HW1 1145   5.702   4.805   0.719
   82SOL    HW2 1146   5.805   4.763   0.838
   83SOL     OW 1147   0.272   0.135   0.376
   83SOL    HW1 1148   0.278   0.036   0.366
   83SOL    HW2 1149   0.261   0.159   0.473
   84SOL     OW 1150   6.214   2.910   3.136
   84SOL    HW1 1151   6.119   2.882   3.152
   84SOL    HW2 1152   6.252   2.947   3.220
   85SOL     OW 1153   1.731   1.285   3.646
   85SOL    HW1 1154   1.718   1.198   3.695
   85SOL    HW2 1155   1.783   1.347   3.704
   86SOL     OW 1156   1.113   1.445   6.518
   86SOL    HW1 1157   1.060   1.520   6.558
   86SOL    HW2 1158   1.184   1.417   6.582
   87SOL     OW 1159   5.169   4.528   0.867
   87SOL    HW1 1160   5.194   4.461   0.798
   87SOL    HW2 1161   5.248   4.586   0.889
   88SOL     OW 1162   3.117   1.732   6.170
   88SOL    HW1 1163   3.137   1.759   6.264
   88SOL    HW2 1164   3.021   1.705   6.162
   89SOL     OW 1165   2.146   2.344   6.965
   89SOL    HW1 1166   2.231   2.365   7.014
   89SOL    HW2 1167   2.167   2.315   6.872
   90SOL     OW 1168   4.308   5.074   2.269
   90SOL    HW1 1169   4.313   5.071   2.169
   90SOL    HW2 1170   4.251   5.151   2.297
   91SOL     OW 1171   6.139   3.675   5.925
   91SOL    HW1 1172   6.141   3.737   6.003
   91SOL    HW2 1173   6.047   3.637   5.915
   92SOL     OW 1174   4.628   4.847   0.908
   92SOL    HW1 1175   4.613   4.756   0.869
   92SOL    HW2 1176   4.726   4.867   0.912
   93SOL     OW 1177   3.539   3.352   0.588
   93SOL    HW1 1178   3.459   3.407   0.562
   93SOL    HW2 1179   3.538   3.337   0.687
   94SOL     OW 1180   2.527   5.805   6.230
   94SOL    HW1 1181   2.557   5.742   6.302
   94SOL    HW2 1182   2.427   5.802   6.223
   95SOL     OW 1183   0.790   0.025   2.850
   95SOL    HW1 1184   0.782   0.041   2.948
   95SOL    HW2 1185   0.887   0.025   2.824
   96SOL     OW 1186   3.331   6.976   4.844
   96SOL    HW1 1187   3.256   7.012   4.900
   96SOL    HW2 1188   3.293   6.931   4.763
   97SOL     OW 1189   2.106   3.302   6.233
   97SOL    HW1 1190   2.038   3.255   6.289
   97SOL    HW2 1191   2.198   3.279   6.265
   98SOL     OW 1192   1.272   3.130   0.652
   98SOL    HW1 1193   1.299   3.045   0.697
   98SOL    HW2 1194   1.340   3.154   0.583
   99SOL     OW 1195   4.208   2.917   1.581
   99SOL    HW1 1196   4.181   2.925   1.677
   99SOL    HW2 1197   4.138   2.865   1.531
  100SOL     OW 1198   1.134   6.350   4.520
  100SOL    HW1 1199   1.139   6.351   4.421
  100SOL    HW2 1200   1.185   6.428   4.557
  101SOL     OW 1201   2.231   5.119   2.110
  101SOL    HW1 1202   2.301   5.063   2.153
  101SOL    HW2 1203   2.274   5.193   2.058
  102SOL     OW 1204   3.557   5.608   1.105
  102SOL    HW1 1205   3.481   5.653   1.152
  102SOL    HW2 1206   3.598   5.541   1.167
  103SOL     OW 1207   2.512   2.259   1.973
  103SOL    HW1 1208   2.419   2.287   1.951
  103SOL    HW2 1209   2.545   2.195   1.904
  104SOL     OW 1210   1.376   5.925   2.955
  104SOL    HW1 1211   1.318   6.006   2.968
  104SOL    HW2 1212   1.365   5.891   2.862
  105SOL     OW 1213   6.672   1.235   6.103
  105SOL    HW1 1214   6.750   1.210   6.160
  105SOL    HW2 1215   6.662   1.335   6.104
  106SOL     OW 1216   3.717   6.172   4.211
  106SOL    HW1 1217   3.790   6.189   4.278
  106SOL    HW2 1218   3.665   6.091   4.239
  107SOL     OW 1219   1.095   1.359   0.783
  107SOL    HW1 1220   1.113   1.310   0.869
  107SOL    HW2 1221   0.996   1.363   0.767
  108SOL     OW 1222   3.413   0.005   5.601
  108SOL    HW1 1223   3.474   0.077   5.566
  108SOL    HW2 1224   3.326   0.046   5.628
  109SOL     OW 1225   1.842   0.802   2.289
  109SOL    HW1 1226   1.758   0.844   2.322
  109SOL    HW2 1227   1.845   0.706   2.316
  110SOL     OW 1228   2.745   5.192   4.172
  110SOL    HW1 1229   2.786   5.240   4.094
  110SOL    HW2 1230   2.671   5.133   4.139
  111SOL     OW 1231   1.850   1.178   3.947
  111SOL    HW1 1232   1.903   1.213   3.869
  111SOL    HW2 1233   1.777   1.243   3.968
  112SOL     OW 1234   3.149   5.891   6.676
  112SOL    HW1 1235   3.182   5.801   6.650
  112SOL    HW2 1236   3.062   5.909   6.630
  113SOL     OW 1237   0.601   5.684   2.309
  113SOL    HW1 1238   0.624   5.712   2.402
  113SOL    HW2 1239   0.620   5.586   2.298
  114SOL     OW 1240   0.789   6.781   2.051
  114SOL    HW1 1241   0.840   6.842   2.111
  114SOL    HW2 1242   0.722   6.730   2.105
  115SOL     OW 1243   4.857   1.392   3.199
  115SOL    HW1 1244   4.946   1.369   3.160
  115SOL    HW2 1245   4.792   1.411   3.125
  116SOL     OW 1246   5.989   6.004   1.578
  116SOL    HW1 1247   6.084   5.983   1.555
  116SOL    HW2 1248   5.985   6.086   1.635
  117SOL     OW 1249   1.289   1.291   1.340
  117SOL    HW1 1250   1.334   1.343   1.268
  117SOL    HW2 1251   1.285   1.194   1.314
  118SOL     OW 1252   1.093   0.721   2.148
  118SOL    HW1 1253   1.018   0.764   2.097
  118SOL    HW2 1254   1.107   0.770   2.234
  119SOL     OW 1255   0.269   0.420   0.358
  119SOL    HW1 1256   0.292   0.323   0.356
  119SOL    HW2 1257   0.337   0.472   0.308
  120SOL     OW 1258   5.200   1.001   5.904
  120SOL    HW1 1259   5.139   0.938   5.953
  120SOL    HW2 1260   5.238   0.955   5.824
  121SOL     OW 1261   2.064   3.123   6.885
  121SOL    HW1 1262   2.124   3.103   6.962
  121SOL    HW2 1263   2.069   3.049   6.818
  122SOL     OW 1264   1.302   3.520   6.423
  122SOL    HW1 1265   1.361   3.469   6.485
  122SOL    HW2 1266   1.234   3.458   6.383
  123SOL     OW 1267   0.876   1.144   2.691
  123SOL    HW1 1268   0.943   1.176   2.758
  123SOL    HW2 1269   0.804   1.093   2.737
  124SOL     OW 1270   3.980   2.588   1.072
  124SOL    HW1 1271   4.059   2.649   1.076
  124SOL    HW2 1272   3.979   2.540   0.984
  125SOL     OW 1273   3.568   2.107   0.354
  125SOL    HW1 1274   3.572   2.013   0.319
  125SOL    HW2 1275   3.478   2.123   0.395
  126SOL     OW 1276   3.006   4.157   1.314
  126SOL    HW1 1277   2.929   4.094   1.330
  126SOL    HW2 1278   2.978   4.250   1.337
  127SOL     OW 1279   0.968   4.723   6.940
  127SOL    HW1 1280   0.960   4.734   6.841
  127SOL    HW2 1281   1.025   4.797   6.976
  128SOL     OW 1282   4.565   2.872   1.410
  128SOL    HW1 1283   4.489   2.850   1.349
  128SOL    HW2 1284   4.638   2.917   1.358
  129SOL     OW 1285   3.384   3.888   6.344
  129SOL    HW1 1286   3.430   3.906   6.431
  129SOL    HW2 1287   3.453   3.870   6.273
  130SOL     OW 1288   1.493   1.752   4.689
  130SOL    HW1 1289   1.541   1.833   4.656
  130SOL    HW2 1290   1.499   1.679   4.621
  131SOL     OW 1291   4.351   0.506   3.388
  131SOL    HW1 1292   4.287   0.468   3.321
  131SOL    HW2 1293   4.300   0.558   3.457
  132SOL     OW 1294   3.098   2.750   1.799
  132SOL    HW1 1295   3.044   2.677   1.841
  132SOL    HW2 1296   3.193   2.742   1.828
  133SOL     OW 1297   4.999   0.577   4.048
  133SOL    HW1 1298   4.995   0.504   3.980
  133SOL    HW2 1299   5.058   0.650   4.014
  134SOL     OW 1300   6.661   1.335   2.554
  134SOL    HW1 1301   6.713   1.359   2.635
  134SOL    HW2 1302   6.721   1.290   2.488
  135SOL     OW 1303   5.070   4.031   3.685
  135SOL    HW1 1304   5.060   4.112   3.627
  135SOL    HW2 1305   4.988   3.974   3.676
  136SOL     OW 1306   1.517   5.282   5.164
  136SOL    HW1 1307   1.437   5.333   5.195
  136SOL    HW2 1308   1.599   5.339   5.173
  137SOL     OW 1309   5.013   1.761   2.971
  137SOL    HW1 1310   4.996   1.720   3.061
  137SOL    HW2 1311   5.036   1.858   2.982
  138SOL     OW 1312   1.187   3.903   3.008
  138SOL    HW1 1313   1.197   3.809   2.977
  138SOL    HW2 1314   1.261   3.925   3.072
  139SOL     OW 1315   1.509   0.207   5.280
  139SOL    HW1 1316   1.560   0.263   5.215
  139SOL    HW2 1317   1.563   0.127   5.305
  140SOL     OW 1318   1.419   6.833   4.026
  140SOL    HW1 1319   1.353   6.812   3.953
  140SOL    HW2 1320   1.433   6.752   4.082
  141SOL     OW 1321   0.290   2.761   5.045
  141SOL    HW1 1322   0.309   2.727   4.952
  141SOL    HW2 1323   0.355   2.833   5.068
  142SOL     OW 1324   1.381   4.740   1.234
  142SOL    HW1 1325   1.398   4.772   1.327
  142SOL    HW2 1326   1.433   4.795   1.169
  143SOL     OW 1327   5.952   4.325   0.462
  143SOL    HW1 1328   5.904   4.277   0.389
  143SOL    HW2 1329   6.042   4.355   0.429
  144SOL     OW 1330   1.174   4.718   5.675
  144SOL    HW1 1331   1.142   4.795   5.620
  144SOL    HW2 1332   1.273   4.712   5.670
  145SOL     OW 1333   1.440   5.104   1.432
  145SOL    HW1 1334   1.416   5.010   1.457
  145SOL    HW2 1335   1.357   5.160   1.430
  146SOL     OW 1336   5.218   0.254   5.768
  146SOL    HW1 1337   5.137   0.215   5.724
  146SOL    HW2 1338   5.229   0.216   5.860
  147SOL     OW 1339   5.432   2.425   5.839
  147SOL    HW1 1340   5.431   2.334   5.797
  147SOL    HW2 1341   5.448   2.416   5.937
  148SOL     OW 1342   6.742   5.178   0.563
  148SOL    HW1 1343   6.707   5.088   0.589
  148SOL    HW2 1344   6.831   5.167   0.518
  149SOL     OW 1345   3.630   2.040   3.845
  149SOL    HW1 1346   3.683   2.117   3.810
  149SOL    HW2 1347   3.687   1.986   3.907
  150SOL     OW 1348   5.740   6.874   0.216
  150SOL    HW1 1349   5.758   6.798   0.279
  150SOL    HW2 1350   5.825   6.900   0.170
  151SOL     OW 1351   3.312   1.448   2.002
  151SOL    HW1 1352   3.299   1.507   1.922
  151SOL    HW2 1353   3.230   1.450   2.059
  152SOL     OW 1354   0.252   1.009   1.863
  152SOL    HW1 1355   0.257   1.057   1.775
  152SOL    HW2 1356   0.171   1.038   1.913
  153SOL     OW 1357   2.729   0.441   3.725
  153SOL    HW1 1358   2.757   0.345   3.724
  153SOL    HW2 1359   2.810   0.500   3.720
  154SOL     OW 1360   0.952   3.389   1.197
  154SOL    HW1 1361   1.001   3.471   1.224
  154SOL    HW2 1362   1.011   3.309   1.210
  155SOL     OW 1363   0.704   1.555   5.382
  155SOL    HW1 1364   0.709   1.559   5.482
  155SOL    HW2 1365   0.609   1.539   5.355
  156SOL     OW 1366   0.097   0.865   0.950
  156SOL    HW1 1367   0.184   0.817   0.938
  156SOL    HW2 1368   0.099   0.913   1.038
  157SOL     OW 1369   5.485   3.176   1.480
  157SOL    HW1 1370   5.576   3.204   1.452
  157SOL    HW2 1371   5.417   3.222   1.422
  158SOL     OW 1372   1.493   3.241   1.933
  158SOL    HW1 1373   1.476   3.148   1.900
  158SOL    HW2 1374   1.509   3.239   2.032
  159SOL     OW 1375   4.432   5.092   2.636
  159SOL    HW1 1376   4.518   5.062   2.595
  159SOL    HW2 1377   4.368   5.016   2.638
  160SOL     OW 1378   5.448   6.609   0.722
  160SOL    HW1 1379   5.438   6.691   0.665
  160SOL    HW2 1380   5.427   6.632   0.817
  161SOL     OW 1381   1.402   6.218   3.486
  161SOL    HW1 1382   1.417   6.151   3.558
  161SOL    HW2 1383   1.411   6.173   3.397
  162SOL     OW 1384   3.721   6.605   6.925
  162SOL    HW1 1385   3.806   6.616   6.977
  162SOL    HW2 1386   3.663   6.537   6.969
  163SOL     OW 1387   6.409   5.622   2.166
  163SOL    HW1 1388   6.507   5.635   2.179
  163SOL    HW2 1389   6.359   5.692   2.216
  164SOL     OW 1390   0.438   4.492   2.614
  164SOL    HW1 1391   0.484   4.480   2.702
  164SOL    HW2 1392   0.501   4.536   2.549
  165SOL     OW 1393   4.751   3.794   1.184
  165SOL    HW1 1394   4.818   3.773   1.113
  165SOL    HW2 1395   4.767   3.886   1.219
  166SOL     OW 1396   1.598   3.490   2.222
  166SOL    HW1 1397   1.609   3.588   2.239
  166SOL    HW2 1398   1.676   3.457   2.168
  167SOL     OW 1399   5.463   2.680   6.754
  167SOL    HW1 1400   5.528   2.693   6.679
  167SOL    HW2 1401   5.406   2.600   6.735
  168SOL     OW 1402   3.352   2.760   0.915
  168SOL    HW1 1403   3.332   2.708   0.998
  168SOL    HW2 1404   3.418   2.710   0.859
  169SOL     OW 1405   6.462   2.034   1.553
  169SOL    HW1 1406   6.537   2.019   1.488
  169SOL    HW2 1407   6.420   1.946   1.575
  170SOL     OW 1408   0.309   6.728   2.586
  170SOL    HW1 1409   0.222   6.734   2.537
  170SOL    HW2 1410   0.292   6.705   2.682
  171SOL     OW 1411   2.264   3.900   6.704
  171SOL    HW1 1412   2.298   3.923   6.613
  171SOL    HW2 1413   2.294   3.807   6.728
  172SOL     OW 1414   6.295   1.107   2.775
  172SOL    HW1 1415   6.312   1.148   2.864
  172SOL    HW2 1416   6.377   1.116   2.718
  173SOL     OW 1417   6.646   1.187   3.895
  173SOL    HW1 1418   6.619   1.155   3.805
  173SOL    HW2 1419   6.696   1.273   3.886
  174SOL     OW 1420   3.791   5.450   3.613
  174SOL    HW1 1421   3.824   5.417   3.524
  174SOL    HW2 1422   3.693   5.468   3.608
  175SOL     OW 1423   2.922   0.169   1.419
  175SOL    HW1 1424   2.930   0.193   1.516
  175SOL    HW2 1425   3.000   0.111   1.393
  176SOL     OW 1426   6.601   4.576   1.154
  176SOL    HW1 1427   6.639   4.641   1.220
  176SOL    HW2 1428   6.573   4.625   1.071
  177SOL     OW 1429   5.581   3.214   3.714
  177SOL    HW1 1430   5.541   3.301   3.744
  177SOL    HW2 1431   5.515   3.140   3.731
  178SOL     OW 1432   3.218   4.242   5.665
  178SOL    HW1 1433   3.238   4.182   5.742
  178SOL    HW2 1434   3.303   4.270   5.621
  179SOL     OW 1435   4.136   1.422   6.086
  179SOL    HW1 1436   4.192   1.399   6.006
  179SOL    HW2 1437   4.114   1.338   6.136
  180SOL     OW 1438   2.058   6.853   0.245
  180SOL    HW1 1439   2.096   6.889   0.160
  180SOL    HW2 1440   2.054   6.753   0.240
  181SOL     OW 1441   3.488   3.583   5.816
  181SOL    HW1 1442   3.500   3.559   5.720
  181SOL    HW2 1443   3.524   3.509   5.873
  182SOL     OW 1444   3.542   1.957   5.545
  182SOL    HW1 1445   3.500   1.963   5.454
  182SOL    HW2 1446   3.474   1.922   5.610
  183SOL     OW 1447   3.669   1.799   3.249
  183SOL    HW1 1448   3.609   1.854   3.307
  183SOL    HW2 1449   3.620   1.771   3.167
  184SOL     OW 1450   0.893   6.667   3.979
  184SOL    HW1 1451   0.811   6.623   4.015
  184SOL    HW2 1452   0.963   6.598   3.961
  185SOL     OW 1453   0.448   0.556   5.680
  185SOL    HW1 1454   0.481   0.644   5.714
  185SOL    HW2 1455   0.426   0.564   5.583
  186SOL     OW 1456   6.129   0.769   4.033
  186SOL    HW1 1457   6.219   0.727   4.040
  186SOL    HW2 1458   6.089   0.747   3.944
  187SOL     OW 1459   5.030   6.579   2.506
  187SOL    HW1 1460   5.060   6.674   2.506
  187SOL    HW2 1461   4.968   6.563   2.429
  188SOL     OW 1462   1.401   3.534   3.140
  188SOL    HW1 1463   1.338   3.595   3.092
  188SOL    HW2 1464   1.358   3.445   3.154
  189SOL     OW 1465   2.833   5.639   0.591
  189SOL    HW1 1466   2.758   5.574   0.606
  189SOL    HW2 1467   2.901   5.629   0.663
  190SOL     OW 1468   5.669   3.404   5.496
  190SOL    HW1 1469   5.683   3.497   5.529
  190SOL    HW2 1470   5.571   3.381   5.500
  191SOL     OW 1471   5.862   0.434   6.265
  191SOL    HW1 1472   5.951   0.411   6.225
  191SOL    HW2 1473   5.812   0.349   6.284
  192SOL     OW 1474   0.523   4.987   2.571
  192SOL    HW1 1475   0.515   4.952   2.478
  192SOL    HW2 1476   0.540   4.912   2.634
  193SOL     OW 1477   4.431   3.692   5.281
  193SOL    HW1 1478   4.394   3.625   5.346
  193SOL    HW2 1479   4.495   3.646   5.220
  194SOL     OW 1480   3.637   0.396   2.673
  194SOL    HW1 1481   3.722   0.371   2.627
  194SOL    HW2 1482   3.633   0.495   2.684
  195SOL     OW 1483   1.735   0.350   4.152
  195SOL    HW1 1484   1.636   0.335   4.154
  195SOL    HW2 1485   1.756   0.438   4.196
  196SOL     OW 1486   3.090   0.606   0.598
  196SOL    HW1 1487   3.170   0.567   0.643
  196SOL    HW2 1488   3.047   0.672   0.658
  197SOL     OW 1489   2.650   0.398   1.689
  197SOL    HW1 1490   2.625   0.356   1.777
  197SOL    HW2 1491   2.669   0.325   1.623
  198SOL     OW 1492   5.102   0.209   1.664
  198SOL    HW1 1493   5.032   0.139   1.647
  198SOL    HW2 1494   5.074   0.266   1.741
  199SOL     OW 1495   6.509   1.440   3.519
  199SOL    HW1 1496   6.490   1.348   3.554
  199SOL    HW2 1497   6.599   1.469   3.550
  200SOL     OW 1498   1.039   4.135   1.891
  200SOL    HW1 1499   1.064   4.155   1.985
  200SOL    HW2 1500   0.972   4.061   1.889
  201SOL     OW 1501   6.949   6.671   6.364
  201SOL    HW1 1502   6.853   6.667   6.336
  201SOL    HW2 1503   6.961   6.743   6.432
  202SOL     OW 1504   4.774   0.235   5.792
  202SOL    HW1 1505   4.772   0.309   5.860
  202SOL    HW2 1506   4.680   0.213   5.764
  203SOL     OW 1507   4.466   2.422   4.425
  203SOL    HW1 1508   4.507   2.436   4.515
  203SOL    HW2 1509   4.525   2.463   4.355
  204SOL     OW 1510   0.396   1.022   6.276
  204SOL    HW1 1511   0.487   0.985   6.293
  204SOL    HW2 1512   0.341   1.016   6.359
  205SOL     OW 1513   0.579   0.998   3.435
  205SOL    HW1 1514   0.572   1.060   3.357
  205SOL    HW2 1515   0.674   0.968   3.445
  206SOL     OW 1516   0.215   4.873   1.682
  206SOL    HW1 1517   0.218   4.867   1.782
  206SOL    HW2 1518   0.123   4.848   1.651
  207SOL     OW 1519   5.171   1.035   3.714
  207SOL    HW1 1520   5.203   0.961   3.656
  207SOL    HW2 1521   5.071   1.038   3.712
  208SOL     OW 1522   5.552   2.561   5.110
  208SOL    HW1 1523   5.527   2.476   5.064
  208SOL    HW2 1524   5.483   2.631   5.092
  209SOL     OW 1525   0.268   4.675   4.530
  209SOL    HW1 1526   0.247   4.592   4.480
  209SOL    HW2 1527   0.293   4.652   4.624
  210SOL     OW 1528   4.442   1.992   0.428
  210SOL    HW1 1529   4.483   1.911   0.469
  210SOL    HW2 1530   4.361   2.018   0.480
  211SOL     OW 1531   2.583   5.939   3.603
  211SOL    HW1 1532   2.552   5.850   3.570
  211SOL    HW2 1533   2.680   5.934   3.628
  212SOL     OW 1534   1.635   4.443   1.590
  212SOL    HW1 1535   1.669   4.534   1.615
  212SOL    HW2 1536   1.585   4.404   1.668
  213SOL     OW 1537   2.793   0.669   6.473
  213SOL    HW1 1538   2.823   0.583   6.432
  213SOL    HW2 1539   2.763   0.652   6.567
  214SOL     OW 1540   4.875   5.508   1.744
  214SOL    HW1 1541   4.970   5.525   1.721
  214SOL    HW2 1542   4.818   5.521   1.663
  215SOL     OW 1543   2.289   3.787   0.638
  215SOL    HW1 1544   2.305   3.698   0.681
  215SOL    HW2 1545   2.190   3.805   0.635
  216SOL     OW 1546   2.405   6.035   4.567
  216SOL    HW1 1547   2.316   6.057   4.526
  216SOL    HW2 1548   2.404   5.940   4.600
  217SOL     OW 1549   2.067   2.605   4.104
  217SOL    HW1 1550   2.024   2.551   4.177
  217SOL    HW2 1551   2.029   2.698   4.104
  218SOL     OW 1552   1.006   2.987   4.242
  218SOL    HW1 1553   0.991   3.031   4.331
  218SOL    HW2 1554   0.930   3.008   4.181
  219SOL     OW 1555   4.164   6.431   5.827
  219SOL    HW1 1556   4.160   6.478   5.915
  219SOL    HW2 1557   4.242   6.466   5.774
  220SOL     OW 1558   3.872   6.855   0.650
  220SOL    HW1 1559   3.840   6.945   0.679
  220SOL    HW2 1560   3.960   6.835   0.693
  221SOL     OW 1561   6.462   2.957   1.746
  221SOL    HW1 1562   6.497   2.912   1.663
  221SOL    HW2 1563   6.524   3.031   1.772
  222SOL     OW 1564   2.742   4.850   5.787
  222SOL    HW1 1565   2.647   4.867   5.814
  222SOL    HW2 1566   2.744   4.776   5.720
  223SOL     OW 1567   5.562   3.018   0.930
  223SOL    HW1 1568   5.552   3.076   1.011
  223SOL    HW2 1569   5.498   2.942   0.935
  224SOL     OW 1570   2.010   2.302   4.448
  224SOL    HW1 1571   2.014   2.402   4.452
  224SOL    HW2 1572   2.084   2.269   4.389
  225SOL     OW 1573   5.104   2.734   6.110
  225SOL    HW1 1574   5.131   2.771   6.021
  225SOL    HW2 1575   5.106   2.634   6.107
  226SOL     OW 1576   1.338   0.743   6.246
  226SOL    HW1 1577   1.369   0.834   6.272
  226SOL    HW2 1578   1.417   0.683   6.233
  227SOL     OW 1579   1.456   3.522   3.512
  227SOL    HW1 1580   1.486   3.600   3.457
  227SOL    HW2 1581   1.371   3.546   3.559
  228SOL     OW 1582   2.964   5.980   3.610
  228SOL    HW1 1583   3.017   5.895   3.603
  228SOL    HW2 1584   2.907   5.991   3.528
  229SOL     OW 1585   4.930   6.084   6.996
  229SOL    HW1 1586   4.957   6.166   6.947
  229SOL    HW2 1587   5.002   6.015   6.987
  230SOL     OW 1588   2.831   4.918   3.160
  230SOL    HW1 1589   2.888   4.900   3.080
  230SOL    HW2 1590   2.797   5.012   3.156
  231SOL     OW 1591   6.020   1.846   6.658
  231SOL    HW1 1592   6.089   1.789   6.614
  231SOL    HW2 1593   6.041   1.854   6.756
  232SOL     OW 1594   1.151   3.852   6.199
  232SOL    HW1 1595   1.106   3.872   6.112
  232SOL    HW2 1596   1.243   3.815   6.181
  233SOL     OW 1597   2.264   2.400   4.054
  233SOL    HW1 1598   2.267   2.385   3.955
  233SOL    HW2 1599   2.187   2.458   4.077
  234SOL     OW 1600   4.076   6.620   4.917
  234SOL    HW1 1601   4.005   6.563   4.957
  234SOL    HW2 1602   4.043   6.660   4.831
  235SOL     OW 1603   3.816   2.950   1.593
  235SOL    HW1 1604   3.730   2.989   1.624
  235SOL    HW2 1605   3.849   2.883   1.660
  236SOL     OW 1606   5.211   3.159   0.034
  236SOL    HW1 1607   5.236   3.108   6.968
  236SOL    HW2 1608   5.111   3.161   0.042
  237SOL     OW 1609   6.087   5.050   1.934
  237SOL    HW1 1610   6.103   5.133   1.988
  237SOL    HW2 1611   6.175   5.011   1.907
  238SOL     OW 1612   5.378   2.337   6.958
  238SOL    HW1 1613   5.393   2.238   6.952
  238SOL    HW2 1614   5.280   2.356   6.961
  239SOL     OW 1615   0.208   5.555   5.820
  239SOL    HW1 1616   0.158   5.494   5.758
  239SOL    HW2 1617   0.285   5.505   5.860
  240SOL     OW 1618   0.567   2.390   3.967
  240SOL    HW1 1619   0.622   2.320   4.012
  240SOL    HW2 1620   0.564   2.373   3.869
  241SOL     OW 1621   1.697   0.370   5.097
  241SOL    HW1 1622   1.743   0.457   5.078
  241SOL    HW2 1623   1.674   0.326   5.010
  242SOL     OW 1624   2.962   3.123   5.492
  242SOL    HW1 1625   2.889   3.109   5.425
  242SOL    HW2 1626   2.933   3.192   5.558
  243SOL     OW 1627   4.524   0.187   5.657
  243SOL    HW1 1628   4.429   0.217   5.660
  243SOL    HW2 1629   4.534   0.114   5.589
  244SOL     OW 1630   5.656   2.355   4.674
  244SOL    HW1 1631   5.598   2.274   4.674
  244SOL    HW2 1632   5.607   2.432   4.634
  245SOL     OW 1633   6.479   3.554   4.629
  245SOL    HW1 1634   6.415   3.621   4.666
  245SOL    HW2 1635   6.512   3.583   4.540
  246SOL     OW 1636   4.894   2.533   2.946
  246SOL    HW1 1637   4.843   2.608   2.988
  246SOL    HW2 1638   4.845   2.501   2.865
  247SOL     OW 1639   3.240   1.674   1.866
  247SOL    HW1 1640   3.291   1.728   1.799
  247SOL    HW2 1641   3.143   1.673   1.842
  248SOL     OW 1642   3.694   2.014   2.553
  248SOL    HW1 1643   3.703   1.915   2.563
  248SOL    HW2 1644   3.601   2.036   2.524
  249SOL     OW 1645   4.182   0.070   5.659
  249SOL    HW1 1646   4.139   0.025   5.581
  249SOL    HW2 1647   4.254   0.011   5.696
  250SOL     OW 1648   5.368   2.815   0.875
  250SOL    HW1 1649   5.327   2.726   0.855
  250SOL    HW2 1650   5.300   2.876   0.915
  251SOL     OW 1651   4.949   3.698   5.444
  251SOL    HW1 1652   4.888   3.650   5.506
  251SOL    HW2 1653   4.901   3.774   5.400
  252SOL     OW 1654   6.561   6.991   6.390
  252SOL    HW1 1655   6.515   0.028   6.461
  252SOL    HW2 1656   6.516   7.008   6.302
  253SOL     OW 1657   2.325   4.280   6.866
  253SOL    HW1 1658   2.313   4.199   6.922
  253SOL    HW2 1659   2.313   4.362   6.923
  254SOL     OW 1660   4.977   3.303   3.010
  254SOL    HW1 1661   5.010   3.311   2.916
  254SOL    HW2 1662   4.899   3.240   3.013
  255SOL     OW 1663   2.085   3.160   4.653
  255SOL    HW1 1664   2.005   3.169   4.713
  255SOL    HW2 1665   2.161   3.120   4.704
  256SOL     OW 1666   6.426   4.063   6.337
  256SOL    HW1 1667   6.519   4.048   6.371
  256SOL    HW2 1668   6.361   4.011   6.392
  257SOL     OW 1669   4.681   6.809   4.072
  257SOL    HW1 1670   4.740   6.886   4.098
  257SOL    HW2 1671   4.628   6.835   3.991
  258SOL     OW 1672   0.411   4.963   5.136
  258SOL    HW1 1673   0.414   5.022   5.217
  258SOL    HW2 1674   0.361   5.009   5.063
  259SOL     OW 1675   1.506   2.130   2.195
  259SOL    HW1 1676   1.503   2.036   2.160
  259SOL    HW2 1677   1.436   2.140   2.267
  260SOL     OW 1678   4.540   1.101   0.793
  260SOL    HW1 1679   4.499   1.069   0.878
  260SOL    HW2 1680   4.615   1.163   0.814
  261SOL     OW 1681   6.622   3.603   0.213
  261SOL    HW1 1682   6.581   3.565   0.130
  261SOL    HW2 1683   6.599   3.700   0.220
  262SOL     OW 1684   6.873   4.322   0.452
  262SOL    HW1 1685   6.968   4.292   0.463
  262SOL    HW2 1686   6.819   4.248   0.412
  263SOL     OW 1687   0.796   0.876   4.096
  263SOL    HW1 1688   0.852   0.803   4.056
  263SOL    HW2 1689   0.699   0.853   4.085
  264SOL     OW 1690   4.566   3.221   5.995
  264SOL    HW1 1691   4.481   3.194   6.039
  264SOL    HW2 1692   4.639   3.158   6.020
  265SOL     OW 1693   4.883   5.163   3.340
  265SOL    HW1 1694   4.856   5.067   3.348
  265SOL    HW2 1695   4.979   5.172   3.367
  266SOL     OW 1696   3.754   3.386   5.697
  266SOL    HW1 1697   3.674   3.402   5.639
  266SOL    HW2 1698   3.821   3.331   5.647
  267SOL     OW 1699   6.365   2.205   5.880
  267SOL    HW1 1700   6.454   2.197   5.926
  267SOL    HW2 1701   6.326   2.114   5.867
  268SOL     OW 1702   4.079   0.018   5.248
  268SOL    HW1 1703   4.148   0.033   5.177
  268SOL    HW2 1704   4.110   6.962   5.310
  269SOL     OW 1705   1.775   3.234   1.225
  269SOL    HW1 1706   1.724   3.265   1.145
  269SOL    HW2 1707   1.833   3.307   1.259
  270SOL     OW 1708   0.268   0.272   0.715
  270SOL    HW1 1709   0.189   0.313   0.668
  270SOL    HW2 1710   0.241   0.184   0.754
  271SOL     OW 1711   2.592   1.377   0.583
  271SOL    HW1 1712   2.529   1.436   0.634
  271SOL    HW2 1713   2.618   1.421   0.498
  272SOL     OW 1714   3.166   4.860   4.208
  272SOL    HW1 1715   3.095   4.793   4.187
  272SOL    HW2 1716   3.144   4.905   4.295
  273SOL     OW 1717   2.199   4.875   4.571
  273SOL    HW1 1718   2.162   4.925   4.649
  273SOL    HW2 1719   2.279   4.923   4.534
  274SOL     OW 1720   4.774   2.333   3.774
  274SOL    HW1 1721   4.761   2.246   3.727
  274SOL    HW2 1722   4.865   2.336   3.814
  275SOL     OW 1723   6.095   4.936   5.876
  275SOL    HW1 1724   6.027   4.890   5.932
  275SOL    HW2 1725   6.164   4.978   5.935
  276SOL     OW 1726   6.947   5.211   2.566
  276SOL    HW1 1727   0.002   5.164   2.515
  276SOL    HW2 1728   6.985   5.249   2.650
  277SOL     OW 1729   2.327   3.980   0.268
  277SOL    HW1 1730   2.337   3.900   0.328
  277SOL    HW2 1731   2.263   3.959   0.195
  278SOL     OW 1732   0.180   5.446   1.718
  278SOL    HW1 1733   0.111   5.441   1.790
  278SOL    HW2 1734   0.138   5.427   1.629
  279SOL     OW 1735   6.584   3.057   4.392
  279SOL    HW1 1736   6.532   3.119   4.450
  279SOL    HW2 1737   6.571   3.082   4.296
  280SOL     OW 1738   2.182   6.975   2.823
  280SOL    HW1 1739   2.149   0.047   2.857
  280SOL    HW2 1740   2.135   6.952   2.738
  281SOL     OW 1741   3.364   4.898   2.081
  281SOL    HW1 1742   3.340   4.902   2.178
  281SOL    HW2 1743   3.442   4.837   2.069
  282SOL     OW 1744   3.660   1.191   5.578
  282SOL    HW1 1745   3.611   1.165   5.494
  282SOL    HW2 1746   3.752   1.221   5.555
  283SOL     OW 1747   6.798   1.183   5.877
  283SOL    HW1 1748   6.738   1.139   5.810
  283SOL    HW2 1749   6.749   1.195   5.963
  284SOL     OW 1750   0.829   4.498   4.404
  284SOL    HW1 1751   0.814   4.449   4.318
  284SOL    HW2 1752   0.744   4.540   4.434
  285SOL     OW 1753   5.691   5.007   6.239
  285SOL    HW1 1754   5.742   4.922   6.244
  285SOL    HW2 1755   5.634   5.007   6.157
  286SOL     OW 1756   3.444   5.256   4.944
  286SOL    HW1 1757   3.404   5.216   5.027
  286SOL    HW2 1758   3.399   5.343   4.924
  287SOL     OW 1759   0.753   4.602   0.032
  287SOL    HW1 1760   0.750   4.506   0.003
  287SOL    HW2 1761   0.830   4.648   7.004
  288SOL     OW 1762   4.356   2.322   6.397
  288SOL    HW1 1763   4.266   2.282   6.414
  288SOL    HW2 1764   4.347   2.421   6.384
  289SOL     OW 1765   6.985   5.453   5.504
  289SOL    HW1 1766   6.984   5.489   5.411
  289SOL    HW2 1767   0.063   5.437   5.533
  290SOL     OW 1768   5.038   1.440   3.877
  290SOL    HW1 1769   4.967   1.499   3.915
  290SOL    HW2 1770   5.126   1.488   3.879
  291SOL     OW 1771   2.650   1.593   4.743
  291SOL    HW1 1772   2.650   1.578   4.644
  291SOL    HW2 1773   2.707   1.673   4.765
  292SOL     OW 1774   2.350   1.701   2.506
  292SOL    HW1 1775   2.360   1.799   2.489
  292SOL    HW2 1776   2.392   1.650   2.430
  293SOL     OW 1777   4.983   4.902   1.890
  293SOL    HW1 1778   4.941   4.978   1.841
  293SOL    HW2 1779   5.036   4.846   1.826
  294SOL     OW 1780   6.394   5.685   6.445
  294SOL    HW1 1781   6.383   5.724   6.537
  294SOL    HW2 1782   6.324   5.724   6.384
  295SOL     OW 1783   3.083   1.355   4.495
  295SOL    HW1 1784   3.148   1.381   4.424
  295SOL    HW2 1785   3.108   1.265   4.531
  296SOL     OW 1786   5.978   1.985   2.487
  296SOL    HW1 1787   5.924   2.069   2.488
  296SOL    HW2 1788   5.976   1.946   2.394
  297SOL     OW 1789   2.941   4.813   2.891
  297SOL    HW1 1790   3.010   4.834   2.822
  297SOL    HW2 1791   2.857   4.784   2.846
  298SOL     OW 1792   3.081   6.084   0.706
  298SOL    HW1 1793   3.046   6.021   0.775
  298SOL    HW2 1794   3.177   6.064   0.687
  299SOL     OW 1795   3.796   3.383   6.489
  299SOL    HW1 1796   3.761   3.476   6.479
  299SOL    HW2 1797   3.893   3.382   6.465
  300SOL     OW 1798   5.612   0.804   1.977
  300SOL    HW1 1799   5.598   0.838   1.884
  300SOL    HW2 1800   5.685   0.857   2.020
  301SOL     OW 1801   5.702   3.418   0.967
  301SOL    HW1 1802   5.790   3.438   1.010
  301SOL    HW2 1803   5.716   3.365   0.884
  302SOL     OW 1804   0.428   0.861   3.733
  302SOL    HW1 1805   0.467   0.951   3.755
  302SOL    HW2 1806   0.390   0.864   3.640
  303SOL     OW 1807   6.632   6.813   2.120
  303SOL    HW1 1808   6.604   6.814   2.024
  303SOL    HW2 1809   6.635   6.718   2.152
  304SOL     OW 1810   1.605   6.567   5.352
  304SOL    HW1 1811   1.679   6.597   5.291
  304SOL    HW2 1812   1.642   6.510   5.425
  305SOL     OW 1813   1.292   3.162   0.031
  305SOL    HW1 1814   1.235   3.113   6.981
  305SOL    HW2 1815   1.265   3.136   0.124
  306SOL     OW 1816   1.774   6.779   3.716
  306SOL    HW1 1817   1.854   6.826   3.680
  306SOL    HW2 1818   1.693   6.805   3.662
  307SOL     OW 1819   5.031   5.938   0.253
  307SOL    HW1 1820   5.088   6.014   0.286
  307SOL    HW2 1821   5.057   5.916   0.159
  308SOL     OW 1822   6.113   3.639   4.345
  308SOL    HW1 1823   6.037   3.650   4.281
  308SOL    HW2 1824   6.077   3.608   4.433
  309SOL     OW 1825   2.555   6.164   0.055
  309SOL    HW1 1826   2.561   6.172   6.972
  309SOL    HW2 1827   2.552   6.256   0.096
  310SOL     OW 1828   5.613   6.230   5.249
  310SOL    HW1 1829   5.685   6.202   5.312
  310SOL    HW2 1830   5.594   6.155   5.185
  311SOL     OW 1831   4.464   4.817   3.034
  311SOL    HW1 1832   4.459   4.904   2.985
  311SOL    HW2 1833   4.441   4.742   2.972
  312SOL     OW 1834   4.026   1.190   4.606
  312SOL    HW1 1835   3.927   1.180   4.616
  312SOL    HW2 1836   4.066   1.101   4.583
  313SOL     OW 1837   2.940   3.927   2.232
  313SOL    HW1 1838   2.955   3.842   2.181
  313SOL    HW2 1839   2.851   3.965   2.209
  314SOL     OW 1840   3.027   5.403   6.935
  314SOL    HW1 1841   3.056   5.419   0.013
  314SOL    HW2 1842   3.004   5.491   6.892
  315SOL     OW 1843   1.265   2.839   3.939
  315SOL    HW1 1844   1.316   2.794   3.865
  315SOL    HW2 1845   1.292   2.935   3.945
  316SOL     OW 1846   2.844   1.534   4.120
  316SOL    HW1 1847   2.809   1.615   4.168
  316SOL    HW2 1848   2.874   1.466   4.187
  317SOL     OW 1849   0.011   1.633   0.899
  317SOL    HW1 1850   0.089   1.571   0.911
  317SOL    HW2 1851   6.966   1.597   0.829
  318SOL     OW 1852   1.183   5.895   6.474
  318SOL    HW1 1853   1.122   5.970   6.447
  318SOL    HW2 1854   1.131   5.810   6.478
  319SOL     OW 1855   6.577   1.075   3.173
  319SOL    HW1 1856   6.499   1.133   3.197
  319SOL    HW2 1857   6.545   0.982   3.156
  320SOL     OW 1858   6.727   2.342   1.612
  320SOL    HW1 1859   6.674   2.302   1.686
  320SOL    HW2 1860   6.711   2.440   1.609
  321SOL     OW 1861   4.259   1.957   6.900
  321SOL    HW1 1862   4.311   1.968   6.984
  321SOL    HW2 1863   4.244   2.046   6.858
  322SOL     OW 1864   3.743   2.872   4.169
  322SOL    HW1 1865   3.732   2.904   4.075
  322SOL    HW2 1866   3.779   2.778   4.168
  323SOL     OW 1867   1.033   2.679   6.478
  323SOL    HW1 1868   1.059   2.738   6.401
  323SOL    HW2 1869   1.109   2.618   6.500
  324SOL     OW 1870   2.801   1.408   4.857
  324SOL    HW1 1871   2.886   1.458   4.871
  324SOL    HW2 1872   2.737   1.465   4.806
  325SOL     OW 1873   0.731   2.930   1.985
  325SOL    HW1 1874   0.668   2.961   1.914
  325SOL    HW2 1875   0.681   2.874   2.051
  326SOL     OW 1876   1.152   4.797   6.696
  326SOL    HW1 1877   1.088   4.778   6.621
  326SOL    HW2 1878   1.194   4.711   6.725
  327SOL     OW 1879   1.487   4.615   3.269
  327SOL    HW1 1880   1.422   4.612   3.193
  327SOL    HW2 1881   1.580   4.625   3.233
  328SOL     OW 1882   1.355   5.747   1.965
  328SOL    HW1 1883   1.371   5.680   1.893
  328SOL    HW2 1884   1.346   5.838   1.924
  329SOL     OW 1885   3.750   3.507   4.689
  329SOL    HW1 1886   3.759   3.451   4.771
  329SOL    HW2 1887   3.737   3.603   4.715
  330SOL     OW 1888   3.822   6.803   1.553
  330SOL    HW1 1889   3.776   6.735   1.496
  330SOL    HW2 1890   3.912   6.768   1.581
  331SOL     OW 1891   3.733   5.213   7.009
  331SOL    HW1 1892   3.817   5.236   6.961
  331SOL    HW2 1893   3.694   5.130   6.970
  332SOL     OW 1894   4.301   1.678   5.140
  332SOL    HW1 1895   4.268   1.586   5.159
  332SOL    HW2 1896   4.234   1.745   5.173
  333SOL     OW 1897   2.687   0.532   6.089
  333SOL    HW1 1898   2.735   0.618   6.072
  333SOL    HW2 1899   2.734   0.458   6.041
  334SOL     OW 1900   3.268   0.289   1.577
  334SOL    HW1 1901   3.234   0.302   1.670
  334SOL    HW2 1902   3.253   0.194   1.550
  335SOL     OW 1903   3.839   0.017   5.467
  335SOL    HW1 1904   3.894   0.097   5.491
  335SOL    HW2 1905   3.878   6.988   5.387
  336SOL     OW 1906   1.716   0.458   3.621
  336SOL    HW1 1907   1.802   0.476   3.574
  336SOL    HW2 1908   1.733   0.442   3.718
  337SOL     OW 1909   0.432   2.550   6.855
  337SOL    HW1 1910   0.359   2.499   6.809
  337SOL    HW2 1911   0.449   2.511   6.945
  338SOL     OW 1912   2.866   2.352   1.475
  338SOL    HW1 1913   2.902   2.445   1.484
  338SOL    HW2 1914   2.938   2.290   1.445
  339SOL     OW 1915   3.025   6.265   3.745
  339SOL    HW1 1916   3.079   6.181   3.739
  339SOL    HW2 1917   2.992   6.291   3.654
  340SOL     OW 1918   4.873   4.436   5.236
  340SOL    HW1 1919   4.930   4.355   5.247
  340SOL    HW2 1920   4.931   4.516   5.222
  341SOL     OW 1921   6.372   0.843   4.585
  341SOL    HW1 1922   6.306   0.896   4.532
  341SOL    HW2 1923   6.376   0.880   4.678
  342SOL     OW 1924   6.153   3.566   0.262
  342SOL    HW1 1925   6.059   3.580   0.231
  342SOL    HW2 1926   6.216   3.612   0.199
  343SOL     OW 1927   2.240   5.723   0.437
  343SOL    HW1 1928   2.238   5.714   0.338
  343SOL    HW2 1929   2.331   5.697   0.471
  344SOL     OW 1930   1.173   4.468   2.159
  344SOL    HW1 1931   1.190   4.377   2.122
  344SOL    HW2 1932   1.230   4.535   2.112
  345SOL     OW 1933   4.358   1.485   3.207
  345SOL    HW1 1934   4.379   1.423   3.132
  345SOL    HW2 1935   4.259   1.482   3.226
  346SOL     OW 1936   2.250   0.688   3.134
  346SOL    HW1 1937   2.229   0.772   3.183
  346SOL    HW2 1938   2.223   0.697   3.038
  347SOL     OW 1939   2.666   5.457   6.285
  347SOL    HW1 1940   2.627   5.418   6.202
  347SOL    HW2 1941   2.688   5.385   6.350
  348SOL     OW 1942   5.275   3.932   2.137
  348SOL    HW1 1943   5.257   3.941   2.235
  348SOL    HW2 1944   5.204   3.874   2.096
  349SOL     OW 1945   6.932   5.167   0.884
  349SOL    HW1 1946   6.905   5.113   0.964
  349SOL    HW2 1947   6.993   5.112   0.826
  350SOL     OW 1948   3.568   3.472   0.845
  350SOL    HW1 1949   3.553   3.549   0.782
  350SOL    HW2 1950   3.488   3.462   0.904
  351SOL     OW 1951   1.985   2.849   0.975
  351SOL    HW1 1952   1.920   2.886   1.041
  351SOL    HW2 1953   2.075   2.841   1.018
  352SOL     OW 1954   2.659   0.829   4.555
  352SOL    HW1 1955   2.694   0.775   4.479
  352SOL    HW2 1956   2.688   0.924   4.545
  353SOL     OW 1957   2.378   0.189   0.736
  353SOL    HW1 1958   2.430   0.268   0.770
  353SOL    HW2 1959   2.371   0.194   0.636
  354SOL     OW 1960   3.809   2.335   0.686
  354SOL    HW1 1961   3.726   2.330   0.742
  354SOL    HW2 1962   3.888   2.349   0.746
  355SOL     OW 1963   0.980   3.779   2.617
  355SOL    HW1 1964   0.953   3.835   2.695
  355SOL    HW2 1965   0.958   3.683   2.636
  356SOL     OW 1966   2.976   0.159   5.887
  356SOL    HW1 1967   2.908   0.232   5.889
  356SOL    HW2 1968   3.022   0.154   5.976
  357SOL     OW 1969   6.710   6.626   5.527
  357SOL    HW1 1970   6.779   6.681   5.479
  357SOL    HW2 1971   6.628   6.682   5.542
  358SOL     OW 1972   4.181   0.153   0.539
  358SOL    HW1 1973   4.124   0.181   0.616
  358SOL    HW2 1974   4.228   0.067   0.562
  359SOL     OW 1975   1.592   2.609   2.124
  359SOL    HW1 1976   1.656   2.684   2.135
  359SOL    HW2 1977   1.640   2.522   2.136
  360SOL     OW 1978   0.946   5.197   6.603
  360SOL    HW1 1979   0.946   5.144   6.687
  360SOL    HW2 1980   1.036   5.190   6.559
  361SOL     OW 1981   5.678   5.718   3.083
  361SOL    HW1 1982   5.665   5.638   3.142
  361SOL    HW2 1983   5.761   5.706   3.029
  362SOL     OW 1984   3.624   3.870   1.586
  362SOL    HW1 1985   3.662   3.957   1.617
  362SOL    HW2 1986   3.694   3.799   1.589
  363SOL     OW 1987   5.364   4.484   3.519
  363SOL    HW1 1988   5.279   4.486   3.467
  363SOL    HW2 1989   5.418   4.567   3.501
  364SOL     OW 1990   6.201   5.237   6.274
  364SOL    HW1 1991   6.148   5.262   6.192
  364SOL    HW2 1992   6.139   5.231   6.352
  365SOL     OW 1993   5.772   5.973   2.364
  365SOL    HW1 1994   5.709   6.019   2.302
  365SOL    HW2 1995   5.721   5.917   2.429
  366SOL     OW 1996   6.227   0.758   5.889
  366SOL    HW1 1997   6.162   0.732   5.960
  366SOL    HW2 1998   6.255   0.853   5.902
  367SOL     OW 1999   4.779   2.607   0.971
  367SOL    HW1 2000   4.866   2.570   1.005
  367SOL    HW2 2001   4.798   2.681   0.906
  368SOL     OW 2002   0.053   3.841   4.807
  368SOL    HW1 2003   0.150   3.827   4.826
  368SOL    HW2 2004   7.016   3.770   4.853
  369SOL     OW 2005   6.502   5.474   1.890
  369SOL    HW1 2006   6.488   5.385   1.846
  369SOL    HW2 2007   6.415   5.524   1.894
  370SOL     OW 2008   2.774   1.170   5.831
  370SOL    HW1 2009   2.690   1.117   5.827
  370SOL    HW2 2010   2.767   1.249   5.770
  371SOL     OW 2011   2.217   3.650   6.157
  371SOL    HW1 2012   2.233   3.673   6.061
  371SOL    HW2 2013   2.187   3.555   6.163
  372SOL     OW 2014   1.368   6.295   6.240
  372SOL    HW1 2015   1.284   6.287   6.186
  372SOL    HW2 2016   1.429   6.219   6.216
  373SOL     OW 2017   6.811   6.930   4.435
  373SOL    HW1 2018   6.858   6.858   4.485
  373SOL    HW2 2019   6.876   7.000   4.407
  374SOL     OW 2020   2.432   1.895   3.055
  374SOL    HW1 2021   2.378   1.811   3.063
  374SOL    HW2 2022   2.377   1.973   3.084
  375SOL     OW 2023   1.141   4.150   3.708
  375SOL    HW1 2024   1.163   4.198   3.623
  375SOL    HW2 2025   1.055   4.185   3.745
  376SOL     OW 2026   2.384   1.548   4.908
  376SOL    HW1 2027   2.403   1.580   5.001
  376SOL    HW2 2028   2.458   1.576   4.847
  377SOL     OW 2029   1.414   2.095   1.321
  377SOL    HW1 2030   1.437   2.133   1.232
  377SOL    HW2 2031   1.317   2.111   1.340
  378SOL     OW 2032   3.552   2.267   5.870
  378SOL    HW1 2033   3.464   2.228   5.896
  378SOL    HW2 2034   3.608   2.282   5.952
  379SOL     OW 2035   6.185   4.002   1.005
  379SOL    HW1 2036   6.089   3.973   1.002
  379SOL    HW2 2037   6.240   3.940   0.950
  380SOL     OW 2038   2.617   1.246   1.360
  380SOL    HW1 2039   2.700   1.279   1.315
  380SOL    HW2 2040   2.610   1.146   1.348
  381SOL     OW 2041   1.597   3.847   2.502
  381SOL    HW1 2042   1.590   3.749   2.517
  381SOL    HW2 2043   1.577   3.896   2.587
  382SOL     OW 2044   5.674   6.523   6.100
  382SOL    HW1 2045   5.659   6.430   6.134
  382SOL    HW2 2046   5.763   6.556   6.132
  383SOL     OW 2047   4.633   3.333   5.752
  383SOL    HW1 2048   4.600   3.257   5.808
  383SOL    HW2 2049   4.699   3.386   5.806
  384SOL     OW 2050   0.045   5.776   4.466
  384SOL    HW1 2051   7.001   5.842   4.420
  384SOL    HW2 2052   0.061   5.807   4.560
  385SOL     OW 2053   4.099   5.763   5.196
  385SOL    HW1 2054   4.167   5.782   5.126
  385SOL    HW2 2055   4.047   5.681   5.170
  386SOL     OW 2056   2.456   6.301   5.857
  386SOL    HW1 2057   2.446   6.337   5.764
  386SOL    HW2 2058   2.517   6.221   5.855
  387SOL     OW 2059   0.902   6.572   3.508
  387SOL    HW1 2060   0.838   6.498   3.532
  387SOL    HW2 2061   0.850   6.652   3.480
  388SOL     OW 2062   1.451   1.752   4.217
  388SOL    HW1 2063   1.520   1.765   4.146
  388SOL    HW2 2064   1.474   1.670   4.271
  389SOL     OW 2065   4.060   4.670   0.973
  389SOL    HW1 2066   4.027   4.695   0.882
  389SOL    HW2 2067   4.151   4.631   0.966
  390SOL     OW 2068   3.248   1.539   0.137
  390SOL    HW1 2069   3.226   1.469   0.068
  390SOL    HW2 2070   3.273   1.624   0.091
  391SOL     OW 2071   2.147   3.710   5.358
  391SOL    HW1 2072   2.134   3.750   5.268
  391SOL    HW2 2073   2.238   3.668   5.363
  392SOL     OW 2074   1.978   4.424   1.347
  392SOL    HW1 2075   1.925   4.395   1.427
  392SOL    HW2 2076   2.059   4.367   1.337
  393SOL     OW 2077   1.342   4.592   6.810
  393SOL    HW1 2078   1.272   4.564   6.876
  393SOL    HW2 2079   1.408   4.518   6.799
  394SOL     OW 2080   6.857   2.748   0.527
  394SOL    HW1 2081   6.880   2.769   0.621
  394SOL    HW2 2082   6.837   2.832   0.477
  395SOL     OW 2083   4.747   4.913   3.402
  395SOL    HW1 2084   4.707   4.840   3.346
  395SOL    HW2 2085   4.675   4.977   3.429
  396SOL     OW 2086   3.019   3.082   2.316
  396SOL    HW1 2087   3.050   3.020   2.244
  396SOL    HW2 2088   2.933   3.047   2.354
  397SOL     OW 2089   5.717   1.521   5.848
  397SOL    HW1 2090   5.722   1.429   5.809
  397SOL    HW2 2091   5.658   1.520   5.929
  398SOL     OW 2092   1.191   7.010   3.829
  398SOL    HW1 2093   1.161   6.954   3.906
  398SOL    HW2 2094   1.195   6.954   3.747
  399SOL     OW 2095   5.013   6.886   4.019
  399SOL    HW1 2096   4.950   6.926   4.086
  399SOL    HW2 2097   5.033   6.791   4.045
  400SOL     OW 2098   6.445   6.706   5.697
  400SOL    HW1 2099   6.385   6.785   5.701
  400SOL    HW2 2100   6.482   6.687   5.788
  401SOL     OW 2101   5.039   0.351   6.595
  401SOL    HW1 2102   5.109   0.389   6.656
  401SOL    HW2 2103   5.005   0.265   6.633
  402SOL     OW 2104   6.562   0.826   3.469
  402SOL    HW1 2105   6.600   0.744   3.427
  402SOL    HW2 2106   6.634   0.893   3.484
  403SOL     OW 2107   3.725   0.923   5.039
  403SOL    HW1 2108   3.809   0.977   5.048
  403SOL    HW2 2109   3.647   0.977   5.072
  404SOL     OW 2110   1.506   4.675   3.911
  404SOL    HW1 2111   1.561   4.709   3.835
  404SOL    HW2 2112   1.567   4.644   3.984
  405SOL     OW 2113   1.977   3.221   3.225
  405SOL    HW1 2114   2.010   3.142   3.277
  405SOL    HW2 2115   1.980   3.199   3.127
  406SOL     OW 2116   0.159   4.282   4.606
  406SOL    HW1 2117   0.190   4.322   4.692
  406SOL    HW2 2118   0.233   4.229   4.565
  407SOL     OW 2119   1.309   2.000   5.418
  407SOL    HW1 2120   1.287   1.904   5.400
  407SOL    HW2 2121   1.330   2.047   5.332
  408SOL     OW 2122   2.999   2.251   3.173
  408SOL    HW1 2123   2.936   2.259   3.251
  408SOL    HW2 2124   2.949   2.265   3.088
  409SOL     OW 2125   6.367   3.245   1.676
  409SOL    HW1 2126   6.362   3.328   1.731
  409SOL    HW2 2127   6.463   3.217   1.666
  410SOL     OW 2128   0.975   1.868   1.186
  410SOL    HW1 2129   0.892   1.880   1.132
  410SOL    HW2 2130   1.045   1.823   1.131
  411SOL     OW 2131   6.901   0.965   1.715
  411SOL    HW1 2132   6.847   0.979   1.632
  411SOL    HW2 2133   6.975   0.900   1.695
  412SOL     OW 2134   3.578   5.714   2.516
  412SOL    HW1 2135   3.618   5.698   2.606
  412SOL    HW2 2136   3.511   5.643   2.496
  413SOL     OW 2137   5.755   4.259   1.929
  413SOL    HW1 2138   5.777   4.225   2.021
  413SOL    HW2 2139   5.669   4.217   1.898
  414SOL     OW 2140   3.872   5.864   3.246
  414SOL    HW1 2141   3.907   5.905   3.331
  414SOL    HW2 2142   3.914   5.910   3.168
  415SOL     OW 2143   0.121   0.548   0.153
  415SOL    HW1 2144   0.057   0.611   0.195
  415SOL    HW2 2145   0.176   0.503   0.223
  416SOL     OW 2146   5.091   5.471   5.198
  416SOL    HW1 2147   5.095   5.415   5.116
  416SOL    HW2 2148   5.081   5.567   5.173
  417SOL     OW 2149   1.940   6.655   5.529
  417SOL    HW1 2150   1.947   6.575   5.469
  417SOL    HW2 2151   1.999   6.641   5.609
  418SOL     OW 2152   3.370   6.599   6.729
  418SOL    HW1 2153   3.325   6.547   6.801
  418SOL    HW2 2154   3.459   6.557   6.707
  419SOL     OW 2155   0.951   6.659   2.779
  419SOL    HW1 2156   0.924   6.701   2.866
  419SOL    HW2 2157   1.051   6.658   2.773
  420SOL     OW 2158   5.973   1.444   6.437
  420SOL    HW1 2159   5.934   1.354   6.457
  420SOL    HW2 2160   5.928   1.513   6.493
  421SOL     OW 2161   5.552   4.019   4.531
  421SOL    HW1 2162   5.473   4.066   4.570
  421SOL    HW2 2163   5.634   4.041   4.585
  422SOL     OW 2164   5.002   3.377   0.992
  422SOL    HW1 2165   5.025   3.295   0.940
  422SOL    HW2 2166   5.073   3.446   0.979
  423SOL     OW 2167   1.467   2.381   0.028
  423SOL    HW1 2168   1.530   2.414   6.973
  423SOL    HW2 2169   1.395   2.448   0.042
  424SOL     OW 2170   1.962   5.072   2.158
  424SOL    HW1 2171   2.056   5.103   2.146
  424SOL    HW2 2172   1.914   5.077   2.071
  425SOL     OW 2173   4.901   1.924   4.070
  425SOL    HW1 2174   4.983   1.965   4.029
  425SOL    HW2 2175   4.847   1.995   4.114
  426SOL     OW 2176   2.632   1.899   4.371
  426SOL    HW1 2177   2.634   1.931   4.465
  426SOL    HW2 2178   2.676   1.809   4.366
  427SOL     OW 2179   6.567   6.852   3.685
  427SOL    HW1 2180   6.539   6.888   3.774
  427SOL    HW2 2181   6.572   6.927   3.619
  428SOL     OW 2182   3.705   0.356   3.587
  428SOL    HW1 2183   3.746   0.447   3.576
  428SOL    HW2 2184   3.763   0.299   3.645
  429SOL     OW 2185   0.437   4.878   3.610
  429SOL    HW1 2186   0.498   4.862   3.533
  429SOL    HW2 2187   0.344   4.851   3.586
  430SOL     OW 2188   1.189   6.739   4.615
  430SOL    HW1 2189   1.123   6.794   4.665
  430SOL    HW2 2190   1.245   6.687   4.680
  431SOL     OW 2191   2.922   0.801   1.365
  431SOL    HW1 2192   2.855   0.793   1.291
  431SOL    HW2 2193   2.902   0.733   1.436
  432SOL     OW 2194   6.782   2.225   1.356
  432SOL    HW1 2195   6.742   2.308   1.318
  432SOL    HW2 2196   6.778   2.228   1.456
  433SOL     OW 2197   1.882   6.363   5.826
  433SOL    HW1 2198   1.892   6.424   5.905
  433SOL    HW2 2199   1.909   6.271   5.852
  434SOL     OW 2200   4.486   6.017   3.579
  434SOL    HW1 2201   4.472   6.013   3.678
  434SOL    HW2 2202   4.488   6.112   3.549
  435SOL     OW 2203   3.874   1.940   5.749
  435SOL    HW1 2204   3.863   1.906   5.656
  435SOL    HW2 2205   3.972   1.947   5.770
  436SOL     OW 2206   2.877   5.725   1.910
  436SOL    HW1 2207   2.915   5.804   1.959
  436SOL    HW2 2208   2.788   5.749   1.872
  437SOL     OW 2209   0.634   0.971   6.393
  437SOL    HW1 2210   0.644   0.997   6.489
  437SOL    HW2 2211   0.690   1.030   6.335
  438SOL     OW 2212   1.446   3.658   4.203
  438SOL    HW1 2213   1.421   3.745   4.159
  438SOL    HW2 2214   1.378   3.635   4.273
  439SOL     OW 2215   5.576   6.187   2.612
  439SOL    HW1 2216   5.661   6.192   2.559
  439SOL    HW2 2217   5.598   6.158   2.706
  440SOL     OW 2218   2.679   1.782   5.503
  440SOL    HW1 2219   2.671   1.879   5.525
  440SOL    HW2 2220   2.738   1.738   5.571
  441SOL     OW 2221   6.828   3.473   3.775
  441SOL    HW1 2222   6.739   3.427   3.781
  441SOL    HW2 2223   6.815   3.566   3.741
  442SOL     OW 2224   4.662   5.505   5.254
  442SOL    HW1 2225   4.614   5.580   5.300
  442SOL    HW2 2226   4.744   5.540   5.210
  443SOL     OW 2227   5.824   3.820   4.383
  443SOL    HW1 2228   5.862   3.762   4.455
  443SOL    HW2 2229   5.841   3.916   4.404
  444SOL     OW 2230   4.587   6.909   5.991
  444SOL    HW1 2231   4.660   6.964   6.031
  444SOL    HW2 2232   4.575   6.825   6.045
  445SOL     OW 2233   2.158   6.286   3.168
  445SOL    HW1 2234   2.151   6.207   3.107
  445SOL    HW2 2235   2.234   6.344   3.138
  446SOL     OW 2236   4.789   5.729   2.396
  446SOL    HW1 2237   4.883   5.763   2.389
  446SOL    HW2 2238   4.754   5.710   2.304
  447SOL     OW 2239   6.002   4.106   5.336
  447SOL    HW1 2240   5.974   4.179   5.400
  447SOL    HW2 2241   6.091   4.129   5.297
  448SOL     OW 2242   2.592   0.901   3.000
  448SOL    HW1 2243   2.612   0.829   2.934
  448SOL    HW2 2244   2.529   0.967   2.959
  449SOL     OW 2245   2.872   1.076   4.250
  449SOL    HW1 2246   2.838   1.031   4.167
  449SOL    HW2 2247   2.972   1.073   4.251
  450SOL     OW 2248   1.757   4.699   3.217
  450SOL    HW1 2249   1.750   4.680   3.119
  450SOL    HW2 2250   1.806   4.624   3.261
  451SOL     OW 2251   1.634   2.257   4.275
  451SOL    HW1 2252   1.561   2.197   4.307
  451SOL    HW2 2253   1.594   2.338   4.232
  452SOL     OW 2254   4.774   6.492   1.664
  452SOL    HW1 2255   4.755   6.455   1.573
  452SOL    HW2 2256   4.693   6.537   1.700
  453SOL     OW 2257   3.691   6.979   6.505
  453SOL    HW1 2258   3.788   6.999   6.495
  453SOL    HW2 2259   3.674   6.882   6.486
  454SOL     OW 2260   0.003   3.143   6.510
  454SOL    HW1 2261   0.063   3.101   6.578
  454SOL    HW2 2262   6.961   3.211   6.555
  455SOL     OW 2263   5.024   2.221   4.913
  455SOL    HW1 2264   4.948   2.278   4.945
  455SOL    HW2 2265   4.991   2.160   4.840
  456SOL     OW 2266   1.009   0.458   4.893
  456SOL    HW1 2267   1.003   0.492   4.987
  456SOL    HW2 2268   1.099   0.417   4.878
  457SOL     OW 2269   2.118   4.411   4.406
  457SOL    HW1 2270   2.116   4.349   4.327
  457SOL    HW2 2271   2.182   4.486   4.387
  458SOL     OW 2272   3.106   0.228   2.991
  458SOL    HW1 2273   3.155   0.208   2.906
  458SOL    HW2 2274   3.080   0.325   2.991
  459SOL     OW 2275   1.546   0.249   5.802
  459SOL    HW1 2276   1.601   0.285   5.726
  459SOL    HW2 2277   1.452   0.282   5.794
  460SOL     OW 2278   1.513   0.240   4.802
  460SOL    HW1 2279   1.598   0.190   4.783
  460SOL    HW2 2280   1.454   0.184   4.860
  461SOL     OW 2281   6.372   4.428   5.954
  461SOL    HW1 2282   6.388   4.330   5.964
  461SOL    HW2 2283   6.348   4.468   6.043
  462SOL     OW 2284   3.958   3.581   6.090
  462SOL    HW1 2285   4.052   3.608   6.068
  462SOL    HW2 2286   3.921   3.524   6.016
  463SOL     OW 2287   0.055   0.343   3.915
  463SOL    HW1 2288   0.048   0.421   3.978
  463SOL    HW2 2289   6.992   0.284   3.927
  464SOL     OW 2290   2.243   0.590   5.625
  464SOL    HW1 2291   2.263   0.568   5.721
  464SOL    HW2 2292   2.292   0.672   5.598
  465SOL     OW 2293   0.362   2.203   6.903
  465SOL    HW1 2294   0.379   2.258   6.822
  465SOL    HW2 2295   0.401   2.248   6.983
  466SOL     OW 2296   2.741   6.514   4.050
  466SOL    HW1 2297   2.758   6.530   3.952
  466SOL    HW2 2298   2.800   6.575   4.103
  467SOL     OW 2299   1.768   1.181   2.396
  467SOL    HW1 2300   1.771   1.205   2.493
  467SOL    HW2 2301   1.693   1.117   2.380
  468SOL     OW 2302   3.881   5.203   5.061
  468SOL    HW1 2303   3.799   5.243   5.021
  468SOL    HW2 2304   3.961   5.252   5.029
  469SOL     OW 2305   2.959   3.654   6.053
  469SOL    HW1 2306   3.027   3.679   6.122
  469SOL    HW2 2307   2.977   3.706   5.969
  470SOL     OW 2308   4.116   6.223   1.273
  470SOL    HW1 2309   4.026   6.248   1.309
  470SOL    HW2 2310   4.122   6.248   1.176
  471SOL     OW 2311   2.647   2.479   4.275
  471SOL    HW1 2312   2.660   2.454   4.371
  471SOL    HW2 2313   2.605   2.569   4.269
  472SOL     OW 2314   5.882   4.409   0.159
  472SOL    HW1 2315   5.889   4.425   0.060
  472SOL    HW2 2316   5.894   4.496   0.207
  473SOL     OW 2317   1.048   1.563   1.986
  473SOL    HW1 2318   1.100   1.511   2.054
  473SOL    HW2 2319   1.070   1.660   1.996
  474SOL     OW 2320   5.610   5.405   4.947
  474SOL    HW1 2321   5.525   5.454   4.927
  474SOL    HW2 2322   5.661   5.391   4.863
  475SOL     OW 2323   6.111   2.620   0.949
  475SOL    HW1 2324   6.129   2.663   0.860
  475SOL    HW2 2325   6.017   2.585   0.950
  476SOL     OW 2326   0.134   3.797   1.886
  476SOL    HW1 2327   0.172   3.856   1.815
  476SOL    HW2 2328   0.108   3.853   1.965
  477SOL     OW 2329   2.817   5.716   3.654
  477SOL    HW1 2330   2.748   5.646   3.672
  477SOL    HW2 2331   2.813   5.787   3.725
  478SOL     OW 2332   3.885   6.228   3.323
  478SOL    HW1 2333   3.819   6.155   3.307
  478SOL    HW2 2334   3.837   6.314   3.338
  479SOL     OW 2335   3.794   2.911   4.932
  479SOL    HW1 2336   3.830   2.818   4.935
  479SOL    HW2 2337   3.859   2.970   4.885
  480SOL     OW 2338   3.270   0.638   1.108
  480SOL    HW1 2339   3.269   0.576   1.187
  480SOL    HW2 2340   3.176   0.662   1.083
  481SOL     OW 2341   0.578   6.593   1.428
  481SOL    HW1 2342   0.630   6.513   1.396
  481SOL    HW2 2343   0.639   6.671   1.436
  482SOL     OW 2344   4.706   5.335   2.369
  482SOL    HW1 2345   4.660   5.247   2.356
  482SOL    HW2 2346   4.647   5.396   2.422
  483SOL     OW 2347   0.070   2.428   2.498
  483SOL    HW1 2348   0.033   2.520   2.480
  483SOL    HW2 2349   0.119   2.428   2.585
  484SOL     OW 2350   1.653   4.039   4.716
  484SOL    HW1 2351   1.751   4.024   4.728
  484SOL    HW2 2352   1.632   4.052   4.620
  485SOL     OW 2353   4.693   5.009   2.568
  485SOL    HW1 2354   4.766   5.071   2.599
  485SOL    HW2 2355   4.705   4.920   2.611
  486SOL     OW 2356   5.865   1.595   6.799
  486SOL    HW1 2357   5.871   1.624   6.704
  486SOL    HW2 2358   5.819   1.665   6.854
  487SOL     OW 2359   0.825   0.604   3.263
  487SOL    HW1 2360   0.895   0.532   3.272
  487SOL    HW2 2361   0.823   0.636   3.168
  488SOL     OW 2362   0.612   6.647   2.216
  488SOL    HW1 2363   0.539   6.583   2.191
  488SOL    HW2 2364   0.629   6.641   2.314
  489SOL     OW 2365   5.831   6.160   5.407
  489SOL    HW1 2366   5.888   6.179   5.327
  489SOL    HW2 2367   5.883   6.175   5.491
  490SOL     OW 2368   1.751   5.949   3.823
  490SOL    HW1 2369   1.719   6.032   3.778
  490SOL    HW2 2370   1.692   5.872   3.796
  491SOL     OW 2371   1.065   3.143   1.203
  491SOL    HW1 2372   1.159   3.113   1.217
  491SOL    HW2 2373   1.011   3.068   1.166
  492SOL     OW 2374   1.360   1.198   5.786
  492SOL    HW1 2375   1.268   1.212   5.824
  492SOL    HW2 2376   1.422   1.168   5.858
  493SOL     OW 2377   2.855   6.767   5.631
  493SOL    HW1 2378   2.886   6.858   5.606
  493SOL    HW2 2379   2.805   6.726   5.554
  494SOL     OW 2380   1.394   0.115   6.315
  494SOL    HW1 2381   1.415   0.039   6.376
  494SOL    HW2 2382   1.477   0.145   6.269
  495SOL     OW 2383   3.398   6.115   3.938
  495SOL    HW1 2384   3.444   6.203   3.925
  495SOL    HW2 2385   3.394   6.066   3.851
  496SOL     OW 2386   6.738   2.594   2.001
  496SOL    HW1 2387   6.639   2.584   1.997
  496SOL    HW2 2388   6.779   2.510   2.038
  497SOL     OW 2389   3.307   1.324   4.875
  497SOL    HW1 2390   3.283   1.396   4.941
  497SOL    HW2 2391   3.233   1.256   4.872
  498SOL     OW 2392   0.521   4.632   2.139
  498SOL    HW1 2393   0.620   4.621   2.154
  498SOL    HW2 2394   0.475   4.545   2.160
  499SOL     OW 2395   1.712   5.317   4.731
  499SOL    HW1 2396   1.616   5.304   4.756
  499SOL    HW2 2397   1.729   5.274   4.642
  500SOL     OW 2398   5.754   2.552   6.777
  500SOL    HW1 2399   5.846   2.544   6.737
  500SOL    HW2 2400   5.748   2.636   6.831
  501SOL     OW 2401   4.301   6.817   0.841
  501SOL    HW1 2402   4.241   6.887   0.801
  501SOL    HW2 2403   4.395   6.832   0.809
  502SOL     OW 2404   0.918   4.555   5.921
  502SOL    HW1 2405   0.964   4.618   5.983
  502SOL    HW2 2406   0.974   4.543   5.838
  503SOL     OW 2407   1.839   5.077   5.986
  503SOL    HW1 2408   1.801   5.021   5.914
  503SOL    HW2 2409   1.935   5.097   5.967
  504SOL     OW 2410   1.205   5.425   2.229
  504SOL    HW1 2411   1.304   5.438   2.216
  504SOL    HW2 2412   1.157   5.508   2.200
  505SOL     OW 2413   4.030   6.447   4.564
  505SOL    HW1 2414   4.108   6.409   4.613
  505SOL    HW2 2415   4.038   6.425   4.467
  506SOL     OW 2416   3.145   5.988   2.558
  506SOL    HW1 2417   3.129   5.952   2.650
  506SOL    HW2 2418   3.095   6.074   2.546
  507SOL     OW 2419   3.328   6.218   2.968
  507SOL    HW1 2420   3.369   6.275   3.040
  507SOL    HW2 2421   3.319   6.271   2.884
  508SOL     OW 2422   0.033   3.099   2.216
  508SOL    HW1 2423   0.028   3.175   2.280
  508SOL    HW2 2424   0.110   3.040   2.239
  509SOL     OW 2425   3.649   1.237   0.950
  509SOL    HW1 2426   3.610   1.282   1.030
  509SOL    HW2 2427   3.642   1.138   0.962
  510SOL     OW 2428   6.957   4.290   6.245
  510SOL    HW1 2429   6.956   4.205   6.299
  510SOL    HW2 2430   6.935   4.268   6.150
  511SOL     OW 2431   1.105   2.359   6.724
  511SOL    HW1 2432   1.078   2.309   6.642
  511SOL    HW2 2433   1.053   2.445   6.730
  512SOL     OW 2434   6.347   2.226   6.880
  512SOL    HW1 2435   6.251   2.248   6.897
  512SOL    HW2 2436   6.401   2.248   6.961
  513SOL     OW 2437   5.160   6.844   3.136
  513SOL    HW1 2438   5.146   6.912   3.207
  513SOL    HW2 2439   5.074   6.796   3.117
  514SOL     OW 2440   6.616   1.052   4.509
  514SOL    HW1 2441   6.643   0.961   4.540
  514SOL    HW2 2442   6.616   1.116   4.586
  515SOL     OW 2443   1.892   0.568   0.471
  515SOL    HW1 2444   1.840   0.571   0.556
  515SOL    HW2 2445   1.829   0.559   0.394
  516SOL     OW 2446   2.978   4.792   2.151
  516SOL    HW1 2447   2.928   4.713   2.115
  516SOL    HW2 2448   2.914   4.869   2.163
  517SOL     OW 2449   3.332   4.718   1.726
  517SOL    HW1 2450   3.423   4.692   1.757
  517SOL    HW2 2451   3.282   4.762   1.800
  518SOL     OW 2452   2.249   2.119   3.104
  518SOL    HW1 2453   2.260   2.166   3.192
  518SOL    HW2 2454   2.160   2.073   3.102
  519SOL     OW 2455   0.222   6.603   3.287
  519SOL    HW1 2456   0.231   6.546   3.369
  519SOL    HW2 2457   0.126   6.621   3.269
  520SOL     OW 2458   6.489   3.444   6.754
  520SOL    HW1 2459   6.449   3.535   6.755
  520SOL    HW2 2460   6.416   3.375   6.747
  521SOL     OW 2461   5.833   5.640   5.344
  521SOL    HW1 2462   5.839   5.722   5.287
  521SOL    HW2 2463   5.921   5.624   5.389
  522SOL     OW 2464   4.128   3.645   2.860
  522SOL    HW1 2465   4.199   3.715   2.855
  522SOL    HW2 2466   4.088   3.644   2.952
  523SOL     OW 2467   0.086   5.951   1.339
  523SOL    HW1 2468   7.014   5.904   1.332
  523SOL    HW2 2469   0.153   5.905   1.281
  524SOL     OW 2470   1.500   2.663   2.607
  524SOL    HW1 2471   1.585   2.675   2.659
  524SOL    HW2 2472   1.507   2.583   2.547
  525SOL     OW 2473   1.963   4.109   5.623
  525SOL    HW1 2474   2.032   4.179   5.604
  525SOL    HW2 2475   1.959   4.044   5.547
  526SOL     OW 2476   3.182   6.499   3.721
  526SOL    HW1 2477   3.270   6.501   3.769
  526SOL    HW2 2478   3.127   6.423   3.756
  527SOL     OW 2479   0.018   2.381   0.544
  527SOL    HW1 2480   0.057   2.378   0.636
  527SOL    HW2 2481   0.089   2.406   0.478
  528SOL     OW 2482   1.793   2.920   3.869
  528SOL    HW1 2483   1.809   2.868   3.785
  528SOL    HW2 2484   1.762   2.858   3.941
  529SOL     OW 2485   1.653   6.698   5.016
  529SOL    HW1 2486   1.630   6.614   4.966
  529SOL    HW2 2487   1.716   6.677   5.091
  530SOL     OW 2488   4.058   3.641   2.584
  530SOL    HW1 2489   3.959   3.638   2.569
  530SOL    HW2 2490   4.077   3.645   2.682
  531SOL     OW 2491   1.254   0.984   2.810
  531SOL    HW1 2492   1.195   0.944   2.881
  531SOL    HW2 2493   1.279   1.077   2.836
  532SOL     OW 2494   1.292   3.302   0.340
  532SOL    HW1 2495   1.364   3.241   0.307
  532SOL    HW2 2496   1.324   3.352   0.420
  533SOL     OW 2497   4.352   6.973   3.312
  533SOL    HW1 2498   4.365   7.009   3.220
  533SOL    HW2 2499   4.365   0.030   3.379
  534SOL     OW 2500   5.531   5.764   2.783
  534SOL    HW1 2501   5.597   5.741   2.854
  534SOL    HW2 2502   5.472   5.685   2.765
  535SOL     OW 2503   0.031   4.038   3.161
  535SOL    HW1 2504   0.023   4.005   3.068
  535SOL    HW2 2505   6.970   4.098   3.183
  536SOL     OW 2506   6.564   4.621   2.446
  536SOL    HW1 2507   6.541   4.590   2.538
  536SOL    HW2 2508   6.481   4.630   2.392
  537SOL     OW 2509   3.205   6.950   4.609
  537SOL    HW1 2510   3.218   6.989   4.518
  537SOL    HW2 2511   3.115   6.906   4.614
  538SOL     OW 2512   0.376   4.686   4.187
  538SOL    HW1 2513   0.458   4.634   4.164
  538SOL    HW2 2514   0.403   4.778   4.215
  539SOL     OW 2515   2.147   4.894   1.950
  539SOL    HW1 2516   2.242   4.894   1.917
  539SOL    HW2 2517   2.139   4.957   2.027
  540SOL     OW 2518   1.343   1.455   2.680
  540SOL    HW1 2519   1.358   1.511   2.761
  540SOL    HW2 2520   1.244   1.447   2.663
  541SOL     OW 2521   5.220   5.909   3.802
  541SOL    HW1 2522   5.126   5.890   3.831
  541SOL    HW2 2523   5.218   5.953   3.712
  542SOL     OW 2524   4.468   6.305   6.898
  542SOL    HW1 2525   4.376   6.281   6.930
  542SOL    HW2 2526   4.461   6.377   6.830
  543SOL     OW 2527   6.330   3.765   3.770
  543SOL    HW1 2528   6.286   3.812   3.846
  543SOL    HW2 2529   6.408   3.712   3.805
  544SOL     OW 2530   1.105   4.946   0.024
  544SOL    HW1 2531   1.155   4.919   0.106
  544SOL    HW2 2532   1.157   5.017   6.992
  545SOL     OW 2533   3.626   0.672   1.330
  545SOL    HW1 2534   3.596   0.639   1.420
  545SOL    HW2 2535   3.631   0.772   1.331
  546SOL     OW 2536   1.083   4.134   1.371
  546SOL    HW1 2537   1.159   4.125   1.435
  546SOL    HW2 2538   1.042   4.044   1.356
  547SOL     OW 2539   3.568   2.310   0.820
  547SOL    HW1 2540   3.559   2.267   0.909
  547SOL    HW2 2541   3.547   2.244   0.748
  548SOL     OW 2542   3.292   3.318   1.444
  548SOL    HW1 2543   3.259   3.280   1.531
  548SOL    HW2 2544   3.299   3.245   1.376
  549SOL     OW 2545   5.337   2.289   2.077
  549SOL    HW1 2546   5.280   2.343   2.139
  549SOL    HW2 2547   5.416   2.344   2.049
  550SOL     OW 2548   1.039   5.632   3.385
  550SOL    HW1 2549   1.030   5.710   3.322
  550SOL    HW2 2550   0.983   5.647   3.466
  551SOL     OW 2551   0.364   6.826   1.622
  551SOL    HW1 2552   0.409   6.905   1.665
  551SOL    HW2 2553   0.395   6.818   1.527
  552SOL     OW 2554   5.827   3.921   6.810
  552SOL    HW1 2555   5.743   3.915   6.756
  552SOL    HW2 2556   5.883   3.840   6.793
  553SOL     OW 2557   2.647   6.640   4.356
  553SOL    HW1 2558   2.635   6.550   4.314
  553SOL    HW2 2559   2.706   6.631   4.436
  554SOL     OW 2560   5.997   0.212   0.197
  554SOL    HW1 2561   5.975   0.121   0.162
  554SOL    HW2 2562   6.049   0.202   0.282
  555SOL     OW 2563   3.326   5.121   4.691
  555SOL    HW1 2564   3.257   5.186   4.721
  555SOL    HW2 2565   3.405   5.125   4.753
  556SOL     OW 2566   5.094   2.087   3.752
  556SOL    HW1 2567   5.034   2.040   3.688
  556SOL    HW2 2568   5.188   2.083   3.718
  557SOL     OW 2569   6.757   5.664   0.391
  557SOL    HW1 2570   6.845   5.620   0.407
  557SOL    HW2 2571   6.703   5.665   0.475
  558SOL     OW 2572   3.582   3.292   3.505
  558SOL    HW1 2573   3.592   3.389   3.526
  558SOL    HW2 2574   3.610   3.238   3.585
  559SOL     OW 2575   6.863   5.429   6.040
  559SOL    HW1 2576   6.806   5.495   5.990
  559SOL    HW2 2577   6.948   5.474   6.068
  560SOL     OW 2578   6.504   3.588   3.899
  560SOL    HW1 2579   6.493   3.518   3.828
  560SOL    HW2 2580   6.525   3.543   3.987
  561SOL     OW 2581   0.627   2.239   0.686
  561SOL    HW1 2582   0.673   2.249   0.774
  561SOL    HW2 2583   0.687   2.272   0.613
  562SOL     OW 2584   4.260   0.234   5.986
  562SOL    HW1 2585   4.304   0.323   5.998
  562SOL    HW2 2586   4.160   0.247   5.986
  563SOL     OW 2587   2.920   0.656   3.726
  563SOL    HW1 2588   2.896   0.750   3.700
  563SOL    HW2 2589   3.008   0.632   3.685
  564SOL     OW 2590   0.913   3.224   0.056
  564SOL    HW1 2591   0.957   3.277   7.000
  564SOL    HW2 2592   0.817   3.249   0.062
  565SOL     OW 2593   3.476   3.971   4.585
  565SOL    HW1 2594   3.410   3.904   4.553
  565SOL    HW2 2595   3.454   3.998   4.679
  566SOL     OW 2596   0.630   3.960   3.195
  566SOL    HW1 2597   0.653   3.955   3.292
  566SOL    HW2 2598   0.533   3.939   3.182
  567SOL     OW 2599   3.007   2.993   1.652
  567SOL    HW1 2600   3.060   2.921   1.697
  567SOL    HW2 2601   3.025   2.992   1.554
  568SOL     OW 2602   4.684   0.013   0.050
  568SOL    HW1 2603   4.652   6.935   0.065
  568SOL    HW2 2604   4.775   0.023   0.089
  569SOL     OW 2605   1.183   2.948   0.232
  569SOL    HW1 2606   1.093   2.986   0.255
  569SOL    HW2 2607   1.176   2.897   0.147
  570SOL     OW 2608   3.758   0.319   6.224
  570SOL    HW1 2609   3.743   0.346   6.319
  570SOL    HW2 2610   3.708   0.381   6.164
  571SOL     OW 2611   3.183   4.881   3.034
  571SOL    HW1 2612   3.229   4.860   2.948
  571SOL    HW2 2613   3.121   4.806   3.057
  572SOL     OW 2614   2.636   4.833   5.458
  572SOL    HW1 2615   2.702   4.908   5.467
  572SOL    HW2 2616   2.552   4.857   5.506
  573SOL     OW 2617   5.566   0.836   5.523
  573SOL    HW1 2618   5.556   0.834   5.424
  573SOL    HW2 2619   5.636   0.770   5.551
  574SOL     OW 2620   3.412   1.725   4.500
  574SOL    HW1 2621   3.429   1.641   4.552
  574SOL    HW2 2622   3.346   1.782   4.550
  575SOL     OW 2623   5.136   3.557   1.520
  575SOL    HW1 2624   5.191   3.535   1.600
  575SOL    HW2 2625   5.050   3.505   1.524
  576SOL     OW 2626   1.361   2.517   2.790
  576SOL    HW1 2627   1.438   2.472   2.836
  576SOL    HW2 2628   1.395   2.582   2.723
  577SOL     OW 2629   1.436   1.205   2.683
  577SOL    HW1 2630   1.416   1.303   2.680
  577SOL    HW2 2631   1.368   1.155   2.630
  578SOL     OW 2632   6.778   5.184   4.819
  578SOL    HW1 2633   6.695   5.146   4.779
  578SOL    HW2 2634   6.799   5.272   4.775
  579SOL     OW 2635   1.827   3.641   4.169
  579SOL    HW1 2636   1.919   3.601   4.169
  579SOL    HW2 2637   1.798   3.658   4.263
  580SOL     OW 2638   4.846   4.837   5.174
  580SOL    HW1 2639   4.835   4.884   5.086
  580SOL    HW2 2640   4.864   4.905   5.245
  581SOL     OW 2641   1.864   2.405   2.013
  581SOL    HW1 2642   1.894   2.378   1.921
  581SOL    HW2 2643   1.904   2.494   2.036
  582SOL     OW 2644   5.038   6.089   2.754
  582SOL    HW1 2645   5.013   6.072   2.849
  582SOL    HW2 2646   5.126   6.137   2.751
  583SOL     OW 2647   2.797   6.253   5.006
  583SOL    HW1 2648   2.832   6.237   4.914
  583SOL    HW2 2649   2.757   6.345   5.010
  584SOL     OW 2650   2.841   5.942   6.903
  584SOL    HW1 2651   2.930   5.972   6.938
  584SOL    HW2 2652   2.815   5.999   6.825
  585SOL     OW 2653   4.546   1.539   6.586
  585SOL    HW1 2654   4.494   1.556   6.670
  585SOL    HW2 2655   4.604   1.459   6.598
  586SOL     OW 2656   3.068   0.534   6.135
  586SOL    HW1 2657   3.149   0.508   6.188
  586SOL    HW2 2658   2.986   0.504   6.184
  587SOL     OW 2659   4.728   2.342   4.150
  587SOL    HW1 2660   4.648   2.327   4.092
  587SOL    HW2 2661   4.772   2.254   4.169
  588SOL     OW 2662   2.433   5.407   1.343
  588SOL    HW1 2663   2.419   5.327   1.401
  588SOL    HW2 2664   2.386   5.486   1.383
  589SOL     OW 2665   3.608   4.899   1.504
  589SOL    HW1 2666   3.554   4.816   1.488
  589SOL    HW2 2667   3.670   4.884   1.581
  590SOL     OW 2668   5.370   2.916   2.190
  590SOL    HW1 2669   5.273   2.924   2.210
  590SOL    HW2 2670   5.423   2.954   2.266
  591SOL     OW 2671   3.546   5.540   3.537
  591SOL    HW1 2672   3.455   5.505   3.515
  591SOL    HW2 2673   3.582   5.590   3.458
  592SOL     OW 2674   4.003   1.360   1.055
  592SOL    HW1 2675   4.036   1.310   1.135
  592SOL    HW2 2676   4.006   1.300   0.974
  593SOL     OW 2677   4.212   2.055   4.362
  593SOL    HW1 2678   4.185   2.127   4.297
  593SOL    HW2 2679   4.195   2.087   4.455
  594SOL     OW 2680   6.113   1.064   0.702
  594SOL    HW1 2681   6.113   1.016   0.614
  594SOL    HW2 2682   6.198   1.116   0.712
  595SOL     OW 2683   5.584   0.545   3.362
  595SOL    HW1 2684   5.604   0.606   3.285
  595SOL    HW2 2685   5.653   0.558   3.433
  596SOL     OW 2686   0.534   5.537   3.664
  596SOL    HW1 2687   0.453   5.488   3.631
  596SOL    HW2 2688   0.522   5.635   3.648
  597SOL     OW 2689   2.087   0.306   0.202
  597SOL    HW1 2690   2.106   0.363   0.283
  597SOL    HW2 2691   2.140   0.341   0.124
  598SOL     OW 2692   3.674   3.607   5.185
  598SOL    HW1 2693   3.759   3.564   5.214
  598SOL    HW2 2694   3.656   3.687   5.242
  599SOL     OW 2695   2.720   6.336   2.351
  599SOL    HW1 2696   2.652   6.263   2.343
  599SOL    HW2 2697   2.693   6.398   2.425
  600SOL     OW 2698   6.202   1.727   6.478
  600SOL    HW1 2699   6.275   1.738   6.410
  600SOL    HW2 2700   6.209   1.637   6.521
  601SOL     OW 2701   1.213   0.874   4.297
  601SOL    HW1 2702   1.271   0.918   4.229
  601SOL    HW2 2703   1.127   0.924   4.304
  602SOL     OW 2704   1.417   1.053   6.283
  602SOL    HW1 2705   1.379   1.145   6.289
  602SOL    HW2 2706   1.429   1.016   6.375
  603SOL     OW 2707   3.136   2.749   5.375
  603SOL    HW1 2708   3.084   2.664   5.366
  603SOL    HW2 2709   3.087   2.812   5.434
  604SOL     OW 2710   1.120   2.047   1.381
  604SOL    HW1 2711   1.076   1.989   1.312
  604SOL    HW2 2712   1.098   2.012   1.472
  605SOL     OW 2713   6.429   5.249   6.901
  605SOL    HW1 2714   6.422   5.349   6.900
  605SOL    HW2 2715   6.525   5.223   6.917
  606SOL     OW 2716   4.992   6.293   5.935
  606SOL    HW1 2717   5.074   6.351   5.930
  606SOL    HW2 2718   4.921   6.329   5.875
  607SOL     OW 2719   6.116   5.095   4.992
  607SOL    HW1 2720   6.083   5.179   5.035
  607SOL    HW2 2721   6.201   5.066   5.036
  608SOL     OW 2722   3.739   6.163   6.699
  608SOL    HW1 2723   3.774   6.121   6.616
  608SOL    HW2 2724   3.802   6.234   6.730
  609SOL     OW 2725   3.934   3.006   2.785
  609SOL    HW1 2726   4.012   2.989   2.845
  609SOL    HW2 2727   3.852   2.965   2.824
  610SOL     OW 2728   6.055   3.883   1.705
  610SOL    HW1 2729   6.141   3.832   1.717
  610SOL    HW2 2730   6.076   3.980   1.691
  611SOL     OW 2731   4.420   6.967   1.937
  611SOL    HW1 2732   4.493   6.914   1.894
  611SOL    HW2 2733   4.447   6.994   2.029
  612SOL     OW 2734   3.918   6.179   4.393
  612SOL    HW1 2735   3.952   6.263   4.351
  612SOL    HW2 2736   3.992   6.133   4.442
  613SOL     OW 2737   5.034   5.351   5.423
  613SOL    HW1 2738   5.062   5.369   5.329
  613SOL    HW2 2739   5.097   5.397   5.486
  614SOL     OW 2740   4.901   5.511   6.631
  614SOL    HW1 2741   4.994   5.537   6.607
  614SOL    HW2 2742   4.873   5.561   6.713
  615SOL     OW 2743   6.840   2.175   2.019
  615SOL    HW1 2744   6.842   2.080   1.988
  615SOL    HW2 2745   6.878   2.181   2.111
  616SOL     OW 2746   0.618   3.331   3.134
  616SOL    HW1 2747   0.702   3.385   3.138
  616SOL    HW2 2748   0.642   3.235   3.118
  617SOL     OW 2749   0.479   4.350   6.187
  617SOL    HW1 2750   0.494   4.265   6.237
  617SOL    HW2 2751   0.396   4.394   6.221
  618SOL     OW 2752   6.938   2.308   0.279
  618SOL    HW1 2753   6.947   2.336   0.374
  618SOL    HW2 2754   6.956   2.386   0.219
  619SOL     OW 2755   4.162   1.164   6.967
  619SOL    HW1 2756   4.188   1.244   0.004
  619SOL    HW2 2757   4.182   1.180   6.870
  620SOL     OW 2758   3.948   2.546   1.522
  620SOL    HW1 2759   3.894   2.520   1.442
  620SOL    HW2 2760   3.952   2.469   1.585
  621SOL     OW 2761   2.378   6.722   6.788
  621SOL    HW1 2762   2.460   6.779   6.788
  621SOL    HW2 2763   2.403   6.627   6.766
  622SOL     OW 2764   0.983   0.892   6.585
  622SOL    HW1 2765   0.956   0.982   6.622
  622SOL    HW2 2766   0.965   0.890   6.487
  623SOL     OW 2767   0.468   5.336   5.516
  623SOL    HW1 2768   0.438   5.244   5.491
  623SOL    HW2 2769   0.567   5.342   5.508
  624SOL     OW 2770   0.287   2.468   0.956
  624SOL    HW1 2771   0.251   2.429   0.871
  624SOL    HW2 2772   0.217   2.527   0.998
  625SOL     OW 2773   1.854   1.692   1.727
  625SOL    HW1 2774   1.789   1.686   1.803
  625SOL    HW2 2775   1.922   1.620   1.736
  626SOL     OW 2776   2.152   6.045   3.339
  626SOL    HW1 2777   2.178   6.137   3.308
  626SOL    HW2 2778   2.098   6.053   3.422
  627SOL     OW 2779   5.227   6.558   0.380
  627SOL    HW1 2780   5.182   6.553   0.469
  627SOL    HW2 2781   5.230   6.467   0.339
  628SOL     OW 2782   6.306   5.609   6.100
  628SOL    HW1 2783   6.382   5.672   6.083
  628SOL    HW2 2784   6.340   5.515   6.103
  629SOL     OW 2785   6.789   6.542   0.236
  629SOL    HW1 2786   6.845   6.590   0.169
  629SOL    HW2 2787   6.846   6.480   0.289
  630SOL     OW 2788   6.538   1.928   2.431
  630SOL    HW1 2789   6.638   1.935   2.435
  630SOL    HW2 2790   6.501   1.923   2.524
  631SOL     OW 2791   3.141   6.581   5.409
  631SOL    HW1 2792   3.189   6.521   5.346
  631SOL    HW2 2793   3.073   6.528   5.461
  632SOL     OW 2794   2.189   1.112   0.694
  632SOL    HW1 2795   2.212   1.090   0.599
  632SOL    HW2 2796   2.151   1.204   0.699
  633SOL     OW 2797   4.785   4.221   0.257
  633SOL    HW1 2798   4.706   4.267   0.215
  633SOL    HW2 2799   4.849   4.290   0.291
  634SOL     OW 2800   4.690   4.564   1.552
  634SOL    HW1 2801   4.658   4.486   1.606
  634SOL    HW2 2802   4.662   4.649   1.597
  635SOL     OW 2803   4.882   5.033   0.816
  635SOL    HW1 2804   4.959   5.093   0.800
  635SOL    HW2 2805   4.799   5.088   0.832
  636SOL     OW 2806   4.308   5.686   6.365
  636SOL    HW1 2807   4.358   5.608   6.327
  636SOL    HW2 2808   4.258   5.732   6.292
  637SOL     OW 2809   6.455   4.004   2.579
  637SOL    HW1 2810   6.437   3.905   2.583
  637SOL    HW2 2811   6.518   4.024   2.504
  638SOL     OW 2812   5.447   2.188   3.072
  638SOL    HW1 2813   5.485   2.215   2.983
  638SOL    HW2 2814   5.519   2.147   3.128
  639SOL     OW 2815   5.220   4.213   2.758
  639SOL    HW1 2816   5.193   4.120   2.781
  639SOL    HW2 2817   5.320   4.219   2.757
  640SOL     OW 2818   0.429   5.252   4.208
  640SOL    HW1 2819   0.499   5.183   4.189
  640SOL    HW2 2820   0.472   5.335   4.242
  641SOL     OW 2821   6.766   6.357   4.794
  641SOL    HW1 2822   6.722   6.268   4.806
  641SOL    HW2 2823   6.720   6.425   4.851
  642SOL     OW 2824   0.157   3.307   4.841
  642SOL    HW1 2825   0.175   3.222   4.790
  642SOL    HW2 2826   0.092   3.363   4.789
  643SOL     OW 2827   4.855   5.242   5.017
  643SOL    HW1 2828   4.798   5.176   4.968
  643SOL    HW2 2829   4.927   5.193   5.066
  644SOL     OW 2830   0.977   6.020   4.353
  644SOL    HW1 2831   0.964   5.959   4.431
  644SOL    HW2 2832   1.067   6.062   4.358
  645SOL     OW 2833   4.808   1.403   4.927
  645SOL    HW1 2834   4.821   1.351   5.011
  645SOL    HW2 2835   4.891   1.397   4.871
  646SOL     OW 2836   3.281   1.390   4.267
  646SOL    HW1 2837   3.361   1.348   4.312
  646SOL    HW2 2838   3.290   1.379   4.168
  647SOL     OW 2839   5.314   1.785   4.874
  647SOL    HW1 2840   5.388   1.760   4.811
  647SOL    HW2 2841   5.301   1.710   4.939
  648SOL     OW 2842   0.075   4.179   4.192
  648SOL    HW1 2843   0.156   4.202   4.246
  648SOL    HW2 2844   7.015   4.238   4.220
  649SOL     OW 2845   3.658   3.944   0.543
  649SOL    HW1 2846   3.751   3.937   0.507
  649SOL    HW2 2847   3.656   3.912   0.638
  650SOL     OW 2848   6.215   4.571   0.723
  650SOL    HW1 2849   6.177   4.480   0.737
  650SOL    HW2 2850   6.225   4.617   0.812
  651SOL     OW 2851   6.675   6.758   6.347
  651SOL    HW1 2852   6.641   6.851   6.337
  651SOL    HW2 2853   6.647   6.723   6.437
  652SOL     OW 2854   5.338   6.241   3.752
  652SOL    HW1 2855   5.251   6.285   3.728
  652SOL    HW2 2856   5.390   6.223   3.668
  653SOL     OW 2857   2.912   6.116   4.549
  653SOL    HW1 2858   2.837   6.050   4.545
  653SOL    HW2 2859   2.901   6.184   4.476
  654SOL     OW 2860   0.333   3.961   5.945
  654SOL    HW1 2861   0.267   3.938   5.874
  654SOL    HW2 2862   0.293   4.028   6.007
  655SOL     OW 2863   0.820   6.216   1.944
  655SOL    HW1 2864   0.768   6.168   1.873
  655SOL    HW2 2865   0.798   6.313   1.942
  656SOL     OW 2866   1.592   6.157   1.926
  656SOL    HW1 2867   1.558   6.248   1.902
  656SOL    HW2 2868   1.521   6.108   1.977
  657SOL     OW 2869   1.585   2.322   1.507
  657SOL    HW1 2870   1.568   2.229   1.537
  657SOL    HW2 2871   1.678   2.329   1.471
  658SOL     OW 2872   2.799   3.400   6.003
  658SOL    HW1 2873   2.850   3.483   6.025
  658SOL    HW2 2874   2.729   3.385   6.073
  659SOL     OW 2875   2.399   5.684   5.866
  659SOL    HW1 2876   2.489   5.723   5.885
  659SOL    HW2 2877   2.360   5.726   5.784
  660SOL     OW 2878   4.915   4.558   2.326
  660SOL    HW1 2879   4.972   4.519   2.399
  660SOL    HW2 2880   4.850   4.622   2.366
  661SOL     OW 2881   4.113   5.726   3.108
  661SOL    HW1 2882   4.198   5.710   3.057
  661SOL    HW2 2883   4.039   5.672   3.068
  662SOL     OW 2884   3.919   0.695   5.686
  662SOL    HW1 2885   3.899   0.625   5.755
  662SOL    HW2 2886   3.947   0.779   5.732
  663SOL     OW 2887   2.297   4.133   6.291
  663SOL    HW1 2888   2.312   4.078   6.209
  663SOL    HW2 2889   2.318   4.229   6.271
  664SOL     OW 2890   6.692   5.342   6.269
  664SOL    HW1 2891   6.745   5.352   6.185
  664SOL    HW2 2892   6.705   5.422   6.327
  665SOL     OW 2893   5.306   5.570   2.192
  665SOL    HW1 2894   5.350   5.574   2.102
  665SOL    HW2 2895   5.216   5.613   2.187
  666SOL     OW 2896   5.196   2.130   2.294
  666SOL    HW1 2897   5.168   2.109   2.387
  666SOL    HW2 2898   5.295   2.146   2.292
  667SOL     OW 2899   1.139   4.936   3.184
  667SOL    HW1 2900   1.058   4.922   3.126
  667SOL    HW2 2901   1.137   4.871   3.260
  668SOL     OW 2902   5.179   6.796   5.719
  668SOL    HW1 2903   5.191   6.779   5.816
  668SOL    HW2 2904   5.268   6.818   5.678
  669SOL     OW 2905   4.140   0.508   2.683
  669SOL    HW1 2906   4.211   0.547   2.624
  669SOL    HW2 2907   4.120   0.571   2.757
  670SOL     OW 2908   3.235   2.735   1.564
  670SOL    HW1 2909   3.164   2.733   1.634
  670SOL    HW2 2910   3.304   2.666   1.585
  671SOL     OW 2911   1.669   6.464   0.102
  671SOL    HW1 2912   1.743   6.445   0.037
  671SOL    HW2 2913   1.690   6.419   0.189
  672SOL     OW 2914   0.373   5.544   2.476
  672SOL    HW1 2915   0.435   5.522   2.401
  672SOL    HW2 2916   0.340   5.460   2.519
  673SOL     OW 2917   6.862   6.605   1.463
  673SOL    HW1 2918   6.957   6.613   1.492
  673SOL    HW2 2919   6.814   6.692   1.478
  674SOL     OW 2920   1.216   1.353   5.057
  674SOL    HW1 2921   1.130   1.389   5.022
  674SOL    HW2 2922   1.234   1.393   5.147
  675SOL     OW 2923   0.722   0.831   2.984
  675SOL    HW1 2924   0.697   0.865   2.893
  675SOL    HW2 2925   0.791   0.891   3.024
  676SOL     OW 2926   3.149   6.037   2.275
  676SOL    HW1 2927   3.179   6.001   2.364
  676SOL    HW2 2928   3.049   6.031   2.269
  677SOL     OW 2929   5.750   1.985   0.843
  677SOL    HW1 2930   5.771   2.046   0.766
  677SOL    HW2 2931   5.666   1.935   0.823
  678SOL     OW 2932   2.025   0.280   5.345
  678SOL    HW1 2933   1.962   0.206   5.321
  678SOL    HW2 2934   1.980   0.368   5.329
  679SOL     OW 2935   4.632   2.189   3.288
  679SOL    HW1 2936   4.646   2.116   3.222
  679SOL    HW2 2937   4.536   2.217   3.287
  680SOL     OW 2938   5.649   5.412   5.840
  680SOL    HW1 2939   5.583   5.486   5.834
  680SOL    HW2 2940   5.607   5.327   5.806
  681SOL     OW 2941   5.288   4.683   1.760
  681SOL    HW1 2942   5.289   4.783   1.755
  681SOL    HW2 2943   5.340   4.646   1.683
  682SOL     OW 2944   6.908   1.455   1.304
  682SOL    HW1 2945   6.828   1.498   1.262
  682SOL    HW2 2946   6.991   1.503   1.273
  683SOL     OW 2947   4.864   3.615   0.541
  683SOL    HW1 2948   4.845   3.555   0.463
  683SOL    HW2 2949   4.912   3.563   0.611
  684SOL     OW 2950   6.316   1.161   0.076
  684SOL    HW1 2951   6.252   1.118   0.013
  684SOL    HW2 2952   6.381   1.217   0.026
  685SOL     OW 2953   3.897   1.361   3.488
  685SOL    HW1 2954   3.836   1.436   3.464
  685SOL    HW2 2955   3.992   1.394   3.491
  686SOL     OW 2956   4.807   3.121   3.809
  686SOL    HW1 2957   4.833   3.025   3.807
  686SOL    HW2 2958   4.836   3.166   3.725
  687SOL     OW 2959   0.425   2.080   4.338
  687SOL    HW1 2960   0.515   2.037   4.327
  687SOL    HW2 2961   0.360   2.036   4.277
  688SOL     OW 2962   0.228   1.343   0.031
  688SOL    HW1 2963   0.327   1.356   0.027
  688SOL    HW2 2964   0.204   1.299   0.118
  689SOL     OW 2965   0.457   5.113   6.375
  689SOL    HW1 2966   0.429   5.209   6.381
  689SOL    HW2 2967   0.521   5.092   6.450
  690SOL     OW 2968   0.793   4.141   2.406
  690SOL    HW1 2969   0.732   4.110   2.479
  690SOL    HW2 2970   0.751   4.120   2.317
  691SOL     OW 2971   2.642   0.288   0.337
  691SOL    HW1 2972   2.698   0.205   0.326
  691SOL    HW2 2973   2.692   0.366   0.301
  692SOL     OW 2974   3.500   0.719   3.821
  692SOL    HW1 2975   3.470   0.756   3.733
  692SOL    HW2 2976   3.452   0.634   3.840
  693SOL     OW 2977   5.467   0.713   3.716
  693SOL    HW1 2978   5.467   0.775   3.794
  693SOL    HW2 2979   5.541   0.737   3.653
  694SOL     OW 2980   4.028   6.494   3.565
  694SOL    HW1 2981   4.071   6.414   3.607
  694SOL    HW2 2982   4.078   6.576   3.591
  695SOL     OW 2983   4.445   6.797   4.234
  695SOL    HW1 2984   4.519   6.849   4.191
  695SOL    HW2 2985   4.413   6.727   4.171
  696SOL     OW 2986   4.781   5.068   2.848
  696SOL    HW1 2987   4.722   4.995   2.815
  696SOL    HW2 2988   4.856   5.029   2.902
  697SOL     OW 2989   1.737   3.901   3.644
  697SOL    HW1 2990   1.722   3.847   3.726
  697SOL    HW2 2991   1.787   3.847   3.577
  698SOL     OW 2992   4.614   6.865   0.819
  698SOL    HW1 2993   4.589   6.949   0.867
  698SOL    HW2 2994   4.676   6.811   0.876
  699SOL     OW 2995   2.096   3.494   6.471
  699SOL    HW1 2996   2.113   3.430   6.396
  699SOL    HW2 2997   1.999   3.517   6.474
  700SOL     OW 2998   2.818   0.695   2.427
  700SOL    HW1 2999   2.769   0.641   2.358
  700SOL    HW2 3000   2.855   0.778   2.385
  701SOL     OW 3001   6.531   3.969   6.110
  701SOL    HW1 3002   6.475   3.989   6.190
  701SOL    HW2 3003   6.596   3.896   6.132
  702SOL     OW 3004   1.256   5.707   4.934
  702SOL    HW1 3005   1.329   5.700   5.002
  702SOL    HW2 3006   1.295   5.704   4.842
  703SOL     OW 3007   3.719   3.525   6.866
  703SOL    HW1 3008   3.810   3.551   6.835
  703SOL    HW2 3009   3.650   3.570   6.809
  704SOL     OW 3010   1.517   2.790   0.237
  704SOL    HW1 3011   1.487   2.743   0.153
  704SOL    HW2 3012   1.453   2.770   0.311
  705SOL     OW 3013   6.267   5.310   2.988
  705SOL    HW1 3014   6.261   5.248   3.066
  705SOL    HW2 3015   6.221   5.396   3.010
  706SOL     OW 3016   4.473   2.097   4.939
  706SOL    HW1 3017   4.434   2.005   4.942
  706SOL    HW2 3018   4.565   2.095   4.978
  707SOL     OW 3019   4.470   5.065   2.921
  707SOL    HW1 3020   4.379   5.094   2.950
  707SOL    HW2 3021   4.469   5.043   2.824
  708SOL     OW 3022   3.734   0.366   2.053
  708SOL    HW1 3023   3.740   0.269   2.028
  708SOL    HW2 3024   3.696   0.374   2.146
  709SOL     OW 3025   0.617   5.884   0.853
  709SOL    HW1 3026   0.590   5.790   0.832
  709SOL    HW2 3027   0.573   5.913   0.938
  710SOL     OW 3028   3.801   2.779   1.197
  710SOL    HW1 3029   3.868   2.727   1.144
  710SOL    HW2 3030   3.729   2.717   1.228
  711SOL     OW 3031   0.032   3.406   5.827
  711SOL    HW1 3032   6.991   3.351   5.766
  711SOL    HW2 3033   0.119   3.358   5.842
  712SOL     OW 3034   3.871   2.437   1.284
  712SOL    HW1 3035   3.928   2.359   1.308
  712SOL    HW2 3036   3.910   2.484   1.205
  713SOL     OW 3037   4.297   2.566   5.953
  713SOL    HW1 3038   4.252   2.514   6.025
  713SOL    HW2 3039   4.229   2.624   5.907
  714SOL     OW 3040   0.031   4.657   3.361
  714SOL    HW1 3041   6.971   4.718   3.343
  714SOL    HW2 3042   0.016   4.570   3.314
  715SOL     OW 3043   5.231   6.244   6.965
  715SOL    HW1 3044   5.153   6.261   6.905
  715SOL    HW2 3045   5.211   6.279   0.041
  716SOL     OW 3046   0.417   0.773   2.253
  716SOL    HW1 3047   0.381   0.857   2.293
  716SOL    HW2 3048   0.458   0.717   2.325
  717SOL     OW 3049   6.819   4.513   3.967
  717SOL    HW1 3050   6.913   4.479   3.968
  717SOL    HW2 3051   6.763   4.456   3.907
  718SOL     OW 3052   4.253   3.455   6.126
  718SOL    HW1 3053   4.227   3.439   6.030
  718SOL    HW2 3054   4.233   3.373   6.179
  719SOL     OW 3055   6.442   0.763   2.647
  719SOL    HW1 3056   6.347   0.739   2.667
  719SOL    HW2 3057   6.491   0.681   2.618
  720SOL     OW 3058   2.094   0.284   6.201
  720SOL    HW1 3059   2.030   0.300   6.126
  720SOL    HW2 3060   2.050   0.307   6.288
  721SOL     OW 3061   2.598   1.771   2.804
  721SOL    HW1 3062   2.534   1.779   2.880
  721SOL    HW2 3063   2.691   1.764   2.839
  722SOL     OW 3064   2.692   0.492   5.473
  722SOL    HW1 3065   2.645   0.566   5.425
  722SOL    HW2 3066   2.786   0.485   5.440
  723SOL     OW 3067   1.530   4.514   3.518
  723SOL    HW1 3068   1.496   4.545   3.430
  723SOL    HW2 3069   1.596   4.581   3.554
  724SOL     OW 3070   1.381   2.100   4.066
  724SOL    HW1 3071   1.388   2.100   4.166
  724SOL    HW2 3072   1.380   2.194   4.033
  725SOL     OW 3073   1.974   5.477   1.696
  725SOL    HW1 3074   2.006   5.401   1.753
  725SOL    HW2 3075   1.893   5.518   1.739
  726SOL     OW 3076   3.722   4.685   1.057
  726SOL    HW1 3077   3.768   4.732   1.133
  726SOL    HW2 3078   3.775   4.604   1.032
  727SOL     OW 3079   6.369   4.707   5.687
  727SOL    HW1 3080   6.408   4.753   5.767
  727SOL    HW2 3081   6.308   4.634   5.716
  728SOL     OW 3082   6.176   3.045   3.837
  728SOL    HW1 3083   6.269   3.062   3.871
  728SOL    HW2 3084   6.157   2.947   3.842
  729SOL     OW 3085   0.750   1.974   1.432
  729SOL    HW1 3086   0.774   1.986   1.528
  729SOL    HW2 3087   0.798   1.895   1.395
  730SOL     OW 3088   5.901   0.260   4.430
  730SOL    HW1 3089   5.849   0.255   4.345
  730SOL    HW2 3090   5.872   0.187   4.492
  731SOL     OW 3091   4.777   5.022   6.618
  731SOL    HW1 3092   4.811   5.116   6.621
  731SOL    HW2 3093   4.756   4.992   6.711
  732SOL     OW 3094   5.186   3.078   1.439
  732SOL    HW1 3095   5.236   3.163   1.457
  732SOL    HW2 3096   5.232   3.002   1.487
  733SOL     OW 3097   5.454   0.193   4.339
  733SOL    HW1 3098   5.456   0.291   4.359
  733SOL    HW2 3099   5.438   0.142   4.423
  734SOL     OW 3100   6.160   4.561   3.341
  734SOL    HW1 3101   6.089   4.519   3.397
  734SOL    HW2 3102   6.138   4.549   3.244
  735SOL     OW 3103   4.308   1.614   0.197
  735SOL    HW1 3104   4.393   1.561   0.198
  735SOL    HW2 3105   4.282   1.638   0.291
  736SOL     OW 3106   0.067   2.141   3.365
  736SOL    HW1 3107   0.029   2.069   3.423
  736SOL    HW2 3108   0.147   2.181   3.409
  737SOL     OW 3109   5.011   1.773   5.071
  737SOL    HW1 3110   5.003   1.674   5.063
  737SOL    HW2 3111   4.920   1.813   5.084
  738SOL     OW 3112   2.858   3.740   0.897
  738SOL    HW1 3113   2.777   3.683   0.910
  738SOL    HW2 3114   2.862   3.809   0.969
  739SOL     OW 3115   4.712   1.207   4.243
  739SOL    HW1 3116   4.739   1.264   4.320
  739SOL    HW2 3117   4.623   1.236   4.210
  740SOL     OW 3118   6.334   1.382   1.488
  740SOL    HW1 3119   6.365   1.370   1.582
  740SOL    HW2 3120   6.382   1.460   1.447
  741SOL     OW 3121   1.693   0.307   3.362
  741SOL    HW1 3122   1.741   0.372   3.420
  741SOL    HW2 3123   1.616   0.268   3.412
  742SOL     OW 3124   2.709   6.760   1.808
  742SOL    HW1 3125   2.619   6.770   1.849
  742SOL    HW2 3126   2.700   6.715   1.719
  743SOL     OW 3127   1.186   5.079   3.401
  743SOL    HW1 3128   1.192   5.026   3.316
  743SOL    HW2 3129   1.203   5.175   3.381
  744SOL     OW 3130   5.596   0.598   1.332
  744SOL    HW1 3131   5.654   0.669   1.372
  744SOL    HW2 3132   5.500   0.615   1.354
  745SOL     OW 3133   1.472   5.474   4.784
  745SOL    HW1 3134   1.410   5.409   4.740
  745SOL    HW2 3135   1.477   5.557   4.729
  746SOL     OW 3136   6.386   3.687   6.789
  746SOL    HW1 3137   6.424   3.765   6.739
  746SOL    HW2 3138   6.288   3.679   6.770
  747SOL     OW 3139   3.673   6.421   4.111
  747SOL    HW1 3140   3.578   6.447   4.094
  747SOL    HW2 3141   3.676   6.327   4.145
  748SOL     OW 3142   3.987   4.858   2.141
  748SOL    HW1 3143   3.993   4.918   2.061
  748SOL    HW2 3144   4.030   4.771   2.120
  749SOL     OW 3145   5.678   3.575   4.369
  749SOL    HW1 3146   5.705   3.671   4.376
  749SOL    HW2 3147   5.728   3.532   4.293
  750SOL     OW 3148   2.549   1.458   1.523
  750SOL    HW1 3149   2.567   1.389   1.453
  750SOL    HW2 3150   2.486   1.421   1.591
  751SOL     OW 3151   4.165   1.708   6.897
  751SOL    HW1 3152   4.187   1.661   6.811
  751SOL    HW2 3153   4.214   1.795   6.901
  752SOL     OW 3154   3.156   1.430   1.493
  752SOL    HW1 3155   3.096   1.377   1.433
  752SOL    HW2 3156   3.127   1.419   1.588
  753SOL     OW 3157   0.862   3.502   5.640
  753SOL    HW1 3158   0.875   3.592   5.599
  753SOL    HW2 3159   0.903   3.433   5.581
  754SOL     OW 3160   4.644   1.975   5.804
  754SOL    HW1 3161   4.658   2.069   5.771
  754SOL    HW2 3162   4.724   1.945   5.856
  755SOL     OW 3163   1.718   4.937   5.013
  755SOL    HW1 3164   1.727   4.886   4.927
  755SOL    HW2 3165   1.791   4.909   5.075
  756SOL     OW 3166   3.029   6.482   6.806
  756SOL    HW1 3167   3.024   6.394   6.759
  756SOL    HW2 3168   3.115   6.488   6.856
  757SOL     OW 3169   0.443   0.505   4.540
  757SOL    HW1 3170   0.343   0.500   4.529
  757SOL    HW2 3171   0.466   0.586   4.594
  758SOL     OW 3172   3.338   0.711   3.299
  758SOL    HW1 3173   3.355   0.617   3.269
  758SOL    HW2 3174   3.257   0.746   3.253
  759SOL     OW 3175   0.791   2.511   1.979
  759SOL    HW1 3176   0.765   2.502   1.883
  759SOL    HW2 3177   0.715   2.554   2.029
  760SOL     OW 3178   6.371   6.521   3.958
  760SOL    HW1 3179   6.426   6.442   3.933
  760SOL    HW2 3180   6.287   6.521   3.904
  761SOL     OW 3181   5.436   3.629   6.173
  761SOL    HW1 3182   5.451   3.546   6.227
  761SOL    HW2 3183   5.496   3.702   6.206
  762SOL     OW 3184   2.661   6.894   4.944
  762SOL    HW1 3185   2.593   6.942   4.889
  762SOL    HW2 3186   2.685   6.808   4.899
  763SOL     OW 3187   4.114   5.345   6.227
  763SOL    HW1 3188   4.108   5.429   6.173
  763SOL    HW2 3189   4.023   5.303   6.232
  764SOL     OW 3190   5.561   0.832   5.258
  764SOL    HW1 3191   5.494   0.883   5.203
  764SOL    HW2 3192   5.648   0.882   5.258
  765SOL     OW 3193   1.258   5.992   1.273
  765SOL    HW1 3194   1.352   5.985   1.306
  765SOL    HW2 3195   1.258   6.006   1.174
  766SOL     OW 3196   2.479   2.216   6.283
  766SOL    HW1 3197   2.483   2.174   6.193
  766SOL    HW2 3198   2.400   2.276   6.289
  767SOL     OW 3199   6.421   5.861   3.567
  767SOL    HW1 3200   6.482   5.800   3.617
  767SOL    HW2 3201   6.472   5.939   3.531
  768SOL     OW 3202   2.301   5.765   2.714
  768SOL    HW1 3203   2.209   5.728   2.705
  768SOL    HW2 3204   2.325   5.773   2.810
  769SOL     OW 3205   2.441   1.196   5.135
  769SOL    HW1 3206   2.485   1.113   5.102
  769SOL    HW2 3207   2.445   1.198   5.235
  770SOL     OW 3208   1.544   5.027   3.275
  770SOL    HW1 3209   1.537   5.006   3.373
  770SOL    HW2 3210   1.492   4.960   3.222
  771SOL     OW 3211   0.933   5.179   2.624
  771SOL    HW1 3212   0.833   5.185   2.616
  771SOL    HW2 3213   0.975   5.256   2.575
  772SOL     OW 3214   5.430   4.530   6.544
  772SOL    HW1 3215   5.398   4.455   6.486
  772SOL    HW2 3216   5.352   4.588   6.569
  773SOL     OW 3217   0.050   4.426   3.994
  773SOL    HW1 3218   0.096   4.447   3.908
  773SOL    HW2 3219   0.090   4.343   4.034
  774SOL     OW 3220   1.827   1.421   1.185
  774SOL    HW1 3221   1.913   1.457   1.222
  774SOL    HW2 3222   1.761   1.408   1.259
  775SOL     OW 3223   1.879   2.283   4.193
  775SOL    HW1 3224   1.932   2.280   4.278
  775SOL    HW2 3225   1.782   2.275   4.214
  776SOL     OW 3226   0.603   0.322   5.365
  776SOL    HW1 3227   0.677   0.259   5.390
  776SOL    HW2 3228   0.528   0.270   5.323
  777SOL     OW 3229   1.712   4.874   1.458
  777SOL    HW1 3230   1.765   4.898   1.376
  777SOL    HW2 3231   1.758   4.799   1.506
  778SOL     OW 3232   2.720   0.890   1.770
  778SOL    HW1 3233   2.743   0.892   1.867
  778SOL    HW2 3234   2.804   0.882   1.716
  779SOL     OW 3235   6.947   2.813   2.721
  779SOL    HW1 3236   6.900   2.896   2.752
  779SOL    HW2 3237   6.917   2.735   2.776
  780SOL     OW 3238   0.496   3.079   4.096
  780SOL    HW1 3239   0.420   3.071   4.162
  780SOL    HW2 3240   0.509   2.991   4.050
  781SOL     OW 3241   6.061   6.867   0.355
  781SOL    HW1 3242   6.138   6.805   0.342
  781SOL    HW2 3243   5.994   6.824   0.416
  782SOL     OW 3244   1.405   3.500   6.098
  782SOL    HW1 3245   1.326   3.444   6.123
  782SOL    HW2 3246   1.430   3.482   6.003
  783SOL     OW 3247   5.129   4.839   2.161
  783SOL    HW1 3248   5.205   4.802   2.107
  783SOL    HW2 3249   5.163   4.910   2.222
  784SOL     OW 3250   4.560   4.832   0.490
  784SOL    HW1 3251   4.613   4.812   0.408
  784SOL    HW2 3252   4.519   4.923   0.481
  785SOL     OW 3253   0.673   1.945   3.519
  785SOL    HW1 3254   0.720   1.916   3.602
  785SOL    HW2 3255   0.579   1.909   3.519
  786SOL     OW 3256   0.486   6.999   3.282
  786SOL    HW1 3257   0.498   0.062   3.222
  786SOL    HW2 3258   0.389   6.975   3.286
  787SOL     OW 3259   1.237   0.404   0.045
  787SOL    HW1 3260   1.225   0.468   0.121
  787SOL    HW2 3261   1.211   0.312   0.073
  788SOL     OW 3262   3.985   1.260   0.335
  788SOL    HW1 3263   4.010   1.321   0.411
  788SOL    HW2 3264   3.935   1.313   0.266
  789SOL     OW 3265   3.963   4.350   1.399
  789SOL    HW1 3266   3.979   4.351   1.300
  789SOL    HW2 3267   3.868   4.376   1.418
  790SOL     OW 3268   1.763   1.871   3.038
  790SOL    HW1 3269   1.697   1.811   3.084
  790SOL    HW2 3270   1.734   1.885   2.943
  791SOL     OW 3271   1.270   5.775   4.401
  791SOL    HW1 3272   1.365   5.806   4.413
  791SOL    HW2 3273   1.251   5.701   4.466
  792SOL     OW 3274   0.336   0.738   1.687
  792SOL    HW1 3275   0.333   0.800   1.765
  792SOL    HW2 3276   0.419   0.683   1.691
  793SOL     OW 3277   5.463   5.253   4.082
  793SOL    HW1 3278   5.528   5.292   4.148
  793SOL    HW2 3279   5.391   5.320   4.064
  794SOL     OW 3280   2.622   3.787   5.924
  794SOL    HW1 3281   2.707   3.767   5.875
  794SOL    HW2 3282   2.605   3.885   5.923
  795SOL     OW 3283   3.876   7.016   4.508
  795SOL    HW1 3284   3.936   7.008   4.588
  795SOL    HW2 3285   3.852   0.095   4.494
  796SOL     OW 3286   1.160   2.486   5.814
  796SOL    HW1 3287   1.153   2.540   5.898
  796SOL    HW2 3288   1.207   2.400   5.834
  797SOL     OW 3289   5.795   1.967   1.087
  797SOL    HW1 3290   5.774   1.978   0.990
  797SOL    HW2 3291   5.709   1.960   1.139
  798SOL     OW 3292   3.366   6.553   1.867
  798SOL    HW1 3293   3.405   6.461   1.877
  798SOL    HW2 3294   3.321   6.579   1.953
  799SOL     OW 3295   0.236   6.957   6.378
  799SOL    HW1 3296   0.176   0.007   6.422
  799SOL    HW2 3297   0.308   7.006   6.327
  800SOL     OW 3298   5.941   1.195   2.237
  800SOL    HW1 3299   5.969   1.283   2.198
  800SOL    HW2 3300   6.018   1.156   2.289
  801SOL     OW 3301   2.381   4.313   4.604
  801SOL    HW1 3302   2.307   4.254   4.572
  801SOL    HW2 3303   2.467   4.282   4.565
  802SOL     OW 3304   3.097   1.213   0.813
  802SOL    HW1 3305   3.007   1.192   0.774
  802SOL    HW2 3306   3.133   1.297   0.773
  803SOL     OW 3307   1.204   0.249   6.100
  803SOL    HW1 3308   1.251   0.165   6.074
  803SOL    HW2 3309   1.109   0.229   6.123
  804SOL     OW 3310   5.875   6.796   0.595
  804SOL    HW1 3311   5.812   6.725   0.563
  804SOL    HW2 3312   5.822   6.870   0.637
  805SOL     OW 3313   2.810   0.952   4.015
  805SOL    HW1 3314   2.872   0.971   3.938
  805SOL    HW2 3315   2.720   0.926   3.980
  806SOL     OW 3316   5.419   0.798   4.442
  806SOL    HW1 3317   5.362   0.831   4.367
  806SOL    HW2 3318   5.472   0.719   4.411
  807SOL     OW 3319   0.597   0.706   5.341
  807SOL    HW1 3320   0.536   0.654   5.401
  807SOL    HW2 3321   0.617   0.651   5.259
  808SOL     OW 3322   3.981   4.243   6.219
  808SOL    HW1 3323   3.947   4.195   6.138
  808SOL    HW2 3324   4.000   4.339   6.196
  809SOL     OW 3325   0.469   5.189   1.356
  809SOL    HW1 3326   0.502   5.282   1.341
  809SOL    HW2 3327   0.390   5.191   1.417
  810SOL     OW 3328   3.567   4.214   0.917
  810SOL    HW1 3329   3.518   4.284   0.969
  810SOL    HW2 3330   3.510   4.181   0.842
  811SOL     OW 3331   5.314   6.016   5.365
  811SOL    HW1 3332   5.402   6.065   5.367
  811SOL    HW2 3333   5.282   6.001   5.458
  812SOL     OW 3334   6.899   0.471   2.956
  812SOL    HW1 3335   6.960   0.393   2.940
  812SOL    HW2 3336   6.940   0.553   2.917
  813SOL     OW 3337   4.093   6.373   4.304
  813SOL    HW1 3338   4.177   6.320   4.298
  813SOL    HW2 3339   4.110   6.467   4.273
  814SOL     OW 3340   5.835   5.921   2.799
  814SOL    HW1 3341   5.747   5.916   2.751
  814SOL    HW2 3342   5.849   6.013   2.834
  815SOL     OW 3343   6.821   3.727   3.652
  815SOL    HW1 3344   6.756   3.763   3.584
  815SOL    HW2 3345   6.857   3.803   3.706
  816SOL     OW 3346   5.960   6.149   0.482
  816SOL    HW1 3347   5.910   6.106   0.407
  816SOL    HW2 3348   5.997   6.078   0.542
  817SOL     OW 3349   1.273   5.783   1.513
  817SOL    HW1 3350   1.318   5.698   1.486
  817SOL    HW2 3351   1.202   5.806   1.447
  818SOL     OW 3352   5.974   2.643   3.568
  818SOL    HW1 3353   5.894   2.684   3.523
  818SOL    HW2 3354   6.045   2.627   3.500
  819SOL     OW 3355   5.841   2.871   2.304
  819SOL    HW1 3356   5.817   2.953   2.252
  819SOL    HW2 3357   5.858   2.795   2.240
  820SOL     OW 3358   3.266   2.079   4.910
  820SOL    HW1 3359   3.223   2.160   4.950
  820SOL    HW2 3360   3.203   2.002   4.915
  821SOL     OW 3361   6.577   3.958   6.963
  821SOL    HW1 3362   6.637   4.023   7.009
  821SOL    HW2 3363   6.497   4.006   6.926
  822SOL     OW 3364   0.457   3.693   3.784
  822SOL    HW1 3365   0.458   3.721   3.688
  822SOL    HW2 3366   0.363   3.677   3.813
  823SOL     OW 3367   5.761   3.973   6.407
  823SOL    HW1 3368   5.693   4.016   6.467
  823SOL    HW2 3369   5.849   4.020   6.417
  824SOL     OW 3370   4.648   1.300   6.351
  824SOL    HW1 3371   4.654   1.252   6.264
  824SOL    HW2 3372   4.670   1.237   6.426
  825SOL     OW 3373   0.060   5.155   1.245
  825SOL    HW1 3374   6.993   5.107   1.216
  825SOL    HW2 3375   0.045   5.253   1.241
  826SOL     OW 3376   3.922   2.188   5.914
  826SOL    HW1 3377   3.894   2.129   5.838
  826SOL    HW2 3378   3.843   2.241   5.946
  827SOL     OW 3379   2.645   4.414   5.279
  827SOL    HW1 3380   2.696   4.367   5.351
  827SOL    HW2 3381   2.697   4.494   5.249
  828SOL     OW 3382   5.075   6.329   6.548
  828SOL    HW1 3383   5.166   6.372   6.544
  828SOL    HW2 3384   5.084   6.231   6.528
  829SOL     OW 3385   4.140   3.721   2.077
  829SOL    HW1 3386   4.111   3.704   2.171
  829SOL    HW2 3387   4.214   3.658   2.053
  830SOL     OW 3388   5.971   4.491   6.472
  830SOL    HW1 3389   5.915   4.439   6.408
  830SOL    HW2 3390   5.994   4.580   6.432
  831SOL     OW 3391   5.774   0.263   6.830
  831SOL    HW1 3392   5.775   0.238   6.927
  831SOL    HW2 3393   5.774   0.363   6.822
  832SOL     OW 3394   4.121   1.132   2.959
  832SOL    HW1 3395   4.202   1.141   2.901
  832SOL    HW2 3396   4.106   1.036   2.980
  833SOL     OW 3397   1.712   3.502   6.644
  833SOL    HW1 3398   1.709   3.543   6.553
  833SOL    HW2 3399   1.770   3.557   6.704
  834SOL     OW 3400   4.255   4.036   0.941
  834SOL    HW1 3401   4.274   3.954   0.888
  834SOL    HW2 3402   4.340   4.069   0.983
  835SOL     OW 3403   3.134   0.242   5.446
  835SOL    HW1 3404   3.163   0.187   5.368
  835SOL    HW2 3405   3.127   0.184   5.527
  836SOL     OW 3406   3.424   6.826   5.054
  836SOL    HW1 3407   3.419   6.898   5.123
  836SOL    HW2 3408   3.398   6.864   4.965
  837SOL     OW 3409   6.808   0.070   0.994
  837SOL    HW1 3410   6.883   0.060   1.060
  837SOL    HW2 3411   6.846   0.084   0.902
  838SOL     OW 3412   2.208   0.658   4.625
  838SOL    HW1 3413   2.294   0.630   4.582
  838SOL    HW2 3414   2.135   0.661   4.557
  839SOL     OW 3415   1.655   1.606   1.919
  839SOL    HW1 3416   1.694   1.638   2.005
  839SOL    HW2 3417   1.666   1.507   1.912
  840SOL     OW 3418   6.006   5.983   0.062
  840SOL    HW1 3419   6.058   5.899   0.081
  840SOL    HW2 3420   6.052   6.034   7.006
  841SOL     OW 3421   2.976   5.233   6.078
  841SOL    HW1 3422   3.049   5.282   6.030
  841SOL    HW2 3423   2.891   5.241   6.026
  842SOL     OW 3424   3.476   0.254   5.021
  842SOL    HW1 3425   3.380   0.227   5.011
  842SOL    HW2 3426   3.485   0.323   5.092
  843SOL     OW 3427   0.916   1.562   1.310
  843SOL    HW1 3428   0.923   1.605   1.220
  843SOL    HW2 3429   0.834   1.595   1.356
  844SOL     OW 3430   6.064   0.094   0.469
  844SOL    HW1 3431   6.004   0.081   0.548
  844SOL    HW2 3432   6.077   0.007   0.422
  845SOL     OW 3433   4.792   4.079   3.873
  845SOL    HW1 3434   4.761   4.076   3.968
  845SOL    HW2 3435   4.826   3.989   3.846
  846SOL     OW 3436   2.176   1.031   5.697
  846SOL    HW1 3437   2.174   1.006   5.794
  846SOL    HW2 3438   2.087   1.068   5.671
  847SOL     OW 3439   1.811   3.788   1.148
  847SOL    HW1 3440   1.874   3.823   1.078
  847SOL    HW2 3441   1.754   3.863   1.182
  848SOL     OW 3442   6.928   6.995   6.004
  848SOL    HW1 3443   6.998   6.941   6.052
  848SOL    HW2 3444   6.862   0.014   6.071
  849SOL     OW 3445   6.372   3.591   6.193
  849SOL    HW1 3446   6.471   3.603   6.191
  849SOL    HW2 3447   6.350   3.493   6.202
  850SOL     OW 3448   4.795   1.403   4.457
  850SOL    HW1 3449   4.830   1.342   4.529
  850SOL    HW2 3450   4.726   1.464   4.497
  851SOL     OW 3451   0.236   2.959   1.476
  851SOL    HW1 3452   0.285   2.937   1.392
  851SOL    HW2 3453   0.145   2.917   1.473
  852SOL     OW 3454   1.489   4.250   0.205
  852SOL    HW1 3455   1.520   4.330   0.257
  852SOL    HW2 3456   1.474   4.173   0.267
  853SOL     OW 3457   0.642   4.584   0.889
  853SOL    HW1 3458   0.614   4.583   0.985
  853SOL    HW2 3459   0.687   4.498   0.866
  854SOL     OW 3460   5.339   5.077   0.728
  854SOL    HW1 3461   5.341   5.011   0.653
  854SOL    HW2 3462   5.395   5.156   0.705
  855SOL     OW 3463   6.783   0.414   1.455
  855SOL    HW1 3464   6.690   0.433   1.486
  855SOL    HW2 3465   6.783   0.404   1.355
  856SOL     OW 3466   1.342   2.164   6.639
  856SOL    HW1 3467   1.272   2.177   6.709
  856SOL    HW2 3468   1.305   2.106   6.566
  857SOL     OW 3469   6.329   4.915   1.973
  857SOL    HW1 3470   6.406   4.895   2.033
  857SOL    HW2 3471   6.256   4.848   1.988
  858SOL     OW 3472   3.247   4.019   1.249
  858SOL    HW1 3473   3.323   4.066   1.294
  858SOL    HW2 3474   3.168   4.081   1.242
  859SOL     OW 3475   5.916   0.142   4.868
  859SOL    HW1 3476   5.908   0.047   4.840
  859SOL    HW2 3477   6.013   0.166   4.876
  860SOL     OW 3478   6.518   2.376   0.624
  860SOL    HW1 3479   6.618   2.376   0.629
  860SOL    HW2 3480   6.483   2.291   0.663
  861SOL     OW 3481   2.552   5.344   3.954
  861SOL    HW1 3482   2.547   5.312   4.048
  861SOL    HW2 3483   2.605   5.429   3.951
  862SOL     OW 3484   1.143   3.631   4.000
  862SOL    HW1 3485   1.160   3.714   3.947
  862SOL    HW2 3486   1.073   3.649   4.069
  863SOL     OW 3487   5.850   1.123   6.854
  863SOL    HW1 3488   5.843   1.181   6.936
  863SOL    HW2 3489   5.792   1.043   6.866
  864SOL     OW 3490   4.070   5.496   4.293
  864SOL    HW1 3491   3.970   5.488   4.288
  864SOL    HW2 3492   4.095   5.592   4.298
  865SOL     OW 3493   1.439   6.612   6.025
  865SOL    HW1 3494   1.461   6.703   6.059
  865SOL    HW2 3495   1.519   6.553   6.032
  866SOL     OW 3496   2.128   1.546   1.525
  866SOL    HW1 3497   2.159   1.472   1.585
  866SOL    HW2 3498   2.147   1.634   1.568
  867SOL     OW 3499   5.281   3.708   0.244
  867SOL    HW1 3500   5.290   3.616   0.282
  867SOL    HW2 3501   5.308   3.708   0.148
  868SOL     OW 3502   6.485   1.387   0.591
  868SOL    HW1 3503   6.423   1.394   0.512
  868SOL    HW2 3504   6.476   1.468   0.648
  869SOL     OW 3505   0.422   4.267   2.956
  869SOL    HW1 3506   0.376   4.188   2.914
  869SOL    HW2 3507   0.467   4.238   3.040
  870SOL     OW 3508   3.873   3.581   0.126
  870SOL    HW1 3509   3.901   3.525   0.048
  870SOL    HW2 3510   3.899   3.677   0.109
  871SOL     OW 3511   4.753   2.212   2.568
  871SOL    HW1 3512   4.789   2.136   2.622
  871SOL    HW2 3513   4.653   2.207   2.567
  872SOL     OW 3514   5.412   3.007   3.773
  872SOL    HW1 3515   5.313   3.024   3.773
  872SOL    HW2 3516   5.432   2.929   3.832
  873SOL     OW 3517   6.022   6.260   5.211
  873SOL    HW1 3518   6.034   6.261   5.112
  873SOL    HW2 3519   6.027   6.353   5.247
  874SOL     OW 3520   0.692   3.631   6.007
  874SOL    HW1 3521   0.672   3.700   5.937
  874SOL    HW2 3522   0.660   3.663   6.096
  875SOL     OW 3523   5.326   4.424   0.651
  875SOL    HW1 3524   5.335   4.402   0.554
  875SOL    HW2 3525   5.408   4.395   0.700
  876SOL     OW 3526   1.154   4.683   1.885
  876SOL    HW1 3527   1.123   4.769   1.926
  876SOL    HW2 3528   1.106   4.606   1.928
  877SOL     OW 3529   3.764   4.576   5.407
  877SOL    HW1 3530   3.862   4.583   5.425
  877SOL    HW2 3531   3.713   4.589   5.493
  878SOL     OW 3532   3.874   5.744   4.744
  878SOL    HW1 3533   3.961   5.705   4.714
  878SOL    HW2 3534   3.811   5.751   4.667
  879SOL     OW 3535   3.508   1.771   0.925
  879SOL    HW1 3536   3.563   1.811   0.998
  879SOL    HW2 3537   3.551   1.686   0.893
  880SOL     OW 3538   2.901   3.596   4.598
  880SOL    HW1 3539   2.846   3.538   4.538
  880SOL    HW2 3540   2.923   3.681   4.551
  881SOL     OW 3541   5.828   3.338   5.788
  881SOL    HW1 3542   5.912   3.288   5.807
  881SOL    HW2 3543   5.789   3.307   5.701
  882SOL     OW 3544   1.152   2.595   4.568
  882SOL    HW1 3545   1.102   2.679   4.546
  882SOL    HW2 3546   1.193   2.557   4.485
  883SOL     OW 3547   3.751   0.859   0.401
  883SOL    HW1 3548   3.771   0.836   0.496
  883SOL    HW2 3549   3.827   0.829   0.343
  884SOL     OW 3550   6.864   4.407   0.020
  884SOL    HW1 3551   6.811   4.489   7.011
  884SOL    HW2 3552   6.951   4.435   0.060
  885SOL     OW 3553   4.203   6.502   5.163
  885SOL    HW1 3554   4.141   6.529   5.237
  885SOL    HW2 3555   4.167   6.535   5.076
  886SOL     OW 3556   4.756   0.388   0.865
  886SOL    HW1 3557   4.800   0.408   0.953
  886SOL    HW2 3558   4.670   0.340   0.881
  887SOL     OW 3559   3.922   5.684   3.574
  887SOL    HW1 3560   3.987   5.640   3.512
  887SOL    HW2 3561   3.850   5.620   3.599
  888SOL     OW 3562   6.996   6.247   3.112
  888SOL    HW1 3563   0.004   6.245   3.015
  888SOL    HW2 3564   6.918   6.187   3.129
  889SOL     OW 3565   6.867   1.170   6.283
  889SOL    HW1 3566   6.860   1.161   6.383
  889SOL    HW2 3567   6.959   1.201   6.259
  890SOL     OW 3568   2.480   5.075   2.242
  890SOL    HW1 3569   2.440   5.041   2.328
  890SOL    HW2 3570   2.509   4.998   2.186
  891SOL     OW 3571   6.844   3.678   0.366
  891SOL    HW1 3572   6.853   3.646   0.461
  891SOL    HW2 3573   6.758   3.644   0.328
  892SOL     OW 3574   3.457   3.451   5.272
  892SOL    HW1 3575   3.369   3.497   5.273
  892SOL    HW2 3576   3.529   3.517   5.250
  893SOL     OW 3577   1.754   0.139   2.709
  893SOL    HW1 3578   1.703   0.197   2.772
  893SOL    HW2 3579   1.845   0.120   2.747
  894SOL     OW 3580   1.120   2.531   2.933
  894SOL    HW1 3581   1.213   2.510   2.903
  894SOL    HW2 3582   1.090   2.618   2.893
  895SOL     OW 3583   1.087   4.895   3.853
  895SOL    HW1 3584   1.155   4.849   3.911
  895SOL    HW2 3585   1.119   4.896   3.758
  896SOL     OW 3586   6.111   5.606   1.439
  896SOL    HW1 3587   6.132   5.555   1.522
  896SOL    HW2 3588   6.016   5.588   1.412
  897SOL     OW 3589   4.189   0.227   6.416
  897SOL    HW1 3590   4.251   0.166   6.368
  897SOL    HW2 3591   4.225   0.247   6.507
  898SOL     OW 3592   4.139   5.834   2.020
  898SOL    HW1 3593   4.182   5.882   1.943
  898SOL    HW2 3594   4.176   5.868   2.106
  899SOL     OW 3595   0.238   5.503   0.529
  899SOL    HW1 3596   0.321   5.513   0.474
  899SOL    HW2 3597   0.230   5.408   0.560
  900SOL     OW 3598   4.824   6.375   6.438
  900SOL    HW1 3599   4.823   6.384   6.339
  900SOL    HW2 3600   4.915   6.345   6.468
  901SOL     OW 3601   1.067   1.125   4.447
  901SOL    HW1 3602   1.051   1.088   4.356
  901SOL    HW2 3603   1.067   1.051   4.514
  902SOL     OW 3604   1.652   2.468   0.899
  902SOL    HW1 3605   1.651   2.375   0.863
  902SOL    HW2 3606   1.734   2.482   0.953
  903SOL     OW 3607   0.197   2.911   6.958
  903SOL    HW1 3608   0.135   2.863   0.003
  903SOL    HW2 3609   0.280   2.856   6.945
  904SOL     OW 3610   2.207   2.970   2.615
  904SOL    HW1 3611   2.219   3.036   2.542
  904SOL    HW2 3612   2.295   2.957   2.662
  905SOL     OW 3613   5.182   4.565   6.023
  905SOL    HW1 3614   5.241   4.508   5.966
  905SOL    HW2 3615   5.236   4.606   6.096
  906SOL     OW 3616   0.932   2.356   6.309
  906SOL    HW1 3617   0.945   2.454   6.298
  906SOL    HW2 3618   0.846   2.329   6.266
  907SOL     OW 3619   5.166   2.499   1.767
  907SOL    HW1 3620   5.096   2.505   1.696
  907SOL    HW2 3621   5.124   2.476   1.854
  908SOL     OW 3622   2.188   4.862   3.075
  908SOL    HW1 3623   2.241   4.874   3.159
  908SOL    HW2 3624   2.091   4.881   3.093
  909SOL     OW 3625   3.693   5.941   2.197
  909SOL    HW1 3626   3.613   5.969   2.250
  909SOL    HW2 3627   3.678   5.850   2.160
  910SOL     OW 3628   3.286   0.887   0.777
  910SOL    HW1 3629   3.319   0.958   0.715
  910SOL    HW2 3630   3.189   0.901   0.797
  911SOL     OW 3631   0.894   5.921   6.620
  911SOL    HW1 3632   0.872   5.826   6.642
  911SOL    HW2 3633   0.982   5.945   6.661
  912SOL     OW 3634   4.684   0.543   3.720
  912SOL    HW1 3635   4.673   0.445   3.702
  912SOL    HW2 3636   4.780   0.563   3.737
  913SOL     OW 3637   2.506   0.995   3.985
  913SOL    HW1 3638   2.492   0.938   4.066
  913SOL    HW2 3639   2.455   0.957   3.908
  914SOL     OW 3640   2.637   6.102   5.187
  914SOL    HW1 3641   2.666   6.181   5.133
  914SOL    HW2 3642   2.710   6.077   5.252
  915SOL     OW 3643   7.008   3.232   0.913
  915SOL    HW1 3644   6.952   3.152   0.936
  915SOL    HW2 3645   0.073   3.201   0.863
  916SOL     OW 3646   1.936   2.904   2.660
  916SOL    HW1 3647   1.862   2.941   2.604
  916SOL    HW2 3648   2.024   2.926   2.617
  917SOL     OW 3649   6.564   0.648   2.243
  917SOL    HW1 3650   6.621   0.719   2.285
  917SOL    HW2 3651   6.477   0.642   2.293
  918SOL     OW 3652   3.260   0.003   1.080
  918SOL    HW1 3653   3.205   0.087   1.085
  918SOL    HW2 3654   3.199   6.940   1.083
  919SOL     OW 3655   6.358   6.826   3.442
  919SOL    HW1 3656   6.351   6.728   3.460
  919SOL    HW2 3657   6.452   6.855   3.455
  920SOL     OW 3658   2.634   4.707   2.504
  920SOL    HW1 3659   2.573   4.786   2.500
  920SOL    HW2 3660   2.649   4.672   2.412
  921SOL     OW 3661   3.848   5.050   3.156
  921SOL    HW1 3662   3.802   5.114   3.094
  921SOL    HW2 3663   3.934   5.090   3.187
  922SOL     OW 3664   3.112   3.446   4.657
  922SOL    HW1 3665   3.036   3.507   4.638
  922SOL    HW2 3666   3.155   3.472   4.744
  923SOL     OW 3667   2.350   4.093   5.605
  923SOL    HW1 3668   2.409   4.015   5.628
  923SOL    HW2 3669   2.325   4.089   5.509
  924SOL     OW 3670   6.293   2.993   3.369
  924SOL    HW1 3671   6.301   2.915   3.431
  924SOL    HW2 3672   6.241   3.066   3.413
  925SOL     OW 3673   0.016   2.061   6.480
  925SOL    HW1 3674   0.080   2.064   6.558
  925SOL    HW2 3675   6.974   2.142   6.483
  926SOL     OW 3676   6.733   1.403   0.989
  926SOL    HW1 3677   6.639   1.390   1.022
  926SOL    HW2 3678   6.771   1.487   1.028
  927SOL     OW 3679   5.335   4.252   3.109
  927SOL    HW1 3680   5.408   4.244   3.177
  927SOL    HW2 3681   5.375   4.250   3.017
  928SOL     OW 3682   1.430   6.617   0.007
  928SOL    HW1 3683   1.339   6.600   0.045
  928SOL    HW2 3684   1.500   6.592   0.075
  929SOL     OW 3685   0.602   0.121   0.743
  929SOL    HW1 3686   0.607   0.153   0.649
  929SOL    HW2 3687   0.531   0.173   0.792
  930SOL     OW 3688   5.160   5.988   4.504
  930SOL    HW1 3689   5.193   5.896   4.522
  930SOL    HW2 3690   5.074   6.002   4.553
  931SOL     OW 3691   5.609   1.373   4.614
  931SOL    HW1 3692   5.549   1.319   4.673
  931SOL    HW2 3693   5.686   1.316   4.585
  932SOL     OW 3694   2.933   0.164   3.452
  932SOL    HW1 3695   2.852   0.144   3.506
  932SOL    HW2 3696   2.945   0.263   3.444
  933SOL     OW 3697   1.851   5.564   3.572
  933SOL    HW1 3698   1.921   5.538   3.638
  933SOL    HW2 3699   1.853   5.663   3.558
  934SOL     OW 3700   1.446   0.053   6.681
  934SOL    HW1 3701   1.367   7.010   6.668
  934SOL    HW2 3702   1.530   0.001   6.665
  935SOL     OW 3703   4.994   4.335   3.625
  935SOL    HW1 3704   5.057   4.289   3.562
  935SOL    HW2 3705   5.044   4.364   3.707
  936SOL     OW 3706   0.309   0.608   6.330
  936SOL    HW1 3707   0.380   0.538   6.322
  936SOL    HW2 3708   0.307   0.643   6.424
  937SOL     OW 3709   5.134   1.418   5.504
  937SOL    HW1 3710   5.039   1.388   5.500
  937SOL    HW2 3711   5.164   1.420   5.600
  938SOL     OW 3712   6.284   5.013   6.052
  938SOL    HW1 3713   6.384   5.016   6.055
  938SOL    HW2 3714   6.247   5.041   6.141
  939SOL     OW 3715   6.624   6.477   4.987
  939SOL    HW1 3716   6.648   6.502   5.080
  939SOL    HW2 3717   6.558   6.543   4.950
  940SOL     OW 3718   1.214   4.000   1.718
  940SOL    HW1 3719   1.290   4.062   1.695
  940SOL    HW2 3720   1.159   4.040   1.791
  941SOL     OW 3721   5.159   1.023   6.365
  941SOL    HW1 3722   5.212   0.960   6.422
  941SOL    HW2 3723   5.196   1.115   6.375
  942SOL     OW 3724   5.522   6.871   2.943
  942SOL    HW1 3725   5.494   6.872   3.039
  942SOL    HW2 3726   5.565   6.783   2.922
  943SOL     OW 3727   2.045   3.901   4.058
  943SOL    HW1 3728   2.082   3.981   4.010
  943SOL    HW2 3729   2.031   3.827   3.993
  944SOL     OW 3730   0.533   4.761   6.346
  944SOL    HW1 3731   0.572   4.765   6.254
  944SOL    HW2 3732   0.433   4.762   6.341
  945SOL     OW 3733   6.532   3.562   5.885
  945SOL    HW1 3734   6.475   3.615   5.822
  945SOL    HW2 3735   6.478   3.487   5.924
  946SOL     OW 3736   5.388   3.373   5.480
  946SOL    HW1 3737   5.334   3.384   5.397
  946SOL    HW2 3738   5.386   3.278   5.509
  947SOL     OW 3739   3.892   3.016   3.493
  947SOL    HW1 3740   3.931   3.108   3.491
  947SOL    HW2 3741   3.950   2.955   3.440
  948SOL     OW 3742   4.109   0.685   2.861
  948SOL    HW1 3743   4.203   0.675   2.895
  948SOL    HW2 3744   4.058   0.745   2.921
  949SOL     OW 3745   1.031   5.833   0.274
  949SOL    HW1 3746   1.104   5.766   0.259
  949SOL    HW2 3747   0.943   5.786   0.276
  950SOL     OW 3748   5.000   5.720   1.967
  950SOL    HW1 3749   5.047   5.651   1.911
  950SOL    HW2 3750   4.950   5.782   1.908
  951SOL     OW 3751   1.916   0.685   3.961
  951SOL    HW1 3752   1.955   0.598   3.990
  951SOL    HW2 3753   1.971   0.760   3.997
  952SOL     OW 3754   4.355   2.301   3.294
  952SOL    HW1 3755   4.350   2.201   3.298
  952SOL    HW2 3756   4.343   2.338   3.386
  953SOL     OW 3757   5.343   4.977   4.105
  953SOL    HW1 3758   5.395   5.056   4.136
  953SOL    HW2 3759   5.276   5.005   4.037
  954SOL     OW 3760   4.158   5.736   1.203
  954SOL    HW1 3761   4.106   5.717   1.120
  954SOL    HW2 3762   4.255   5.750   1.179
  955SOL     OW 3763   0.520   3.640   1.810
  955SOL    HW1 3764   0.593   3.619   1.745
  955SOL    HW2 3765   0.450   3.568   1.805
  956SOL     OW 3766   6.509   0.296   2.406
  956SOL    HW1 3767   6.465   0.275   2.318
  956SOL    HW2 3768   6.585   0.359   2.391
  957SOL     OW 3769   5.814   3.417   4.169
  957SOL    HW1 3770   5.831   3.471   4.086
  957SOL    HW2 3771   5.802   3.321   4.144
  958SOL     OW 3772   4.056   2.006   1.537
  958SOL    HW1 3773   4.114   2.073   1.585
  958SOL    HW2 3774   4.012   1.946   1.604
  959SOL     OW 3775   3.906   6.051   3.050
  959SOL    HW1 3776   3.937   6.145   3.040
  959SOL    HW2 3777   3.811   6.050   3.083
  960SOL     OW 3778   0.386   6.433   2.484
  960SOL    HW1 3779   0.350   6.462   2.573
  960SOL    HW2 3780   0.463   6.370   2.497
  961SOL     OW 3781   4.314   6.349   3.239
  961SOL    HW1 3782   4.353   6.299   3.162
  961SOL    HW2 3783   4.247   6.292   3.286
  962SOL     OW 3784   0.474   1.613   5.204
  962SOL    HW1 3785   0.470   1.522   5.163
  962SOL    HW2 3786   0.421   1.677   5.150
  963SOL     OW 3787   5.657   1.288   6.471
  963SOL    HW1 3788   5.613   1.362   6.522
  963SOL    HW2 3789   5.741   1.261   6.518
  964SOL     OW 3790   5.557   4.415   6.963
  964SOL    HW1 3791   5.648   4.403   6.922
  964SOL    HW2 3792   5.488   4.378   6.901
  965SOL     OW 3793   5.721   2.095   1.857
  965SOL    HW1 3794   5.738   2.193   1.841
  965SOL    HW2 3795   5.636   2.084   1.909
  966SOL     OW 3796   5.845   2.449   2.753
  966SOL    HW1 3797   5.920   2.486   2.700
  966SOL    HW2 3798   5.773   2.417   2.691
  967SOL     OW 3799   2.951   4.431   1.369
  967SOL    HW1 3800   3.014   4.505   1.393
  967SOL    HW2 3801   2.857   4.464   1.375
  968SOL     OW 3802   3.686   0.028   2.028
  968SOL    HW1 3803   3.682   6.973   1.959
  968SOL    HW2 3804   3.769   0.017   2.083
  969SOL     OW 3805   2.334   5.308   5.604
  969SOL    HW1 3806   2.333   5.404   5.577
  969SOL    HW2 3807   2.355   5.251   5.525
  970SOL     OW 3808   5.564   1.074   6.075
  970SOL    HW1 3809   5.489   1.139   6.084
  970SOL    HW2 3810   5.633   1.110   6.013
  971SOL     OW 3811   0.138   2.654   2.729
  971SOL    HW1 3812   0.121   2.604   2.814
  971SOL    HW2 3813   0.060   2.711   2.707
  972SOL     OW 3814   5.588   2.449   1.708
  972SOL    HW1 3815   5.652   2.509   1.660
  972SOL    HW2 3816   5.567   2.370   1.650
  973SOL     OW 3817   0.115   5.159   6.828
  973SOL    HW1 3818   0.089   5.195   6.738
  973SOL    HW2 3819   0.208   5.123   6.823
  974SOL     OW 3820   5.293   6.414   2.461
  974SOL    HW1 3821   5.374   6.432   2.516
  974SOL    HW2 3822   5.270   6.495   2.407
  975SOL     OW 3823   1.673   0.529   6.448
  975SOL    HW1 3824   1.625   0.512   6.363
  975SOL    HW2 3825   1.632   0.475   6.521
  976SOL     OW 3826   0.150   3.487   2.713
  976SOL    HW1 3827   0.167   3.439   2.627
  976SOL    HW2 3828   0.237   3.506   2.759
  977SOL     OW 3829   0.525   6.535   1.726
  977SOL    HW1 3830   0.435   6.536   1.771
  977SOL    HW2 3831   0.523   6.595   1.647
  978SOL     OW 3832   5.323   2.858   5.480
  978SOL    HW1 3833   5.400   2.826   5.425
  978SOL    HW2 3834   5.335   2.955   5.500
  979SOL     OW 3835   0.629   2.195   0.205
  979SOL    HW1 3836   0.685   2.238   0.134
  979SOL    HW2 3837   0.634   2.096   0.197
  980SOL     OW 3838   4.111   2.254   3.958
  980SOL    HW1 3839   4.095   2.185   4.029
  980SOL    HW2 3840   4.193   2.307   3.981
  981SOL     OW 3841   0.412   2.009   4.612
  981SOL    HW1 3842   0.378   1.916   4.597
  981SOL    HW2 3843   0.403   2.061   4.527
  982SOL     OW 3844   1.839   1.880   4.787
  982SOL    HW1 3845   1.787   1.823   4.851
  982SOL    HW2 3846   1.837   1.975   4.818
  983SOL     OW 3847   5.776   3.090   3.834
  983SOL    HW1 3848   5.698   3.121   3.780
  983SOL    HW2 3849   5.799   2.997   3.808
  984SOL     OW 3850   2.478   2.220   4.883
  984SOL    HW1 3851   2.397   2.174   4.848
  984SOL    HW2 3852   2.455   2.267   4.968
  985SOL     OW 3853   6.311   2.950   5.231
  985SOL    HW1 3854   6.314   2.989   5.323
  985SOL    HW2 3855   6.217   2.924   5.209
  986SOL     OW 3856   4.919   4.814   1.172
  986SOL    HW1 3857   4.850   4.885   1.157
  986SOL    HW2 3858   4.887   4.749   1.240
  987SOL     OW 3859   4.717   6.981   2.579
  987SOL    HW1 3860   4.782   0.038   2.602
  987SOL    HW2 3861   4.726   6.907   2.645
  988SOL     OW 3862   3.534   3.710   1.865
  988SOL    HW1 3863   3.494   3.799   1.844
  988SOL    HW2 3864   3.598   3.719   1.941
  989SOL     OW 3865   6.645   1.510   6.113
  989SOL    HW1 3866   6.655   1.539   6.209
  989SOL    HW2 3867   6.734   1.517   6.067
  990SOL     OW 3868   4.338   1.213   2.337
  990SOL    HW1 3869   4.373   1.119   2.332
  990SOL    HW2 3870   4.347   1.257   2.248
  991SOL     OW 3871   0.696   4.059   4.751
  991SOL    HW1 3872   0.772   4.121   4.769
  991SOL    HW2 3873   0.698   3.983   4.816
  992SOL     OW 3874   0.356   3.477   1.165
  992SOL    HW1 3875   0.416   3.467   1.245
  992SOL    HW2 3876   0.262   3.461   1.193
  993SOL     OW 3877   6.714   4.905   0.584
  993SOL    HW1 3878   6.652   4.887   0.661
  993SOL    HW2 3879   6.778   4.828   0.574
  994SOL     OW 3880   4.369   5.083   1.367
  994SOL    HW1 3881   4.286   5.118   1.323
  994SOL    HW2 3882   4.378   4.985   1.348
  995SOL     OW 3883   3.654   2.850   5.635
  995SOL    HW1 3884   3.709   2.813   5.710
  995SOL    HW2 3885   3.644   2.780   5.564
  996SOL     OW 3886   3.267   5.205   4.422
  996SOL    HW1 3887   3.355   5.239   4.391
  996SOL    HW2 3888   3.278   5.114   4.463
  997SOL     OW 3889   1.169   0.066   3.428
  997SOL    HW1 3890   1.088   0.009   3.417
  997SOL    HW2 3891   1.193   0.070   3.525
  998SOL     OW 3892   5.099   0.682   5.051
  998SOL    HW1 3893   5.101   0.718   4.958
  998SOL    HW2 3894   5.157   0.600   5.056
  999SOL     OW 3895   5.243   4.613   2.783
  999SOL    HW1 3896   5.144   4.603   2.786
  999SOL    HW2 3897   5.273   4.631   2.689
 1000SOL     OW 3898   3.258   1.682   1.459
 1000SOL    HW1 3899   3.196   1.743   1.509
 1000SOL    HW2 3900   3.242   1.588   1.487
 1001SOL     OW 3901   5.162   6.076   1.102
 1001SOL    HW1 3902   5.085   6.124   1.058
 1001SOL    HW2 3903   5.181   6.118   1.191
 1002SOL     OW 3904   5.930   2.389   1.321
 1002SOL    HW1 3905   5.951   2.335   1.402
 1002SOL    HW2 3906   5.939   2.332   1.239
 1003SOL     OW 3907   1.663   6.318   2.857
 1003SOL    HW1 3908   1.573   6.278   2.841
 1003SOL    HW2 3909   1.661   6.370   2.942
 1004SOL     OW 3910   0.195   0.404   1.751
 1004SOL    HW1 3911   0.114   0.392   1.693
 1004SOL    HW2 3912   0.170   0.454   1.834
 1005SOL     OW 3913   2.180   2.920   4.353
 1005SOL    HW1 3914   2.118   2.893   4.427
 1005SOL    HW2 3915   2.267   2.872   4.364
 1006SOL     OW 3916   1.233   4.585   0.740
 1006SOL    HW1 3917   1.199   4.529   0.816
 1006SOL    HW2 3918   1.326   4.614   0.759
 1007SOL     OW 3919   4.172   0.424   5.074
 1007SOL    HW1 3920   4.227   0.377   5.005
 1007SOL    HW2 3921   4.088   0.457   5.032
 1008SOL     OW 3922   0.877   3.161   5.749
 1008SOL    HW1 3923   0.890   3.198   5.657
 1008SOL    HW2 3924   0.854   3.235   5.811
 1009SOL     OW 3925   0.268   4.772   5.280
 1009SOL    HW1 3926   0.332   4.745   5.352
 1009SOL    HW2 3927   0.311   4.841   5.222
 1010SOL     OW 3928   3.575   1.931   6.970
 1010SOL    HW1 3929   3.554   2.023   6.938
 1010SOL    HW2 3930   3.668   1.929   7.008
 1011SOL     OW 3931   1.714   5.510   2.404
 1011SOL    HW1 3932   1.723   5.432   2.466
 1011SOL    HW2 3933   1.804   5.547   2.383
 1012SOL     OW 3934   0.036   6.792   2.536
 1012SOL    HW1 3935   0.003   6.862   2.599
 1012SOL    HW2 3936   0.021   6.821   2.442
 1013SOL     OW 3937   1.367   1.645   6.377
 1013SOL    HW1 3938   1.459   1.609   6.390
 1013SOL    HW2 3939   1.326   1.664   6.466
 1014SOL     OW 3940   6.637   4.352   5.810
 1014SOL    HW1 3941   6.636   4.385   5.904
 1014SOL    HW2 3942   6.573   4.276   5.800
 1015SOL     OW 3943   2.672   6.549   6.066
 1015SOL    HW1 3944   2.613   6.469   6.061
 1015SOL    HW2 3945   2.668   6.599   5.979
 1016SOL     OW 3946   4.253   3.650   6.870
 1016SOL    HW1 3947   4.346   3.687   6.870
 1016SOL    HW2 3948   4.188   3.724   6.883
 1017SOL     OW 3949   4.315   2.796   1.287
 1017SOL    HW1 3950   4.316   2.697   1.278
 1017SOL    HW2 3951   4.233   2.825   1.335
 1018SOL     OW 3952   0.592   4.546   4.093
 1018SOL    HW1 3953   0.634   4.466   4.137
 1018SOL    HW2 3954   0.664   4.608   4.062
 1019SOL     OW 3955   7.011   6.369   0.823
 1019SOL    HW1 3956   0.094   6.376   0.832
 1019SOL    HW2 3957   6.988   6.344   0.730
 1020SOL     OW 3958   6.487   1.419   1.163
 1020SOL    HW1 3959   6.491   1.482   1.240
 1020SOL    HW2 3960   6.407   1.441   1.106
 1021SOL     OW 3961   5.854   0.068   1.629
 1021SOL    HW1 3962   5.787   0.050   1.701
 1021SOL    HW2 3963   5.818   0.137   1.566
 1022SOL     OW 3964   3.169   4.235   5.205
 1022SOL    HW1 3965   3.112   4.185   5.140
 1022SOL    HW2 3966   3.128   4.324   5.225
 1023SOL     OW 3967   0.364   0.506   2.927
 1023SOL    HW1 3968   0.415   0.424   2.900
 1023SOL    HW2 3969   0.424   0.565   2.982
 1024SOL     OW 3970   0.451   2.815   3.994
 1024SOL    HW1 3971   0.447   2.737   4.056
 1024SOL    HW2 3972   0.364   2.824   3.946
 1025SOL     OW 3973   3.810   3.646   1.656
 1025SOL    HW1 3974   3.758   3.561   1.667
 1025SOL    HW2 3975   3.856   3.668   1.742
 1026SOL     OW 3976   2.740   2.912   1.705
 1026SOL    HW1 3977   2.721   2.817   1.730
 1026SOL    HW2 3978   2.838   2.922   1.684
 1027SOL     OW 3979   3.439   6.544   2.337
 1027SOL    HW1 3980   3.483   6.507   2.419
 1027SOL    HW2 3981   3.363   6.484   2.310
 1028SOL     OW 3982   2.259   6.962   1.657
 1028SOL    HW1 3983   2.259   6.866   1.685
 1028SOL    HW2 3984   2.303   6.972   1.568
 1029SOL     OW 3985   1.510   0.470   6.238
 1029SOL    HW1 3986   1.433   0.412   6.265
 1029SOL    HW2 3987   1.522   0.465   6.139
 1030SOL     OW 3988   3.513   2.861   2.107
 1030SOL    HW1 3989   3.504   2.858   2.207
 1030SOL    HW2 3990   3.593   2.915   2.083
 1031SOL     OW 3991   4.466   4.107   1.115
 1031SOL    HW1 3992   4.541   4.173   1.119
 1031SOL    HW2 3993   4.387   4.142   1.165
 1032SOL     OW 3994   2.387   1.795   6.035
 1032SOL    HW1 3995   2.355   1.776   5.943
 1032SOL    HW2 3996   2.368   1.716   6.094
 1033SOL     OW 3997   1.179   6.136   1.730
 1033SOL    HW1 3998   1.143   6.117   1.822
 1033SOL    HW2 3999   1.185   6.235   1.716
 1034SOL     OW 4000   0.163   5.285   4.339
 1034SOL    HW1 4001   0.203   5.203   4.298
 1034SOL    HW2 4002   0.233   5.334   4.390
 1035SOL     OW 4003   0.463   1.379   5.108
 1035SOL    HW1 4004   0.494   1.315   5.178
 1035SOL    HW2 4005   0.480   1.340   5.018
 1036SOL     OW 4006   4.198   0.276   1.769
 1036SOL    HW1 4007   4.231   0.332   1.846
 1036SOL    HW2 4008   4.100   0.261   1.779
 1037SOL     OW 4009   1.555   0.864   2.034
 1037SOL    HW1 4010   1.563   0.835   2.129
 1037SOL    HW2 4011   1.642   0.848   1.987
 1038SOL     OW 4012   1.801   0.807   5.431
 1038SOL    HW1 4013   1.879   0.868   5.427
 1038SOL    HW2 4014   1.825   0.726   5.485
 1039SOL     OW 4015   3.349   3.721   4.620
 1039SOL    HW1 4016   3.391   3.639   4.659
 1039SOL    HW2 4017   3.322   3.703   4.525
 1040SOL     OW 4018   5.413   1.391   2.795
 1040SOL    HW1 4019   5.344   1.344   2.852
 1040SOL    HW2 4020   5.413   1.351   2.704
 1041SOL     OW 4021   0.225   6.575   3.815
 1041SOL    HW1 4022   0.255   6.663   3.853
 1041SOL    HW2 4023   0.256   6.501   3.873
 1042SOL     OW 4024   4.376   5.545   2.498
 1042SOL    HW1 4025   4.388   5.523   2.401
 1042SOL    HW2 4026   4.342   5.465   2.547
 1043SOL     OW 4027   2.975   2.235   4.397
 1043SOL    HW1 4028   2.925   2.175   4.334
 1043SOL    HW2 4029   2.957   2.331   4.374
 1044SOL     OW 4030   6.006   5.274   2.672
 1044SOL    HW1 4031   6.005   5.237   2.579
 1044SOL    HW2 4032   5.913   5.299   2.699
 1045SOL     OW 4033   3.914   0.419   2.830
 1045SOL    HW1 4034   3.998   0.455   2.790
 1045SOL    HW2 4035   3.866   0.363   2.763
 1046SOL     OW 4036   1.685   0.919   0.730
 1046SOL    HW1 4037   1.663   0.834   0.777
 1046SOL    HW2 4038   1.742   0.900   0.650
 1047SOL     OW 4039   1.931   0.151   4.139
 1047SOL    HW1 4040   1.862   0.223   4.142
 1047SOL    HW2 4041   1.911   0.090   4.062
 1048SOL     OW 4042   4.260   6.089   3.031
 1048SOL    HW1 4043   4.309   6.068   2.946
 1048SOL    HW2 4044   4.183   6.149   3.010
 1049SOL     OW 4045   6.621   6.674   3.979
 1049SOL    HW1 4046   6.529   6.635   3.974
 1049SOL    HW2 4047   6.664   6.670   3.889
 1050SOL     OW 4048   3.755   4.917   1.244
 1050SOL    HW1 4049   3.683   4.884   1.306
 1050SOL    HW2 4050   3.727   5.004   1.204
 1051SOL     OW 4051   0.845   5.404   0.551
 1051SOL    HW1 4052   0.764   5.413   0.608
 1051SOL    HW2 4053   0.856   5.308   0.524
 1052SOL     OW 4054   3.952   0.541   4.989
 1052SOL    HW1 4055   3.903   0.585   4.914
 1052SOL    HW2 4056   3.889   0.522   5.064
 1053SOL     OW 4057   6.039   4.859   2.870
 1053SOL    HW1 4058   6.109   4.826   2.935
 1053SOL    HW2 4059   6.057   4.954   2.848
 1054SOL     OW 4060   3.305   3.424   0.414
 1054SOL    HW1 4061   3.252   3.423   0.499
 1054SOL    HW2 4062   3.331   3.331   0.390
 1055SOL     OW 4063   3.783   6.267   4.902
 1055SOL    HW1 4064   3.750   6.187   4.953
 1055SOL    HW2 4065   3.706   6.310   4.855
 1056SOL     OW 4066   2.609   3.958   6.934
 1056SOL    HW1 4067   2.634   3.955   6.837
 1056SOL    HW2 4068   2.510   3.954   6.943
 1057SOL     OW 4069   3.245   3.588   1.406
 1057SOL    HW1 4070   3.248   3.488   1.401
 1057SOL    HW2 4071   3.335   3.626   1.385
 1058SOL     OW 4072   4.855   2.340   3.294
 1058SOL    HW1 4073   4.775   2.282   3.310
 1058SOL    HW2 4074   4.852   2.419   3.356
 1059SOL     OW 4075   3.188   0.532   2.171
 1059SOL    HW1 4076   3.188   0.632   2.169
 1059SOL    HW2 4077   3.270   0.497   2.126
 1060SOL     OW 4078   0.156   5.010   4.214
 1060SOL    HW1 4079   0.225   5.014   4.142
 1060SOL    HW2 4080   0.066   4.998   4.172
 1061SOL     OW 4081   6.633   2.979   0.491
 1061SOL    HW1 4082   6.591   3.044   0.428
 1061SOL    HW2 4083   6.570   2.959   0.565
 1062SOL     OW 4084   5.340   4.848   5.901
 1062SOL    HW1 4085   5.243   4.834   5.919
 1062SOL    HW2 4086   5.378   4.766   5.857
 1063SOL     OW 4087   1.136   5.360   1.242
 1063SOL    HW1 4088   1.059   5.421   1.262
 1063SOL    HW2 4089   1.144   5.348   1.143
 1064SOL     OW 4090   1.706   4.625   2.576
 1064SOL    HW1 4091   1.745   4.669   2.494
 1064SOL    HW2 4092   1.674   4.696   2.639
 1065SOL     OW 4093   4.189   1.003   3.834
 1065SOL    HW1 4094   4.236   0.963   3.912
 1065SOL    HW2 4095   4.206   0.948   3.752
 1066SOL     OW 4096   5.174   6.577   2.745
 1066SOL    HW1 4097   5.257   6.628   2.725
 1066SOL    HW2 4098   5.118   6.572   2.662
 1067SOL     OW 4099   0.891   3.088   0.811
 1067SOL    HW1 4100   0.806   3.043   0.840
 1067SOL    HW2 4101   0.969   3.031   0.836
 1068SOL     OW 4102   6.217   4.758   2.650
 1068SOL    HW1 4103   6.270   4.832   2.692
 1068SOL    HW2 4104   6.121   4.765   2.679
 1069SOL     OW 4105   4.666   5.452   0.754
 1069SOL    HW1 4106   4.658   5.496   0.843
 1069SOL    HW2 4107   4.628   5.513   0.684
 1070SOL     OW 4108   0.069   0.715   1.721
 1070SOL    HW1 4109   0.157   0.747   1.685
 1070SOL    HW2 4110   0.085   0.640   1.786
 1071SOL     OW 4111   1.511   0.935   4.181
 1071SOL    HW1 4112   1.500   0.966   4.275
 1071SOL    HW2 4113   1.535   0.838   4.179
 1072SOL     OW 4114   1.667   1.212   1.058
 1072SOL    HW1 4115   1.722   1.259   1.127
 1072SOL    HW2 4116   1.720   1.204   0.974
 1073SOL     OW 4117   4.534   0.278   2.792
 1073SOL    HW1 4118   4.575   0.339   2.724
 1073SOL    HW2 4119   4.442   0.251   2.761
 1074SOL     OW 4120   2.207   5.172   1.722
 1074SOL    HW1 4121   2.274   5.197   1.791
 1074SOL    HW2 4122   2.115   5.187   1.759
 1075SOL     OW 4123   5.316   0.441   3.557
 1075SOL    HW1 4124   5.266   0.358   3.583
 1075SOL    HW2 4125   5.404   0.416   3.518
 1076SOL     OW 4126   0.441   2.674   5.433
 1076SOL    HW1 4127   0.412   2.594   5.380
 1076SOL    HW2 4128   0.482   2.742   5.372
 1077SOL     OW 4129   5.916   0.521   1.060
 1077SOL    HW1 4130   5.958   0.434   1.033
 1077SOL    HW2 4131   5.816   0.514   1.054
 1078SOL     OW 4132   0.604   0.409   2.303
 1078SOL    HW1 4133   0.682   0.348   2.313
 1078SOL    HW2 4134   0.543   0.375   2.231
 1079SOL     OW 4135   1.625   6.632   2.183
 1079SOL    HW1 4136   1.670   6.573   2.115
 1079SOL    HW2 4137   1.678   6.715   2.196
 1080SOL     OW 4138   1.647   5.603   3.062
 1080SOL    HW1 4139   1.612   5.613   2.969
 1080SOL    HW2 4140   1.610   5.675   3.120
 1081SOL     OW 4141   6.830   4.931   6.119
 1081SOL    HW1 4142   6.920   4.971   6.101
 1081SOL    HW2 4143   6.785   4.912   6.032
 1082SOL     OW 4144   5.058   1.768   4.762
 1082SOL    HW1 4145   4.977   1.742   4.814
 1082SOL    HW2 4146   5.137   1.771   4.824
 1083SOL     OW 4147   4.834   4.187   0.562
 1083SOL    HW1 4148   4.734   4.195   0.554
 1083SOL    HW2 4149   4.873   4.168   0.472
 1084SOL     OW 4150   5.967   6.083   6.609
 1084SOL    HW1 4151   5.931   5.991   6.624
 1084SOL    HW2 4152   5.892   6.149   6.613
 1085SOL     OW 4153   1.989   3.669   4.852
 1085SOL    HW1 4154   2.011   3.683   4.756
 1085SOL    HW2 4155   1.891   3.653   4.863
 1086SOL     OW 4156   0.891   5.155   0.446
 1086SOL    HW1 4157   0.811   5.118   0.493
 1086SOL    HW2 4158   0.901   5.111   0.357
 1087SOL     OW 4159   6.176   2.145   5.004
 1087SOL    HW1 4160   6.106   2.096   5.057
 1087SOL    HW2 4161   6.227   2.206   5.064
 1088SOL     OW 4162   0.650   4.070   2.653
 1088SOL    HW1 4163   0.713   4.139   2.688
 1088SOL    HW2 4164   0.561   4.112   2.634
 1089SOL     OW 4165   0.789   6.015   4.908
 1089SOL    HW1 4166   0.774   5.933   4.853
 1089SOL    HW2 4167   0.766   6.096   4.854
 1090SOL     OW 4168   2.668   2.419   3.053
 1090SOL    HW1 4169   2.748   2.406   2.994
 1090SOL    HW2 4170   2.636   2.330   3.086
 1091SOL     OW 4171   2.804   2.034   4.612
 1091SOL    HW1 4172   2.903   2.028   4.618
 1091SOL    HW2 4173   2.773   2.122   4.649
 1092SOL     OW 4174   1.069   4.341   0.996
 1092SOL    HW1 4175   1.155   4.297   1.024
 1092SOL    HW2 4176   1.000   4.271   0.979
 1093SOL     OW 4177   1.917   1.104   1.948
 1093SOL    HW1 4178   1.879   1.012   1.936
 1093SOL    HW2 4179   2.011   1.106   1.913
 1094SOL     OW 4180   0.587   6.774   2.528
 1094SOL    HW1 4181   0.491   6.767   2.556
 1094SOL    HW2 4182   0.642   6.715   2.587
 1095SOL     OW 4183   1.119   2.834   6.284
 1095SOL    HW1 4184   1.179   2.806   6.208
 1095SOL    HW2 4185   1.039   2.881   6.247
 1096SOL     OW 4186   3.486   4.400   1.705
 1096SOL    HW1 4187   3.507   4.490   1.744
 1096SOL    HW2 4188   3.497   4.329   1.775
 1097SOL     OW 4189   2.430   4.407   4.227
 1097SOL    HW1 4190   2.381   4.484   4.187
 1097SOL    HW2 4191   2.383   4.321   4.205
 1098SOL     OW 4192   4.828   3.792   6.556
 1098SOL    HW1 4193   4.768   3.871   6.540
 1098SOL    HW2 4194   4.776   3.720   6.602
 1099SOL     OW 4195   3.380   1.006   5.961
 1099SOL    HW1 4196   3.434   1.088   5.944
 1099SOL    HW2 4197   3.302   1.029   6.019
 1100SOL     OW 4198   4.282   1.560   4.331
 1100SOL    HW1 4199   4.211   1.500   4.369
 1100SOL    HW2 4200   4.268   1.570   4.233
 1101SOL     OW 4201   5.593   3.178   5.810
 1101SOL    HW1 4202   5.654   3.257   5.816
 1101SOL    HW2 4203   5.507   3.199   5.856
 1102SOL     OW 4204   0.738   0.149   4.794
 1102SOL    HW1 4205   0.748   0.115   4.700
 1102SOL    HW2 4206   0.660   0.103   4.837
 1103SOL     OW 4207   4.474   1.822   6.707
 1103SOL    HW1 4208   4.448   1.878   6.786
 1103SOL    HW2 4209   4.563   1.779   6.725
 1104SOL     OW 4210   1.929   3.112   5.776
 1104SOL    HW1 4211   1.932   3.207   5.745
 1104SOL    HW2 4212   2.022   3.077   5.786
 1105SOL     OW 4213   6.036   4.078   4.982
 1105SOL    HW1 4214   6.012   4.157   5.039
 1105SOL    HW2 4215   5.966   4.007   4.992
 1106SOL     OW 4216   0.233   2.577   1.279
 1106SOL    HW1 4217   0.277   2.493   1.247
 1106SOL    HW2 4218   0.298   2.653   1.274
 1107SOL     OW 4219   0.920   0.770   0.178
 1107SOL    HW1 4220   0.898   0.767   0.275
 1107SOL    HW2 4221   0.880   0.852   0.137
 1108SOL     OW 4222   3.187   0.032   5.291
 1108SOL    HW1 4223   3.279   7.011   5.308
 1108SOL    HW2 4224   3.121   6.974   5.294
 1109SOL     OW 4225   5.061   1.096   3.987
 1109SOL    HW1 4226   4.968   1.132   3.981
 1109SOL    HW2 4227   5.104   1.100   3.897
 1110SOL     OW 4228   3.553   2.123   2.959
 1110SOL    HW1 4229   3.468   2.161   2.997
 1110SOL    HW2 4230   3.541   2.026   2.939
 1111SOL     OW 4231   4.619   5.298   6.212
 1111SOL    HW1 4232   4.688   5.362   6.247
 1111SOL    HW2 4233   4.528   5.333   6.233
 1112SOL     OW 4234   5.639   0.985   2.575
 1112SOL    HW1 4235   5.572   1.012   2.505
 1112SOL    HW2 4236   5.706   0.923   2.534
 1113SOL     OW 4237   5.913   4.432   1.804
 1113SOL    HW1 4238   5.877   4.436   1.710
 1113SOL    HW2 4239   5.854   4.372   1.859
 1114SOL     OW 4240   3.470   2.044   6.117
 1114SOL    HW1 4241   3.388   2.020   6.066
 1114SOL    HW2 4242   3.550   2.000   6.076
 1115SOL     OW 4243   3.892   3.182   6.098
 1115SOL    HW1 4244   3.918   3.250   6.030
 1115SOL    HW2 4245   3.797   3.197   6.126
 1116SOL     OW 4246   4.786   6.668   5.561
 1116SOL    HW1 4247   4.838   6.724   5.497
 1116SOL    HW2 4248   4.841   6.589   5.590
 1117SOL     OW 4249   1.986   2.612   2.130
 1117SOL    HW1 4250   1.955   2.589   2.223
 1117SOL    HW2 4251   2.086   2.608   2.127
 1118SOL     OW 4252   3.158   4.713   0.233
 1118SOL    HW1 4253   3.207   4.673   0.156
 1118SOL    HW2 4254   3.109   4.642   0.283
 1119SOL     OW 4255   4.148   4.680   1.904
 1119SOL    HW1 4256   4.239   4.687   1.863
 1119SOL    HW2 4257   4.120   4.585   1.906
 1120SOL     OW 4258   5.839   6.638   0.360
 1120SOL    HW1 4259   5.894   6.572   0.411
 1120SOL    HW2 4260   5.787   6.591   0.289
 1121SOL     OW 4261   6.132   4.267   4.362
 1121SOL    HW1 4262   6.213   4.209   4.359
 1121SOL    HW2 4263   6.055   4.214   4.396
 1122SOL     OW 4264   5.208   2.203   1.337
 1122SOL    HW1 4265   5.210   2.157   1.248
 1122SOL    HW2 4266   5.133   2.269   1.338
 1123SOL     OW 4267   5.309   1.963   3.012
 1123SOL    HW1 4268   5.280   1.912   3.094
 1123SOL    HW2 4269   5.372   2.036   3.038
 1124SOL     OW 4270   0.049   3.619   5.378
 1124SOL    HW1 4271   6.980   3.596   5.331
 1124SOL    HW2 4272   0.028   3.655   5.469
 1125SOL     OW 4273   2.504   2.556   3.740
 1125SOL    HW1 4274   2.431   2.492   3.762
 1125SOL    HW2 4275   2.579   2.545   3.805
 1126SOL     OW 4276   5.378   5.249   0.238
 1126SOL    HW1 4277   5.433   5.327   0.267
 1126SOL    HW2 4278   5.295   5.281   0.194
 1127SOL     OW 4279   5.423   5.328   4.553
 1127SOL    HW1 4280   5.455   5.397   4.617
 1127SOL    HW2 4281   5.405   5.372   4.464
 1128SOL     OW 4282   6.093   1.408   5.234
 1128SOL    HW1 4283   6.176   1.427   5.287
 1128SOL    HW2 4284   6.118   1.375   5.143
 1129SOL     OW 4285   1.505   6.954   0.887
 1129SOL    HW1 4286   1.536   7.010   0.964
 1129SOL    HW2 4287   1.405   6.947   0.889
 1130SOL     OW 4288   2.815   5.167   0.644
 1130SOL    HW1 4289   2.795   5.099   0.714
 1130SOL    HW2 4290   2.746   5.161   0.572
 1131SOL     OW 4291   1.264   5.968   5.641
 1131SOL    HW1 4292   1.212   6.017   5.571
 1131SOL    HW2 4293   1.350   5.936   5.602
 1132SOL     OW 4294   5.287   0.062   2.302
 1132SOL    HW1 4295   5.219   0.069   2.229
 1132SOL    HW2 4296   5.338   6.992   2.292
 1133SOL     OW 4297   0.578   1.190   0.647
 1133SOL    HW1 4298   0.519   1.168   0.569
 1133SOL    HW2 4299   0.658   1.129   0.646
 1134SOL     OW 4300   5.167   0.206   2.493
 1134SOL    HW1 4301   5.202   0.156   2.413
 1134SOL    HW2 4302   5.235   0.203   2.566
 1135SOL     OW 4303   2.511   6.872   3.335
 1135SOL    HW1 4304   2.531   6.814   3.414
 1135SOL    HW2 4305   2.412   6.885   3.328
 1136SOL     OW 4306   4.246   4.715   3.369
 1136SOL    HW1 4307   4.233   4.768   3.286
 1136SOL    HW2 4308   4.332   4.665   3.364
 1137SOL     OW 4309   1.104   6.619   7.001
 1137SOL    HW1 4310   1.076   6.668   0.067
 1137SOL    HW2 4311   1.116   6.522   0.006
 1138SOL     OW 4312   0.100   1.009   6.114
 1138SOL    HW1 4313   0.162   0.950   6.165
 1138SOL    HW2 4314   0.090   1.097   6.161
 1139SOL     OW 4315   3.099   4.847   2.661
 1139SOL    HW1 4316   3.042   4.817   2.585
 1139SOL    HW2 4317   3.111   4.946   2.657
 1140SOL     OW 4318   2.848   1.125   2.328
 1140SOL    HW1 4319   2.798   1.161   2.407
 1140SOL    HW2 4320   2.836   1.186   2.250
 1141SOL     OW 4321   0.817   6.326   6.771
 1141SOL    HW1 4322   0.778   6.309   6.862
 1141SOL    HW2 4323   0.882   6.401   6.776
 1142SOL     OW 4324   3.286   6.991   4.353
 1142SOL    HW1 4325   3.355   6.974   4.283
 1142SOL    HW2 4326   3.308   0.060   4.400
 1143SOL     OW 4327   2.082   2.980   3.319
 1143SOL    HW1 4328   2.157   2.963   3.256
 1143SOL    HW2 4329   2.119   3.010   3.407
 1144SOL     OW 4330   5.995   4.517   4.170
 1144SOL    HW1 4331   5.900   4.510   4.138
 1144SOL    HW2 4332   6.010   4.449   4.242
 1145SOL     OW 4333   6.335   3.764   1.743
 1145SOL    HW1 4334   6.377   3.744   1.831
 1145SOL    HW2 4335   6.404   3.799   1.680
 1146SOL     OW 4336   6.727   0.850   2.948
 1146SOL    HW1 4337   6.673   0.930   2.922
 1146SOL    HW2 4338   6.810   0.847   2.893
 1147SOL     OW 4339   2.694   5.784   1.720
 1147SOL    HW1 4340   2.759   5.858   1.700
 1147SOL    HW2 4341   2.711   5.707   1.659
 1148SOL     OW 4342   4.188   6.041   0.100
 1148SOL    HW1 4343   4.262   6.024   0.035
 1148SOL    HW2 4344   4.227   6.055   0.191
 1149SOL     OW 4345   5.827   3.326   2.813
 1149SOL    HW1 4346   5.885   3.246   2.801
 1149SOL    HW2 4347   5.838   3.388   2.735
 1150SOL     OW 4348   0.868   3.525   0.224
 1150SOL    HW1 4349   0.878   3.612   0.272
 1150SOL    HW2 4350   0.937   3.461   0.255
 1151SOL     OW 4351   5.177   4.044   6.474
 1151SOL    HW1 4352   5.244   4.022   6.403
 1151SOL    HW2 4353   5.093   4.079   6.431
 1152SOL     OW 4354   5.115   5.291   0.132
 1152SOL    HW1 4355   5.105   5.289   0.032
 1152SOL    HW2 4356   5.061   5.218   0.172
 1153SOL     OW 4357   0.711   0.208   1.805
 1153SOL    HW1 4358   0.753   0.120   1.826
 1153SOL    HW2 4359   0.632   0.222   1.864
 1154SOL     OW 4360   6.500   4.228   1.871
 1154SOL    HW1 4361   6.555   4.186   1.943
 1154SOL    HW2 4362   6.473   4.158   1.805
 1155SOL     OW 4363   2.295   4.615   6.024
 1155SOL    HW1 4364   2.295   4.566   5.937
 1155SOL    HW2 4365   2.238   4.566   6.090
 1156SOL     OW 4366   4.480   1.759   4.971
 1156SOL    HW1 4367   4.447   1.750   4.877
 1156SOL    HW2 4368   4.413   1.719   5.034
 1157SOL     OW 4369   5.217   1.603   6.129
 1157SOL    HW1 4370   5.236   1.693   6.170
 1157SOL    HW2 4371   5.202   1.536   6.202
 1158SOL     OW 4372   0.001   4.789   5.547
 1158SOL    HW1 4373   6.937   4.827   5.500
 1158SOL    HW2 4374   0.036   4.711   5.497
 1159SOL     OW 4375   6.548   0.025   3.482
 1159SOL    HW1 4376   6.497   0.110   3.495
 1159SOL    HW2 4377   6.618   0.040   3.412
 1160SOL     OW 4378   5.237   4.532   1.160
 1160SOL    HW1 4379   5.147   4.492   1.143
 1160SOL    HW2 4380   5.241   4.622   1.118
 1161SOL     OW 4381   5.629   5.949   5.881
 1161SOL    HW1 4382   5.702   5.924   5.817
 1161SOL    HW2 4383   5.544   5.963   5.830
 1162SOL     OW 4384   3.256   3.054   0.023
 1162SOL    HW1 4385   3.204   3.140   0.016
 1162SOL    HW2 4386   3.225   2.991   6.968
 1163SOL     OW 4387   6.813   3.834   1.947
 1163SOL    HW1 4388   6.910   3.857   1.950
 1163SOL    HW2 4389   6.799   3.745   1.990
 1164SOL     OW 4390   5.699   2.862   4.184
 1164SOL    HW1 4391   5.729   2.878   4.278
 1164SOL    HW2 4392   5.615   2.808   4.184
 1165SOL     OW 4393   3.676   5.303   3.840
 1165SOL    HW1 4394   3.693   5.209   3.810
 1165SOL    HW2 4395   3.719   5.367   3.776
 1166SOL     OW 4396   3.894   6.804   6.863
 1166SOL    HW1 4397   3.828   6.730   6.880
 1166SOL    HW2 4398   3.850   6.892   6.882
 1167SOL     OW 4399   4.247   6.456   6.999
 1167SOL    HW1 4400   4.310   6.534   7.007
 1167SOL    HW2 4401   4.184   6.472   6.923
 1168SOL     OW 4402   5.635   2.385   2.605
 1168SOL    HW1 4403   5.594   2.342   2.685
 1168SOL    HW2 4404   5.606   2.481   2.600
 1169SOL     OW 4405   4.655   2.827   5.801
 1169SOL    HW1 4406   4.663   2.834   5.901
 1169SOL    HW2 4407   4.745   2.805   5.763
 1170SOL     OW 4408   5.239   0.020   2.914
 1170SOL    HW1 4409   5.156   7.004   2.959
 1170SOL    HW2 4410   5.265   6.971   2.842
 1171SOL     OW 4411   2.169   6.433   6.994
 1171SOL    HW1 4412   2.225   6.373   6.938
 1171SOL    HW2 4413   2.217   6.454   0.063
 1172SOL     OW 4414   3.423   4.090   1.554
 1172SOL    HW1 4415   3.511   4.048   1.529
 1172SOL    HW2 4416   3.350   4.023   1.541
 1173SOL     OW 4417   3.073   1.128   0.501
 1173SOL    HW1 4418   3.081   1.034   0.469
 1173SOL    HW2 4419   3.161   1.159   0.536
 1174SOL     OW 4420   2.618   5.076   1.939
 1174SOL    HW1 4421   2.639   4.983   1.970
 1174SOL    HW2 4422   2.695   5.136   1.961
 1175SOL     OW 4423   4.518   4.694   6.557
 1175SOL    HW1 4424   4.528   4.791   6.535
 1175SOL    HW2 4425   4.434   4.659   6.516
 1176SOL     OW 4426   5.791   3.691   6.533
 1176SOL    HW1 4427   5.879   3.661   6.496
 1176SOL    HW2 4428   5.773   3.785   6.505
 1177SOL     OW 4429   0.019   3.516   4.652
 1177SOL    HW1 4430   6.942   3.539   4.679
 1177SOL    HW2 4431   0.040   3.557   4.564
 1178SOL     OW 4432   3.926   3.933   0.477
 1178SOL    HW1 4433   3.996   3.987   0.523
 1178SOL    HW2 4434   3.935   3.837   0.505
 1179SOL     OW 4435   2.149   6.296   1.246
 1179SOL    HW1 4436   2.154   6.243   1.331
 1179SOL    HW2 4437   2.189   6.244   1.171
 1180SOL     OW 4438   2.708   5.911   4.498
 1180SOL    HW1 4439   2.662   5.885   4.583
 1180SOL    HW2 4440   2.667   5.861   4.422
 1181SOL     OW 4441   0.068   4.244   5.398
 1181SOL    HW1 4442   0.029   4.152   5.399
 1181SOL    HW2 4443   0.096   4.270   5.490
 1182SOL     OW 4444   4.166   5.122   3.523
 1182SOL    HW1 4445   4.133   5.032   3.552
 1182SOL    HW2 4446   4.266   5.121   3.520
 1183SOL     OW 4447   3.095   4.614   1.499
 1183SOL    HW1 4448   3.078   4.635   1.595
 1183SOL    HW2 4449   3.171   4.670   1.465
 1184SOL     OW 4450   0.210   1.304   5.334
 1184SOL    HW1 4451   0.154   1.238   5.283
 1184SOL    HW2 4452   0.305   1.271   5.337
 1185SOL     OW 4453   1.145   1.004   0.489
 1185SOL    HW1 4454   1.059   0.957   0.469
 1185SOL    HW2 4455   1.212   0.939   0.524
 1186SOL     OW 4456   4.761   6.212   5.050
 1186SOL    HW1 4457   4.701   6.176   5.122
 1186SOL    HW2 4458   4.758   6.312   5.051
 1187SOL     OW 4459   5.195   0.367   4.821
 1187SOL    HW1 4460   5.242   0.424   4.888
 1187SOL    HW2 4461   5.246   0.367   4.735
 1188SOL     OW 4462   2.514   5.057   6.213
 1188SOL    HW1 4463   2.592   5.016   6.260
 1188SOL    HW2 4464   2.452   4.985   6.182
 1189SOL     OW 4465   6.286   1.879   1.990
 1189SOL    HW1 4466   6.295   1.860   2.087
 1189SOL    HW2 4467   6.304   1.977   1.974
 1190SOL     OW 4468   2.915   5.621   2.891
 1190SOL    HW1 4469   2.886   5.690   2.958
 1190SOL    HW2 4470   2.844   5.612   2.821
 1191SOL     OW 4471   4.544   5.931   4.465
 1191SOL    HW1 4472   4.475   5.965   4.528
 1191SOL    HW2 4473   4.570   6.004   4.401
 1192SOL     OW 4474   5.189   5.135   3.462
 1192SOL    HW1 4475   5.192   5.095   3.554
 1192SOL    HW2 4476   5.282   5.138   3.424
 1193SOL     OW 4477   0.036   2.249   5.588
 1193SOL    HW1 4478   0.024   2.287   5.497
 1193SOL    HW2 4479   6.965   2.209   5.619
 1194SOL     OW 4480   6.295   1.116   1.498
 1194SOL    HW1 4481   6.387   1.085   1.523
 1194SOL    HW2 4482   6.296   1.216   1.486
 1195SOL     OW 4483   0.190   3.679   0.291
 1195SOL    HW1 4484   0.107   3.640   0.252
 1195SOL    HW2 4485   0.182   3.681   0.391
 1196SOL     OW 4486   6.929   4.909   3.514
 1196SOL    HW1 4487   6.886   4.862   3.437
 1196SOL    HW2 4488   6.860   4.961   3.564
 1197SOL     OW 4489   4.562   6.401   4.695
 1197SOL    HW1 4490   4.476   6.412   4.645
 1197SOL    HW2 4491   4.619   6.482   4.679
 1198SOL     OW 4492   1.930   3.488   2.487
 1198SOL    HW1 4493   1.862   3.421   2.514
 1198SOL    HW2 4494   1.963   3.467   2.395
 1199SOL     OW 4495   3.530   3.707   2.500
 1199SOL    HW1 4496   3.471   3.676   2.574
 1199SOL    HW2 4497   3.486   3.688   2.412
 1200SOL     OW 4498   2.996   4.039   5.091
 1200SOL    HW1 4499   2.970   4.076   5.002
 1200SOL    HW2 4500   2.917   4.038   5.152
 1201SOL     OW 4501   1.011   1.291   4.075
 1201SOL    HW1 4502   0.919   1.329   4.062
 1201SOL    HW2 4503   1.079   1.363   4.069
 1202SOL     OW 4504   0.039   5.947   5.583
 1202SOL    HW1 4505   0.042   5.881   5.658
 1202SOL    HW2 4506   6.977   6.008   5.596
 1203SOL     OW 4507   0.517   5.215   0.658
 1203SOL    HW1 4508   0.514   5.207   0.757
 1203SOL    HW2 4509   0.559   5.302   0.633
 1204SOL     OW 4510   4.731   1.732   0.974
 1204SOL    HW1 4511   4.638   1.713   0.944
 1204SOL    HW2 4512   4.749   1.688   1.062
 1205SOL     OW 4513   3.990   3.657   0.521
 1205SOL    HW1 4514   3.920   3.615   0.579
 1205SOL    HW2 4515   4.078   3.613   0.538
 1206SOL     OW 4516   2.697   2.770   5.410
 1206SOL    HW1 4517   2.657   2.838   5.471
 1206SOL    HW2 4518   2.641   2.762   5.328
 1207SOL     OW 4519   1.088   0.170   1.009
 1207SOL    HW1 4520   1.080   0.070   1.018
 1207SOL    HW2 4521   1.117   0.192   0.916
 1208SOL     OW 4522   3.490   3.714   1.385
 1208SOL    HW1 4523   3.512   3.791   1.445
 1208SOL    HW2 4524   3.558   3.642   1.396
 1209SOL     OW 4525   4.649   0.231   3.961
 1209SOL    HW1 4526   4.684   0.197   3.873
 1209SOL    HW2 4527   4.614   0.155   4.015
 1210SOL     OW 4528   4.069   0.003   3.423
 1210SOL    HW1 4529   4.092   6.980   3.334
 1210SOL    HW2 4530   4.063   0.102   3.416
 1211SOL     OW 4531   1.325   3.254   3.147
 1211SOL    HW1 4532   1.256   3.211   3.204
 1211SOL    HW2 4533   1.323   3.214   3.056
 1212SOL     OW 4534   6.470   0.401   5.944
 1212SOL    HW1 4535   6.399   0.440   5.886
 1212SOL    HW2 4536   6.500   0.469   6.011
 1213SOL     OW 4537   6.221   2.874   1.483
 1213SOL    HW1 4538   6.158   2.833   1.417
 1213SOL    HW2 4539   6.239   2.809   1.556
 1214SOL     OW 4540   1.367   3.511   0.119
 1214SOL    HW1 4541   1.276   3.509   0.077
 1214SOL    HW2 4542   1.368   3.449   0.198
 1215SOL     OW 4543   0.638   4.825   3.388
 1215SOL    HW1 4544   0.656   4.896   3.321
 1215SOL    HW2 4545   0.715   4.819   3.453
 1216SOL     OW 4546   5.335   0.811   0.503
 1216SOL    HW1 4547   5.291   0.750   0.569
 1216SOL    HW2 4548   5.423   0.843   0.539
 1217SOL     OW 4549   2.863   4.357   1.125
 1217SOL    HW1 4550   2.894   4.272   1.082
 1217SOL    HW2 4551   2.910   4.368   1.212
 1218SOL     OW 4552   1.385   3.016   5.081
 1218SOL    HW1 4553   1.437   2.953   5.024
 1218SOL    HW2 4554   1.423   3.108   5.072
 1219SOL     OW 4555   5.799   6.161   1.764
 1219SOL    HW1 4556   5.763   6.177   1.856
 1219SOL    HW2 4557   5.894   6.192   1.760
 1220SOL     OW 4558   0.896   4.642   2.583
 1220SOL    HW1 4559   0.934   4.732   2.602
 1220SOL    HW2 4560   0.810   4.652   2.534
 1221SOL     OW 4561   4.093   3.932   6.412
 1221SOL    HW1 4562   4.139   3.931   6.323
 1221SOL    HW2 4563   3.996   3.952   6.399
 1222SOL     OW 4564   6.621   1.274   6.646
 1222SOL    HW1 4565   6.574   1.266   6.558
 1222SOL    HW2 4566   6.716   1.245   6.636
 1223SOL     OW 4567   4.217   1.664   0.442
 1223SOL    HW1 4568   4.161   1.745   0.428
 1223SOL    HW2 4569   4.171   1.602   0.506
 1224SOL     OW 4570   3.697   5.984   0.362
 1224SOL    HW1 4571   3.650   5.928   0.431
 1224SOL    HW2 4572   3.755   6.051   0.407
 1225SOL     OW 4573   3.429   3.281   6.557
 1225SOL    HW1 4574   3.392   3.188   6.553
 1225SOL    HW2 4575   3.507   3.283   6.619
 1226SOL     OW 4576   2.823   6.858   1.370
 1226SOL    HW1 4577   2.882   6.866   1.451
 1226SOL    HW2 4578   2.794   6.950   1.342
 1227SOL     OW 4579   5.325   4.724   6.210
 1227SOL    HW1 4580   5.243   4.714   6.267
 1227SOL    HW2 4581   5.337   4.820   6.186
 1228SOL     OW 4582   2.890   2.325   5.957
 1228SOL    HW1 4583   2.853   2.377   5.880
 1228SOL    HW2 4584   2.826   2.330   6.034
 1229SOL     OW 4585   3.117   5.641   5.855
 1229SOL    HW1 4586   3.158   5.576   5.918
 1229SOL    HW2 4587   3.179   5.718   5.840
 1230SOL     OW 4588   5.040   6.791   2.270
 1230SOL    HW1 4589   5.129   6.763   2.306
 1230SOL    HW2 4590   5.048   6.812   2.173
 1231SOL     OW 4591   1.747   2.035   5.231
 1231SOL    HW1 4592   1.684   1.962   5.257
 1231SOL    HW2 4593   1.839   2.013   5.264
 1232SOL     OW 4594   0.213   1.967   5.470
 1232SOL    HW1 4595   0.300   2.014   5.454
 1232SOL    HW2 4596   0.215   1.924   5.560
 1233SOL     OW 4597   0.787   5.090   5.228
 1233SOL    HW1 4598   0.782   5.153   5.306
 1233SOL    HW2 4599   0.753   5.136   5.146
 1234SOL     OW 4600   6.464   2.816   5.643
 1234SOL    HW1 4601   6.473   2.721   5.611
 1234SOL    HW2 4602   6.370   2.848   5.626
 1235SOL     OW 4603   6.134   5.576   3.053
 1235SOL    HW1 4604   6.170   5.654   3.105
 1235SOL    HW2 4605   6.055   5.605   3.000
 1236SOL     OW 4606   4.768   0.890   6.809
 1236SOL    HW1 4607   4.845   0.915   6.750
 1236SOL    HW2 4608   4.714   0.972   6.830
 1237SOL     OW 4609   2.414   4.370   6.211
 1237SOL    HW1 4610   2.506   4.353   6.244
 1237SOL    HW2 4611   2.395   4.468   6.213
 1238SOL     OW 4612   1.053   0.906   0.886
 1238SOL    HW1 4613   1.133   0.879   0.832
 1238SOL    HW2 4614   1.077   0.984   0.944
 1239SOL     OW 4615   6.702   6.378   6.672
 1239SOL    HW1 4616   6.796   6.395   6.701
 1239SOL    HW2 4617   6.649   6.342   6.749
 1240SOL     OW 4618   5.330   6.326   1.022
 1240SOL    HW1 4619   5.404   6.259   1.028
 1240SOL    HW2 4620   5.284   6.317   0.934
 1241SOL     OW 4621   5.524   3.391   4.091
 1241SOL    HW1 4622   5.610   3.340   4.095
 1241SOL    HW2 4623   5.487   3.402   4.183
 1242SOL     OW 4624   0.760   3.413   1.459
 1242SOL    HW1 4625   0.843   3.408   1.404
 1242SOL    HW2 4626   0.768   3.490   1.524
 1243SOL     OW 4627   0.277   0.161   4.984
 1243SOL    HW1 4628   0.360   0.115   4.954
 1243SOL    HW2 4629   0.275   0.254   4.946
 1244SOL     OW 4630   5.825   6.795   4.856
 1244SOL    HW1 4631   5.800   6.701   4.879
 1244SOL    HW2 4632   5.915   6.796   4.813
 1245SOL     OW 4633   5.548   4.403   0.781
 1245SOL    HW1 4634   5.610   4.477   0.805
 1245SOL    HW2 4635   5.600   4.330   0.735
 1246SOL     OW 4636   2.772   0.418   1.024
 1246SOL    HW1 4637   2.827   0.424   1.107
 1246SOL    HW2 4638   2.743   0.509   0.996
 1247SOL     OW 4639   0.953   6.684   6.244
 1247SOL    HW1 4640   1.033   6.625   6.258
 1247SOL    HW2 4641   0.965   6.738   6.160
 1248SOL     OW 4642   2.062   0.358   4.923
 1248SOL    HW1 4643   2.035   0.392   4.833
 1248SOL    HW2 4644   2.075   0.435   4.985
 1249SOL     OW 4645   6.234   1.946   2.579
 1249SOL    HW1 4646   6.272   2.018   2.637
 1249SOL    HW2 4647   6.147   1.976   2.541
 1250SOL     OW 4648   5.987   5.115   4.043
 1250SOL    HW1 4649   5.931   5.193   4.071
 1250SOL    HW2 4650   6.072   5.115   4.095
 1251SOL     OW 4651   2.481   0.490   3.571
 1251SOL    HW1 4652   2.573   0.485   3.611
 1251SOL    HW2 4653   2.414   0.503   3.643
 1252SOL     OW 4654   4.641   3.437   6.163
 1252SOL    HW1 4655   4.689   3.374   6.225
 1252SOL    HW2 4656   4.585   3.384   6.099
 1253SOL     OW 4657   2.773   5.922   2.398
 1253SOL    HW1 4658   2.795   6.008   2.443
 1253SOL    HW2 4659   2.736   5.941   2.307
 1254SOL     OW 4660   0.926   3.090   2.637
 1254SOL    HW1 4661   0.908   3.108   2.734
 1254SOL    HW2 4662   0.932   3.176   2.587
 1255SOL     OW 4663   5.764   1.598   5.477
 1255SOL    HW1 4664   5.793   1.522   5.535
 1255SOL    HW2 4665   5.679   1.573   5.430
 1256SOL     OW 4666   6.968   6.644   3.305
 1256SOL    HW1 4667   7.001   6.731   3.340
 1256SOL    HW2 4668   6.945   6.584   3.382
 1257SOL     OW 4669   6.504   6.387   5.508
 1257SOL    HW1 4670   6.565   6.433   5.573
 1257SOL    HW2 4671   6.491   6.292   5.535
 1258SOL     OW 4672   1.961   5.142   2.683
 1258SOL    HW1 4673   1.902   5.169   2.606
 1258SOL    HW2 4674   2.024   5.070   2.653
 1259SOL     OW 4675   4.111   0.660   3.912
 1259SOL    HW1 4676   4.129   0.740   3.854
 1259SOL    HW2 4677   4.016   0.632   3.903
 1260SOL     OW 4678   2.004   1.469   0.344
 1260SOL    HW1 4679   2.028   1.559   0.380
 1260SOL    HW2 4680   2.027   1.463   0.247
 1261SOL     OW 4681   0.070   5.805   6.886
 1261SOL    HW1 4682   0.161   5.835   6.856
 1261SOL    HW2 4683   0.002   5.827   6.816
 1262SOL     OW 4684   5.822   4.580   1.320
 1262SOL    HW1 4685   5.738   4.551   1.274
 1262SOL    HW2 4686   5.814   4.677   1.344
 1263SOL     OW 4687   0.292   2.498   1.968
 1263SOL    HW1 4688   0.201   2.457   1.961
 1263SOL    HW2 4689   0.287   2.577   2.030
 1264SOL     OW 4690   6.604   4.651   0.849
 1264SOL    HW1 4691   6.618   4.749   0.833
 1264SOL    HW2 4692   6.564   4.610   0.767
 1265SOL     OW 4693   5.894   5.383   4.822
 1265SOL    HW1 4694   5.858   5.476   4.809
 1265SOL    HW2 4695   5.860   5.324   4.749
 1266SOL     OW 4696   0.604   1.687   4.152
 1266SOL    HW1 4697   0.694   1.707   4.114
 1266SOL    HW2 4698   0.582   1.590   4.136
 1267SOL     OW 4699   4.675   6.997   1.389
 1267SOL    HW1 4700   4.743   6.981   1.461
 1267SOL    HW2 4701   4.598   0.032   1.428
 1268SOL     OW 4702   2.690   2.511   0.694
 1268SOL    HW1 4703   2.679   2.474   0.602
 1268SOL    HW2 4704   2.766   2.576   0.695
 1269SOL     OW 4705   5.832   4.027   4.736
 1269SOL    HW1 4706   5.813   3.930   4.719
 1269SOL    HW2 4707   5.818   4.047   4.833
 1270SOL     OW 4708   1.570   3.034   3.638
 1270SOL    HW1 4709   1.562   3.130   3.609
 1270SOL    HW2 4710   1.550   3.027   3.735
 1271SOL     OW 4711   2.544   2.179   3.141
 1271SOL    HW1 4712   2.454   2.143   3.117
 1271SOL    HW2 4713   2.603   2.104   3.171
 1272SOL     OW 4714   5.888   4.139   0.218
 1272SOL    HW1 4715   5.806   4.125   0.274
 1272SOL    HW2 4716   5.890   4.233   0.184
 1273SOL     OW 4717   0.447   2.809   6.937
 1273SOL    HW1 4718   0.428   2.722   6.891
 1273SOL    HW2 4719   0.491   2.792   0.009
 1274SOL     OW 4720   6.906   4.332   1.622
 1274SOL    HW1 4721   6.846   4.362   1.548
 1274SOL    HW2 4722   6.885   4.383   1.705
 1275SOL     OW 4723   3.760   1.380   4.432
 1275SOL    HW1 4724   3.810   1.444   4.491
 1275SOL    HW2 4725   3.820   1.347   4.359
 1276SOL     OW 4726   6.541   4.994   5.283
 1276SOL    HW1 4727   6.632   4.966   5.312
 1276SOL    HW2 4728   6.533   5.094   5.288
 1277SOL     OW 4729   1.559   5.435   5.836
 1277SOL    HW1 4730   1.559   5.349   5.785
 1277SOL    HW2 4731   1.582   5.510   5.775
 1278SOL     OW 4732   0.877   6.667   5.328
 1278SOL    HW1 4733   0.917   6.594   5.383
 1278SOL    HW2 4734   0.838   6.628   5.245
 1279SOL     OW 4735   2.429   4.933   0.356
 1279SOL    HW1 4736   2.526   4.917   0.339
 1279SOL    HW2 4737   2.410   4.921   0.454
 1280SOL     OW 4738   4.415   6.320   3.883
 1280SOL    HW1 4739   4.419   6.381   3.804
 1280SOL    HW2 4740   4.471   6.357   3.957
 1281SOL     OW 4741   2.234   6.629   3.293
 1281SOL    HW1 4742   2.205   6.644   3.199
 1281SOL    HW2 4743   2.297   6.551   3.298
 1282SOL     OW 4744   6.710   2.586   0.201
 1282SOL    HW1 4745   6.734   2.530   0.122
 1282SOL    HW2 4746   6.793   2.604   0.255
 1283SOL     OW 4747   6.571   3.631   5.302
 1283SOL    HW1 4748   6.597   3.592   5.390
 1283SOL    HW2 4749   6.472   3.623   5.290
 1284SOL     OW 4750   4.793   1.692   1.502
 1284SOL    HW1 4751   4.779   1.686   1.403
 1284SOL    HW2 4752   4.884   1.655   1.524
 1285SOL     OW 4753   4.361   2.189   5.996
 1285SOL    HW1 4754   4.266   2.190   6.026
 1285SOL    HW2 4755   4.366   2.147   5.905
 1286SOL     OW 4756   4.377   3.977   1.438
 1286SOL    HW1 4757   4.400   3.881   1.422
 1286SOL    HW2 4758   4.411   4.005   1.528
 1287SOL     OW 4759   5.709   4.877   5.053
 1287SOL    HW1 4760   5.746   4.969   5.048
 1287SOL    HW2 4761   5.762   4.823   5.118
 1288SOL     OW 4762   4.026   3.223   6.874
 1288SOL    HW1 4763   4.049   3.126   6.884
 1288SOL    HW2 4764   3.976   3.254   6.955
 1289SOL     OW 4765   6.841   6.613   0.739
 1289SOL    HW1 4766   6.760   6.625   0.797
 1289SOL    HW2 4767   6.894   6.534   0.771
 1290SOL     OW 4768   0.861   6.468   0.130
 1290SOL    HW1 4769   0.813   6.468   0.043
 1290SOL    HW2 4770   0.815   6.529   0.195
 1291SOL     OW 4771   0.812   4.347   4.173
 1291SOL    HW1 4772   0.744   4.286   4.133
 1291SOL    HW2 4773   0.904   4.313   4.154
 1292SOL     OW 4774   0.330   6.044   2.387
 1292SOL    HW1 4775   0.395   6.071   2.458
 1292SOL    HW2 4776   0.373   5.976   2.328
 1293SOL     OW 4777   1.773   2.313   0.533
 1293SOL    HW1 4778   1.694   2.255   0.513
 1293SOL    HW2 4779   1.849   2.287   0.473
 1294SOL     OW 4780   0.655   3.335   6.145
 1294SOL    HW1 4781   0.608   3.369   6.064
 1294SOL    HW2 4782   0.691   3.412   6.198
 1295SOL     OW 4783   0.576   3.815   1.463
 1295SOL    HW1 4784   0.576   3.728   1.513
 1295SOL    HW2 4785   0.615   3.801   1.373
 1296SOL     OW 4786   3.603   6.396   5.121
 1296SOL    HW1 4787   3.656   6.351   5.193
 1296SOL    HW2 4788   3.643   6.485   5.100
 1297SOL     OW 4789   6.878   0.021   1.432
 1297SOL    HW1 4790   6.794   0.074   1.425
 1297SOL    HW2 4791   6.943   0.053   1.363
 1298SOL     OW 4792   5.465   5.496   3.857
 1298SOL    HW1 4793   5.444   5.417   3.800
 1298SOL    HW2 4794   5.548   5.540   3.823
 1299SOL     OW 4795   2.154   3.057   3.577
 1299SOL    HW1 4796   2.111   3.091   3.661
 1299SOL    HW2 4797   2.231   2.998   3.600
 1300SOL     OW 4798   1.506   3.158   0.544
 1300SOL    HW1 4799   1.572   3.129   0.474
 1300SOL    HW2 4800   1.548   3.149   0.635
 1301SOL     OW 4801   0.274   6.384   0.802
 1301SOL    HW1 4802   0.329   6.436   0.737
 1301SOL    HW2 4803   0.287   6.286   0.786
 1302SOL     OW 4804   4.542   6.922   5.487
 1302SOL    HW1 4805   4.546   6.823   5.504
 1302SOL    HW2 4806   4.474   6.940   5.416
 1303SOL     OW 4807   3.725   2.002   1.854
 1303SOL    HW1 4808   3.726   2.088   1.904
 1303SOL    HW2 4809   3.691   2.018   1.761
 1304SOL     OW 4810   1.682   0.644   0.310
 1304SOL    HW1 4811   1.645   0.558   0.274
 1304SOL    HW2 4812   1.703   0.705   0.233
 1305SOL     OW 4813   5.751   3.359   0.709
 1305SOL    HW1 4814   5.790   3.432   0.653
 1305SOL    HW2 4815   5.690   3.303   0.654
 1306SOL     OW 4816   0.983   5.384   3.782
 1306SOL    HW1 4817   0.977   5.449   3.858
 1306SOL    HW2 4818   0.972   5.291   3.818
 1307SOL     OW 4819   1.804   4.323   3.981
 1307SOL    HW1 4820   1.856   4.299   3.899
 1307SOL    HW2 4821   1.708   4.337   3.958
 1308SOL     OW 4822   6.512   0.230   5.422
 1308SOL    HW1 4823   6.467   0.164   5.363
 1308SOL    HW2 4824   6.559   0.299   5.367
 1309SOL     OW 4825   5.847   4.885   5.308
 1309SOL    HW1 4826   5.863   4.963   5.368
 1309SOL    HW2 4827   5.933   4.834   5.295
 1310SOL     OW 4828   6.612   4.115   3.964
 1310SOL    HW1 4829   6.612   4.033   4.021
 1310SOL    HW2 4830   6.556   4.186   4.007
 1311SOL     OW 4831   6.680   5.578   5.896
 1311SOL    HW1 4832   6.614   5.652   5.908
 1311SOL    HW2 4833   6.637   5.491   5.916
 1312SOL     OW 4834   1.172   6.596   6.621
 1312SOL    HW1 4835   1.209   6.550   6.540
 1312SOL    HW2 4836   1.081   6.559   6.641
 1313SOL     OW 4837   0.261   4.925   2.669
 1313SOL    HW1 4838   0.343   4.961   2.625
 1313SOL    HW2 4839   0.216   4.859   2.609
 1314SOL     OW 4840   4.135   1.514   4.857
 1314SOL    HW1 4841   4.038   1.500   4.839
 1314SOL    HW2 4842   4.151   1.516   4.956
 1315SOL     OW 4843   0.223   1.815   2.914
 1315SOL    HW1 4844   0.207   1.891   2.977
 1315SOL    HW2 4845   0.309   1.829   2.865
 1316SOL     OW 4846   2.843   6.754   6.086
 1316SOL    HW1 4847   2.770   6.686   6.097
 1316SOL    HW2 4848   2.814   6.824   6.021
 1317SOL     OW 4849   2.211   4.291   6.024
 1317SOL    HW1 4850   2.270   4.336   6.091
 1317SOL    HW2 4851   2.122   4.271   6.065
 1318SOL     OW 4852   1.071   2.526   1.006
 1318SOL    HW1 4853   1.140   2.460   1.033
 1318SOL    HW2 4854   1.013   2.548   1.084
 1319SOL     OW 4855   6.800   6.073   0.290
 1319SOL    HW1 4856   6.845   6.053   0.377
 1319SOL    HW2 4857   6.869   6.077   0.217
 1320SOL     OW 4858   3.777   4.834   6.552
 1320SOL    HW1 4859   3.782   4.862   6.648
 1320SOL    HW2 4860   3.830   4.750   6.539
 1321SOL     OW 4861   5.729   2.312   6.483
 1321SOL    HW1 4862   5.770   2.268   6.564
 1321SOL    HW2 4863   5.636   2.341   6.505
 1322SOL     OW 4864   4.126   1.653   3.674
 1322SOL    HW1 4865   4.155   1.565   3.636
 1322SOL    HW2 4866   4.064   1.698   3.609
 1323SOL     OW 4867   3.995   0.264   5.974
 1323SOL    HW1 4868   3.943   0.222   6.048
 1323SOL    HW2 4869   3.959   0.233   5.886
 1324SOL     OW 4870   1.014   3.901   0.063
 1324SOL    HW1 4871   1.056   3.881   6.991
 1324SOL    HW2 4872   0.914   3.904   0.053
 1325SOL     OW 4873   2.598   6.388   4.240
 1325SOL    HW1 4874   2.599   6.290   4.261
 1325SOL    HW2 4875   2.656   6.405   4.160
 1326SOL     OW 4876   4.747   3.326   5.265
 1326SOL    HW1 4877   4.723   3.288   5.355
 1326SOL    HW2 4878   4.706   3.417   5.256
 1327SOL     OW 4879   1.235   6.389   1.196
 1327SOL    HW1 4880   1.148   6.372   1.242
 1327SOL    HW2 4881   1.308   6.338   1.241
 1328SOL     OW 4882   2.444   3.388   1.342
 1328SOL    HW1 4883   2.397   3.358   1.424
 1328SOL    HW2 4884   2.536   3.348   1.340
 1329SOL     OW 4885   0.831   2.242   2.074
 1329SOL    HW1 4886   0.737   2.249   2.107
 1329SOL    HW2 4887   0.846   2.309   2.001
 1330SOL     OW 4888   1.040   1.112   2.262
 1330SOL    HW1 4889   0.991   1.192   2.297
 1330SOL    HW2 4890   1.001   1.084   2.174
 1331SOL     OW 4891   4.944   3.522   2.514
 1331SOL    HW1 4892   4.933   3.590   2.442
 1331SOL    HW2 4893   4.915   3.432   2.480
 1332SOL     OW 4894   2.772   0.163   6.680
 1332SOL    HW1 4895   2.806   0.071   6.700
 1332SOL    HW2 4896   2.840   0.231   6.708
 1333SOL     OW 4897   3.442   3.600   3.817
 1333SOL    HW1 4898   3.500   3.528   3.855
 1333SOL    HW2 4899   3.369   3.623   3.883
 1334SOL     OW 4900   6.213   1.939   4.118
 1334SOL    HW1 4901   6.146   2.001   4.159
 1334SOL    HW2 4902   6.168   1.854   4.090
 1335SOL     OW 4903   2.464   2.084   2.228
 1335SOL    HW1 4904   2.511   2.037   2.153
 1335SOL    HW2 4905   2.427   2.171   2.196
 1336SOL     OW 4906   2.432   2.360   5.155
 1336SOL    HW1 4907   2.529   2.378   5.141
 1336SOL    HW2 4908   2.384   2.447   5.166
 1337SOL     OW 4909   1.511   1.340   3.426
 1337SOL    HW1 4910   1.595   1.321   3.477
 1337SOL    HW2 4911   1.522   1.310   3.331
 1338SOL     OW 4912   6.340   2.154   4.770
 1338SOL    HW1 4913   6.282   2.142   4.850
 1338SOL    HW2 4914   6.419   2.210   4.794
 1339SOL     OW 4915   6.225   2.102   6.581
 1339SOL    HW1 4916   6.181   2.192   6.573
 1339SOL    HW2 4917   6.157   2.034   6.607
 1340SOL     OW 4918   6.173   2.150   2.978
 1340SOL    HW1 4919   6.089   2.204   2.973
 1340SOL    HW2 4920   6.248   2.209   3.008
 1341SOL     OW 4921   5.224   6.750   6.672
 1341SOL    HW1 4922   5.155   6.778   6.605
 1341SOL    HW2 4923   5.194   6.773   6.764
 1342SOL     OW 4924   2.884   5.807   5.914
 1342SOL    HW1 4925   2.960   5.743   5.902
 1342SOL    HW2 4926   2.908   5.895   5.873
 1343SOL     OW 4927   5.558   5.640   2.339
 1343SOL    HW1 4928   5.475   5.611   2.292
 1343SOL    HW2 4929   5.621   5.563   2.347
 1344SOL     OW 4930   0.712   6.068   4.607
 1344SOL    HW1 4931   0.745   6.139   4.545
 1344SOL    HW2 4932   0.758   5.982   4.586
 1345SOL     OW 4933   0.969   6.271   3.179
 1345SOL    HW1 4934   0.992   6.174   3.190
 1345SOL    HW2 4935   0.955   6.290   3.082
 1346SOL     OW 4936   1.147   5.572   4.586
 1346SOL    HW1 4937   1.149   5.626   4.670
 1346SOL    HW2 4938   1.061   5.587   4.538
 1347SOL     OW 4939   0.093   6.471   6.212
 1347SOL    HW1 4940   0.144   6.492   6.128
 1347SOL    HW2 4941   0.088   6.552   6.270
 1348SOL     OW 4942   5.992   6.342   4.058
 1348SOL    HW1 4943   5.907   6.291   4.069
 1348SOL    HW2 4944   6.060   6.284   4.014
 1349SOL     OW 4945   4.845   2.886   5.440
 1349SOL    HW1 4946   4.858   2.974   5.486
 1349SOL    HW2 4947   4.930   2.834   5.442
 1350SOL     OW 4948   5.512   5.015   6.023
 1350SOL    HW1 4949   5.466   5.103   6.038
 1350SOL    HW2 4950   5.449   4.951   5.978
 1351SOL     OW 4951   5.552   1.745   3.059
 1351SOL    HW1 4952   5.544   1.692   3.144
 1351SOL    HW2 4953   5.468   1.735   3.006
 1352SOL     OW 4954   6.808   6.021   3.447
 1352SOL    HW1 4955   6.794   5.945   3.511
 1352SOL    HW2 4956   6.894   6.008   3.398
 1353SOL     OW 4957   0.456   2.450   0.107
 1353SOL    HW1 4958   0.554   2.468   0.112
 1353SOL    HW2 4959   0.425   2.405   0.191
 1354SOL     OW 4960   0.970   4.401   1.421
 1354SOL    HW1 4961   1.006   4.435   1.508
 1354SOL    HW2 4962   1.033   4.332   1.384
 1355SOL     OW 4963   5.252   2.507   4.304
 1355SOL    HW1 4964   5.295   2.433   4.356
 1355SOL    HW2 4965   5.322   2.562   4.259
 1356SOL     OW 4966   3.599   3.377   2.391
 1356SOL    HW1 4967   3.653   3.301   2.426
 1356SOL    HW2 4968   3.659   3.439   2.339
 1357SOL     OW 4969   0.471   3.631   6.470
 1357SOL    HW1 4970   0.539   3.607   6.539
 1357SOL    HW2 4971   0.466   3.731   6.462
 1358SOL     OW 4972   4.162   6.541   6.096
 1358SOL    HW1 4973   4.190   6.498   6.182
 1358SOL    HW2 4974   4.198   6.634   6.092
 1359SOL     OW 4975   5.958   4.897   2.511
 1359SOL    HW1 4976   6.035   4.940   2.463
 1359SOL    HW2 4977   5.926   4.958   2.584
 1360SOL     OW 4978   2.939   3.298   0.152
 1360SOL    HW1 4979   2.977   3.276   0.242
 1360SOL    HW2 4980   2.855   3.245   0.138
 1361SOL     OW 4981   6.383   4.619   6.193
 1361SOL    HW1 4982   6.367   4.702   6.246
 1361SOL    HW2 4983   6.379   4.539   6.254
 1362SOL     OW 4984   3.386   4.131   4.090
 1362SOL    HW1 4985   3.464   4.156   4.033
 1362SOL    HW2 4986   3.403   4.159   4.184
 1363SOL     OW 4987   6.726   5.053   2.547
 1363SOL    HW1 4988   6.815   5.097   2.558
 1363SOL    HW2 4989   6.658   5.101   2.602
 1364SOL     OW 4990   6.369   4.216   0.920
 1364SOL    HW1 4991   6.317   4.132   0.933
 1364SOL    HW2 4992   6.339   4.284   0.987
 1365SOL     OW 4993   0.710   4.185   6.095
 1365SOL    HW1 4994   0.747   4.248   6.027
 1365SOL    HW2 4995   0.667   4.238   6.168
 1366SOL     OW 4996   1.598   4.968   6.917
 1366SOL    HW1 4997   1.553   4.930   6.837
 1366SOL    HW2 4998   1.609   5.067   6.905
 1367SOL     OW 4999   1.510   0.116   3.462
 1367SOL    HW1 5000   1.558   0.065   3.391
 1367SOL    HW2 5001   1.514   0.065   3.548
 1368SOL     OW 5002   5.952   0.449   3.393
 1368SOL    HW1 5003   6.011   0.511   3.341
 1368SOL    HW2 5004   5.960   0.356   3.355
 1369SOL     OW 5005   2.496   6.896   1.429
 1369SOL    HW1 5006   2.520   6.864   1.338
 1369SOL    HW2 5007   2.562   6.964   1.460
 1370SOL     OW 5008   3.984   0.671   1.237
 1370SOL    HW1 5009   3.924   0.605   1.282
 1370SOL    HW2 5010   3.931   0.728   1.175
 1371SOL     OW 5011   6.039   2.106   4.346
 1371SOL    HW1 5012   6.053   2.204   4.355
 1371SOL    HW2 5013   5.941   2.086   4.341
 1372SOL     OW 5014   1.653   2.947   0.029
 1372SOL    HW1 5015   1.604   2.960   6.959
 1372SOL    HW2 5016   1.592   2.903   0.096
 1373SOL     OW 5017   5.620   3.310   0.101
 1373SOL    HW1 5018   5.560   3.356   0.036
 1373SOL    HW2 5019   5.616   3.211   0.085
 1374SOL     OW 5020   4.618   2.590   7.000
 1374SOL    HW1 5021   4.613   2.568   6.902
 1374SOL    HW2 5022   4.569   2.520   0.036
 1375SOL     OW 5023   0.009   3.793   6.490
 1375SOL    HW1 5024   7.001   3.711   6.437
 1375SOL    HW2 5025   0.038   3.765   6.582
 1376SOL     OW 5026   4.850   4.430   4.551
 1376SOL    HW1 5027   4.756   4.463   4.564
 1376SOL    HW2 5028   4.914   4.497   4.589
 1377SOL     OW 5029   6.878   3.825   5.863
 1377SOL    HW1 5030   6.832   3.740   5.891
 1377SOL    HW2 5031   6.815   3.881   5.810
 1378SOL     OW 5032   6.300   1.197   4.633
 1378SOL    HW1 5033   6.374   1.263   4.621
 1378SOL    HW2 5034   6.306   1.126   4.563
 1379SOL     OW 5035   3.272   6.850   2.481
 1379SOL    HW1 5036   3.237   6.908   2.555
 1379SOL    HW2 5037   3.334   6.781   2.519
 1380SOL     OW 5038   0.143   0.201   2.597
 1380SOL    HW1 5039   0.243   0.210   2.593
 1380SOL    HW2 5040   0.109   0.239   2.683
 1381SOL     OW 5041   5.669   2.069   6.775
 1381SOL    HW1 5042   5.716   2.055   6.688
 1381SOL    HW2 5043   5.654   2.167   6.789
 1382SOL     OW 5044   4.708   4.532   0.543
 1382SOL    HW1 5045   4.740   4.485   0.461
 1382SOL    HW2 5046   4.693   4.629   0.521
 1383SOL     OW 5047   0.473   6.935   0.894
 1383SOL    HW1 5048   0.502   6.994   0.819
 1383SOL    HW2 5049   0.405   6.870   0.861
 1384SOL     OW 5050   3.946   0.511   2.360
 1384SOL    HW1 5051   3.945   0.564   2.445
 1384SOL    HW2 5052   3.995   0.561   2.289
 1385SOL     OW 5053   1.116   3.191   2.886
 1385SOL    HW1 5054   1.020   3.174   2.863
 1385SOL    HW2 5055   1.149   3.118   2.946
 1386SOL     OW 5056   2.202   1.038   4.675
 1386SOL    HW1 5057   2.191   0.976   4.598
 1386SOL    HW2 5058   2.300   1.047   4.697
 1387SOL     OW 5059   4.077   6.280   2.979
 1387SOL    HW1 5060   4.083   6.271   2.880
 1387SOL    HW2 5061   4.070   6.377   3.003
 1388SOL     OW 5062   0.230   6.267   3.394
 1388SOL    HW1 5063   0.196   6.354   3.431
 1388SOL    HW2 5064   0.219   6.267   3.295
 1389SOL     OW 5065   0.554   1.141   3.753
 1389SOL    HW1 5066   0.651   1.139   3.732
 1389SOL    HW2 5067   0.514   1.225   3.717
 1390SOL     OW 5068   4.787   2.274   6.039
 1390SOL    HW1 5069   4.814   2.234   5.952
 1390SOL    HW2 5070   4.703   2.327   6.027
 1391SOL     OW 5071   6.307   0.487   5.472
 1391SOL    HW1 5072   6.406   0.481   5.453
 1391SOL    HW2 5073   6.267   0.561   5.418
 1392SOL     OW 5074   5.461   5.555   6.046
 1392SOL    HW1 5075   5.533   5.592   6.105
 1392SOL    HW2 5076   5.465   5.601   5.957
 1393SOL     OW 5077   5.596   3.239   6.448
 1393SOL    HW1 5078   5.509   3.191   6.441
 1393SOL    HW2 5079   5.670   3.178   6.419
 1394SOL     OW 5080   3.755   6.403   3.660
 1394SOL    HW1 5081   3.847   6.385   3.625
 1394SOL    HW2 5082   3.754   6.389   3.759
 1395SOL     OW 5083   1.465   4.264   3.591
 1395SOL    HW1 5084   1.533   4.212   3.643
 1395SOL    HW2 5085   1.497   4.357   3.577
 1396SOL     OW 5086   1.403   6.808   3.616
 1396SOL    HW1 5087   1.369   6.742   3.683
 1396SOL    HW2 5088   1.449   6.883   3.664
 1397SOL     OW 5089   0.640   6.317   4.434
 1397SOL    HW1 5090   0.562   6.328   4.495
 1397SOL    HW2 5091   0.607   6.303   4.340
 1398SOL     OW 5092   1.064   1.784   6.770
 1398SOL    HW1 5093   0.972   1.756   6.740
 1398SOL    HW2 5094   1.072   1.884   6.764
 1399SOL     OW 5095   4.304   0.219   0.293
 1399SOL    HW1 5096   4.241   0.206   0.370
 1399SOL    HW2 5097   4.397   0.199   0.322
 1400SOL     OW 5098   6.378   1.347   3.958
 1400SOL    HW1 5099   6.446   1.274   3.965
 1400SOL    HW2 5100   6.377   1.400   4.042
 1401SOL     OW 5101   6.129   6.726   4.486
 1401SOL    HW1 5102   6.161   6.689   4.399
 1401SOL    HW2 5103   6.065   6.661   4.528
 1402SOL     OW 5104   5.493   4.089   0.079
 1402SOL    HW1 5105   5.571   4.152   0.078
 1402SOL    HW2 5106   5.415   4.131   0.032
 1403SOL     OW 5107   2.103   2.208   0.906
 1403SOL    HW1 5108   2.087   2.205   0.808
 1403SOL    HW2 5109   2.200   2.226   0.923
 1404SOL     OW 5110   5.196   0.010   0.233
 1404SOL    HW1 5111   5.127   0.027   0.163
 1404SOL    HW2 5112   5.160   0.035   0.323
 1405SOL     OW 5113   2.528   3.595   0.062
 1405SOL    HW1 5114   2.626   3.585   0.051
 1405SOL    HW2 5115   2.494   3.525   0.126
 1406SOL     OW 5116   2.649   5.466   0.733
 1406SOL    HW1 5117   2.641   5.492   0.830
 1406SOL    HW2 5118   2.603   5.379   0.719
 1407SOL     OW 5119   1.883   3.840   3.415
 1407SOL    HW1 5120   1.930   3.914   3.366
 1407SOL    HW2 5121   1.924   3.753   3.390
 1408SOL     OW 5122   5.444   6.413   0.009
 1408SOL    HW1 5123   5.375   6.354   6.984
 1408SOL    HW2 5124   5.428   6.508   6.998
 1409SOL     OW 5125   0.177   0.938   4.986
 1409SOL    HW1 5126   0.116   0.884   4.928
 1409SOL    HW2 5127   0.222   1.008   4.931
 1410SOL     OW 5128   3.374   3.981   0.109
 1410SOL    HW1 5129   3.458   3.941   0.144
 1410SOL    HW2 5130   3.364   3.957   0.012
 1411SOL     OW 5131   3.691   6.338   5.908
 1411SOL    HW1 5132   3.639   6.421   5.927
 1411SOL    HW2 5133   3.733   6.305   5.993
 1412SOL     OW 5134   0.763   4.605   1.955
 1412SOL    HW1 5135   0.729   4.699   1.947
 1412SOL    HW2 5136   0.694   4.542   1.919
 1413SOL     OW 5137   1.821   1.757   4.389
 1413SOL    HW1 5138   1.740   1.779   4.443
 1413SOL    HW2 5139   1.903   1.775   4.444
 1414SOL     OW 5140   1.528   2.451   1.764
 1414SOL    HW1 5141   1.557   2.424   1.672
 1414SOL    HW2 5142   1.501   2.369   1.816
 1415SOL     OW 5143   3.067   1.912   4.348
 1415SOL    HW1 5144   3.063   1.934   4.251
 1415SOL    HW2 5145   3.135   1.969   4.393
 1416SOL     OW 5146   4.177   0.349   4.212
 1416SOL    HW1 5147   4.166   0.448   4.204
 1416SOL    HW2 5148   4.227   0.327   4.295
 1417SOL     OW 5149   3.218   3.091   6.273
 1417SOL    HW1 5150   3.296   3.135   6.228
 1417SOL    HW2 5151   3.135   3.143   6.254
 1418SOL     OW 5152   3.253   3.591   0.054
 1418SOL    HW1 5153   3.232   3.672   7.016
 1418SOL    HW2 5154   3.305   3.618   0.136
 1419SOL     OW 5155   1.949   5.727   4.575
 1419SOL    HW1 5156   1.910   5.661   4.511
 1419SOL    HW2 5157   2.013   5.786   4.527
 1420SOL     OW 5158   3.699   5.510   2.674
 1420SOL    HW1 5159   3.755   5.455   2.736
 1420SOL    HW2 5160   3.669   5.453   2.598
 1421SOL     OW 5161   1.635   4.699   4.357
 1421SOL    HW1 5162   1.691   4.754   4.295
 1421SOL    HW2 5163   1.688   4.622   4.391
 1422SOL     OW 5164   2.896   4.463   5.455
 1422SOL    HW1 5165   2.941   4.541   5.497
 1422SOL    HW2 5166   2.924   4.455   5.360
 1423SOL     OW 5167   3.793   1.775   5.038
 1423SOL    HW1 5168   3.817   1.808   4.947
 1423SOL    HW2 5169   3.747   1.847   5.090
 1424SOL     OW 5170   6.200   3.316   0.296
 1424SOL    HW1 5171   6.155   3.268   0.221
 1424SOL    HW2 5172   6.180   3.414   0.290
 1425SOL     OW 5173   2.446   5.967   4.915
 1425SOL    HW1 5174   2.477   5.892   4.856
 1425SOL    HW2 5175   2.525   6.019   4.947
 1426SOL     OW 5176   2.025   1.969   5.939
 1426SOL    HW1 5177   1.944   2.019   5.970
 1426SOL    HW2 5178   2.104   1.999   5.992
 1427SOL     OW 5179   0.235   0.583   3.626
 1427SOL    HW1 5180   0.294   0.615   3.700
 1427SOL    HW2 5181   0.233   0.483   3.626
 1428SOL     OW 5182   0.015   2.404   1.886
 1428SOL    HW1 5183   6.984   2.342   1.948
 1428SOL    HW2 5184   7.011   2.379   1.791
 1429SOL     OW 5185   5.703   1.829   6.913
 1429SOL    HW1 5186   5.663   1.886   6.841
 1429SOL    HW2 5187   5.634   1.765   6.948
 1430SOL     OW 5188   2.034   4.024   4.365
 1430SOL    HW1 5189   2.078   3.935   4.357
 1430SOL    HW2 5190   1.935   4.011   4.375
 1431SOL     OW 5191   2.272   2.272   6.645
 1431SOL    HW1 5192   2.250   2.369   6.643
 1431SOL    HW2 5193   2.198   2.220   6.604
 1432SOL     OW 5194   2.182   0.689   1.538
 1432SOL    HW1 5195   2.116   0.730   1.600
 1432SOL    HW2 5196   2.230   0.614   1.584
 1433SOL     OW 5197   3.427   6.506   3.822
 1433SOL    HW1 5198   3.477   6.592   3.812
 1433SOL    HW2 5199   3.410   6.489   3.919
 1434SOL     OW 5200   6.695   1.620   6.381
 1434SOL    HW1 5201   6.788   1.594   6.408
 1434SOL    HW2 5202   6.631   1.593   6.453
 1435SOL     OW 5203   6.961   0.748   3.966
 1435SOL    HW1 5204   0.033   0.705   3.945
 1435SOL    HW2 5205   6.977   0.838   4.007
 1436SOL     OW 5206   6.185   3.557   0.697
 1436SOL    HW1 5207   6.283   3.537   0.700
 1436SOL    HW2 5208   6.170   3.648   0.659
 1437SOL     OW 5209   3.384   0.499   5.485
 1437SOL    HW1 5210   3.381   0.571   5.554
 1437SOL    HW2 5211   3.411   0.538   5.397
 1438SOL     OW 5212   3.274   0.756   1.702
 1438SOL    HW1 5213   3.346   0.692   1.726
 1438SOL    HW2 5214   3.307   0.850   1.715
 1439SOL     OW 5215   0.625   5.092   0.922
 1439SOL    HW1 5216   0.710   5.109   0.872
 1439SOL    HW2 5217   0.644   5.094   1.020
 1440SOL     OW 5218   3.804   3.405   4.954
 1440SOL    HW1 5219   3.853   3.486   4.988
 1440SOL    HW2 5220   3.743   3.370   5.025
 1441SOL     OW 5221   6.201   3.456   3.843
 1441SOL    HW1 5222   6.254   3.489   3.921
 1441SOL    HW2 5223   6.152   3.372   3.869
 1442SOL     OW 5224   6.428   4.911   0.006
 1442SOL    HW1 5225   6.400   4.815   0.013
 1442SOL    HW2 5226   6.484   4.935   0.086
 1443SOL     OW 5227   1.438   2.054   4.342
 1443SOL    HW1 5228   1.485   1.966   4.335
 1443SOL    HW2 5229   1.397   2.062   4.433
 1444SOL     OW 5230   4.460   6.147   1.846
 1444SOL    HW1 5231   4.375   6.102   1.874
 1444SOL    HW2 5232   4.510   6.178   1.926
 1445SOL     OW 5233   0.836   2.842   2.602
 1445SOL    HW1 5234   0.868   2.822   2.510
 1445SOL    HW2 5235   0.855   2.938   2.624
 1446SOL     OW 5236   5.605   2.730   6.528
 1446SOL    HW1 5237   5.574   2.747   6.434
 1446SOL    HW2 5238   5.682   2.665   6.526
 1447SOL     OW 5239   6.603   6.996   4.791
 1447SOL    HW1 5240   6.573   6.982   4.697
 1447SOL    HW2 5241   6.644   6.911   4.825
 1448SOL     OW 5242   5.720   1.985   0.272
 1448SOL    HW1 5243   5.809   1.968   0.232
 1448SOL    HW2 5244   5.678   1.899   0.300
 1449SOL     OW 5245   6.153   0.020   6.767
 1449SOL    HW1 5246   6.053   0.020   6.764
 1449SOL    HW2 5247   6.185   6.951   6.809
 1450SOL     OW 5248   0.410   2.702   2.509
 1450SOL    HW1 5249   0.393   2.665   2.600
 1450SOL    HW2 5250   0.456   2.791   2.517
 1451SOL     OW 5251   3.272   0.669   2.451
 1451SOL    HW1 5252   3.230   0.750   2.492
 1451SOL    HW2 5253   3.209   0.592   2.458
 1452SOL     OW 5254   5.144   1.892   4.313
 1452SOL    HW1 5255   5.210   1.860   4.382
 1452SOL    HW2 5256   5.053   1.857   4.335
 1453SOL     OW 5257   6.325   3.867   5.208
 1453SOL    HW1 5258   6.294   3.961   5.194
 1453SOL    HW2 5259   6.378   3.862   5.292
 1454SOL     OW 5260   6.224   2.661   2.153
 1454SOL    HW1 5261   6.218   2.564   2.131
 1454SOL    HW2 5262   6.280   2.707   2.084
 1455SOL     OW 5263   1.589   0.298   1.929
 1455SOL    HW1 5264   1.559   0.204   1.946
 1455SOL    HW2 5265   1.534   0.337   1.856
 1456SOL     OW 5266   6.333   6.770   5.419
 1456SOL    HW1 5267   6.408   6.804   5.475
 1456SOL    HW2 5268   6.299   6.684   5.456
 1457SOL     OW 5269   1.484   0.397   1.699
 1457SOL    HW1 5270   1.441   0.329   1.639
 1457SOL    HW2 5271   1.415   0.464   1.727
 1458SOL     OW 5272   4.766   6.337   3.817
 1458SOL    HW1 5273   4.784   6.323   3.720
 1458SOL    HW2 5274   4.790   6.431   3.842
 1459SOL     OW 5275   3.210   4.420   6.509
 1459SOL    HW1 5276   3.259   4.475   6.577
 1459SOL    HW2 5277   3.113   4.445   6.511
 1460SOL     OW 5278   0.542   5.225   6.128
 1460SOL    HW1 5279   0.497   5.160   6.189
 1460SOL    HW2 5280   0.602   5.285   6.180
 1461SOL     OW 5281   0.312   4.976   3.159
 1461SOL    HW1 5282   0.325   5.062   3.208
 1461SOL    HW2 5283   0.214   4.953   3.157
 1462SOL     OW 5284   6.422   1.085   6.208
 1462SOL    HW1 5285   6.391   1.168   6.162
 1462SOL    HW2 5286   6.522   1.088   6.218
 1463SOL     OW 5287   0.174   5.596   6.489
 1463SOL    HW1 5288   0.094   5.604   6.430
 1463SOL    HW2 5289   0.145   5.575   6.583
 1464SOL     OW 5290   6.575   6.362   0.863
 1464SOL    HW1 5291   6.543   6.333   0.953
 1464SOL    HW2 5292   6.586   6.461   0.862
 1465SOL     OW 5293   1.448   1.727   2.587
 1465SOL    HW1 5294   1.418   1.789   2.660
 1465SOL    HW2 5295   1.433   1.633   2.616
 1466SOL     OW 5296   1.248   0.304   2.916
 1466SOL    HW1 5297   1.297   0.217   2.915
 1466SOL    HW2 5298   1.209   0.322   2.826
 1467SOL     OW 5299   2.456   0.619   1.935
 1467SOL    HW1 5300   2.438   0.633   2.032
 1467SOL    HW2 5301   2.469   0.708   1.890
 1468SOL     OW 5302   5.219   5.790   2.963
 1468SOL    HW1 5303   5.285   5.852   2.920
 1468SOL    HW2 5304   5.164   5.842   3.029
 1469SOL     OW 5305   1.048   0.625   2.781
 1469SOL    HW1 5306   1.128   0.570   2.803
 1469SOL    HW2 5307   0.989   0.574   2.718
 1470SOL     OW 5308   1.728   0.820   2.711
 1470SOL    HW1 5309   1.808   0.878   2.726
 1470SOL    HW2 5310   1.645   0.870   2.737
 1471SOL     OW 5311   0.591   0.850   0.597
 1471SOL    HW1 5312   0.532   0.847   0.678
 1471SOL    HW2 5313   0.544   0.806   0.521
 1472SOL     OW 5314   4.388   5.639   4.711
 1472SOL    HW1 5315   4.411   5.588   4.628
 1472SOL    HW2 5316   4.433   5.597   4.789
 1473SOL     OW 5317   5.737   6.204   4.048
 1473SOL    HW1 5318   5.663   6.179   3.986
 1473SOL    HW2 5319   5.716   6.170   4.140
 1474SOL     OW 5320   6.494   6.222   4.135
 1474SOL    HW1 5321   6.455   6.240   4.044
 1474SOL    HW2 5322   6.480   6.303   4.193
 1475SOL     OW 5323   6.834   0.336   1.177
 1475SOL    HW1 5324   6.926   0.372   1.160
 1475SOL    HW2 5325   6.780   0.344   1.093
 1476SOL     OW 5326   0.942   1.341   1.148
 1476SOL    HW1 5327   0.910   1.395   1.226
 1476SOL    HW2 5328   1.023   1.385   1.109
 1477SOL     OW 5329   2.442   0.503   6.624
 1477SOL    HW1 5330   2.385   0.563   6.679
 1477SOL    HW2 5331   2.455   0.416   6.672
 1478SOL     OW 5332   5.381   4.367   0.402
 1478SOL    HW1 5333   5.361   4.404   0.311
 1478SOL    HW2 5334   5.388   4.267   0.396
 1479SOL     OW 5335   1.587   3.479   6.997
 1479SOL    HW1 5336   1.607   3.571   6.963
 1479SOL    HW2 5337   1.499   3.480   0.028
 1480SOL     OW 5338   2.540   0.118   0.000
 1480SOL    HW1 5339   2.489   0.063   0.067
 1480SOL    HW2 5340   2.638   0.108   0.016
 1481SOL     OW 5341   6.767   1.761   4.865
 1481SOL    HW1 5342   6.679   1.778   4.909
 1481SOL    HW2 5343   6.790   1.838   4.805
 1482SOL     OW 5344   5.541   1.922   1.178
 1482SOL    HW1 5345   5.474   1.892   1.246
 1482SOL    HW2 5346   5.534   2.021   1.166
 1483SOL     OW 5347   0.067   2.782   6.160
 1483SOL    HW1 5348   0.122   2.718   6.107
 1483SOL    HW2 5349   0.093   2.876   6.137
 1484SOL     OW 5350   6.171   4.439   3.950
 1484SOL    HW1 5351   6.229   4.510   3.909
 1484SOL    HW2 5352   6.122   4.478   4.028
 1485SOL     OW 5353   4.371   2.019   2.978
 1485SOL    HW1 5354   4.470   2.025   2.987
 1485SOL    HW2 5355   4.338   2.095   2.922
 1486SOL     OW 5356   4.729   2.720   2.705
 1486SOL    HW1 5357   4.658   2.760   2.647
 1486SOL    HW2 5358   4.724   2.621   2.701
 1487SOL     OW 5359   6.263   2.945   6.806
 1487SOL    HW1 5360   6.253   3.044   6.796
 1487SOL    HW2 5361   6.348   2.925   6.854
 1488SOL     OW 5362   6.067   1.908   3.047
 1488SOL    HW1 5363   5.999   1.938   3.113
 1488SOL    HW2 5364   6.107   1.988   3.001
 1489SOL     OW 5365   4.035   5.144   4.231
 1489SOL    HW1 5366   4.042   5.166   4.329
 1489SOL    HW2 5367   3.988   5.219   4.184
 1490SOL     OW 5368   1.680   2.852   1.452
 1490SOL    HW1 5369   1.778   2.829   1.456
 1490SOL    HW2 5370   1.652   2.893   1.539
 1491SOL     OW 5371   6.391   3.501   3.635
 1491SOL    HW1 5372   6.340   3.451   3.705
 1491SOL    HW2 5373   6.341   3.585   3.612
 1492SOL     OW 5374   6.085   1.761   1.818
 1492SOL    HW1 5375   6.015   1.699   1.854
 1492SOL    HW2 5376   6.150   1.783   1.892
 1493SOL     OW 5377   5.195   0.408   4.374
 1493SOL    HW1 5378   5.287   0.444   4.385
 1493SOL    HW2 5379   5.153   0.445   4.291
 1494SOL     OW 5380   4.507   2.431   6.073
 1494SOL    HW1 5381   4.451   2.348   6.080
 1494SOL    HW2 5382   4.464   2.494   6.009
 1495SOL     OW 5383   0.735   2.826   3.954
 1495SOL    HW1 5384   0.638   2.802   3.948
 1495SOL    HW2 5385   0.786   2.749   3.992
 1496SOL     OW 5386   1.541   0.992   2.805
 1496SOL    HW1 5387   1.448   0.958   2.793
 1496SOL    HW2 5388   1.540   1.092   2.800
 1497SOL     OW 5389   0.459   3.736   2.424
 1497SOL    HW1 5390   0.400   3.657   2.405
 1497SOL    HW2 5391   0.419   3.791   2.497
 1498SOL     OW 5392   1.706   4.757   6.251
 1498SOL    HW1 5393   1.612   4.728   6.267
 1498SOL    HW2 5394   1.712   4.857   6.255
 1499SOL     OW 5395   1.209   3.357   5.518
 1499SOL    HW1 5396   1.169   3.449   5.520
 1499SOL    HW2 5397   1.203   3.321   5.424
 1500SOL     OW 5398   5.685   6.488   6.852
 1500SOL    HW1 5399   5.593   6.487   6.893
 1500SOL    HW2 5400   5.682   6.540   6.767
 1501SOL     OW 5401   4.290   1.637   6.639
 1501SOL    HW1 5402   4.295   1.621   6.541
 1501SOL    HW2 5403   4.344   1.717   6.663
 1502SOL     OW 5404   5.929   6.916   1.425
 1502SOL    HW1 5405   5.904   6.972   1.345
 1502SOL    HW2 5406   5.910   6.968   1.508
 1503SOL     OW 5407   2.773   1.456   1.792
 1503SOL    HW1 5408   2.706   1.486   1.725
 1503SOL    HW2 5409   2.728   1.444   1.881
 1504SOL     OW 5410   1.672   0.895   4.947
 1504SOL    HW1 5411   1.671   0.988   4.985
 1504SOL    HW2 5412   1.636   0.897   4.854
 1505SOL     OW 5413   5.588   1.007   6.596
 1505SOL    HW1 5414   5.626   0.984   6.507
 1505SOL    HW2 5415   5.585   1.107   6.606
 1506SOL     OW 5416   2.121   5.655   2.003
 1506SOL    HW1 5417   2.164   5.732   2.051
 1506SOL    HW2 5418   2.087   5.685   1.914
 1507SOL     OW 5419   1.290   1.922   5.671
 1507SOL    HW1 5420   1.222   1.848   5.673
 1507SOL    HW2 5421   1.302   1.954   5.577
 1508SOL     OW 5422   5.935   0.930   0.846
 1508SOL    HW1 5423   6.001   0.990   0.800
 1508SOL    HW2 5424   5.844   0.946   0.809
 1509SOL     OW 5425   3.909   2.435   6.394
 1509SOL    HW1 5426   3.960   2.362   6.439
 1509SOL    HW2 5427   3.883   2.406   6.302
 1510SOL     OW 5428   5.716   2.189   3.907
 1510SOL    HW1 5429   5.665   2.134   3.974
 1510SOL    HW2 5430   5.813   2.169   3.914
 1511SOL     OW 5431   2.636   2.757   0.863
 1511SOL    HW1 5432   2.614   2.842   0.816
 1511SOL    HW2 5433   2.566   2.688   0.842
 1512SOL     OW 5434   0.084   6.686   1.592
 1512SOL    HW1 5435   0.022   6.744   1.644
 1512SOL    HW2 5436   0.178   6.720   1.602
 1513SOL     OW 5437   4.503   0.071   4.117
 1513SOL    HW1 5438   4.493   0.111   4.208
 1513SOL    HW2 5439   4.421   0.091   4.062
 1514SOL     OW 5440   5.511   2.743   4.765
 1514SOL    HW1 5441   5.524   2.684   4.685
 1514SOL    HW2 5442   5.561   2.829   4.751
 1515SOL     OW 5443   6.628   3.535   5.533
 1515SOL    HW1 5444   6.557   3.464   5.529
 1515SOL    HW2 5445   6.703   3.503   5.590
 1516SOL     OW 5446   0.798   0.164   1.098
 1516SOL    HW1 5447   0.893   0.171   1.069
 1516SOL    HW2 5448   0.769   0.251   1.138
 1517SOL     OW 5449   4.665   5.831   3.483
 1517SOL    HW1 5450   4.614   5.813   3.400
 1517SOL    HW2 5451   4.617   5.901   3.537
 1518SOL     OW 5452   0.626   3.228   0.091
 1518SOL    HW1 5453   0.660   3.250   0.182
 1518SOL    HW2 5454   0.569   3.146   0.096
 1519SOL     OW 5455   6.988   4.450   1.890
 1519SOL    HW1 5456   6.991   4.430   1.988
 1519SOL    HW2 5457   0.065   4.459   1.855
 1520SOL     OW 5458   1.375   3.373   2.368
 1520SOL    HW1 5459   1.402   3.284   2.405
 1520SOL    HW2 5460   1.433   3.396   2.290
 1521SOL     OW 5461   2.465   3.671   6.837
 1521SOL    HW1 5462   2.397   3.611   6.794
 1521SOL    HW2 5463   2.482   3.641   6.930
 1522SOL     OW 5464   7.010   1.691   5.169
 1522SOL    HW1 5465   6.988   1.627   5.096
 1522SOL    HW2 5466   6.983   1.784   5.141
 1523SOL     OW 5467   5.042   4.022   0.054
 1523SOL    HW1 5468   5.051   3.998   0.151
 1523SOL    HW2 5469   5.082   4.112   0.038
 1524SOL     OW 5470   1.063   1.950   1.621
 1524SOL    HW1 5471   1.128   1.938   1.697
 1524SOL    HW2 5472   0.971   1.925   1.651
 1525SOL     OW 5473   5.497   2.390   6.548
 1525SOL    HW1 5474   5.405   2.408   6.514
 1525SOL    HW2 5475   5.492   2.366   6.645
 1526SOL     OW 5476   1.872   1.515   0.055
 1526SOL    HW1 5477   1.850   1.526   6.974
 1526SOL    HW2 5478   1.923   1.431   0.068
 1527SOL     OW 5479   3.809   0.934   5.523
 1527SOL    HW1 5480   3.848   0.867   5.586
 1527SOL    HW2 5481   3.712   0.947   5.544
 1528SOL     OW 5482   5.267   6.398   2.933
 1528SOL    HW1 5483   5.223   6.469   2.878
 1528SOL    HW2 5484   5.286   6.435   3.025
 1529SOL     OW 5485   3.738   1.593   0.429
 1529SOL    HW1 5486   3.708   1.621   0.520
 1529SOL    HW2 5487   3.659   1.559   0.377
 1530SOL     OW 5488   3.052   0.514   1.767
 1530SOL    HW1 5489   3.086   0.608   1.761
 1530SOL    HW2 5490   3.028   0.493   1.861
 1531SOL     OW 5491   5.527   1.196   4.805
 1531SOL    HW1 5492   5.602   1.148   4.759
 1531SOL    HW2 5493   5.468   1.130   4.850
 1532SOL     OW 5494   2.487   2.729   5.739
 1532SOL    HW1 5495   2.483   2.641   5.785
 1532SOL    HW2 5496   2.412   2.737   5.674
 1533SOL     OW 5497   0.241   3.373   6.170
 1533SOL    HW1 5498   0.294   3.367   6.086
 1533SOL    HW2 5499   0.237   3.469   6.199
 1534SOL     OW 5500   1.602   5.085   6.630
 1534SOL    HW1 5501   1.525   5.027   6.657
 1534SOL    HW2 5502   1.676   5.028   6.595
 1535SOL     OW 5503   5.555   6.063   3.868
 1535SOL    HW1 5504   5.473   6.120   3.869
 1535SOL    HW2 5505   5.596   6.065   3.777
 1536SOL     OW 5506   4.019   4.928   5.392
 1536SOL    HW1 5507   3.959   4.899   5.317
 1536SOL    HW2 5508   4.036   4.851   5.453
 1537SOL     OW 5509   4.202   5.806   2.813
 1537SOL    HW1 5510   4.193   5.819   2.714
 1537SOL    HW2 5511   4.117   5.835   2.858
 1538SOL     OW 5512   3.261   5.357   5.281
 1538SOL    HW1 5513   3.201   5.412   5.223
 1538SOL    HW2 5514   3.293   5.413   5.358
 1539SOL     OW 5515   4.175   4.137   1.209
 1539SOL    HW1 5516   4.146   4.041   1.205
 1539SOL    HW2 5517   4.108   4.194   1.163
 1540SOL     OW 5518   0.951   0.185   5.390
 1540SOL    HW1 5519   0.873   0.123   5.393
 1540SOL    HW2 5520   1.035   0.132   5.385
 1541SOL     OW 5521   3.574   3.133   1.587
 1541SOL    HW1 5522   3.604   3.224   1.615
 1541SOL    HW2 5523   3.476   3.124   1.602
 1542SOL     OW 5524   7.012   5.446   1.236
 1542SOL    HW1 5525   6.925   5.398   1.241
 1542SOL    HW2 5526   0.002   5.511   1.312
 1543SOL     OW 5527   2.988   3.298   3.982
 1543SOL    HW1 5528   3.030   3.208   3.992
 1543SOL    HW2 5529   2.961   3.332   4.072
 1544SOL     OW 5530   3.115   3.755   2.450
 1544SOL    HW1 5531   3.141   3.664   2.481
 1544SOL    HW2 5532   3.103   3.754   2.350
 1545SOL     OW 5533   5.326   0.837   4.690
 1545SOL    HW1 5534   5.338   0.785   4.606
 1545SOL    HW2 5535   5.236   0.817   4.729
 1546SOL     OW 5536   5.208   6.730   6.010
 1546SOL    HW1 5537   5.218   6.635   6.039
 1546SOL    HW2 5538   5.132   6.772   6.059
 1547SOL     OW 5539   2.384   4.322   2.825
 1547SOL    HW1 5540   2.447   4.383   2.873
 1547SOL    HW2 5541   2.435   4.242   2.791
 1548SOL     OW 5542   4.644   3.788   5.780
 1548SOL    HW1 5543   4.569   3.806   5.715
 1548SOL    HW2 5544   4.609   3.796   5.873
 1549SOL     OW 5545   5.293   1.258   2.075
 1549SOL    HW1 5546   5.213   1.302   2.037
 1549SOL    HW2 5547   5.370   1.322   2.077
 1550SOL     OW 5548   3.357   6.411   5.721
 1550SOL    HW1 5549   3.261   6.406   5.693
 1550SOL    HW2 5550   3.386   6.507   5.722
 1551SOL     OW 5551   2.003   3.236   0.864
 1551SOL    HW1 5552   2.022   3.304   0.792
 1551SOL    HW2 5553   1.963   3.282   0.943
 1552SOL     OW 5554   0.440   0.132   1.319
 1552SOL    HW1 5555   0.417   0.170   1.230
 1552SOL    HW2 5556   0.502   0.194   1.367
 1553SOL     OW 5557   6.599   2.143   6.007
 1553SOL    HW1 5558   6.646   2.116   5.923
 1553SOL    HW2 5559   6.589   2.064   6.067
 1554SOL     OW 5560   3.868   2.015   2.288
 1554SOL    HW1 5561   3.800   1.958   2.243
 1554SOL    HW2 5562   3.849   2.018   2.386
 1555SOL     OW 5563   4.514   2.562   5.765
 1555SOL    HW1 5564   4.549   2.655   5.774
 1555SOL    HW2 5565   4.420   2.558   5.800
 1556SOL     OW 5566   3.850   1.014   0.028
 1556SOL    HW1 5567   3.790   0.998   6.966
 1556SOL    HW2 5568   3.846   0.935   0.089
 1557SOL     OW 5569   2.869   1.602   0.464
 1557SOL    HW1 5570   2.964   1.570   0.454
 1557SOL    HW2 5571   2.847   1.610   0.562
 1558SOL     OW 5572   5.803   1.886   4.521
 1558SOL    HW1 5573   5.774   1.795   4.490
 1558SOL    HW2 5574   5.767   1.955   4.459
 1559SOL     OW 5575   0.528   2.843   0.894
 1559SOL    HW1 5576   0.579   2.907   0.952
 1559SOL    HW2 5577   0.506   2.762   0.947
 1560SOL     OW 5578   2.523   1.056   6.404
 1560SOL    HW1 5579   2.523   1.103   6.315
 1560SOL    HW2 5580   2.433   1.017   6.421
 1561SOL     OW 5581   5.201   5.493   3.395
 1561SOL    HW1 5582   5.234   5.454   3.481
 1561SOL    HW2 5583   5.101   5.487   3.390
 1562SOL     OW 5584   3.989   6.571   1.570
 1562SOL    HW1 5585   4.048   6.608   1.498
 1562SOL    HW2 5586   3.898   6.552   1.533
 1563SOL     OW 5587   2.342   1.874   5.623
 1563SOL    HW1 5588   2.438   1.891   5.600
 1563SOL    HW2 5589   2.295   1.962   5.634
 1564SOL     OW 5590   1.730   2.432   2.620
 1564SOL    HW1 5591   1.701   2.419   2.715
 1564SOL    HW2 5592   1.661   2.393   2.559
 1565SOL     OW 5593   4.022   4.918   4.542
 1565SOL    HW1 5594   3.969   4.898   4.459
 1565SOL    HW2 5595   4.060   5.010   4.535
 1566SOL     OW 5596   6.090   5.374   5.026
 1566SOL    HW1 5597   6.091   5.461   5.075
 1566SOL    HW2 5598   6.036   5.384   4.942
 1567SOL     OW 5599   6.435   5.651   0.265
 1567SOL    HW1 5600   6.419   5.722   0.334
 1567SOL    HW2 5601   6.519   5.672   0.214
 1568SOL     OW 5602   2.395   6.578   2.631
 1568SOL    HW1 5603   2.300   6.558   2.654
 1568SOL    HW2 5604   2.404   6.675   2.607
 1569SOL     OW 5605   3.563   6.671   3.212
 1569SOL    HW1 5606   3.600   6.580   3.225
 1569SOL    HW2 5607   3.505   6.673   3.130
 1570SOL     OW 5608   1.540   6.817   6.867
 1570SOL    HW1 5609   1.513   6.760   6.945
 1570SOL    HW2 5610   1.623   6.779   6.825
 1571SOL     OW 5611   6.897   2.256   3.222
 1571SOL    HW1 5612   6.974   2.208   3.264
 1571SOL    HW2 5613   6.915   2.354   3.222
 1572SOL     OW 5614   2.022   5.430   2.139
 1572SOL    HW1 5615   2.062   5.519   2.116
 1572SOL    HW2 5616   2.082   5.382   2.203
 1573SOL     OW 5617   5.790   5.172   2.332
 1573SOL    HW1 5618   5.780   5.141   2.427
 1573SOL    HW2 5619   5.727   5.121   2.274
 1574SOL     OW 5620   6.512   2.319   3.239
 1574SOL    HW1 5621   6.456   2.285   3.314
 1574SOL    HW2 5622   6.580   2.383   3.274
 1575SOL     OW 5623   3.007   1.009   1.994
 1575SOL    HW1 5624   3.070   1.087   1.992
 1575SOL    HW2 5625   3.039   0.942   2.061
 1576SOL     OW 5626   0.740   6.750   3.399
 1576SOL    HW1 5627   0.746   6.773   3.301
 1576SOL    HW2 5628   0.650   6.778   3.434
 1577SOL     OW 5629   1.918   0.619   5.569
 1577SOL    HW1 5630   2.015   0.621   5.592
 1577SOL    HW2 5631   1.880   0.529   5.591
 1578SOL     OW 5632   4.917   1.284   6.037
 1578SOL    HW1 5633   4.900   1.370   6.084
 1578SOL    HW2 5634   4.846   1.218   6.062
 1579SOL     OW 5635   0.264   1.672   1.930
 1579SOL    HW1 5636   0.193   1.743   1.929
 1579SOL    HW2 5637   0.273   1.636   2.022
 1580SOL     OW 5638   3.450   4.038   3.567
 1580SOL    HW1 5639   3.445   4.074   3.474
 1580SOL    HW2 5640   3.359   4.040   3.609
 1581SOL     OW 5641   6.787   4.366   5.582
 1581SOL    HW1 5642   6.878   4.407   5.588
 1581SOL    HW2 5643   6.746   4.360   5.673
 1582SOL     OW 5644   3.186   6.175   4.696
 1582SOL    HW1 5645   3.192   6.241   4.771
 1582SOL    HW2 5646   3.150   6.219   4.614
 1583SOL     OW 5647   0.912   5.781   3.908
 1583SOL    HW1 5648   0.852   5.808   3.833
 1583SOL    HW2 5649   0.873   5.702   3.955
 1584SOL     OW 5650   0.770   5.133   6.011
 1584SOL    HW1 5651   0.821   5.212   5.977
 1584SOL    HW2 5652   0.688   5.164   6.059
 1585SOL     OW 5653   4.200   2.022   2.352
 1585SOL    HW1 5654   4.236   2.106   2.312
 1585SOL    HW2 5655   4.100   2.028   2.359
 1586SOL     OW 5656   3.083   5.108   2.683
 1586SOL    HW1 5657   3.133   5.182   2.638
 1586SOL    HW2 5658   3.006   5.146   2.735
 1587SOL     OW 5659   2.363   5.406   5.241
 1587SOL    HW1 5660   2.436   5.445   5.185
 1587SOL    HW2 5661   2.336   5.317   5.203
 1588SOL     OW 5662   4.876   0.926   1.923
 1588SOL    HW1 5663   4.914   0.839   1.893
 1588SOL    HW2 5664   4.881   0.993   1.848
 1589SOL     OW 5665   0.156   3.452   2.372
 1589SOL    HW1 5666   0.209   3.503   2.304
 1589SOL    HW2 5667   0.218   3.399   2.430
 1590SOL     OW 5668   5.366   1.130   3.468
 1590SOL    HW1 5669   5.272   1.103   3.447
 1590SOL    HW2 5670   5.425   1.111   3.389
 1591SOL     OW 5671   6.822   6.034   1.005
 1591SOL    HW1 5672   6.916   6.005   0.987
 1591SOL    HW2 5673   6.823   6.120   1.056
 1592SOL     OW 5674   2.239   3.568   6.683
 1592SOL    HW1 5675   2.182   3.556   6.602
 1592SOL    HW2 5676   2.191   3.534   6.763
 1593SOL     OW 5677   0.421   6.799   5.493
 1593SOL    HW1 5678   0.414   6.771   5.589
 1593SOL    HW2 5679   0.516   6.798   5.464
 1594SOL     OW 5680   0.308   6.033   2.055
 1594SOL    HW1 5681   0.298   6.130   2.077
 1594SOL    HW2 5682   0.364   5.989   2.126
 1595SOL     OW 5683   0.926   4.800   0.920
 1595SOL    HW1 5684   0.932   4.782   0.822
 1595SOL    HW2 5685   1.017   4.801   0.960
 1596SOL     OW 5686   6.656   3.237   3.213
 1596SOL    HW1 5687   6.631   3.334   3.211
 1596SOL    HW2 5688   6.616   3.195   3.294
 1597SOL     OW 5689   1.516   6.039   0.980
 1597SOL    HW1 5690   1.430   6.005   0.942
 1597SOL    HW2 5691   1.585   6.043   0.908
 1598SOL     OW 5692   1.433   4.677   6.312
 1598SOL    HW1 5693   1.369   4.749   6.340
 1598SOL    HW2 5694   1.382   4.595   6.288
 1599SOL     OW 5695   5.485   5.091   5.316
 1599SOL    HW1 5696   5.472   5.120   5.222
 1599SOL    HW2 5697   5.399   5.099   5.366
 1600SOL     OW 5698   2.666   1.747   3.128
 1600SOL    HW1 5699   2.639   1.654   3.103
 1600SOL    HW2 5700   2.595   1.811   3.100
 1601SOL     OW 5701   6.844   0.314   4.263
 1601SOL    HW1 5702   6.903   0.388   4.233
 1601SOL    HW2 5703   6.749   0.347   4.269
 1602SOL     OW 5704   4.318   4.718   3.800
 1602SOL    HW1 5705   4.225   4.698   3.830
 1602SOL    HW2 5706   4.377   4.734   3.879
 1603SOL     OW 5707   3.076   5.136   3.037
 1603SOL    HW1 5708   2.995   5.141   2.979
 1603SOL    HW2 5709   3.120   5.047   3.024
 1604SOL     OW 5710   4.530   4.787   1.617
 1604SOL    HW1 5711   4.491   4.740   1.696
 1604SOL    HW2 5712   4.459   4.839   1.571
 1605SOL     OW 5713   6.781   5.609   1.945
 1605SOL    HW1 5714   6.689   5.579   1.969
 1605SOL    HW2 5715   6.776   5.693   1.891
 1606SOL     OW 5716   3.778   5.879   5.602
 1606SOL    HW1 5717   3.794   5.977   5.588
 1606SOL    HW2 5718   3.731   5.866   5.689
 1607SOL     OW 5719   4.022   6.960   0.403
 1607SOL    HW1 5720   4.029   0.035   0.445
 1607SOL    HW2 5721   3.928   6.927   0.411
 1608SOL     OW 5722   6.524   1.008   2.611
 1608SOL    HW1 5723   6.609   1.035   2.657
 1608SOL    HW2 5724   6.506   0.912   2.629
 1609SOL     OW 5725   3.627   6.885   0.266
 1609SOL    HW1 5726   3.625   6.832   0.182
 1609SOL    HW2 5727   3.568   6.966   0.256
 1610SOL     OW 5728   5.287   6.019   0.604
 1610SOL    HW1 5729   5.292   6.025   0.703
 1610SOL    HW2 5730   5.322   5.931   0.574
 1611SOL     OW 5731   2.697   3.400   0.515
 1611SOL    HW1 5732   2.675   3.473   0.450
 1611SOL    HW2 5733   2.791   3.410   0.547
 1612SOL     OW 5734   3.540   6.962   1.144
 1612SOL    HW1 5735   3.455   6.993   1.101
 1612SOL    HW2 5736   3.584   0.022   1.191
 1613SOL     OW 5737   1.623   5.964   2.153
 1613SOL    HW1 5738   1.640   5.881   2.207
 1613SOL    HW2 5739   1.532   5.998   2.172
 1614SOL     OW 5740   5.922   1.632   6.002
 1614SOL    HW1 5741   5.873   1.689   6.067
 1614SOL    HW2 5742   5.859   1.601   5.930
 1615SOL     OW 5743   5.832   6.041   0.240
 1615SOL    HW1 5744   5.904   6.007   0.179
 1615SOL    HW2 5745   5.800   6.130   0.206
 1616SOL     OW 5746   3.862   0.840   4.370
 1616SOL    HW1 5747   3.781   0.832   4.429
 1616SOL    HW2 5748   3.860   0.928   4.323
 1617SOL     OW 5749   5.454   6.280   3.350
 1617SOL    HW1 5750   5.440   6.378   3.366
 1617SOL    HW2 5751   5.546   6.265   3.314
 1618SOL     OW 5752   1.698   6.672   3.243
 1618SOL    HW1 5753   1.745   6.760   3.245
 1618SOL    HW2 5754   1.658   6.654   3.333
 1619SOL     OW 5755   6.970   4.648   0.716
 1619SOL    HW1 5756   6.986   4.738   0.674
 1619SOL    HW2 5757   6.908   4.596   0.658
 1620SOL     OW 5758   3.322   4.765   1.465
 1620SOL    HW1 5759   3.358   4.693   1.406
 1620SOL    HW2 5760   3.341   4.742   1.561
 1621SOL     OW 5761   6.265   0.438   1.027
 1621SOL    HW1 5762   6.208   0.455   0.947
 1621SOL    HW2 5763   6.210   0.452   1.110
 1622SOL     OW 5764   0.945   3.393   5.402
 1622SOL    HW1 5765   1.020   3.331   5.379
 1622SOL    HW2 5766   0.924   3.451   5.323
 1623SOL     OW 5767   0.848   2.686   4.776
 1623SOL    HW1 5768   0.914   2.610   4.780
 1623SOL    HW2 5769   0.856   2.742   4.858
 1624SOL     OW 5770   4.006   1.106   5.273
 1624SOL    HW1 5771   3.965   1.103   5.364
 1624SOL    HW2 5772   4.094   1.154   5.278
 1625SOL     OW 5773   1.458   4.867   6.693
 1625SOL    HW1 5774   1.364   4.835   6.681
 1625SOL    HW2 5775   1.517   4.825   6.624
 1626SOL     OW 5776   3.420   0.840   1.037
 1626SOL    HW1 5777   3.389   0.746   1.053
 1626SOL    HW2 5778   3.369   0.880   0.961
 1627SOL     OW 5779   5.120   3.032   3.748
 1627SOL    HW1 5780   5.052   3.060   3.816
 1627SOL    HW2 5781   5.106   2.936   3.724
 1628SOL     OW 5782   4.362   5.681   0.281
 1628SOL    HW1 5783   4.283   5.662   0.223
 1628SOL    HW2 5784   4.368   5.613   0.354
 1629SOL     OW 5785   2.094   1.162   3.785
 1629SOL    HW1 5786   2.100   1.119   3.875
 1629SOL    HW2 5787   2.146   1.248   3.786
 1630SOL     OW 5788   0.806   4.811   5.599
 1630SOL    HW1 5789   0.713   4.844   5.580
 1630SOL    HW2 5790   0.811   4.780   5.694
 1631SOL     OW 5791   0.685   3.007   0.401
 1631SOL    HW1 5792   0.757   3.045   0.343
 1631SOL    HW2 5793   0.689   3.050   0.491
 1632SOL     OW 5794   5.019   2.686   2.176
 1632SOL    HW1 5795   5.014   2.756   2.248
 1632SOL    HW2 5796   5.012   2.730   2.087
 1633SOL     OW 5797   4.855   3.833   4.602
 1633SOL    HW1 5798   4.886   3.799   4.513
 1633SOL    HW2 5799   4.867   3.762   4.671
 1634SOL     OW 5800   4.590   6.193   4.354
 1634SOL    HW1 5801   4.580   6.228   4.261
 1634SOL    HW2 5802   4.684   6.209   4.386
 1635SOL     OW 5803   0.323   5.050   0.189
 1635SOL    HW1 5804   0.412   5.061   0.234
 1635SOL    HW2 5805   0.331   4.981   0.116
 1636SOL     OW 5806   2.954   5.290   1.538
 1636SOL    HW1 5807   2.976   5.317   1.444
 1636SOL    HW2 5808   2.975   5.193   1.550
 1637SOL     OW 5809   0.138   0.061   3.556
 1637SOL    HW1 5810   0.224   0.012   3.542
 1637SOL    HW2 5811   0.073   0.036   3.484
 1638SOL     OW 5812   1.154   3.463   2.512
 1638SOL    HW1 5813   1.218   3.398   2.470
 1638SOL    HW2 5814   1.071   3.469   2.457
 1639SOL     OW 5815   5.407   5.048   1.490
 1639SOL    HW1 5816   5.318   5.085   1.466
 1639SOL    HW2 5817   5.476   5.120   1.485
 1640SOL     OW 5818   5.912   0.661   0.175
 1640SOL    HW1 5819   5.987   0.708   0.221
 1640SOL    HW2 5820   5.906   0.691   0.080
 1641SOL     OW 5821   6.104   1.888   3.702
 1641SOL    HW1 5822   6.023   1.866   3.648
 1641SOL    HW2 5823   6.107   1.831   3.783
 1642SOL     OW 5824   6.378   3.194   0.034
 1642SOL    HW1 5825   6.337   3.221   6.963
 1642SOL    HW2 5826   6.311   3.143   0.088
 1643SOL     OW 5827   2.831   4.831   3.660
 1643SOL    HW1 5828   2.740   4.800   3.688
 1643SOL    HW2 5829   2.883   4.860   3.740
 1644SOL     OW 5830   5.719   3.714   0.147
 1644SOL    HW1 5831   5.695   3.671   0.060
 1644SOL    HW2 5832   5.812   3.751   0.142
 1645SOL     OW 5833   2.540   5.655   6.461
 1645SOL    HW1 5834   2.557   5.562   6.428
 1645SOL    HW2 5835   2.591   5.670   6.546
 1646SOL     OW 5836   2.810   6.897   0.975
 1646SOL    HW1 5837   2.718   6.937   0.975
 1646SOL    HW2 5838   2.836   6.873   0.882
 1647SOL     OW 5839   5.818   2.329   4.189
 1647SOL    HW1 5840   5.887   2.307   4.120
 1647SOL    HW2 5841   5.783   2.245   4.231
 1648SOL     OW 5842   5.120   5.858   7.012
 1648SOL    HW1 5843   5.127   5.843   6.914
 1648SOL    HW2 5844   5.144   5.774   0.045
 1649SOL     OW 5845   3.651   1.569   3.967
 1649SOL    HW1 5846   3.678   1.521   4.051
 1649SOL    HW2 5847   3.561   1.611   3.981
 1650SOL     OW 5848   0.384   5.751   5.397
 1650SOL    HW1 5849   0.328   5.734   5.478
 1650SOL    HW2 5850   0.325   5.755   5.316
 1651SOL     OW 5851   0.582   2.272   2.185
 1651SOL    HW1 5852   0.511   2.261   2.115
 1651SOL    HW2 5853   0.540   2.310   2.268
 1652SOL     OW 5854   1.440   3.131   2.490
 1652SOL    HW1 5855   1.487   3.055   2.446
 1652SOL    HW2 5856   1.488   3.156   2.574
 1653SOL     OW 5857   1.012   6.501   0.471
 1653SOL    HW1 5858   1.027   6.403   0.456
 1653SOL    HW2 5859   1.078   6.535   0.538
 1654SOL     OW 5860   6.869   3.279   1.701
 1654SOL    HW1 5861   6.872   3.379   1.706
 1654SOL    HW2 5862   6.955   3.244   1.666
 1655SOL     OW 5863   6.946   2.200   4.341
 1655SOL    HW1 5864   0.012   2.244   4.376
 1655SOL    HW2 5865   6.963   2.102   4.330
 1656SOL     OW 5866   1.789   4.981   2.860
 1656SOL    HW1 5867   1.844   5.029   2.792
 1656SOL    HW2 5868   1.849   4.941   2.929
 1657SOL     OW 5869   5.772   0.814   4.006
 1657SOL    HW1 5870   5.859   0.849   4.040
 1657SOL    HW2 5871   5.711   0.797   4.083
 1658SOL     OW 5872   6.143   1.284   0.943
 1658SOL    HW1 5873   6.064   1.239   0.900
 1658SOL    HW2 5874   6.227   1.258   0.895
 1659SOL     OW 5875   3.159   0.466   0.195
 1659SOL    HW1 5876   3.182   0.403   0.121
 1659SOL    HW2 5877   3.141   0.415   0.279
 1660SOL     OW 5878   1.828   6.113   2.314
 1660SOL    HW1 5879   1.728   6.121   2.304
 1660SOL    HW2 5880   1.864   6.054   2.242
 1661SOL     OW 5881   1.740   6.572   1.733
 1661SOL    HW1 5882   1.667   6.612   1.678
 1661SOL    HW2 5883   1.828   6.587   1.689
 1662SOL     OW 5884   0.393   1.251   4.278
 1662SOL    HW1 5885   0.375   1.229   4.374
 1662SOL    HW2 5886   0.466   1.191   4.244
 1663SOL     OW 5887   4.455   5.331   3.426
 1663SOL    HW1 5888   4.511   5.330   3.343
 1663SOL    HW2 5889   4.400   5.414   3.428
 1664SOL     OW 5890   1.909   6.284   4.729
 1664SOL    HW1 5891   1.998   6.296   4.687
 1664SOL    HW2 5892   1.855   6.219   4.675
 1665SOL     OW 5893   6.506   3.367   2.561
 1665SOL    HW1 5894   6.475   3.313   2.640
 1665SOL    HW2 5895   6.529   3.459   2.591
 1666SOL     OW 5896   5.573   1.214   6.816
 1666SOL    HW1 5897   5.520   1.232   6.898
 1666SOL    HW2 5898   5.605   1.119   6.816
 1667SOL     OW 5899   0.052   6.163   1.175
 1667SOL    HW1 5900   0.055   6.092   1.244
 1667SOL    HW2 5901   0.001   6.242   1.210
 1668SOL     OW 5902   4.913   5.529   4.074
 1668SOL    HW1 5903   4.977   5.486   4.009
 1668SOL    HW2 5904   4.935   5.498   4.166
 1669SOL     OW 5905   6.978   4.177   5.974
 1669SOL    HW1 5906   6.960   4.271   5.944
 1669SOL    HW2 5907   6.901   4.119   5.948
 1670SOL     OW 5908   6.702   4.362   5.321
 1670SOL    HW1 5909   6.791   4.346   5.277
 1670SOL    HW2 5910   6.715   4.375   5.419
 1671SOL     OW 5911   5.659   1.745   3.393
 1671SOL    HW1 5912   5.684   1.720   3.487
 1671SOL    HW2 5913   5.614   1.668   3.348
 1672SOL     OW 5914   2.281   3.543   0.791
 1672SOL    HW1 5915   2.224   3.582   0.863
 1672SOL    HW2 5916   2.363   3.503   0.832
 1673SOL     OW 5917   1.217   1.985   4.823
 1673SOL    HW1 5918   1.302   2.038   4.816
 1673SOL    HW2 5919   1.212   1.920   4.747
 1674SOL     OW 5920   0.763   3.222   2.275
 1674SOL    HW1 5921   0.716   3.295   2.226
 1674SOL    HW2 5922   0.772   3.246   2.371
 1675SOL     OW 5923   4.525   0.137   6.873
 1675SOL    HW1 5924   4.431   0.123   6.905
 1675SOL    HW2 5925   4.589   0.116   6.947
 1676SOL     OW 5926   2.382   2.719   1.841
 1676SOL    HW1 5927   2.374   2.737   1.743
 1676SOL    HW2 5928   2.452   2.650   1.857
 1677SOL     OW 5929   3.685   3.747   3.915
 1677SOL    HW1 5930   3.610   3.785   3.969
 1677SOL    HW2 5931   3.758   3.814   3.907
 1678SOL     OW 5932   6.821   4.551   2.400
 1678SOL    HW1 5933   6.845   4.596   2.314
 1678SOL    HW2 5934   6.734   4.586   2.433
 1679SOL     OW 5935   2.074   1.312   4.694
 1679SOL    HW1 5936   2.084   1.320   4.793
 1679SOL    HW2 5937   2.127   1.233   4.661
 1680SOL     OW 5938   0.687   3.505   5.223
 1680SOL    HW1 5939   0.761   3.472   5.164
 1680SOL    HW2 5940   0.658   3.432   5.285
 1681SOL     OW 5941   0.302   5.057   6.651
 1681SOL    HW1 5942   0.295   4.959   6.669
 1681SOL    HW2 5943   0.232   5.084   6.585
 1682SOL     OW 5944   1.001   0.505   5.941
 1682SOL    HW1 5945   0.931   0.528   6.009
 1682SOL    HW2 5946   0.957   0.492   5.852
 1683SOL     OW 5947   5.806   5.409   2.834
 1683SOL    HW1 5948   5.810   5.335   2.901
 1683SOL    HW2 5949   5.715   5.409   2.791
 1684SOL     OW 5950   0.491   5.914   2.214
 1684SOL    HW1 5951   0.508   5.835   2.274
 1684SOL    HW2 5952   0.567   5.924   2.150
 1685SOL     OW 5953   1.496   1.255   5.430
 1685SOL    HW1 5954   1.498   1.331   5.496
 1685SOL    HW2 5955   1.479   1.170   5.479
 1686SOL     OW 5956   2.209   6.301   4.011
 1686SOL    HW1 5957   2.192   6.222   3.953
 1686SOL    HW2 5958   2.270   6.275   4.086
 1687SOL     OW 5959   1.652   2.692   1.813
 1687SOL    HW1 5960   1.704   2.705   1.898
 1687SOL    HW2 5961   1.605   2.603   1.816
 1688SOL     OW 5962   2.567   1.902   3.860
 1688SOL    HW1 5963   2.547   1.841   3.937
 1688SOL    HW2 5964   2.657   1.879   3.822
 1689SOL     OW 5965   6.469   0.838   3.065
 1689SOL    HW1 5966   6.389   0.837   3.004
 1689SOL    HW2 5967   6.549   0.803   3.016
 1690SOL     OW 5968   1.421   2.487   4.781
 1690SOL    HW1 5969   1.432   2.586   4.784
 1690SOL    HW2 5970   1.398   2.459   4.687
 1691SOL     OW 5971   5.307   2.940   4.129
 1691SOL    HW1 5972   5.208   2.951   4.117
 1691SOL    HW2 5973   5.342   3.015   4.186
 1692SOL     OW 5974   4.409   6.240   1.182
 1692SOL    HW1 5975   4.432   6.316   1.242
 1692SOL    HW2 5976   4.324   6.197   1.213
 1693SOL     OW 5977   6.632   2.148   2.987
 1693SOL    HW1 5978   6.628   2.217   3.059
 1693SOL    HW2 5979   6.700   2.079   3.011
 1694SOL     OW 5980   6.212   1.803   3.405
 1694SOL    HW1 5981   6.128   1.845   3.440
 1694SOL    HW2 5982   6.268   1.873   3.361
 1695SOL     OW 5983   3.746   0.790   6.416
 1695SOL    HW1 5984   3.692   0.874   6.413
 1695SOL    HW2 5985   3.702   0.725   6.478
 1696SOL     OW 5986   3.778   6.024   1.428
 1696SOL    HW1 5987   3.861   5.977   1.402
 1696SOL    HW2 5988   3.735   5.977   1.505
 1697SOL     OW 5989   6.770   1.669   0.193
 1697SOL    HW1 5990   6.833   1.592   0.190
 1697SOL    HW2 5991   6.802   1.735   0.261
 1698SOL     OW 5992   3.578   6.810   0.844
 1698SOL    HW1 5993   3.594   6.885   0.780
 1698SOL    HW2 5994   3.552   6.847   0.933
 1699SOL     OW 5995   2.366   1.207   6.721
 1699SOL    HW1 5996   2.385   1.305   6.721
 1699SOL    HW2 5997   2.441   1.159   6.765
 1700SOL     OW 5998   6.267   4.173   3.849
 1700SOL    HW1 5999   6.224   4.254   3.890
 1700SOL    HW2 6000   6.293   4.109   3.921
 1701SOL     OW 6001   5.769   5.330   6.064
 1701SOL    HW1 6002   5.718   5.346   5.979
 1701SOL    HW2 6003   5.712   5.281   6.129
 1702SOL     OW 6004   6.438   1.712   0.993
 1702SOL    HW1 6005   6.356   1.683   1.041
 1702SOL    HW2 6006   6.464   1.804   1.022
 1703SOL     OW 6007   3.621   1.839   0.262
 1703SOL    HW1 6008   3.554   1.773   0.231
 1703SOL    HW2 6009   3.687   1.856   0.189
 1704SOL     OW 6010   0.941   2.431   0.251
 1704SOL    HW1 6011   0.963   2.521   0.288
 1704SOL    HW2 6012   1.012   2.366   0.280
 1705SOL     OW 6013   3.300   2.174   1.813
 1705SOL    HW1 6014   3.219   2.134   1.856
 1705SOL    HW2 6015   3.274   2.258   1.766
 1706SOL     OW 6016   4.997   1.522   1.519
 1706SOL    HW1 6017   5.094   1.495   1.521
 1706SOL    HW2 6018   4.951   1.484   1.599
 1707SOL     OW 6019   4.064   1.939   2.730
 1707SOL    HW1 6020   4.070   1.995   2.813
 1707SOL    HW2 6021   4.022   1.993   2.657
 1708SOL     OW 6022   4.873   6.010   1.916
 1708SOL    HW1 6023   4.846   6.101   1.884
 1708SOL    HW2 6024   4.955   6.017   1.972
 1709SOL     OW 6025   3.394   6.616   2.972
 1709SOL    HW1 6026   3.346   6.698   2.939
 1709SOL    HW2 6027   3.383   6.542   2.906
 1710SOL     OW 6028   3.921   4.891   2.940
 1710SOL    HW1 6029   4.004   4.844   2.972
 1710SOL    HW2 6030   3.888   4.952   3.012
 1711SOL     OW 6031   1.695   5.140   4.465
 1711SOL    HW1 6032   1.724   5.178   4.377
 1711SOL    HW2 6033   1.761   5.072   4.495
 1712SOL     OW 6034   6.940   2.187   4.660
 1712SOL    HW1 6035   6.926   2.266   4.601
 1712SOL    HW2 6036   6.955   2.217   4.754
 1713SOL     OW 6037   4.643   2.341   2.230
 1713SOL    HW1 6038   4.729   2.391   2.214
 1713SOL    HW2 6039   4.583   2.396   2.289
 1714SOL     OW 6040   3.736   1.751   6.188
 1714SOL    HW1 6041   3.809   1.767   6.254
 1714SOL    HW2 6042   3.743   1.818   6.114
 1715SOL     OW 6043   2.071   6.142   3.590
 1715SOL    HW1 6044   2.118   6.096   3.665
 1715SOL    HW2 6045   2.112   6.232   3.575
 1716SOL     OW 6046   4.022   6.746   3.899
 1716SOL    HW1 6047   3.977   6.778   3.982
 1716SOL    HW2 6048   4.058   6.654   3.914
 1717SOL     OW 6049   3.475   5.806   4.706
 1717SOL    HW1 6050   3.500   5.717   4.668
 1717SOL    HW2 6051   3.546   5.873   4.684
 1718SOL     OW 6052   3.160   1.711   2.143
 1718SOL    HW1 6053   3.229   1.704   2.215
 1718SOL    HW2 6054   3.205   1.708   2.054
 1719SOL     OW 6055   1.830   3.034   0.796
 1719SOL    HW1 6056   1.878   3.119   0.814
 1719SOL    HW2 6057   1.873   2.960   0.847
 1720SOL     OW 6058   7.006   2.799   6.456
 1720SOL    HW1 6059   0.065   2.854   6.493
 1720SOL    HW2 6060   7.009   2.802   6.357
 1721SOL     OW 6061   2.018   6.814   1.055
 1721SOL    HW1 6062   1.978   6.786   1.142
 1721SOL    HW2 6063   2.105   6.859   1.071
 1722SOL     OW 6064   3.409   1.751   3.559
 1722SOL    HW1 6065   3.448   1.827   3.508
 1722SOL    HW2 6066   3.380   1.679   3.495
 1723SOL     OW 6067   5.597   2.341   6.807
 1723SOL    HW1 6068   5.519   2.343   6.870
 1723SOL    HW2 6069   5.633   2.433   6.795
 1724SOL     OW 6070   0.619   2.985   2.312
 1724SOL    HW1 6071   0.688   3.058   2.304
 1724SOL    HW2 6072   0.545   3.003   2.248
 1725SOL     OW 6073   1.768   5.025   6.252
 1725SOL    HW1 6074   1.687   5.063   6.297
 1725SOL    HW2 6075   1.764   5.045   6.154
 1726SOL     OW 6076   5.506   4.053   4.244
 1726SOL    HW1 6077   5.416   4.091   4.225
 1726SOL    HW2 6078   5.521   4.050   4.343
 1727SOL     OW 6079   4.075   3.263   3.797
 1727SOL    HW1 6080   4.170   3.240   3.818
 1727SOL    HW2 6081   4.068   3.361   3.781
 1728SOL     OW 6082   5.970   5.219   5.285
 1728SOL    HW1 6083   5.941   5.167   5.365
 1728SOL    HW2 6084   5.898   5.284   5.260
 1729SOL     OW 6085   2.098   3.935   2.975
 1729SOL    HW1 6086   2.135   4.011   2.922
 1729SOL    HW2 6087   2.077   3.859   2.914
 1730SOL     OW 6088   2.283   0.402   5.441
 1730SOL    HW1 6089   2.278   0.464   5.520
 1730SOL    HW2 6090   2.191   0.368   5.420
 1731SOL     OW 6091   0.321   4.413   3.460
 1731SOL    HW1 6092   0.392   4.445   3.523
 1731SOL    HW2 6093   0.283   4.326   3.493
 1732SOL     OW 6094   2.347   4.866   6.168
 1732SOL    HW1 6095   2.340   4.782   6.114
 1732SOL    HW2 6096   2.302   4.853   6.256
 1733SOL     OW 6097   1.671   4.121   1.579
 1733SOL    HW1 6098   1.718   4.191   1.525
 1733SOL    HW2 6099   1.738   4.051   1.607
 1734SOL     OW 6100   4.786   2.705   1.303
 1734SOL    HW1 6101   4.766   2.661   1.215
 1734SOL    HW2 6102   4.701   2.723   1.352
 1735SOL     OW 6103   4.631   5.691   6.511
 1735SOL    HW1 6104   4.621   5.605   6.562
 1735SOL    HW2 6105   4.569   5.759   6.548
 1736SOL     OW 6106   3.677   3.878   1.103
 1736SOL    HW1 6107   3.738   3.842   1.173
 1736SOL    HW2 6108   3.585   3.839   1.116
 1737SOL     OW 6109   4.536   0.172   4.781
 1737SOL    HW1 6110   4.537   0.264   4.741
 1737SOL    HW2 6111   4.623   0.154   4.827
 1738SOL     OW 6112   2.421   2.432   4.654
 1738SOL    HW1 6113   2.450   2.409   4.747
 1738SOL    HW2 6114   2.402   2.529   4.648
 1739SOL     OW 6115   6.550   1.706   4.487
 1739SOL    HW1 6116   6.592   1.727   4.399
 1739SOL    HW2 6117   6.618   1.665   4.548
 1740SOL     OW 6118   0.166   2.585   5.201
 1740SOL    HW1 6119   0.138   2.616   5.292
 1740SOL    HW2 6120   0.195   2.664   5.147
 1741SOL     OW 6121   2.425   0.749   4.390
 1741SOL    HW1 6122   2.452   0.814   4.461
 1741SOL    HW2 6123   2.387   0.799   4.312
 1742SOL     OW 6124   6.006   0.553   5.137
 1742SOL    HW1 6125   5.933   0.488   5.119
 1742SOL    HW2 6126   6.046   0.583   5.050
 1743SOL     OW 6127   0.578   1.504   2.386
 1743SOL    HW1 6128   0.566   1.408   2.359
 1743SOL    HW2 6129   0.576   1.562   2.305
 1744SOL     OW 6130   6.442   3.290   3.480
 1744SOL    HW1 6131   6.446   3.368   3.542
 1744SOL    HW2 6132   6.354   3.290   3.432
 1745SOL     OW 6133   5.431   5.997   2.841
 1745SOL    HW1 6134   5.391   6.077   2.796
 1745SOL    HW2 6135   5.456   5.929   2.773
 1746SOL     OW 6136   1.627   4.579   4.112
 1746SOL    HW1 6137   1.697   4.512   4.089
 1746SOL    HW2 6138   1.558   4.537   4.172
 1747SOL     OW 6139   4.157   1.200   2.559
 1747SOL    HW1 6140   4.132   1.291   2.590
 1747SOL    HW2 6141   4.203   1.206   2.470
 1748SOL     OW 6142   6.759   1.911   4.616
 1748SOL    HW1 6143   6.811   1.996   4.605
 1748SOL    HW2 6144   6.666   1.925   4.583
 1749SOL     OW 6145   2.132   6.795   5.739
 1749SOL    HW1 6146   2.136   6.871   5.804
 1749SOL    HW2 6147   2.190   6.720   5.771
 1750SOL     OW 6148   5.174   0.067   3.944
 1750SOL    HW1 6149   5.137   7.001   3.986
 1750SOL    HW2 6150   5.235   0.114   4.008
 1751SOL     OW 6151   4.780   1.808   4.600
 1751SOL    HW1 6152   4.820   1.797   4.509
 1751SOL    HW2 6153   4.796   1.725   4.654
 1752SOL     OW 6154   6.202   0.712   2.037
 1752SOL    HW1 6155   6.218   0.675   1.945
 1752SOL    HW2 6156   6.282   0.765   2.065
 1753SOL     OW 6157   6.913   0.635   1.476
 1753SOL    HW1 6158   6.872   0.547   1.451
 1753SOL    HW2 6159   6.948   0.630   1.569
 1754SOL     OW 6160   2.122   5.018   6.685
 1754SOL    HW1 6161   2.033   5.050   6.653
 1754SOL    HW2 6162   2.194   5.058   6.630
 1755SOL     OW 6163   6.946   5.300   6.990
 1755SOL    HW1 6164   7.008   5.258   6.925
 1755SOL    HW2 6165   6.971   5.396   7.003
 1756SOL     OW 6166   4.068   5.728   5.494
 1756SOL    HW1 6167   4.040   5.644   5.540
 1756SOL    HW2 6168   4.032   5.729   5.401
 1757SOL     OW 6169   3.326   5.499   4.717
 1757SOL    HW1 6170   3.342   5.503   4.816
 1757SOL    HW2 6171   3.410   5.525   4.669
 1758SOL     OW 6172   1.937   1.124   4.406
 1758SOL    HW1 6173   1.894   1.117   4.316
 1758SOL    HW2 6174   1.948   1.220   4.430
 1759SOL     OW 6175   2.450   6.192   5.561
 1759SOL    HW1 6176   2.537   6.203   5.513
 1759SOL    HW2 6177   2.375   6.197   5.496
 1760SOL     OW 6178   6.056   0.946   3.762
 1760SOL    HW1 6179   6.131   1.005   3.791
 1760SOL    HW2 6180   5.969   0.994   3.775
 1761SOL     OW 6181   0.635   1.075   1.907
 1761SOL    HW1 6182   0.555   1.078   1.967
 1761SOL    HW2 6183   0.619   1.134   1.828
 1762SOL     OW 6184   0.310   1.148   4.503
 1762SOL    HW1 6185   0.271   1.231   4.543
 1762SOL    HW2 6186   0.238   1.082   4.486
 1763SOL     OW 6187   0.815   4.675   3.980
 1763SOL    HW1 6188   0.862   4.763   3.990
 1763SOL    HW2 6189   0.745   4.683   3.909
 1764SOL     OW 6190   1.826   3.124   1.773
 1764SOL    HW1 6191   1.788   3.216   1.766
 1764SOL    HW2 6192   1.919   3.129   1.808
 1765SOL     OW 6193   3.602   0.760   1.597
 1765SOL    HW1 6194   3.566   0.837   1.650
 1765SOL    HW2 6195   3.566   0.675   1.634
 1766SOL     OW 6196   5.686   4.363   3.939
 1766SOL    HW1 6197   5.602   4.354   3.886
 1766SOL    HW2 6198   5.765   4.357   3.879
 1767SOL     OW 6199   0.904   4.271   3.737
 1767SOL    HW1 6200   0.921   4.369   3.744
 1767SOL    HW2 6201   0.808   4.253   3.760
 1768SOL     OW 6202   3.264   1.056   0.063
 1768SOL    HW1 6203   3.319   1.006   0.130
 1768SOL    HW2 6204   3.275   1.013   6.989
 1769SOL     OW 6205   5.661   1.456   6.719
 1769SOL    HW1 6206   5.749   1.482   6.760
 1769SOL    HW2 6207   5.635   1.366   6.752
 1770SOL     OW 6208   6.992   4.791   4.894
 1770SOL    HW1 6209   6.896   4.764   4.887
 1770SOL    HW2 6210   0.004   4.790   4.990
 1771SOL     OW 6211   1.794   5.160   0.511
 1771SOL    HW1 6212   1.878   5.188   0.558
 1771SOL    HW2 6213   1.750   5.087   0.563
 1772SOL     OW 6214   3.399   5.532   3.803
 1772SOL    HW1 6215   3.450   5.518   3.718
 1772SOL    HW2 6216   3.304   5.504   3.789
 1773SOL     OW 6217   2.373   2.257   5.999
 1773SOL    HW1 6218   2.342   2.177   6.051
 1773SOL    HW2 6219   2.346   2.341   6.047
 1774SOL     OW 6220   5.486   6.805   1.604
 1774SOL    HW1 6221   5.410   6.780   1.665
 1774SOL    HW2 6222   5.515   6.725   1.553
 1775SOL     OW 6223   1.735   5.400   6.111
 1775SOL    HW1 6224   1.821   5.361   6.081
 1775SOL    HW2 6225   1.661   5.335   6.093
 1776SOL     OW 6226   5.221   0.156   6.265
 1776SOL    HW1 6227   5.177   0.245   6.276
 1776SOL    HW2 6228   5.320   0.167   6.275
 1777SOL     OW 6229   2.921   6.946   6.723
 1777SOL    HW1 6230   2.982   6.958   6.645
 1777SOL    HW2 6231   2.892   6.851   6.728
 1778SOL     OW 6232   4.930   2.284   4.370
 1778SOL    HW1 6233   4.893   2.376   4.380
 1778SOL    HW2 6234   4.985   2.261   4.451
 1779SOL     OW 6235   5.043   0.665   5.689
 1779SOL    HW1 6236   5.045   0.675   5.789
 1779SOL    HW2 6237   5.116   0.603   5.660
 1780SOL     OW 6238   1.766   3.555   5.783
 1780SOL    HW1 6239   1.747   3.617   5.707
 1780SOL    HW2 6240   1.862   3.528   5.781
 1781SOL     OW 6241   5.286   6.198   4.980
 1781SOL    HW1 6242   5.270   6.171   4.885
 1781SOL    HW2 6243   5.375   6.163   5.010
 1782SOL     OW 6244   2.350   1.010   2.908
 1782SOL    HW1 6245   2.333   0.914   2.886
 1782SOL    HW2 6246   2.395   1.055   2.831
 1783SOL     OW 6247   3.240   3.722   6.544
 1783SOL    HW1 6248   3.185   3.643   6.515
 1783SOL    HW2 6249   3.337   3.701   6.532
 1784SOL     OW 6250   2.267   1.356   1.067
 1784SOL    HW1 6251   2.361   1.376   1.037
 1784SOL    HW2 6252   2.209   1.344   0.987
 1785SOL     OW 6253   6.184   6.806   4.142
 1785SOL    HW1 6254   6.144   6.815   4.050
 1785SOL    HW2 6255   6.134   6.736   4.193
 1786SOL     OW 6256   2.217   5.047   6.954
 1786SOL    HW1 6257   2.136   5.102   6.974
 1786SOL    HW2 6258   2.217   5.020   6.858
 1787SOL     OW 6259   2.537   1.995   6.128
 1787SOL    HW1 6260   2.483   1.920   6.090
 1787SOL    HW2 6261   2.569   1.970   6.219
 1788SOL     OW 6262   4.537   4.003   6.721
 1788SOL    HW1 6263   4.475   4.079   6.739
 1788SOL    HW2 6264   4.546   3.989   6.622
 1789SOL     OW 6265   5.749   3.240   1.562
 1789SOL    HW1 6266   5.799   3.158   1.593
 1789SOL    HW2 6267   5.717   3.291   1.641
 1790SOL     OW 6268   2.721   1.088   4.497
 1790SOL    HW1 6269   2.730   1.180   4.535
 1790SOL    HW2 6270   2.788   1.076   4.423
 1791SOL     OW 6271   6.874   1.422   3.404
 1791SOL    HW1 6272   6.871   1.503   3.345
 1791SOL    HW2 6273   6.824   1.441   3.489
 1792SOL     OW 6274   0.196   1.334   4.683
 1792SOL    HW1 6275   0.160   1.391   4.609
 1792SOL    HW2 6276   0.156   1.364   4.770
 1793SOL     OW 6277   6.717   1.788   4.240
 1793SOL    HW1 6278   6.739   1.800   4.143
 1793SOL    HW2 6279   6.619   1.802   4.254
 1794SOL     OW 6280   5.242   6.524   5.373
 1794SOL    HW1 6281   5.211   6.447   5.317
 1794SOL    HW2 6282   5.324   6.498   5.423
 1795SOL     OW 6283   6.683   5.149   1.959
 1795SOL    HW1 6284   6.606   5.188   1.909
 1795SOL    HW2 6285   6.678   5.179   2.055
 1796SOL     OW 6286   2.416   1.646   5.779
 1796SOL    HW1 6287   2.510   1.676   5.790
 1796SOL    HW2 6288   2.364   1.716   5.731
 1797SOL     OW 6289   1.200   6.832   5.853
 1797SOL    HW1 6290   1.285   6.850   5.903
 1797SOL    HW2 6291   1.219   6.776   5.772
 1798SOL     OW 6292   3.507   3.223   4.727
 1798SOL    HW1 6293   3.467   3.174   4.804
 1798SOL    HW2 6294   3.568   3.161   4.677
 1799SOL     OW 6295   5.118   2.713   6.439
 1799SOL    HW1 6296   5.058   2.748   6.368
 1799SOL    HW2 6297   5.075   2.728   6.529
 1800SOL     OW 6298   4.887   5.157   3.930
 1800SOL    HW1 6299   4.894   5.179   3.833
 1800SOL    HW2 6300   4.800   5.191   3.966
 1801SOL     OW 6301   0.918   1.761   2.290
 1801SOL    HW1 6302   0.825   1.773   2.255
 1801SOL    HW2 6303   0.983   1.785   2.218
 1802SOL     OW 6304   6.144   5.980   3.459
 1802SOL    HW1 6305   6.067   5.930   3.420
 1802SOL    HW2 6306   6.204   5.917   3.507
 1803SOL     OW 6307   0.200   6.851   1.858
 1803SOL    HW1 6308   0.252   6.908   1.921
 1803SOL    HW2 6309   0.260   6.820   1.784
 1804SOL     OW 6310   3.962   3.054   4.809
 1804SOL    HW1 6311   3.983   3.081   4.715
 1804SOL    HW2 6312   3.978   3.131   4.870
 1805SOL     OW 6313   0.673   5.484   5.914
 1805SOL    HW1 6314   0.584   5.481   5.869
 1805SOL    HW2 6315   0.745   5.483   5.845
 1806SOL     OW 6316   0.833   2.783   1.720
 1806SOL    HW1 6317   0.816   2.775   1.818
 1806SOL    HW2 6318   0.785   2.864   1.685
 1807SOL     OW 6319   5.830   2.579   6.475
 1807SOL    HW1 6320   5.783   2.491   6.468
 1807SOL    HW2 6321   5.920   2.565   6.517
 1808SOL     OW 6322   6.157   3.927   4.379
 1808SOL    HW1 6323   6.137   3.829   4.388
 1808SOL    HW2 6324   6.135   3.972   4.465
 1809SOL     OW 6325   3.061   1.944   5.512
 1809SOL    HW1 6326   3.008   1.894   5.581
 1809SOL    HW2 6327   3.002   1.965   5.434
 1810SOL     OW 6328   0.654   0.581   5.107
 1810SOL    HW1 6329   0.743   0.541   5.128
 1810SOL    HW2 6330   0.663   0.648   5.033
 1811SOL     OW 6331   5.452   4.647   2.154
 1811SOL    HW1 6332   5.360   4.621   2.185
 1811SOL    HW2 6333   5.482   4.584   2.083
 1812SOL     OW 6334   4.066   6.769   6.330
 1812SOL    HW1 6335   4.158   6.783   6.291
 1812SOL    HW2 6336   4.000   6.760   6.255
 1813SOL     OW 6337   5.251   4.999   2.335
 1813SOL    HW1 6338   5.214   5.063   2.403
 1813SOL    HW2 6339   5.351   4.994   2.346
 1814SOL     OW 6340   5.943   0.482   0.574
 1814SOL    HW1 6341   5.872   0.512   0.510
 1814SOL    HW2 6342   6.031   0.478   0.527
 1815SOL     OW 6343   6.450   0.044   2.888
 1815SOL    HW1 6344   6.364   0.092   2.907
 1815SOL    HW2 6345   6.479   0.065   2.794
 1816SOL     OW 6346   3.474   5.009   6.181
 1816SOL    HW1 6347   3.393   4.973   6.134
 1816SOL    HW2 6348   3.491   4.957   6.264
 1817SOL     OW 6349   3.243   1.078   3.047
 1817SOL    HW1 6350   3.165   1.055   3.106
 1817SOL    HW2 6351   3.229   1.168   3.007
 1818SOL     OW 6352   1.639   0.139   0.163
 1818SOL    HW1 6353   1.563   0.086   0.202
 1818SOL    HW2 6354   1.669   0.207   0.230
 1819SOL     OW 6355   1.694   5.183   2.265
 1819SOL    HW1 6356   1.610   5.134   2.242
 1819SOL    HW2 6357   1.773   5.131   2.231
 1820SOL     OW 6358   3.480   0.084   2.738
 1820SOL    HW1 6359   3.486   0.176   2.778
 1820SOL    HW2 6360   3.493   0.090   2.639
 1821SOL     OW 6361   3.147   0.804   2.143
 1821SOL    HW1 6362   3.245   0.824   2.152
 1821SOL    HW2 6363   3.100   0.828   2.228
 1822SOL     OW 6364   1.170   3.313   1.621
 1822SOL    HW1 6365   1.248   3.334   1.680
 1822SOL    HW2 6366   1.185   3.225   1.577
 1823SOL     OW 6367   2.848   6.048   3.131
 1823SOL    HW1 6368   2.821   6.133   3.085
 1823SOL    HW2 6369   2.832   5.970   3.070
 1824SOL     OW 6370   4.134   4.151   0.568
 1824SOL    HW1 6371   4.203   4.079   0.577
 1824SOL    HW2 6372   4.137   4.189   0.475
 1825SOL     OW 6373   0.467   3.051   4.650
 1825SOL    HW1 6374   0.524   3.085   4.576
 1825SOL    HW2 6375   0.522   2.996   4.713
 1826SOL     OW 6376   3.138   1.031   1.082
 1826SOL    HW1 6377   3.218   1.066   1.032
 1826SOL    HW2 6378   3.060   1.091   1.067
 1827SOL     OW 6379   5.460   5.361   0.985
 1827SOL    HW1 6380   5.373   5.411   0.989
 1827SOL    HW2 6381   5.455   5.282   1.046
 1828SOL     OW 6382   1.649   3.059   6.426
 1828SOL    HW1 6383   1.596   2.978   6.401
 1828SOL    HW2 6384   1.635   3.130   6.358
 1829SOL     OW 6385   3.924   6.921   3.657
 1829SOL    HW1 6386   3.982   6.895   3.735
 1829SOL    HW2 6387   3.982   6.948   3.581
 1830SOL     OW 6388   5.734   6.528   4.902
 1830SOL    HW1 6389   5.720   6.568   4.993
 1830SOL    HW2 6390   5.646   6.500   4.864
 1831SOL     OW 6391   5.113   6.134   3.029
 1831SOL    HW1 6392   5.105   6.155   3.126
 1831SOL    HW2 6393   5.190   6.184   2.990
 1832SOL     OW 6394   3.585   2.733   0.186
 1832SOL    HW1 6395   3.533   2.649   0.167
 1832SOL    HW2 6396   3.550   2.807   0.129
 1833SOL     OW 6397   5.238   0.336   1.332
 1833SOL    HW1 6398   5.246   0.433   1.313
 1833SOL    HW2 6399   5.142   0.313   1.350
 1834SOL     OW 6400   2.354   3.583   1.188
 1834SOL    HW1 6401   2.415   3.661   1.177
 1834SOL    HW2 6402   2.397   3.516   1.249
 1835SOL     OW 6403   0.973   4.866   1.661
 1835SOL    HW1 6404   0.885   4.830   1.628
 1835SOL    HW2 6405   1.037   4.872   1.584
 1836SOL     OW 6406   5.486   2.684   2.066
 1836SOL    HW1 6407   5.450   2.684   1.973
 1836SOL    HW2 6408   5.444   2.758   2.118
 1837SOL     OW 6409   1.768   0.030   5.880
 1837SOL    HW1 6410   1.685   0.076   5.848
 1837SOL    HW2 6411   1.751   6.948   5.890
 1838SOL     OW 6412   5.808   0.666   6.113
 1838SOL    HW1 6413   5.771   0.712   6.194
 1838SOL    HW2 6414   5.843   0.576   6.139
 1839SOL     OW 6415   6.047   0.825   6.100
 1839SOL    HW1 6416   6.016   0.920   6.099
 1839SOL    HW2 6417   5.968   0.765   6.109
 1840SOL     OW 6418   3.895   0.288   2.558
 1840SOL    HW1 6419   3.932   0.330   2.475
 1840SOL    HW2 6420   3.919   0.191   2.560
 1841SOL     OW 6421   2.024   0.146   2.920
 1841SOL    HW1 6422   2.002   0.065   2.975
 1841SOL    HW2 6423   2.005   0.228   2.973
 1842SOL     OW 6424   1.014   5.363   0.881
 1842SOL    HW1 6425   1.102   5.398   0.912
 1842SOL    HW2 6426   0.992   5.404   0.792
 1843SOL     OW 6427   5.338   0.571   4.066
 1843SOL    HW1 6428   5.309   0.659   4.104
 1843SOL    HW2 6429   5.288   0.553   3.982
 1844SOL     OW 6430   4.320   1.105   5.499
 1844SOL    HW1 6431   4.228   1.070   5.513
 1844SOL    HW2 6432   4.333   1.129   5.403
 1845SOL     OW 6433   2.893   6.837   3.954
 1845SOL    HW1 6434   2.914   6.905   4.024
 1845SOL    HW2 6435   2.959   6.761   3.962
 1846SOL     OW 6436   4.786   1.241   3.514
 1846SOL    HW1 6437   4.711   1.302   3.486
 1846SOL    HW2 6438   4.795   1.167   3.448
 1847SOL     OW 6439   1.344   0.020   5.501
 1847SOL    HW1 6440   1.397   6.950   5.499
 1847SOL    HW2 6441   1.360   0.070   5.416
 1848SOL     OW 6442   1.582   6.040   4.161
 1848SOL    HW1 6443   1.657   6.105   4.161
 1848SOL    HW2 6444   1.518   6.062   4.087
 1849SOL     OW 6445   4.319   2.529   1.378
 1849SOL    HW1 6446   4.371   2.444   1.387
 1849SOL    HW2 6447   4.352   2.596   1.445
 1850SOL     OW 6448   5.679   1.725   2.771
 1850SOL    HW1 6449   5.689   1.677   2.858
 1850SOL    HW2 6450   5.593   1.776   2.770
 1851SOL     OW 6451   1.194   3.416   6.947
 1851SOL    HW1 6452   1.098   3.414   6.922
 1851SOL    HW2 6453   1.216   3.335   7.002
 1852SOL     OW 6454   0.404   4.677   1.910
 1852SOL    HW1 6455   0.474   4.668   1.840
 1852SOL    HW2 6456   0.448   4.688   2.000
 1853SOL     OW 6457   6.900   2.514   3.259
 1853SOL    HW1 6458   6.840   2.555   3.189
 1853SOL    HW2 6459   6.993   2.548   3.246
 1854SOL     OW 6460   1.480   5.010   2.856
 1854SOL    HW1 6461   1.573   5.027   2.888
 1854SOL    HW2 6462   1.429   4.962   2.927
 1855SOL     OW 6463   5.282   3.031   5.224
 1855SOL    HW1 6464   5.331   2.958   5.176
 1855SOL    HW2 6465   5.337   3.115   5.222
 1856SOL     OW 6466   3.643   3.160   6.202
 1856SOL    HW1 6467   3.573   3.123   6.140
 1856SOL    HW2 6468   3.630   3.121   6.293
 1857SOL     OW 6469   4.567   1.497   0.172
 1857SOL    HW1 6470   4.607   1.433   0.106
 1857SOL    HW2 6471   4.634   1.514   0.245
 1858SOL     OW 6472   5.724   2.657   3.268
 1858SOL    HW1 6473   5.650   2.592   3.285
 1858SOL    HW2 6474   5.686   2.747   3.245
 1859SOL     OW 6475   4.798   1.693   3.578
 1859SOL    HW1 6476   4.879   1.635   3.580
 1859SOL    HW2 6477   4.769   1.707   3.483
 1860SOL     OW 6478   0.384   1.605   5.792
 1860SOL    HW1 6479   0.416   1.511   5.778
 1860SOL    HW2 6480   0.302   1.621   5.738
 1861SOL     OW 6481   4.593   0.559   3.186
 1861SOL    HW1 6482   4.689   0.559   3.216
 1861SOL    HW2 6483   4.536   0.602   3.257
 1862SOL     OW 6484   1.650   6.597   6.596
 1862SOL    HW1 6485   1.691   6.656   6.665
 1862SOL    HW2 6486   1.572   6.548   6.636
 1863SOL     OW 6487   6.905   2.894   1.714
 1863SOL    HW1 6488   6.926   2.799   1.735
 1863SOL    HW2 6489   6.895   2.945   1.799
 1864SOL     OW 6490   3.755   5.832   3.894
 1864SOL    HW1 6491   3.792   5.892   3.965
 1864SOL    HW2 6492   3.763   5.737   3.924
 1865SOL     OW 6493   3.489   0.932   1.295
 1865SOL    HW1 6494   3.476   0.888   1.206
 1865SOL    HW2 6495   3.419   1.001   1.310
 1866SOL     OW 6496   6.464   4.860   3.937
 1866SOL    HW1 6497   6.515   4.938   3.973
 1866SOL    HW2 6498   6.396   4.892   3.872
 1867SOL     OW 6499   2.148   3.383   1.110
 1867SOL    HW1 6500   2.224   3.446   1.127
 1867SOL    HW2 6501   2.113   3.398   1.017
 1868SOL     OW 6502   5.004   3.353   5.778
 1868SOL    HW1 6503   4.917   3.368   5.825
 1868SOL    HW2 6504   5.013   3.419   5.703
 1869SOL     OW 6505   6.031   3.305   4.303
 1869SOL    HW1 6506   5.971   3.364   4.250
 1869SOL    HW2 6507   6.015   3.210   4.278
 1870SOL     OW 6508   1.064   3.278   4.714
 1870SOL    HW1 6509   1.107   3.206   4.660
 1870SOL    HW2 6510   0.970   3.253   4.734
 1871SOL     OW 6511   6.304   6.733   0.296
 1871SOL    HW1 6512   6.371   6.788   0.247
 1871SOL    HW2 6513   6.312   6.638   0.267
 1872SOL     OW 6514   4.186   2.327   0.688
 1872SOL    HW1 6515   4.246   2.395   0.646
 1872SOL    HW2 6516   4.162   2.257   0.620
 1873SOL     OW 6517   6.236   0.905   5.257
 1873SOL    HW1 6518   6.309   0.836   5.253
 1873SOL    HW2 6519   6.269   0.985   5.308
 1874SOL     OW 6520   0.770   0.915   6.809
 1874SOL    HW1 6521   0.776   0.901   6.908
 1874SOL    HW2 6522   0.814   0.839   6.762
 1875SOL     OW 6523   6.307   6.401   0.472
 1875SOL    HW1 6524   6.370   6.478   0.484
 1875SOL    HW2 6525   6.357   6.315   0.477
 1876SOL     OW 6526   4.864   6.391   6.163
 1876SOL    HW1 6527   4.771   6.410   6.132
 1876SOL    HW2 6528   4.917   6.353   6.088
 1877SOL     OW 6529   0.567   1.723   3.105
 1877SOL    HW1 6530   0.602   1.666   3.031
 1877SOL    HW2 6531   0.630   1.718   3.183
 1878SOL     OW 6532   0.242   4.191   3.566
 1878SOL    HW1 6533   0.270   4.135   3.643
 1878SOL    HW2 6534   0.198   4.134   3.496
 1879SOL     OW 6535   2.663   5.503   3.653
 1879SOL    HW1 6536   2.645   5.478   3.748
 1879SOL    HW2 6537   2.647   5.425   3.593
 1880SOL     OW 6538   0.900   2.696   3.284
 1880SOL    HW1 6539   0.966   2.665   3.353
 1880SOL    HW2 6540   0.820   2.636   3.286
 1881SOL     OW 6541   0.999   1.670   3.062
 1881SOL    HW1 6542   1.042   1.659   3.151
 1881SOL    HW2 6543   0.929   1.742   3.067
 1882SOL     OW 6544   0.910   5.358   6.973
 1882SOL    HW1 6545   1.004   5.389   6.956
 1882SOL    HW2 6546   0.859   5.358   6.887
 1883SOL     OW 6547   0.687   3.440   3.590
 1883SOL    HW1 6548   0.612   3.417   3.529
 1883SOL    HW2 6549   0.658   3.428   3.685
 1884SOL     OW 6550   5.586   1.584   1.192
 1884SOL    HW1 6551   5.634   1.651   1.248
 1884SOL    HW2 6552   5.528   1.631   1.125
 1885SOL     OW 6553   0.217   2.032   0.619
 1885SOL    HW1 6554   0.296   2.062   0.673
 1885SOL    HW2 6555   0.134   2.035   0.676
 1886SOL     OW 6556   1.993   1.913   0.272
 1886SOL    HW1 6557   1.905   1.868   0.256
 1886SOL    HW2 6558   2.068   1.850   0.249
 1887SOL     OW 6559   0.694   4.011   5.674
 1887SOL    HW1 6560   0.776   4.011   5.615
 1887SOL    HW2 6561   0.642   4.095   5.659
 1888SOL     OW 6562   2.423   1.490   6.651
 1888SOL    HW1 6563   2.358   1.565   6.665
 1888SOL    HW2 6564   2.504   1.524   6.603
 1889SOL     OW 6565   4.069   3.673   6.496
 1889SOL    HW1 6566   4.033   3.606   6.432
 1889SOL    HW2 6567   4.073   3.763   6.451
 1890SOL     OW 6568   1.334   5.506   5.964
 1890SOL    HW1 6569   1.373   5.595   5.986
 1890SOL    HW2 6570   1.405   5.445   5.930
 1891SOL     OW 6571   5.074   3.177   3.977
 1891SOL    HW1 6572   5.154   3.154   4.032
 1891SOL    HW2 6573   4.992   3.135   4.017
 1892SOL     OW 6574   3.545   6.448   1.283
 1892SOL    HW1 6575   3.494   6.533   1.276
 1892SOL    HW2 6576   3.509   6.382   1.217
 1893SOL     OW 6577   3.824   2.144   4.969
 1893SOL    HW1 6578   3.807   2.217   4.903
 1893SOL    HW2 6579   3.751   2.143   5.037
 1894SOL     OW 6580   4.656   3.545   1.403
 1894SOL    HW1 6581   4.666   3.611   1.328
 1894SOL    HW2 6582   4.576   3.487   1.386
 1895SOL     OW 6583   6.210   0.637   2.695
 1895SOL    HW1 6584   6.110   0.636   2.699
 1895SOL    HW2 6585   6.242   0.558   2.643
 1896SOL     OW 6586   7.000   1.014   3.016
 1896SOL    HW1 6587   0.053   1.000   3.086
 1896SOL    HW2 6588   6.920   1.059   3.056
 1897SOL     OW 6589   6.825   5.126   2.917
 1897SOL    HW1 6590   6.853   5.222   2.912
 1897SOL    HW2 6591   6.886   5.071   2.861
 1898SOL     OW 6592   3.840   6.267   1.805
 1898SOL    HW1 6593   3.808   6.361   1.793
 1898SOL    HW2 6594   3.909   6.246   1.737
 1899SOL     OW 6595   1.141   2.885   2.481
 1899SOL    HW1 6596   1.198   2.937   2.417
 1899SOL    HW2 6597   1.089   2.948   2.539
 1900SOL     OW 6598   0.917   0.051   5.883
 1900SOL    HW1 6599   0.968   0.045   5.797
 1900SOL    HW2 6600   0.821   0.069   5.864
 1901SOL     OW 6601   2.250   1.152   1.409
 1901SOL    HW1 6602   2.151   1.156   1.400
 1901SOL    HW2 6603   2.280   1.217   1.479
 1902SOL     OW 6604   2.017   2.309   5.075
 1902SOL    HW1 6605   2.070   2.388   5.046
 1902SOL    HW2 6606   2.080   2.234   5.098
 1903SOL     OW 6607   6.879   4.029   4.086
 1903SOL    HW1 6608   6.954   4.093   4.107
 1903SOL    HW2 6609   6.792   4.070   4.112
 1904SOL     OW 6610   6.629   0.497   4.314
 1904SOL    HW1 6611   6.533   0.468   4.301
 1904SOL    HW2 6612   6.639   0.592   4.285
 1905SOL     OW 6613   0.388   1.984   3.956
 1905SOL    HW1 6614   0.485   1.988   3.981
 1905SOL    HW2 6615   0.332   1.987   4.039
 1906SOL     OW 6616   2.493   6.521   5.588
 1906SOL    HW1 6617   2.568   6.456   5.590
 1906SOL    HW2 6618   2.483   6.558   5.496
 1907SOL     OW 6619   3.228   6.622   3.210
 1907SOL    HW1 6620   3.283   6.697   3.173
 1907SOL    HW2 6621   3.267   6.590   3.296
 1908SOL     OW 6622   4.370   0.662   4.992
 1908SOL    HW1 6623   4.349   0.692   4.899
 1908SOL    HW2 6624   4.441   0.591   4.989
 1909SOL     OW 6625   1.668   4.321   3.237
 1909SOL    HW1 6626   1.767   4.310   3.241
 1909SOL    HW2 6627   1.637   4.379   3.312
 1910SOL     OW 6628   5.981   2.230   6.713
 1910SOL    HW1 6629   5.978   2.133   6.736
 1910SOL    HW2 6630   6.001   2.283   6.795
 1911SOL     OW 6631   6.063   1.848   5.676
 1911SOL    HW1 6632   6.059   1.936   5.627
 1911SOL    HW2 6633   6.135   1.791   5.637
 1912SOL     OW 6634   4.097   6.496   2.078
 1912SOL    HW1 6635   4.075   6.542   1.991
 1912SOL    HW2 6636   4.075   6.399   2.071
 1913SOL     OW 6637   1.695   6.291   5.382
 1913SOL    HW1 6638   1.787   6.324   5.403
 1913SOL    HW2 6639   1.660   6.237   5.459
 1914SOL     OW 6640   2.866   2.899   0.020
 1914SOL    HW1 6641   2.958   2.865   0.004
 1914SOL    HW2 6642   2.856   2.922   0.117
 1915SOL     OW 6643   3.533   1.594   5.452
 1915SOL    HW1 6644   3.585   1.518   5.491
 1915SOL    HW2 6645   3.590   1.643   5.387
 1916SOL     OW 6646   3.444   5.872   0.651
 1916SOL    HW1 6647   3.391   5.912   0.726
 1916SOL    HW2 6648   3.538   5.907   0.654
 1917SOL     OW 6649   3.975   3.124   4.526
 1917SOL    HW1 6650   3.946   3.086   4.438
 1917SOL    HW2 6651   4.047   3.192   4.511
 1918SOL     OW 6652   6.600   6.865   6.764
 1918SOL    HW1 6653   6.678   6.928   6.763
 1918SOL    HW2 6654   6.607   6.803   6.686
 1919SOL     OW 6655   1.534   6.652   2.480
 1919SOL    HW1 6656   1.582   6.582   2.533
 1919SOL    HW2 6657   1.491   6.608   2.400
 1920SOL     OW 6658   0.675   5.137   3.908
 1920SOL    HW1 6659   0.638   5.229   3.916
 1920SOL    HW2 6660   0.633   5.090   3.830
 1921SOL     OW 6661   1.132   4.044   0.279
 1921SOL    HW1 6662   1.113   3.981   0.204
 1921SOL    HW2 6663   1.105   4.136   0.252
 1922SOL     OW 6664   3.714   4.135   1.231
 1922SOL    HW1 6665   3.679   4.042   1.221
 1922SOL    HW2 6666   3.763   4.161   1.148
 1923SOL     OW 6667   3.016   0.550   6.988
 1923SOL    HW1 6668   3.069   0.615   6.934
 1923SOL    HW2 6669   3.068   0.524   0.053
 1924SOL     OW 6670   5.744   5.430   2.476
 1924SOL    HW1 6671   5.707   5.416   2.568
 1924SOL    HW2 6672   5.686   5.384   2.409
 1925SOL     OW 6673   2.981   3.731   2.037
 1925SOL    HW1 6674   3.071   3.738   1.994
 1925SOL    HW2 6675   2.929   3.657   1.995
 1926SOL     OW 6676   1.099   6.827   4.073
 1926SOL    HW1 6677   1.022   6.769   4.047
 1926SOL    HW2 6678   1.179   6.770   4.092
 1927SOL     OW 6679   3.375   5.221   5.981
 1927SOL    HW1 6680   3.379   5.144   6.045
 1927SOL    HW2 6681   3.364   5.187   5.888
 1928SOL     OW 6682   6.631   3.457   6.333
 1928SOL    HW1 6683   6.701   3.486   6.268
 1928SOL    HW2 6684   6.570   3.391   6.291
 1929SOL     OW 6685   0.744   5.921   1.221
 1929SOL    HW1 6686   0.749   5.985   1.297
 1929SOL    HW2 6687   0.808   5.948   1.149
 1930SOL     OW 6688   3.945   4.223   6.942
 1930SOL    HW1 6689   3.990   4.168   7.012
 1930SOL    HW2 6690   3.868   4.272   6.981
 1931SOL     OW 6691   0.192   3.388   4.005
 1931SOL    HW1 6692   0.111   3.444   3.987
 1931SOL    HW2 6693   0.164   3.294   4.025
 1932SOL     OW 6694   5.028   4.197   2.356
 1932SOL    HW1 6695   5.010   4.257   2.277
 1932SOL    HW2 6696   5.115   4.222   2.397
 1933SOL     OW 6697   2.997   4.515   0.368
 1933SOL    HW1 6698   2.942   4.524   0.452
 1933SOL    HW2 6699   3.026   4.421   0.358
 1934SOL     OW 6700   0.380   0.557   5.396
 1934SOL    HW1 6701   0.397   0.526   5.302
 1934SOL    HW2 6702   0.300   0.510   5.432
 1935SOL     OW 6703   3.167   0.215   4.991
 1935SOL    HW1 6704   3.122   0.182   4.908
 1935SOL    HW2 6705   3.189   0.312   4.981
 1936SOL     OW 6706   6.069   4.110   4.057
 1936SOL    HW1 6707   5.986   4.133   4.107
 1936SOL    HW2 6708   6.087   4.179   3.988
 1937SOL     OW 6709   4.529   6.502   0.964
 1937SOL    HW1 6710   4.536   6.404   0.982
 1937SOL    HW2 6711   4.434   6.526   0.943
 1938SOL     OW 6712   3.851   1.290   2.762
 1938SOL    HW1 6713   3.867   1.192   2.760
 1938SOL    HW2 6714   3.921   1.335   2.818
 1939SOL     OW 6715   0.210   6.478   4.650
 1939SOL    HW1 6716   0.265   6.547   4.698
 1939SOL    HW2 6717   0.125   6.463   4.701
 1940SOL     OW 6718   5.135   4.953   6.113
 1940SOL    HW1 6719   5.047   4.908   6.126
 1940SOL    HW2 6720   5.145   5.026   6.180
 1941SOL     OW 6721   0.156   3.710   3.465
 1941SOL    HW1 6722   0.132   3.762   3.547
 1941SOL    HW2 6723   0.092   3.634   3.452
 1942SOL     OW 6724   6.113   0.582   3.175
 1942SOL    HW1 6725   6.173   0.574   3.254
 1942SOL    HW2 6726   6.068   0.671   3.176
 1943SOL     OW 6727   2.821   5.929   2.869
 1943SOL    HW1 6728   2.723   5.909   2.863
 1943SOL    HW2 6729   2.867   5.899   2.786
 1944SOL     OW 6730   5.254   2.223   6.705
 1944SOL    HW1 6731   5.293   2.169   6.631
 1944SOL    HW2 6732   5.160   2.194   6.722
 1945SOL     OW 6733   4.065   5.977   2.466
 1945SOL    HW1 6734   3.987   5.952   2.524
 1945SOL    HW2 6735   4.141   5.914   2.484
 1946SOL     OW 6736   6.132   0.720   0.803
 1946SOL    HW1 6737   6.089   0.631   0.789
 1946SOL    HW2 6738   6.062   0.790   0.816
 1947SOL     OW 6739   4.768   6.594   3.943
 1947SOL    HW1 6740   4.843   6.541   3.982
 1947SOL    HW2 6741   4.742   6.667   4.006
 1948SOL     OW 6742   6.325   5.923   3.851
 1948SOL    HW1 6743   6.404   5.936   3.791
 1948SOL    HW2 6744   6.353   5.872   3.932
 1949SOL     OW 6745   4.435   4.318   5.922
 1949SOL    HW1 6746   4.433   4.318   5.822
 1949SOL    HW2 6747   4.344   4.294   5.957
 1950SOL     OW 6748   3.409   4.414   1.059
 1950SOL    HW1 6749   3.462   4.482   1.009
 1950SOL    HW2 6750   3.311   4.431   1.046
 1951SOL     OW 6751   6.334   3.820   0.849
 1951SOL    HW1 6752   6.420   3.872   0.858
 1951SOL    HW2 6753   6.337   3.766   0.765
 1952SOL     OW 6754   3.703   2.383   0.240
 1952SOL    HW1 6755   3.656   2.295   0.232
 1952SOL    HW2 6756   3.768   2.393   0.165
 1953SOL     OW 6757   6.368   2.960   0.194
 1953SOL    HW1 6758   6.439   2.911   0.245
 1953SOL    HW2 6759   6.295   2.986   0.256
 1954SOL     OW 6760   5.460   0.899   3.944
 1954SOL    HW1 6761   5.516   0.868   4.021
 1954SOL    HW2 6762   5.507   0.973   3.897
 1955SOL     OW 6763   1.736   1.229   2.667
 1955SOL    HW1 6764   1.793   1.309   2.651
 1955SOL    HW2 6765   1.640   1.252   2.649
 1956SOL     OW 6766   5.715   0.401   2.456
 1956SOL    HW1 6767   5.808   0.407   2.491
 1956SOL    HW2 6768   5.688   0.305   2.449
 1957SOL     OW 6769   6.700   5.600   5.233
 1957SOL    HW1 6770   6.705   5.556   5.322
 1957SOL    HW2 6771   6.635   5.676   5.236
 1958SOL     OW 6772   5.938   2.910   3.154
 1958SOL    HW1 6773   5.974   2.935   3.244
 1958SOL    HW2 6774   5.839   2.928   3.152
 1959SOL     OW 6775   0.211   1.512   6.296
 1959SOL    HW1 6776   0.293   1.460   6.272
 1959SOL    HW2 6777   0.195   1.582   6.227
 1960SOL     OW 6778   6.982   3.961   0.964
 1960SOL    HW1 6779   6.907   3.958   1.030
 1960SOL    HW2 6780   0.023   4.041   0.983
 1961SOL     OW 6781   6.120   4.758   4.182
 1961SOL    HW1 6782   6.064   4.676   4.165
 1961SOL    HW2 6783   6.101   4.792   4.274
 1962SOL     OW 6784   2.636   6.484   3.494
 1962SOL    HW1 6785   2.723   6.459   3.450
 1962SOL    HW2 6786   2.561   6.462   3.432
 1963SOL     OW 6787   0.801   1.086   1.030
 1963SOL    HW1 6788   0.712   1.131   1.042
 1963SOL    HW2 6789   0.874   1.153   1.047
 1964SOL     OW 6790   4.463   3.230   1.686
 1964SOL    HW1 6791   4.512   3.182   1.758
 1964SOL    HW2 6792   4.475   3.328   1.697
 1965SOL     OW 6793   0.819   3.672   3.487
 1965SOL    HW1 6794   0.864   3.704   3.571
 1965SOL    HW2 6795   0.759   3.595   3.510
 1966SOL     OW 6796   6.729   5.903   5.784
 1966SOL    HW1 6797   6.797   5.868   5.847
 1966SOL    HW2 6798   6.696   5.993   5.815
 1967SOL     OW 6799   4.801   2.373   4.934
 1967SOL    HW1 6800   4.732   2.440   4.960
 1967SOL    HW2 6801   4.810   2.372   4.834
 1968SOL     OW 6802   3.263   6.303   0.421
 1968SOL    HW1 6803   3.224   6.301   0.330
 1968SOL    HW2 6804   3.274   6.210   0.455
 1969SOL     OW 6805   0.800   1.938   1.729
 1969SOL    HW1 6806   0.794   1.964   1.826
 1969SOL    HW2 6807   0.799   1.839   1.721
 1970SOL     OW 6808   2.584   0.058   6.129
 1970SOL    HW1 6809   2.490   0.089   6.141
 1970SOL    HW2 6810   2.628   0.051   6.219
 1971SOL     OW 6811   6.663   0.272   6.213
 1971SOL    HW1 6812   6.600   0.198   6.190
 1971SOL    HW2 6813   6.615   0.360   6.208
 1972SOL     OW 6814   5.651   2.495   2.976
 1972SOL    HW1 6815   5.730   2.488   2.915
 1972SOL    HW2 6816   5.655   2.583   3.025
 1973SOL     OW 6817   2.386   3.429   0.271
 1973SOL    HW1 6818   2.383   3.518   0.316
 1973SOL    HW2 6819   2.294   3.404   0.241
 1974SOL     OW 6820   6.364   6.584   4.229
 1974SOL    HW1 6821   6.364   6.537   4.141
 1974SOL    HW2 6822   6.322   6.674   4.218
 1975SOL     OW 6823   2.621   1.516   3.014
 1975SOL    HW1 6824   2.690   1.458   2.971
 1975SOL    HW2 6825   2.534   1.467   3.018
 1976SOL     OW 6826   0.360   5.764   0.056
 1976SOL    HW1 6827   0.285   5.710   0.093
 1976SOL    HW2 6828   0.344   5.779   6.975
 1977SOL     OW 6829   1.141   3.339   3.442
 1977SOL    HW1 6830   1.141   3.433   3.407
 1977SOL    HW2 6831   1.235   3.311   3.459
 1978SOL     OW 6832   0.852   1.105   3.739
 1978SOL    HW1 6833   0.943   1.126   3.776
 1978SOL    HW2 6834   0.852   1.014   3.699
 1979SOL     OW 6835   6.368   4.311   5.485
 1979SOL    HW1 6836   6.439   4.246   5.513
 1979SOL    HW2 6837   6.296   4.262   5.436
 1980SOL     OW 6838   2.790   0.774   6.048
 1980SOL    HW1 6839   2.755   0.772   5.954
 1980SOL    HW2 6840   2.729   0.830   6.105
 1981SOL     OW 6841   6.398   2.405   2.660
 1981SOL    HW1 6842   6.421   2.502   2.667
 1981SOL    HW2 6843   6.341   2.390   2.580
 1982SOL     OW 6844   0.272   3.787   5.478
 1982SOL    HW1 6845   0.274   3.689   5.459
 1982SOL    HW2 6846   0.260   3.838   5.393
 1983SOL     OW 6847   0.685   1.202   3.019
 1983SOL    HW1 6848   0.637   1.203   3.107
 1983SOL    HW2 6849   0.753   1.275   3.018
 1984SOL     OW 6850   5.473   1.561   4.753
 1984SOL    HW1 6851   5.520   1.498   4.692
 1984SOL    HW2 6852   5.464   1.520   4.844
 1985SOL     OW 6853   0.898   6.865   2.512
 1985SOL    HW1 6854   0.802   6.869   2.483
 1985SOL    HW2 6855   0.906   6.802   2.590
 1986SOL     OW 6856   1.512   0.471   0.065
 1986SOL    HW1 6857   1.443   0.533   0.029
 1986SOL    HW2 6858   1.494   0.378   0.032
 1987SOL     OW 6859   1.132   2.931   0.881
 1987SOL    HW1 6860   1.198   2.898   0.815
 1987SOL    HW2 6861   1.177   2.946   0.969
 1988SOL     OW 6862   5.466   4.875   1.142
 1988SOL    HW1 6863   5.383   4.856   1.195
 1988SOL    HW2 6864   5.447   4.946   1.075
 1989SOL     OW 6865   2.235   6.653   4.688
 1989SOL    HW1 6866   2.296   6.732   4.693
 1989SOL    HW2 6867   2.233   6.606   4.776
 1990SOL     OW 6868   2.982   6.280   0.548
 1990SOL    HW1 6869   2.996   6.197   0.603
 1990SOL    HW2 6870   3.065   6.336   0.552
 1991SOL     OW 6871   4.273   4.964   6.229
 1991SOL    HW1 6872   4.357   5.011   6.256
 1991SOL    HW2 6873   4.235   5.008   6.148
 1992SOL     OW 6874   0.552   0.201   6.692
 1992SOL    HW1 6875   0.617   0.238   6.759
 1992SOL    HW2 6876   0.585   0.221   6.599
 1993SOL     OW 6877   3.620   3.434   4.443
 1993SOL    HW1 6878   3.650   3.469   4.532
 1993SOL    HW2 6879   3.656   3.341   4.430
 1994SOL     OW 6880   1.382   1.625   0.316
 1994SOL    HW1 6881   1.302   1.682   0.300
 1994SOL    HW2 6882   1.447   1.674   0.375
 1995SOL     OW 6883   6.169   2.158   2.314
 1995SOL    HW1 6884   6.093   2.094   2.304
 1995SOL    HW2 6885   6.256   2.109   2.311
 1996SOL     OW 6886   2.424   3.857   0.899
 1996SOL    HW1 6887   2.416   3.957   0.891
 1996SOL    HW2 6888   2.383   3.814   0.818
 1997SOL     OW 6889   4.429   0.508   5.211
 1997SOL    HW1 6890   4.392   0.547   5.296
 1997SOL    HW2 6891   4.366   0.527   5.136
 1998SOL     OW 6892   3.163   3.727   6.231
 1998SOL    HW1 6893   3.187   3.631   6.247
 1998SOL    HW2 6894   3.233   3.785   6.271
 1999SOL     OW 6895   3.503   6.538   1.586
 1999SOL    HW1 6896   3.531   6.556   1.680
 1999SOL    HW2 6897   3.488   6.439   1.574
 2000SOL     OW 6898   4.339   2.148   5.175
 2000SOL    HW1 6899   4.382   2.090   5.245
 2000SOL    HW2 6900   4.380   2.128   5.086
 2001SOL     OW 6901   3.611   1.545   1.723
 2001SOL    HW1 6902   3.657   1.465   1.685
 2001SOL    HW2 6903   3.582   1.526   1.817
 2002SOL     OW 6904   0.923   4.917   5.892
 2002SOL    HW1 6905   0.871   4.980   5.950
 2002SOL    HW2 6906   1.013   4.956   5.873
 2003SOL     OW 6907   5.895   6.645   3.532
 2003SOL    HW1 6908   5.914   6.711   3.605
 2003SOL    HW2 6909   5.824   6.682   3.472
 2004SOL     OW 6910   4.107   1.464   5.183
 2004SOL    HW1 6911   4.077   1.479   5.277
 2004SOL    HW2 6912   4.032   1.427   5.129
 2005SOL     OW 6913   0.986   4.415   6.676
 2005SOL    HW1 6914   1.039   4.433   6.593
 2005SOL    HW2 6915   1.039   4.356   6.737
 2006SOL     OW 6916   5.631   5.060   4.275
 2006SOL    HW1 6917   5.714   5.028   4.230
 2006SOL    HW2 6918   5.643   5.056   4.375
 2007SOL     OW 6919   4.338   5.042   0.929
 2007SOL    HW1 6920   4.407   5.039   1.001
 2007SOL    HW2 6921   4.249   5.014   0.966
 2008SOL     OW 6922   1.233   5.615   3.039
 2008SOL    HW1 6923   1.283   5.663   2.966
 2008SOL    HW2 6924   1.156   5.565   2.999
 2009SOL     OW 6925   6.172   0.073   1.565
 2009SOL    HW1 6926   6.164   6.993   1.538
 2009SOL    HW2 6927   6.150   0.131   1.486
 2010SOL     OW 6928   2.181   1.769   1.016
 2010SOL    HW1 6929   2.164   1.676   1.047
 2010SOL    HW2 6930   2.189   1.830   1.095
 2011SOL     OW 6931   6.686   1.387   5.109
 2011SOL    HW1 6932   6.616   1.455   5.128
 2011SOL    HW2 6933   6.766   1.431   5.068
 2012SOL     OW 6934   1.628   2.937   1.698
 2012SOL    HW1 6935   1.631   2.853   1.752
 2012SOL    HW2 6936   1.696   3.001   1.732
 2013SOL     OW 6937   6.128   1.004   3.359
 2013SOL    HW1 6938   6.203   0.939   3.346
 2013SOL    HW2 6939   6.052   0.959   3.405
 2014SOL     OW 6940   2.064   5.315   2.887
 2014SOL    HW1 6941   2.014   5.402   2.883
 2014SOL    HW2 6942   2.015   5.245   2.836
 2015SOL     OW 6943   2.286   1.950   0.543
 2015SOL    HW1 6944   2.202   1.995   0.574
 2015SOL    HW2 6945   2.308   1.981   0.450
 2016SOL     OW 6946   0.935   5.379   5.095
 2016SOL    HW1 6947   0.843   5.344   5.077
 2016SOL    HW2 6948   0.987   5.380   5.009
 2017SOL     OW 6949   2.404   6.780   4.407
 2017SOL    HW1 6950   2.417   6.863   4.353
 2017SOL    HW2 6951   2.484   6.721   4.397
 2018SOL     OW 6952   5.655   0.206   6.080
 2018SOL    HW1 6953   5.618   0.256   6.158
 2018SOL    HW2 6954   5.586   0.142   6.046
 2019SOL     OW 6955   4.938   2.425   2.459
 2019SOL    HW1 6956   4.917   2.456   2.367
 2019SOL    HW2 6957   4.865   2.364   2.491
 2020SOL     OW 6958   0.700   5.586   5.498
 2020SOL    HW1 6959   0.777   5.650   5.491
 2020SOL    HW2 6960   0.641   5.597   5.418
 2021SOL     OW 6961   2.211   5.174   3.099
 2021SOL    HW1 6962   2.188   5.078   3.081
 2021SOL    HW2 6963   2.197   5.228   3.016
 2022SOL     OW 6964   1.787   3.373   3.356
 2022SOL    HW1 6965   1.868   3.316   3.341
 2022SOL    HW2 6966   1.708   3.332   3.309
 2023SOL     OW 6967   6.351   1.226   6.454
 2023SOL    HW1 6968   6.338   1.152   6.387
 2023SOL    HW2 6969   6.314   1.311   6.417
 2024SOL     OW 6970   6.992   6.907   3.433
 2024SOL    HW1 6971   6.972   6.885   3.528
 2024SOL    HW2 6972   6.915   6.957   3.393
 2025SOL     OW 6973   2.458   2.440   2.211
 2025SOL    HW1 6974   2.520   2.400   2.278
 2025SOL    HW2 6975   2.475   2.400   2.121
 2026SOL     OW 6976   0.858   2.775   5.974
 2026SOL    HW1 6977   0.903   2.805   5.890
 2026SOL    HW2 6978   0.854   2.850   6.039
 2027SOL     OW 6979   0.919   1.505   0.511
 2027SOL    HW1 6980   0.889   1.434   0.574
 2027SOL    HW2 6981   0.968   1.463   0.434
 2028SOL     OW 6982   2.937   1.224   6.042
 2028SOL    HW1 6983   3.015   1.164   6.064
 2028SOL    HW2 6984   2.875   1.175   5.981
 2029SOL     OW 6985   6.766   0.696   0.837
 2029SOL    HW1 6986   6.761   0.610   0.888
 2029SOL    HW2 6987   6.690   0.700   0.772
 2030SOL     OW 6988   2.352   0.381   3.338
 2030SOL    HW1 6989   2.401   0.408   3.255
 2030SOL    HW2 6990   2.400   0.417   3.418
 2031SOL     OW 6991   5.743   6.224   2.060
 2031SOL    HW1 6992   5.648   6.202   2.082
 2031SOL    HW2 6993   5.781   6.282   2.131
 2032SOL     OW 6994   4.292   6.743   1.783
 2032SOL    HW1 6995   4.251   6.788   1.704
 2032SOL    HW2 6996   4.302   6.809   1.858
 2033SOL     OW 6997   3.645   4.073   6.927
 2033SOL    HW1 6998   3.678   4.002   6.989
 2033SOL    HW2 6999   3.659   4.044   6.832
 2034SOL     OW 7000   3.356   6.541   4.481
 2034SOL    HW1 7001   3.364   6.574   4.575
 2034SOL    HW2 7002   3.446   6.514   4.447
 2035SOL     OW 7003   0.387   0.465   2.102
 2035SOL    HW1 7004   0.315   0.467   2.032
 2035SOL    HW2 7005   0.380   0.547   2.158
 2036SOL     OW 7006   1.270   5.396   2.849
 2036SOL    HW1 7007   1.245   5.329   2.779
 2036SOL    HW2 7008   1.199   5.399   2.919
 2037SOL     OW 7009   0.638   2.988   5.764
 2037SOL    HW1 7010   0.716   3.046   5.739
 2037SOL    HW2 7011   0.657   2.893   5.738
 2038SOL     OW 7012   1.864   2.077   0.004
 2038SOL    HW1 7013   1.871   2.176   0.014
 2038SOL    HW2 7014   1.952   2.035   0.026
 2039SOL     OW 7015   0.326   5.401   3.026
 2039SOL    HW1 7016   0.238   5.360   3.048
 2039SOL    HW2 7017   0.365   5.357   2.945
 2040SOL     OW 7018   4.038   3.148   5.267
 2040SOL    HW1 7019   4.073   3.070   5.319
 2040SOL    HW2 7020   3.952   3.123   5.222
 2041SOL     OW 7021   6.876   5.833   6.035
 2041SOL    HW1 7022   6.819   5.852   6.114
 2041SOL    HW2 7023   6.920   5.743   6.045
 2042SOL     OW 7024   5.927   4.458   6.914
 2042SOL    HW1 7025   5.874   4.397   6.855
 2042SOL    HW2 7026   5.906   4.553   6.890
 2043SOL     OW 7027   6.608   4.406   3.123
 2043SOL    HW1 7028   6.648   4.375   3.037
 2043SOL    HW2 7029   6.510   4.389   3.122
 2044SOL     OW 7030   5.209   7.004   1.424
 2044SOL    HW1 7031   5.173   6.919   1.462
 2044SOL    HW2 7032   5.308   7.007   1.437
 2045SOL     OW 7033   2.823   4.734   4.191
 2045SOL    HW1 7034   2.806   4.786   4.108
 2045SOL    HW2 7035   2.786   4.642   4.182
 2046SOL     OW 7036   0.054   1.437   3.943
 2046SOL    HW1 7037   0.090   1.358   3.992
 2046SOL    HW2 7038   0.089   1.521   3.985
 2047SOL     OW 7039   5.385   2.256   0.323
 2047SOL    HW1 7040   5.443   2.337   0.332
 2047SOL    HW2 7041   5.426   2.193   0.257
 2048SOL     OW 7042   1.552   5.861   0.456
 2048SOL    HW1 7043   1.645   5.832   0.478
 2048SOL    HW2 7044   1.528   5.941   0.510
 2049SOL     OW 7045   4.902   1.856   6.372
 2049SOL    HW1 7046   4.816   1.901   6.397
 2049SOL    HW2 7047   4.979   1.915   6.397
 2050SOL     OW 7048   0.579   3.085   2.789
 2050SOL    HW1 7049   0.562   3.028   2.708
 2050SOL    HW2 7050   0.554   3.034   2.871
 2051SOL     OW 7051   1.229   5.974   0.978
 2051SOL    HW1 7052   1.213   5.885   1.019
 2051SOL    HW2 7053   1.153   6.035   0.999
 2052SOL     OW 7054   0.859   4.173   0.946
 2052SOL    HW1 7055   0.778   4.172   1.003
 2052SOL    HW2 7056   0.908   4.086   0.954
 2053SOL     OW 7057   5.606   6.650   5.119
 2053SOL    HW1 7058   5.611   6.744   5.153
 2053SOL    HW2 7059   5.511   6.621   5.115
 2054SOL     OW 7060   4.051   3.424   1.986
 2054SOL    HW1 7061   4.039   3.394   2.081
 2054SOL    HW2 7062   3.964   3.458   1.951
 2055SOL     OW 7063   6.153   3.399   3.366
 2055SOL    HW1 7064   6.151   3.339   3.286
 2055SOL    HW2 7065   6.091   3.363   3.435
 2056SOL     OW 7066   2.227   0.341   2.867
 2056SOL    HW1 7067   2.268   0.343   2.958
 2056SOL    HW2 7068   2.145   0.283   2.868
 2057SOL     OW 7069   5.246   3.284   3.741
 2057SOL    HW1 7070   5.182   3.211   3.767
 2057SOL    HW2 7071   5.269   3.339   3.822
 2058SOL     OW 7072   0.861   1.903   3.114
 2058SOL    HW1 7073   0.834   1.977   3.175
 2058SOL    HW2 7074   0.827   1.921   3.022
 2059SOL     OW 7075   2.657   6.005   6.367
 2059SOL    HW1 7076   2.612   5.920   6.338
 2059SOL    HW2 7077   2.709   6.043   6.290
 2060SOL     OW 7078   5.787   4.554   0.891
 2060SOL    HW1 7079   5.797   4.472   0.947
 2060SOL    HW2 7080   5.811   4.533   0.796
 2061SOL     OW 7081   0.564   2.181   3.205
 2061SOL    HW1 7082   0.508   2.109   3.165
 2061SOL    HW2 7083   0.655   2.145   3.227
 2062SOL     OW 7084   6.129   0.318   3.596
 2062SOL    HW1 7085   6.106   0.315   3.693
 2062SOL    HW2 7086   6.087   0.399   3.554
 2063SOL     OW 7087   1.699   0.187   6.372
 2063SOL    HW1 7088   1.639   0.208   6.449
 2063SOL    HW2 7089   1.772   0.255   6.367
 2064SOL     OW 7090   0.630   2.735   5.648
 2064SOL    HW1 7091   0.575   2.732   5.564
 2064SOL    HW2 7092   0.579   2.691   5.722
 2065SOL     OW 7093   6.591   2.794   4.478
 2065SOL    HW1 7094   6.598   2.885   4.438
 2065SOL    HW2 7095   6.660   2.734   4.438
 2066SOL     OW 7096   0.866   5.465   3.234
 2066SOL    HW1 7097   0.939   5.519   3.275
 2066SOL    HW2 7098   0.777   5.500   3.264
 2067SOL     OW 7099   6.834   5.432   0.790
 2067SOL    HW1 7100   6.867   5.474   0.874
 2067SOL    HW2 7101   6.812   5.336   0.805
 2068SOL     OW 7102   1.249   1.383   5.317
 2068SOL    HW1 7103   1.343   1.356   5.336
 2068SOL    HW2 7104   1.187   1.330   5.375
 2069SOL     OW 7105   1.008   3.512   3.023
 2069SOL    HW1 7106   0.981   3.418   3.047
 2069SOL    HW2 7107   1.005   3.569   3.104
 2070SOL     OW 7108   1.292   0.764   1.935
 2070SOL    HW1 7109   1.227   0.772   2.011
 2070SOL    HW2 7110   1.379   0.806   1.962
 2071SOL     OW 7111   5.526   5.731   5.184
 2071SOL    HW1 7112   5.619   5.715   5.218
 2071SOL    HW2 7113   5.460   5.687   5.244
 2072SOL     OW 7114   4.190   0.163   2.968
 2072SOL    HW1 7115   4.102   0.193   3.003
 2072SOL    HW2 7116   4.203   0.197   2.874
 2073SOL     OW 7117   4.003   6.872   4.321
 2073SOL    HW1 7118   4.092   6.913   4.306
 2073SOL    HW2 7119   3.966   6.903   4.409
 2074SOL     OW 7120   1.665   3.077   0.316
 2074SOL    HW1 7121   1.600   3.003   0.299
 2074SOL    HW2 7122   1.726   3.052   0.391
 2075SOL     OW 7123   5.267   3.352   1.377
 2075SOL    HW1 7124   5.232   3.438   1.413
 2075SOL    HW2 7125   5.320   3.369   1.295
 2076SOL     OW 7126   5.211   0.132   6.812
 2076SOL    HW1 7127   5.116   0.100   6.800
 2076SOL    HW2 7128   5.271   0.080   6.751
 2077SOL     OW 7129   5.826   2.727   2.553
 2077SOL    HW1 7130   5.740   2.766   2.586
 2077SOL    HW2 7131   5.870   2.792   2.491
 2078SOL     OW 7132   1.095   5.411   6.144
 2078SOL    HW1 7133   1.129   5.433   6.236
 2078SOL    HW2 7134   1.159   5.447   6.076
 2079SOL     OW 7135   5.347   2.238   3.721
 2079SOL    HW1 7136   5.306   2.274   3.637
 2079SOL    HW2 7137   5.411   2.304   3.759
 2080SOL     OW 7138   1.750   0.746   4.608
 2080SOL    HW1 7139   1.732   0.844   4.618
 2080SOL    HW2 7140   1.666   0.699   4.581
 2081SOL     OW 7141   1.294   5.211   3.982
 2081SOL    HW1 7142   1.335   5.250   3.900
 2081SOL    HW2 7143   1.202   5.179   3.960
 2082SOL     OW 7144   0.275   6.802   3.511
 2082SOL    HW1 7145   0.232   6.796   3.421
 2082SOL    HW2 7146   0.249   6.722   3.566
 2083SOL     OW 7147   6.019   4.784   6.437
 2083SOL    HW1 7148   6.018   4.790   6.537
 2083SOL    HW2 7149   6.113   4.798   6.404
 2084SOL     OW 7150   1.592   3.511   4.028
 2084SOL    HW1 7151   1.680   3.551   4.053
 2084SOL    HW2 7152   1.519   3.554   4.081
 2085SOL     OW 7153   4.376   0.670   6.731
 2085SOL    HW1 7154   4.322   0.609   6.789
 2085SOL    HW2 7155   4.470   0.674   6.766
 2086SOL     OW 7156   3.866   6.781   5.500
 2086SOL    HW1 7157   3.880   6.735   5.589
 2086SOL    HW2 7158   3.866   6.880   5.514
 2087SOL     OW 7159   4.982   0.321   1.432
 2087SOL    HW1 7160   5.020   0.365   1.513
 2087SOL    HW2 7161   4.882   0.329   1.433
 2088SOL     OW 7162   2.420   5.932   0.159
 2088SOL    HW1 7163   2.443   5.853   0.102
 2088SOL    HW2 7164   2.467   6.013   0.124
 2089SOL     OW 7165   5.396   2.281   6.135
 2089SOL    HW1 7166   5.479   2.271   6.190
 2089SOL    HW2 7167   5.317   2.290   6.195
 2090SOL     OW 7168   3.657   3.168   5.859
 2090SOL    HW1 7169   3.721   3.104   5.815
 2090SOL    HW2 7170   3.621   3.231   5.791
 2091SOL     OW 7171   6.980   5.550   0.518
 2091SOL    HW1 7172   6.962   5.480   0.587
 2091SOL    HW2 7173   0.060   5.577   0.523
 2092SOL     OW 7174   5.747   4.323   6.743
 2092SOL    HW1 7175   5.758   4.252   6.812
 2092SOL    HW2 7176   5.674   4.296   6.679
 2093SOL     OW 7177   2.419   1.969   1.270
 2093SOL    HW1 7178   2.420   2.021   1.355
 2093SOL    HW2 7179   2.475   2.015   1.202
 2094SOL     OW 7180   5.919   2.187   1.506
 2094SOL    HW1 7181   5.930   2.155   1.600
 2094SOL    HW2 7182   5.822   2.189   1.482
 2095SOL     OW 7183   5.585   6.944   4.847
 2095SOL    HW1 7184   5.679   6.910   4.845
 2095SOL    HW2 7185   5.563   6.975   4.939
 2096SOL     OW 7186   4.708   4.268   2.717
 2096SOL    HW1 7187   4.756   4.225   2.641
 2096SOL    HW2 7188   4.730   4.220   2.802
 2097SOL     OW 7189   2.862   2.803   6.625
 2097SOL    HW1 7190   2.855   2.802   6.526
 2097SOL    HW2 7191   2.851   2.710   6.661
 2098SOL     OW 7192   4.266   5.808   2.532
 2098SOL    HW1 7193   4.360   5.823   2.502
 2098SOL    HW2 7194   4.250   5.710   2.543
 2099SOL     OW 7195   2.397   3.108   6.095
 2099SOL    HW1 7196   2.465   3.151   6.036
 2099SOL    HW2 7197   2.346   3.039   6.044
 2100SOL     OW 7198   4.576   2.609   6.263
 2100SOL    HW1 7199   4.568   2.543   6.189
 2100SOL    HW2 7200   4.652   2.583   6.323
 2101SOL     OW 7201   1.272   6.440   2.637
 2101SOL    HW1 7202   1.242   6.535   2.630
 2101SOL    HW2 7203   1.253   6.406   2.729
 2102SOL     OW 7204   6.498   4.715   2.074
 2102SOL    HW1 7205   6.505   4.750   2.167
 2102SOL    HW2 7206   6.429   4.643   2.071
 2103SOL     OW 7207   4.030   4.583   5.494
 2103SOL    HW1 7208   4.041   4.640   5.575
 2103SOL    HW2 7209   4.097   4.509   5.495
 2104SOL     OW 7210   2.169   3.690   0.995
 2104SOL    HW1 7211   2.245   3.698   1.060
 2104SOL    HW2 7212   2.088   3.734   1.034
 2105SOL     OW 7213   5.044   5.744   5.459
 2105SOL    HW1 7214   4.997   5.759   5.546
 2105SOL    HW2 7215   5.117   5.812   5.448
 2106SOL     OW 7216   4.612   4.347   1.367
 2106SOL    HW1 7217   4.612   4.254   1.402
 2106SOL    HW2 7218   4.677   4.403   1.418
 2107SOL     OW 7219   4.960   2.224   5.502
 2107SOL    HW1 7220   5.019   2.302   5.526
 2107SOL    HW2 7221   5.017   2.144   5.482
 2108SOL     OW 7222   6.524   5.805   5.299
 2108SOL    HW1 7223   6.523   5.798   5.399
 2108SOL    HW2 7224   6.431   5.794   5.264
 2109SOL     OW 7225   4.457   6.188   2.458
 2109SOL    HW1 7226   4.389   6.243   2.409
 2109SOL    HW2 7227   4.433   6.184   2.555
 2110SOL     OW 7228   2.620   1.642   6.914
 2110SOL    HW1 7229   2.527   1.661   6.881
 2110SOL    HW2 7230   2.650   1.553   6.878
 2111SOL     OW 7231   1.118   2.382   7.013
 2111SOL    HW1 7232   1.092   2.372   6.917
 2111SOL    HW2 7233   1.140   2.293   0.035
 2112SOL     OW 7234   5.493   3.327   0.357
 2112SOL    HW1 7235   5.518   3.282   0.443
 2112SOL    HW2 7236   5.564   3.310   0.289
 2113SOL     OW 7237   1.896   2.187   5.459
 2113SOL    HW1 7238   1.943   2.115   5.408
 2113SOL    HW2 7239   1.802   2.195   5.426
 2114SOL     OW 7240   1.496   2.260   0.270
 2114SOL    HW1 7241   1.451   2.175   0.243
 2114SOL    HW2 7242   1.460   2.335   0.215
 2115SOL     OW 7243   2.108   3.309   2.707
 2115SOL    HW1 7244   2.137   3.226   2.660
 2115SOL    HW2 7245   2.027   3.346   2.661
 2116SOL     OW 7246   0.007   4.959   3.118
 2116SOL    HW1 7247   6.945   4.929   3.174
 2116SOL    HW2 7248   7.004   4.941   3.022
 2117SOL     OW 7249   7.008   5.111   1.654
 2117SOL    HW1 7250   6.947   5.042   1.615
 2117SOL    HW2 7251   6.984   5.127   1.750
 2118SOL     OW 7252   6.261   3.507   1.827
 2118SOL    HW1 7253   6.173   3.460   1.819
 2118SOL    HW2 7254   6.258   3.594   1.778
 2119SOL     OW 7255   1.540   6.298   1.059
 2119SOL    HW1 7256   1.517   6.303   1.157
 2119SOL    HW2 7257   1.532   6.203   1.028
 2120SOL     OW 7258   6.659   5.255   4.183
 2120SOL    HW1 7259   6.647   5.159   4.155
 2120SOL    HW2 7260   6.753   5.269   4.213
 2121SOL     OW 7261   1.499   4.386   5.686
 2121SOL    HW1 7262   1.525   4.407   5.780
 2121SOL    HW2 7263   1.490   4.287   5.676
 2122SOL     OW 7264   5.577   3.837   6.237
 2122SOL    HW1 7265   5.634   3.885   6.303
 2122SOL    HW2 7266   5.621   3.838   6.147
 2123SOL     OW 7267   6.623   6.147   2.319
 2123SOL    HW1 7268   6.716   6.128   2.286
 2123SOL    HW2 7269   6.566   6.066   2.304
 2124SOL     OW 7270   2.976   1.983   1.741
 2124SOL    HW1 7271   2.919   2.054   1.699
 2124SOL    HW2 7272   3.019   2.021   1.823
 2125SOL     OW 7273   2.030   0.749   1.930
 2125SOL    HW1 7274   2.011   0.743   2.028
 2125SOL    HW2 7275   2.086   0.671   1.901
 2126SOL     OW 7276   3.429   1.485   6.449
 2126SOL    HW1 7277   3.412   1.480   6.350
 2126SOL    HW2 7278   3.415   1.579   6.480
 2127SOL     OW 7279   0.371   3.549   4.690
 2127SOL    HW1 7280   0.299   3.491   4.729
 2127SOL    HW2 7281   0.448   3.492   4.661
 2128SOL     OW 7282   6.951   3.530   4.009
 2128SOL    HW1 7283   6.933   3.626   4.029
 2128SOL    HW2 7284   6.889   3.498   3.938
 2129SOL     OW 7285   4.274   3.548   5.456
 2129SOL    HW1 7286   4.208   3.610   5.498
 2129SOL    HW2 7287   4.331   3.507   5.527
 2130SOL     OW 7288   3.428   0.405   2.108
 2130SOL    HW1 7289   3.461   0.456   2.188
 2130SOL    HW2 7290   3.421   0.308   2.131
 2131SOL     OW 7291   5.445   0.949   0.926
 2131SOL    HW1 7292   5.366   0.957   0.866
 2131SOL    HW2 7293   5.480   0.855   0.923
 2132SOL     OW 7294   3.480   0.583   1.755
 2132SOL    HW1 7295   3.484   0.626   1.846
 2132SOL    HW2 7296   3.467   0.485   1.766
 2133SOL     OW 7297   3.198   2.912   0.695
 2133SOL    HW1 7298   3.170   2.851   0.769
 2133SOL    HW2 7299   3.222   2.858   0.614
 2134SOL     OW 7300   0.069   1.815   6.344
 2134SOL    HW1 7301   0.013   1.737   6.371
 2134SOL    HW2 7302   0.051   1.892   6.405
 2135SOL     OW 7303   1.391   3.423   4.692
 2135SOL    HW1 7304   1.307   3.369   4.702
 2135SOL    HW2 7305   1.368   3.515   4.661
 2136SOL     OW 7306   1.796   3.516   3.574
 2136SOL    HW1 7307   1.805   3.480   3.481
 2136SOL    HW2 7308   1.708   3.562   3.584
 2137SOL     OW 7309   2.780   5.298   4.916
 2137SOL    HW1 7310   2.745   5.353   4.992
 2137SOL    HW2 7311   2.759   5.202   4.931
 2138SOL     OW 7312   6.633   0.450   3.034
 2138SOL    HW1 7313   6.723   0.465   2.994
 2138SOL    HW2 7314   6.563   0.482   2.971
 2139SOL     OW 7315   3.731   0.621   3.632
 2139SOL    HW1 7316   3.666   0.689   3.667
 2139SOL    HW2 7317   3.778   0.659   3.552
 2140SOL     OW 7318   3.879   6.343   3.927
 2140SOL    HW1 7319   3.887   6.244   3.937
 2140SOL    HW2 7320   3.809   6.377   3.990
 2141SOL     OW 7321   6.393   3.711   2.605
 2141SOL    HW1 7322   6.332   3.707   2.684
 2141SOL    HW2 7323   6.362   3.645   2.536
 2142SOL     OW 7324   2.014   1.655   3.113
 2142SOL    HW1 7325   1.933   1.712   3.097
 2142SOL    HW2 7326   1.996   1.593   3.189
 2143SOL     OW 7327   3.408   4.538   1.310
 2143SOL    HW1 7328   3.362   4.459   1.269
 2143SOL    HW2 7329   3.406   4.614   1.245
 2144SOL     OW 7330   1.372   5.450   3.812
 2144SOL    HW1 7331   1.358   5.464   3.714
 2144SOL    HW2 7332   1.302   5.500   3.863
 2145SOL     OW 7333   4.501   6.048   3.858
 2145SOL    HW1 7334   4.481   6.144   3.876
 2145SOL    HW2 7335   4.600   6.036   3.846
 2146SOL     OW 7336   2.410   3.860   1.609
 2146SOL    HW1 7337   2.503   3.848   1.643
 2146SOL    HW2 7338   2.354   3.903   1.680
 2147SOL     OW 7339   6.480   1.237   5.650
 2147SOL    HW1 7340   6.514   1.312   5.707
 2147SOL    HW2 7341   6.516   1.247   5.557
 2148SOL     OW 7342   6.320   3.172   5.410
 2148SOL    HW1 7343   6.414   3.178   5.445
 2148SOL    HW2 7344   6.309   3.236   5.334
 2149SOL     OW 7345   3.212   1.838   1.006
 2149SOL    HW1 7346   3.293   1.793   0.968
 2149SOL    HW2 7347   3.228   1.859   1.102
 2150SOL     OW 7348   2.571   2.544   1.847
 2150SOL    HW1 7349   2.645   2.577   1.789
 2150SOL    HW2 7350   2.569   2.444   1.844
 2151SOL     OW 7351   1.121   0.033   5.682
 2151SOL    HW1 7352   1.151   6.982   5.750
 2151SOL    HW2 7353   1.173   0.021   5.598
 2152SOL     OW 7354   3.027   5.960   2.013
 2152SOL    HW1 7355   2.966   6.038   2.026
 2152SOL    HW2 7356   3.111   5.974   2.064
 2153SOL     OW 7357   4.065   1.414   2.898
 2153SOL    HW1 7358   4.047   1.492   2.959
 2153SOL    HW2 7359   4.099   1.337   2.951
 2154SOL     OW 7360   4.882   0.903   4.832
 2154SOL    HW1 7361   4.914   0.977   4.891
 2154SOL    HW2 7362   4.793   0.870   4.864
 2155SOL     OW 7363   3.067   5.911   0.428
 2155SOL    HW1 7364   3.035   5.816   0.438
 2155SOL    HW2 7365   2.989   5.973   0.435
 2156SOL     OW 7366   1.413   1.768   5.123
 2156SOL    HW1 7367   1.450   1.717   5.045
 2156SOL    HW2 7368   1.321   1.737   5.143
 2157SOL     OW 7369   5.804   0.190   3.089
 2157SOL    HW1 7370   5.850   0.274   3.059
 2157SOL    HW2 7371   5.787   0.195   3.187
 2158SOL     OW 7372   3.565   6.084   1.231
 2158SOL    HW1 7373   3.618   6.084   1.316
 2158SOL    HW2 7374   3.625   6.057   1.155
 2159SOL     OW 7375   0.969   6.472   5.475
 2159SOL    HW1 7376   0.991   6.426   5.389
 2159SOL    HW2 7377   1.051   6.477   5.532
 2160SOL     OW 7378   4.385   4.033   0.280
 2160SOL    HW1 7379   4.301   3.979   0.277
 2160SOL    HW2 7380   4.383   4.093   0.360
 2161SOL     OW 7381   5.479   5.073   2.750
 2161SOL    HW1 7382   5.392   5.116   2.724
 2161SOL    HW2 7383   5.485   4.983   2.708
 2162SOL     OW 7384   2.253   1.039   1.852
 2162SOL    HW1 7385   2.270   1.071   1.945
 2162SOL    HW2 7386   2.319   0.968   1.829
 2163SOL     OW 7387   1.436   4.841   5.989
 2163SOL    HW1 7388   1.509   4.772   5.986
 2163SOL    HW2 7389   1.359   4.805   6.044
 2164SOL     OW 7390   1.827   2.679   6.887
 2164SOL    HW1 7391   1.827   2.734   6.803
 2164SOL    HW2 7392   1.748   2.617   6.886
 2165SOL     OW 7393   0.017   2.060   2.780
 2165SOL    HW1 7394   6.957   2.001   2.755
 2165SOL    HW2 7395   0.098   2.035   2.727
 2166SOL     OW 7396   1.194   2.328   5.180
 2166SOL    HW1 7397   1.137   2.395   5.228
 2166SOL    HW2 7398   1.166   2.235   5.207
 2167SOL     OW 7399   1.590   2.120   3.230
 2167SOL    HW1 7400   1.628   2.038   3.273
 2167SOL    HW2 7401   1.576   2.190   3.299
 2168SOL     OW 7402   0.831   2.202   3.639
 2168SOL    HW1 7403   0.918   2.202   3.589
 2168SOL    HW2 7404   0.818   2.114   3.684
 2169SOL     OW 7405   5.377   1.255   7.000
 2169SOL    HW1 7406   5.416   1.291   0.068
 2169SOL    HW2 7407   5.335   1.165   0.002
 2170SOL     OW 7408   6.992   3.979   5.423
 2170SOL    HW1 7409   6.905   3.933   5.407
 2170SOL    HW2 7410   0.018   3.943   5.507
 2171SOL     OW 7411   0.349   5.265   1.075
 2171SOL    HW1 7412   0.271   5.312   1.033
 2171SOL    HW2 7413   0.334   5.166   1.074
 2172SOL     OW 7414   2.054   2.404   0.224
 2172SOL    HW1 7415   1.969   2.363   0.257
 2172SOL    HW2 7416   2.055   2.406   0.124
 2173SOL     OW 7417   3.502   0.930   5.447
 2173SOL    HW1 7418   3.489   0.875   5.364
 2173SOL    HW2 7419   3.482   1.026   5.428
 2174SOL     OW 7420   5.422   5.593   5.374
 2174SOL    HW1 7421   5.492   5.578   5.444
 2174SOL    HW2 7422   5.334   5.558   5.407
 2175SOL     OW 7423   2.118   3.196   4.389
 2175SOL    HW1 7424   2.158   3.108   4.365
 2175SOL    HW2 7425   2.090   3.195   4.485
 2176SOL     OW 7426   6.605   2.211   0.865
 2176SOL    HW1 7427   6.515   2.241   0.897
 2176SOL    HW2 7428   6.629   2.264   0.783
 2177SOL     OW 7429   6.991   2.007   3.595
 2177SOL    HW1 7430   0.053   1.974   3.649
 2177SOL    HW2 7431   6.911   1.952   3.615
 2178SOL     OW 7432   2.163   1.907   1.334
 2178SOL    HW1 7433   2.262   1.924   1.337
 2178SOL    HW2 7434   2.147   1.808   1.325
 2179SOL     OW 7435   1.843   5.256   4.972
 2179SOL    HW1 7436   1.782   5.299   4.905
 2179SOL    HW2 7437   1.843   5.157   4.958
 2180SOL     OW 7438   1.979   2.404   1.749
 2180SOL    HW1 7439   1.985   2.451   1.661
 2180SOL    HW2 7440   2.071   2.385   1.783
 2181SOL     OW 7441   4.974   4.932   4.335
 2181SOL    HW1 7442   4.909   4.963   4.266
 2181SOL    HW2 7443   4.951   4.973   4.423
 2182SOL     OW 7444   1.754   4.067   4.066
 2182SOL    HW1 7445   1.798   4.145   4.022
 2182SOL    HW2 7446   1.742   3.993   4.000
 2183SOL     OW 7447   2.682   4.242   5.739
 2183SOL    HW1 7448   2.757   4.231   5.674
 2183SOL    HW2 7449   2.675   4.338   5.766
 2184SOL     OW 7450   3.962   1.750   6.366
 2184SOL    HW1 7451   4.046   1.735   6.313
 2184SOL    HW2 7452   3.956   1.683   6.440
 2185SOL     OW 7453   0.431   1.013   1.293
 2185SOL    HW1 7454   0.392   1.055   1.211
 2185SOL    HW2 7455   0.443   0.915   1.278
 2186SOL     OW 7456   0.432   5.993   1.814
 2186SOL    HW1 7457   0.385   6.026   1.896
 2186SOL    HW2 7458   0.366   5.984   1.739
 2187SOL     OW 7459   6.547   6.570   2.904
 2187SOL    HW1 7460   6.497   6.650   2.938
 2187SOL    HW2 7461   6.639   6.598   2.876
 2188SOL     OW 7462   0.194   6.147   4.840
 2188SOL    HW1 7463   0.288   6.164   4.810
 2188SOL    HW2 7464   0.139   6.229   4.823
 2189SOL     OW 7465   1.612   6.461   0.661
 2189SOL    HW1 7466   1.678   6.394   0.628
 2189SOL    HW2 7467   1.613   6.541   0.600
 2190SOL     OW 7468   0.338   3.590   2.195
 2190SOL    HW1 7469   0.280   3.566   2.117
 2190SOL    HW2 7470   0.328   3.688   2.214
 2191SOL     OW 7471   3.063   2.026   6.844
 2191SOL    HW1 7472   2.992   1.961   6.871
 2191SOL    HW2 7473   3.032   2.078   6.764
 2192SOL     OW 7474   4.994   1.201   2.504
 2192SOL    HW1 7475   5.057   1.156   2.440
 2192SOL    HW2 7476   4.983   1.297   2.478
 2193SOL     OW 7477   5.365   5.476   0.009
 2193SOL    HW1 7478   5.353   5.377   0.015
 2193SOL    HW2 7479   5.371   5.503   6.930
 2194SOL     OW 7480   2.439   4.363   5.603
 2194SOL    HW1 7481   2.538   4.348   5.611
 2194SOL    HW2 7482   2.391   4.277   5.622
 2195SOL     OW 7483   0.271   0.420   4.848
 2195SOL    HW1 7484   0.197   0.485   4.827
 2195SOL    HW2 7485   0.356   0.470   4.861
 2196SOL     OW 7486   3.040   6.828   5.318
 2196SOL    HW1 7487   2.942   6.846   5.327
 2196SOL    HW2 7488   3.066   6.753   5.378
 2197SOL     OW 7489   3.260   3.974   0.387
 2197SOL    HW1 7490   3.289   3.980   0.292
 2197SOL    HW2 7491   3.291   3.887   0.426
 2198SOL     OW 7492   5.163   0.978   0.392
 2198SOL    HW1 7493   5.217   1.062   0.383
 2198SOL    HW2 7494   5.221   0.906   0.430
 2199SOL     OW 7495   4.661   0.914   3.377
 2199SOL    HW1 7496   4.739   0.863   3.414
 2199SOL    HW2 7497   4.694   0.981   3.311
 2200SOL     OW 7498   2.729   1.467   5.124
 2200SOL    HW1 7499   2.632   1.494   5.124
 2200SOL    HW2 7500   2.765   1.476   5.032
 2201SOL     OW 7501   6.780   2.658   3.060
 2201SOL    HW1 7502   6.809   2.612   2.976
 2201SOL    HW2 7503   6.840   2.736   3.078
 2202SOL     OW 7504   2.834   5.665   2.392
 2202SOL    HW1 7505   2.785   5.638   2.309
 2202SOL    HW2 7506   2.835   5.764   2.400
 2203SOL     OW 7507   1.734   2.278   1.180
 2203SOL    HW1 7508   1.791   2.205   1.142
 2203SOL    HW2 7509   1.773   2.310   1.266
 2204SOL     OW 7510   4.072   1.458   1.724
 2204SOL    HW1 7511   4.085   1.366   1.687
 2204SOL    HW2 7512   4.160   1.504   1.732
 2205SOL     OW 7513   0.259   0.043   6.041
 2205SOL    HW1 7514   0.208   0.003   5.965
 2205SOL    HW2 7515   0.347   7.012   6.050
 2206SOL     OW 7516   3.557   4.834   6.382
 2206SOL    HW1 7517   3.641   4.812   6.431
 2206SOL    HW2 7518   3.491   4.876   6.445
 2207SOL     OW 7519   3.034   4.684   6.489
 2207SOL    HW1 7520   2.987   4.598   6.511
 2207SOL    HW2 7521   3.068   4.680   6.395
 2208SOL     OW 7522   1.517   6.316   3.207
 2208SOL    HW1 7523   1.593   6.255   3.229
 2208SOL    HW2 7524   1.549   6.389   3.147
 2209SOL     OW 7525   1.493   6.310   5.160
 2209SOL    HW1 7526   1.462   6.270   5.246
 2209SOL    HW2 7527   1.592   6.325   5.164
 2210SOL     OW 7528   6.620   5.006   4.444
 2210SOL    HW1 7529   6.719   5.003   4.454
 2210SOL    HW2 7530   6.585   4.913   4.431
 2211SOL     OW 7531   5.958   0.793   1.105
 2211SOL    HW1 7532   5.947   0.864   1.035
 2211SOL    HW2 7533   5.961   0.704   1.061
 2212SOL     OW 7534   2.195   5.775   6.881
 2212SOL    HW1 7535   2.101   5.807   6.878
 2212SOL    HW2 7536   2.198   5.677   6.858
 2213SOL     OW 7537   3.476   2.502   5.735
 2213SOL    HW1 7538   3.503   2.417   5.781
 2213SOL    HW2 7539   3.386   2.490   5.692
 2214SOL     OW 7540   3.802   3.047   5.166
 2214SOL    HW1 7541   3.803   2.995   5.080
 2214SOL    HW2 7542   3.737   3.122   5.159
 2215SOL     OW 7543   6.140   1.027   0.433
 2215SOL    HW1 7544   6.073   1.091   0.396
 2215SOL    HW2 7545   6.232   1.062   0.418
 2216SOL     OW 7546   1.709   0.689   6.160
 2216SOL    HW1 7547   1.688   0.737   6.245
 2216SOL    HW2 7548   1.668   0.597   6.163
 2217SOL     OW 7549   4.124   6.871   1.588
 2217SOL    HW1 7550   4.135   6.895   1.492
 2217SOL    HW2 7551   4.118   6.954   1.643
 2218SOL     OW 7552   6.960   5.811   0.094
 2218SOL    HW1 7553   7.009   5.800   0.008
 2218SOL    HW2 7554   6.867   5.775   0.084
 2219SOL     OW 7555   5.367   1.896   1.438
 2219SOL    HW1 7556   5.278   1.942   1.427
 2219SOL    HW2 7557   5.422   1.946   1.505
 2220SOL     OW 7558   1.717   0.102   4.861
 2220SOL    HW1 7559   1.797   0.052   4.825
 2220SOL    HW2 7560   1.692   0.064   4.950
 2221SOL     OW 7561   5.902   1.009   5.504
 2221SOL    HW1 7562   5.855   1.094   5.529
 2221SOL    HW2 7563   5.960   0.979   5.579
 2222SOL     OW 7564   4.801   0.777   0.242
 2222SOL    HW1 7565   4.828   0.828   0.325
 2222SOL    HW2 7566   4.714   0.812   0.209
 2223SOL     OW 7567   5.890   0.976   5.007
 2223SOL    HW1 7568   5.989   0.989   5.010
 2223SOL    HW2 7569   5.855   0.959   5.099
 2224SOL     OW 7570   0.544   3.433   0.511
 2224SOL    HW1 7571   0.497   3.432   0.599
 2224SOL    HW2 7572   0.491   3.486   0.445
 2225SOL     OW 7573   6.744   6.279   3.434
 2225SOL    HW1 7574   6.770   6.319   3.347
 2225SOL    HW2 7575   6.755   6.179   3.430
 2226SOL     OW 7576   3.884   5.112   0.893
 2226SOL    HW1 7577   3.802   5.100   0.838
 2226SOL    HW2 7578   3.859   5.145   0.984
 2227SOL     OW 7579   5.404   3.361   6.935
 2227SOL    HW1 7580   5.355   3.357   6.847
 2227SOL    HW2 7581   5.358   3.301   7.001
 2228SOL     OW 7582   3.283   4.751   0.921
 2228SOL    HW1 7583   3.240   4.676   0.871
 2228SOL    HW2 7584   3.251   4.838   0.886
 2229SOL     OW 7585   4.683   2.662   4.751
 2229SOL    HW1 7586   4.593   2.673   4.792
 2229SOL    HW2 7587   4.685   2.707   4.662
 2230SOL     OW 7588   5.732   6.261   0.103
 2230SOL    HW1 7589   5.684   6.335   0.150
 2230SOL    HW2 7590   5.691   6.247   0.013
 2231SOL     OW 7591   0.607   0.668   2.063
 2231SOL    HW1 7592   0.536   0.709   2.121
 2231SOL    HW2 7593   0.647   0.590   2.111
 2232SOL     OW 7594   0.838   2.803   5.058
 2232SOL    HW1 7595   0.840   2.903   5.055
 2232SOL    HW2 7596   0.866   2.772   5.149
 2233SOL     OW 7597   2.103   3.934   0.119
 2233SOL    HW1 7598   2.062   3.876   0.190
 2233SOL    HW2 7599   2.041   3.940   0.041
 2234SOL     OW 7600   4.234   1.779   1.516
 2234SOL    HW1 7601   4.244   1.718   1.594
 2234SOL    HW2 7602   4.250   1.874   1.546
 2235SOL     OW 7603   2.921   0.127   0.982
 2235SOL    HW1 7604   2.856   0.193   1.020
 2235SOL    HW2 7605   2.886   0.034   0.994
 2236SOL     OW 7606   1.844   4.532   6.195
 2236SOL    HW1 7607   1.889   4.540   6.106
 2236SOL    HW2 7608   1.816   4.623   6.226
 2237SOL     OW 7609   5.931   4.657   3.704
 2237SOL    HW1 7610   5.833   4.672   3.692
 2237SOL    HW2 7611   5.961   4.702   3.788
 2238SOL     OW 7612   5.045   4.837   1.610
 2238SOL    HW1 7613   5.124   4.898   1.615
 2238SOL    HW2 7614   5.046   4.789   1.522
 2239SOL     OW 7615   4.023   5.294   3.723
 2239SOL    HW1 7616   4.059   5.256   3.638
 2239SOL    HW2 7617   3.940   5.348   3.704
 2240SOL     OW 7618   4.954   5.888   3.859
 2240SOL    HW1 7619   4.896   5.959   3.818
 2240SOL    HW2 7620   4.950   5.806   3.802
 2241SOL     OW 7621   0.413   5.935   3.343
 2241SOL    HW1 7622   0.502   5.907   3.378
 2241SOL    HW2 7623   0.420   6.026   3.302
 2242SOL     OW 7624   5.512   2.640   2.562
 2242SOL    HW1 7625   5.494   2.580   2.483
 2242SOL    HW2 7626   5.424   2.671   2.600
 2243SOL     OW 7627   1.485   6.849   6.164
 2243SOL    HW1 7628   1.430   6.845   6.248
 2243SOL    HW2 7629   1.546   6.928   6.168
 2244SOL     OW 7630   1.745   6.931   1.867
 2244SOL    HW1 7631   1.682   6.931   1.789
 2244SOL    HW2 7632   1.832   6.889   1.839
 2245SOL     OW 7633   0.673   2.524   1.218
 2245SOL    HW1 7634   0.644   2.464   1.292
 2245SOL    HW2 7635   0.772   2.539   1.225
 2246SOL     OW 7636   1.060   2.106   5.108
 2246SOL    HW1 7637   0.975   2.069   5.070
 2246SOL    HW2 7638   1.121   2.131   5.032
 2247SOL     OW 7639   3.484   3.281   4.133
 2247SOL    HW1 7640   3.560   3.268   4.196
 2247SOL    HW2 7641   3.427   3.199   4.131
 2248SOL     OW 7642   5.121   3.989   5.665
 2248SOL    HW1 7643   5.185   3.917   5.637
 2248SOL    HW2 7644   5.027   3.958   5.651
 2249SOL     OW 7645   6.251   6.464   3.142
 2249SOL    HW1 7646   6.347   6.482   3.164
 2249SOL    HW2 7647   6.202   6.550   3.130
 2250SOL     OW 7648   4.485   4.004   6.125
 2250SOL    HW1 7649   4.562   4.061   6.096
 2250SOL    HW2 7650   4.516   3.910   6.138
 2251SOL     OW 7651   5.215   0.511   6.748
 2251SOL    HW1 7652   5.275   0.435   6.775
 2251SOL    HW2 7653   5.178   0.555   6.830
 2252SOL     OW 7654   4.849   3.022   2.447
 2252SOL    HW1 7655   4.824   3.011   2.543
 2252SOL    HW2 7656   4.797   2.957   2.391
 2253SOL     OW 7657   0.964   3.624   6.604
 2253SOL    HW1 7658   1.005   3.596   6.691
 2253SOL    HW2 7659   1.019   3.697   6.564
 2254SOL     OW 7660   3.900   3.069   5.721
 2254SOL    HW1 7661   3.974   3.123   5.680
 2254SOL    HW2 7662   3.856   3.014   5.650
 2255SOL     OW 7663   4.414   2.886   6.140
 2255SOL    HW1 7664   4.392   2.790   6.152
 2255SOL    HW2 7665   4.358   2.925   6.067
 2256SOL     OW 7666   5.183   5.733   1.227
 2256SOL    HW1 7667   5.241   5.800   1.274
 2256SOL    HW2 7668   5.102   5.778   1.191
 2257SOL     OW 7669   0.011   1.935   4.313
 2257SOL    HW1 7670   6.992   1.842   4.313
 2257SOL    HW2 7671   0.054   1.955   4.401
 2258SOL     OW 7672   0.837   5.451   5.691
 2258SOL    HW1 7673   0.927   5.486   5.665
 2258SOL    HW2 7674   0.767   5.498   5.637
 2259SOL     OW 7675   5.446   3.623   6.612
 2259SOL    HW1 7676   5.423   3.542   6.666
 2259SOL    HW2 7677   5.513   3.599   6.542
 2260SOL     OW 7678   6.236   4.191   1.985
 2260SOL    HW1 7679   6.244   4.285   1.954
 2260SOL    HW2 7680   6.250   4.129   1.907
 2261SOL     OW 7681   6.516   6.031   6.970
 2261SOL    HW1 7682   6.515   6.109   6.907
 2261SOL    HW2 7683   6.498   6.063   0.047
 2262SOL     OW 7684   5.818   1.228   3.146
 2262SOL    HW1 7685   5.890   1.172   3.106
 2262SOL    HW2 7686   5.855   1.279   3.224
 2263SOL     OW 7687   3.614   5.439   6.911
 2263SOL    HW1 7688   3.653   5.362   6.961
 2263SOL    HW2 7689   3.606   5.416   6.814
 2264SOL     OW 7690   2.698   4.319   0.436
 2264SOL    HW1 7691   2.673   4.379   0.361
 2264SOL    HW2 7692   2.797   4.305   0.436
 2265SOL     OW 7693   0.734   0.899   4.651
 2265SOL    HW1 7694   0.726   0.967   4.578
 2265SOL    HW2 7695   0.829   0.873   4.662
 2266SOL     OW 7696   5.042   1.929   0.117
 2266SOL    HW1 7697   5.104   1.995   0.158
 2266SOL    HW2 7698   4.977   1.896   0.185
 2267SOL     OW 7699   5.234   2.379   4.858
 2267SOL    HW1 7700   5.159   2.316   4.877
 2267SOL    HW2 7701   5.211   2.470   4.893
 2268SOL     OW 7702   6.581   3.404   6.995
 2268SOL    HW1 7703   6.572   3.414   6.896
 2268SOL    HW2 7704   6.526   3.326   0.009
 2269SOL     OW 7705   6.199   5.352   5.325
 2269SOL    HW1 7706   6.165   5.393   5.409
 2269SOL    HW2 7707   6.121   5.318   5.271
 2270SOL     OW 7708   3.227   2.650   6.053
 2270SOL    HW1 7709   3.259   2.697   5.970
 2270SOL    HW2 7710   3.298   2.587   6.085
 2271SOL     OW 7711   5.941   3.875   1.003
 2271SOL    HW1 7712   5.841   3.870   1.003
 2271SOL    HW2 7713   5.979   3.788   0.973
 2272SOL     OW 7714   6.245   2.428   5.981
 2272SOL    HW1 7715   6.251   2.484   5.898
 2272SOL    HW2 7716   6.274   2.335   5.960
 2273SOL     OW 7717   1.520   0.159   2.330
 2273SOL    HW1 7718   1.550   0.116   2.245
 2273SOL    HW2 7719   1.508   0.257   2.316
 2274SOL     OW 7720   6.908   2.296   6.505
 2274SOL    HW1 7721   6.977   2.364   6.478
 2274SOL    HW2 7722   6.817   2.334   6.487
 2275SOL     OW 7723   5.886   0.553   4.272
 2275SOL    HW1 7724   5.864   0.480   4.207
 2275SOL    HW2 7725   5.955   0.614   4.232
 2276SOL     OW 7726   2.589   5.176   0.959
 2276SOL    HW1 7727   2.539   5.089   0.968
 2276SOL    HW2 7728   2.582   5.208   0.865
 2277SOL     OW 7729   3.940   3.892   4.846
 2277SOL    HW1 7730   3.952   3.826   4.772
 2277SOL    HW2 7731   3.972   3.853   4.932
 2278SOL     OW 7732   6.597   4.985   4.186
 2278SOL    HW1 7733   6.604   4.990   4.286
 2278SOL    HW2 7734   6.654   4.910   4.153
 2279SOL     OW 7735   5.290   6.164   4.716
 2279SOL    HW1 7736   5.356   6.229   4.679
 2279SOL    HW2 7737   5.247   6.113   4.642
 2280SOL     OW 7738   6.589   0.038   4.343
 2280SOL    HW1 7739   6.509   6.994   4.338
 2280SOL    HW2 7740   6.666   7.004   4.384
 2281SOL     OW 7741   3.568   1.647   2.297
 2281SOL    HW1 7742   3.575   1.657   2.197
 2281SOL    HW2 7743   3.615   1.564   2.325
 2282SOL     OW 7744   5.038   0.510   4.630
 2282SOL    HW1 7745   5.018   0.413   4.630
 2282SOL    HW2 7746   5.087   0.534   4.545
 2283SOL     OW 7747   0.237   4.553   1.510
 2283SOL    HW1 7748   0.246   4.465   1.463
 2283SOL    HW2 7749   0.221   4.537   1.607
 2284SOL     OW 7750   1.399   2.335   6.438
 2284SOL    HW1 7751   1.376   2.283   6.520
 2284SOL    HW2 7752   1.370   2.284   6.357
 2285SOL     OW 7753   2.601   2.291   0.426
 2285SOL    HW1 7754   2.670   2.232   0.385
 2285SOL    HW2 7755   2.602   2.380   0.381
 2286SOL     OW 7756   6.938   0.689   4.473
 2286SOL    HW1 7757   6.873   0.651   4.407
 2286SOL    HW2 7758   0.012   0.649   4.456
 2287SOL     OW 7759   1.458   1.371   3.017
 2287SOL    HW1 7760   1.488   1.454   3.063
 2287SOL    HW2 7761   1.537   1.321   2.983
 2288SOL     OW 7762   6.216   5.344   4.639
 2288SOL    HW1 7763   6.313   5.346   4.664
 2288SOL    HW2 7764   6.171   5.267   4.684
 2289SOL     OW 7765   0.670   4.869   1.971
 2289SOL    HW1 7766   0.712   4.952   2.007
 2289SOL    HW2 7767   0.634   4.888   1.879
 2290SOL     OW 7768   1.114   4.907   1.394
 2290SOL    HW1 7769   1.067   4.842   1.335
 2290SOL    HW2 7770   1.210   4.881   1.403
 2291SOL     OW 7771   2.527   2.530   6.587
 2291SOL    HW1 7772   2.505   2.433   6.583
 2291SOL    HW2 7773   2.457   2.582   6.539
 2292SOL     OW 7774   5.804   2.153   4.828
 2292SOL    HW1 7775   5.712   2.136   4.793
 2292SOL    HW2 7776   5.865   2.080   4.797
 2293SOL     OW 7777   5.482   6.994   1.403
 2293SOL    HW1 7778   5.506   6.939   1.483
 2293SOL    HW2 7779   5.535   6.962   1.324
 2294SOL     OW 7780   3.009   1.139   6.414
 2294SOL    HW1 7781   2.965   1.223   6.382
 2294SOL    HW2 7782   2.940   1.068   6.424
 2295SOL     OW 7783   0.317   2.268   2.848
 2295SOL    HW1 7784   0.359   2.359   2.857
 2295SOL    HW2 7785   0.248   2.256   2.919
 2296SOL     OW 7786   4.054   5.703   1.612
 2296SOL    HW1 7787   4.024   5.616   1.651
 2296SOL    HW2 7788   4.147   5.694   1.577
 2297SOL     OW 7789   4.650   4.922   5.972
 2297SOL    HW1 7790   4.740   4.935   6.015
 2297SOL    HW2 7791   4.630   5.001   5.914
 2298SOL     OW 7792   4.211   3.548   1.718
 2298SOL    HW1 7793   4.185   3.472   1.778
 2298SOL    HW2 7794   4.310   3.547   1.704
 2299SOL     OW 7795   4.398   5.172   5.387
 2299SOL    HW1 7796   4.427   5.149   5.294
 2299SOL    HW2 7797   4.340   5.253   5.384
 2300SOL     OW 7798   2.339   6.273   1.883
 2300SOL    HW1 7799   2.381   6.302   1.798
 2300SOL    HW2 7800   2.266   6.336   1.908
 2301SOL     OW 7801   3.394   2.885   2.906
 2301SOL    HW1 7802   3.320   2.821   2.885
 2301SOL    HW2 7803   3.408   2.889   3.005
 2302SOL     OW 7804   3.878   0.201   0.810
 2302SOL    HW1 7805   3.850   0.263   0.737
 2302SOL    HW2 7806   3.799   0.178   0.867
 2303SOL     OW 7807   2.576   3.341   6.446
 2303SOL    HW1 7808   2.574   3.325   6.545
 2303SOL    HW2 7809   2.600   3.436   6.428
 2304SOL     OW 7810   4.804   6.789   3.485
 2304SOL    HW1 7811   4.775   6.770   3.391
 2304SOL    HW2 7812   4.731   6.763   3.548
 2305SOL     OW 7813   2.338   0.029   2.415
 2305SOL    HW1 7814   2.413   0.085   2.380
 2305SOL    HW2 7815   2.253   0.057   2.370
 2306SOL     OW 7816   2.804   5.039   2.218
 2306SOL    HW1 7817   2.747   5.108   2.261
 2306SOL    HW2 7818   2.899   5.050   2.249
 2307SOL     OW 7819   6.697   4.026   3.270
 2307SOL    HW1 7820   6.740   4.117   3.269
 2307SOL    HW2 7821   6.697   3.990   3.363
 2308SOL     OW 7822   1.357   5.458   1.548
 2308SOL    HW1 7823   1.323   5.366   1.527
 2308SOL    HW2 7824   1.305   5.497   1.624
 2309SOL     OW 7825   1.733   0.745   6.705
 2309SOL    HW1 7826   1.765   0.651   6.695
 2309SOL    HW2 7827   1.668   0.751   6.780
 2310SOL     OW 7828   5.067   6.572   0.660
 2310SOL    HW1 7829   4.970   6.563   0.637
 2310SOL    HW2 7830   5.100   6.487   0.701
 2311SOL     OW 7831   1.789   6.691   0.929
 2311SOL    HW1 7832   1.764   6.759   0.860
 2311SOL    HW2 7833   1.884   6.704   0.956
 2312SOL     OW 7834   4.239   6.473   2.581
 2312SOL    HW1 7835   4.229   6.397   2.646
 2312SOL    HW2 7836   4.309   6.450   2.514
 2313SOL     OW 7837   6.053   6.133   1.306
 2313SOL    HW1 7838   6.146   6.141   1.341
 2313SOL    HW2 7839   6.047   6.054   1.245
 2314SOL     OW 7840   5.898   0.025   4.230
 2314SOL    HW1 7841   5.902   6.994   4.142
 2314SOL    HW2 7842   5.837   0.104   4.222
 2315SOL     OW 7843   4.823   3.356   6.360
 2315SOL    HW1 7844   4.789   3.324   6.448
 2315SOL    HW2 7845   4.870   3.281   6.313
 2316SOL     OW 7846   3.512   1.286   4.374
 2316SOL    HW1 7847   3.591   1.340   4.402
 2316SOL    HW2 7848   3.542   1.195   4.345
 2317SOL     OW 7849   0.500   6.185   3.215
 2317SOL    HW1 7850   0.407   6.219   3.215
 2317SOL    HW2 7851   0.564   6.261   3.221
 2318SOL     OW 7852   1.813   3.085   4.455
 2318SOL    HW1 7853   1.857   3.168   4.489
 2318SOL    HW2 7854   1.715   3.102   4.443
 2319SOL     OW 7855   2.260   4.579   4.037
 2319SOL    HW1 7856   2.295   4.624   3.955
 2319SOL    HW2 7857   2.188   4.515   4.012
 2320SOL     OW 7858   0.964   2.034   4.712
 2320SOL    HW1 7859   0.946   1.945   4.672
 2320SOL    HW2 7860   1.062   2.044   4.729
 2321SOL     OW 7861   2.257   0.396   6.942
 2321SOL    HW1 7862   2.314   0.435   7.014
 2321SOL    HW2 7863   2.223   0.469   6.883
 2322SOL     OW 7864   2.586   1.401   3.740
 2322SOL    HW1 7865   2.655   1.472   3.749
 2322SOL    HW2 7866   2.607   1.326   3.803
 2323SOL     OW 7867   2.867   5.269   1.969
 2323SOL    HW1 7868   2.931   5.192   1.964
 2323SOL    HW2 7869   2.905   5.339   2.030
 2324SOL     OW 7870   6.396   6.763   1.321
 2324SOL    HW1 7871   6.349   6.821   1.255
 2324SOL    HW2 7872   6.396   6.668   1.289
 2325SOL     OW 7873   1.703   5.085   1.648
 2325SOL    HW1 7874   1.728   5.169   1.601
 2325SOL    HW2 7875   1.693   5.011   1.581
 2326SOL     OW 7876   2.723   5.585   5.783
 2326SOL    HW1 7877   2.784   5.655   5.818
 2326SOL    HW2 7878   2.659   5.625   5.717
 2327SOL     OW 7879   6.850   2.447   3.953
 2327SOL    HW1 7880   6.947   2.438   3.978
 2327SOL    HW2 7881   6.831   2.543   3.931
 2328SOL     OW 7882   2.969   2.236   2.659
 2328SOL    HW1 7883   2.942   2.306   2.593
 2328SOL    HW2 7884   2.945   2.145   2.622
 2329SOL     OW 7885   1.302   3.810   5.310
 2329SOL    HW1 7886   1.326   3.863   5.229
 2329SOL    HW2 7887   1.330   3.860   5.392
 2330SOL     OW 7888   0.805   4.123   1.393
 2330SOL    HW1 7889   0.897   4.158   1.378
 2330SOL    HW2 7890   0.758   4.116   1.305
 2331SOL     OW 7891   5.628   4.558   1.129
 2331SOL    HW1 7892   5.535   4.522   1.122
 2331SOL    HW2 7893   5.663   4.578   1.037
 2332SOL     OW 7894   4.717   1.827   5.107
 2332SOL    HW1 7895   4.708   1.920   5.071
 2332SOL    HW2 7896   4.635   1.774   5.083
 2333SOL     OW 7897   0.564   5.260   2.930
 2333SOL    HW1 7898   0.585   5.277   3.026
 2333SOL    HW2 7899   0.531   5.167   2.918
 2334SOL     OW 7900   2.561   6.939   6.833
 2334SOL    HW1 7901   2.547   7.008   6.904
 2334SOL    HW2 7902   2.563   6.983   6.743
 2335SOL     OW 7903   5.982   0.813   3.174
 2335SOL    HW1 7904   5.938   0.805   3.263
 2335SOL    HW2 7905   6.027   0.902   3.167
 2336SOL     OW 7906   4.448   2.469   4.948
 2336SOL    HW1 7907   4.368   2.418   4.978
 2336SOL    HW2 7908   4.502   2.498   5.027
 2337SOL     OW 7909   4.454   0.831   3.201
 2337SOL    HW1 7910   4.520   0.853   3.274
 2337SOL    HW2 7911   4.395   0.909   3.184
 2338SOL     OW 7912   1.466   2.081   6.189
 2338SOL    HW1 7913   1.468   1.982   6.185
 2338SOL    HW2 7914   1.497   2.119   6.102
 2339SOL     OW 7915   3.751   4.114   4.874
 2339SOL    HW1 7916   3.725   4.194   4.820
 2339SOL    HW2 7917   3.817   4.059   4.823
 2340SOL     OW 7918   5.375   4.421   0.152
 2340SOL    HW1 7919   5.293   4.369   0.124
 2340SOL    HW2 7920   5.427   4.447   0.071
 2341SOL     OW 7921   5.058   4.319   1.210
 2341SOL    HW1 7922   5.030   4.325   1.306
 2341SOL    HW2 7923   5.140   4.262   1.203
 2342SOL     OW 7924   0.430   6.707   5.193
 2342SOL    HW1 7925   0.487   6.784   5.165
 2342SOL    HW2 7926   0.398   6.722   5.286
 2343SOL     OW 7927   2.461   6.096   2.794
 2343SOL    HW1 7928   2.401   6.159   2.745
 2343SOL    HW2 7929   2.526   6.056   2.729
 2344SOL     OW 7930   1.610   0.925   1.088
 2344SOL    HW1 7931   1.597   1.024   1.088
 2344SOL    HW2 7932   1.653   0.897   1.174
 2345SOL     OW 7933   3.488   5.647   5.560
 2345SOL    HW1 7934   3.421   5.586   5.603
 2345SOL    HW2 7935   3.457   5.672   5.469
 2346SOL     OW 7936   5.131   2.609   4.961
 2346SOL    HW1 7937   5.076   2.566   5.033
 2346SOL    HW2 7938   5.075   2.677   4.912
 2347SOL     OW 7939   2.558   3.639   1.686
 2347SOL    HW1 7940   2.492   3.684   1.626
 2347SOL    HW2 7941   2.511   3.602   1.766
 2348SOL     OW 7942   3.394   6.342   3.240
 2348SOL    HW1 7943   3.483   6.320   3.201
 2348SOL    HW2 7944   3.364   6.431   3.208
 2349SOL     OW 7945   0.634   4.767   6.100
 2349SOL    HW1 7946   0.601   4.824   6.025
 2349SOL    HW2 7947   0.636   4.671   6.070
 2350SOL     OW 7948   4.935   6.816   6.049
 2350SOL    HW1 7949   4.905   6.911   6.055
 2350SOL    HW2 7950   4.909   6.777   5.961
 2351SOL     OW 7951   3.373   5.191   2.650
 2351SOL    HW1 7952   3.404   5.103   2.613
 2351SOL    HW2 7953   3.377   5.188   2.750
 2352SOL     OW 7954   1.135   4.186   2.143
 2352SOL    HW1 7955   1.235   4.179   2.153
 2352SOL    HW2 7956   1.098   4.245   2.214
 2353SOL     OW 7957   2.931   4.827   5.240
 2353SOL    HW1 7958   2.837   4.834   5.271
 2353SOL    HW2 7959   2.942   4.745   5.183
 2354SOL     OW 7960   2.795   1.921   6.023
 2354SOL    HW1 7961   2.789   1.824   6.044
 2354SOL    HW2 7962   2.703   1.958   6.009
 2355SOL     OW 7963   1.172   5.384   6.894
 2355SOL    HW1 7964   1.186   5.365   6.796
 2355SOL    HW2 7965   1.234   5.457   6.922
 2356SOL     OW 7966   2.390   4.169   0.820
 2356SOL    HW1 7967   2.459   4.191   0.751
 2356SOL    HW2 7968   2.416   4.210   0.908
 2357SOL     OW 7969   4.368   5.341   3.875
 2357SOL    HW1 7970   4.330   5.271   3.815
 2357SOL    HW2 7971   4.296   5.406   3.901
 2358SOL     OW 7972   2.807   5.042   5.472
 2358SOL    HW1 7973   2.888   5.061   5.416
 2358SOL    HW2 7974   2.823   5.074   5.565
 2359SOL     OW 7975   6.779   0.911   6.185
 2359SOL    HW1 7976   6.847   0.912   6.111
 2359SOL    HW2 7977   6.795   0.989   6.245
 2360SOL     OW 7978   5.339   6.208   5.659
 2360SOL    HW1 7979   5.324   6.197   5.757
 2360SOL    HW2 7980   5.287   6.287   5.626
 2361SOL     OW 7981   2.774   0.678   5.228
 2361SOL    HW1 7982   2.815   0.733   5.300
 2361SOL    HW2 7983   2.675   0.694   5.225
 2362SOL     OW 7984   2.854   0.668   4.945
 2362SOL    HW1 7985   2.953   0.656   4.933
 2362SOL    HW2 7986   2.836   0.712   5.033
 2363SOL     OW 7987   3.938   2.521   5.616
 2363SOL    HW1 7988   3.989   2.556   5.537
 2363SOL    HW2 7989   3.913   2.597   5.675
 2364SOL     OW 7990   0.527   2.587   3.246
 2364SOL    HW1 7991   0.582   2.548   3.173
 2364SOL    HW2 7992   0.482   2.514   3.297
 2365SOL     OW 7993   6.133   2.148   5.628
 2365SOL    HW1 7994   6.054   2.207   5.642
 2365SOL    HW2 7995   6.209   2.180   5.684
 2366SOL     OW 7996   1.609   4.425   5.924
 2366SOL    HW1 7997   1.685   4.387   5.977
 2366SOL    HW2 7998   1.608   4.525   5.936
 2367SOL     OW 7999   3.726   3.826   0.024
 2367SOL    HW1 8000   3.666   3.751   7.012
 2367SOL    HW2 8001   3.722   3.836   0.123
 2368SOL     OW 8002   5.067   7.010   3.323
 2368SOL    HW1 8003   5.138   0.060   3.348
 2368SOL    HW2 8004   4.986   0.043   3.290
 2369SOL     OW 8005   2.063   2.684   5.418
 2369SOL    HW1 8006   2.022   2.593   5.426
 2369SOL    HW2 8007   1.992   2.753   5.428
 2370SOL     OW 8008   4.809   4.094   6.746
 2370SOL    HW1 8009   4.882   4.027   6.759
 2370SOL    HW2 8010   4.721   4.047   6.747
 2371SOL     OW 8011   0.804   6.060   1.480
 2371SOL    HW1 8012   0.762   6.070   1.570
 2371SOL    HW2 8013   0.901   6.038   1.490
 2372SOL     OW 8014   0.485   1.946   1.505
 2372SOL    HW1 8015   0.486   1.953   1.604
 2372SOL    HW2 8016   0.577   1.962   1.469
 2373SOL     OW 8017   6.872   0.065   0.019
 2373SOL    HW1 8018   6.802   0.120   0.064
 2373SOL    HW2 8019   6.960   0.113   0.023
 2374SOL     OW 8020   6.397   0.687   4.074
 2374SOL    HW1 8021   6.486   0.700   4.030
 2374SOL    HW2 8022   6.400   0.719   4.168
 2375SOL     OW 8023   1.709   6.425   4.381
 2375SOL    HW1 8024   1.662   6.479   4.451
 2375SOL    HW2 8025   1.729   6.483   4.302
 2376SOL     OW 8026   5.470   2.152   4.252
 2376SOL    HW1 8027   5.441   2.221   4.318
 2376SOL    HW2 8028   5.397   2.136   4.186
 2377SOL     OW 8029   3.570   4.109   2.794
 2377SOL    HW1 8030   3.531   4.172   2.861
 2377SOL    HW2 8031   3.640   4.053   2.839
 2378SOL     OW 8032   5.089   2.373   6.960
 2378SOL    HW1 8033   5.020   2.306   6.933
 2378SOL    HW2 8034   5.052   2.465   6.952
 2379SOL     OW 8035   6.707   2.029   6.733
 2379SOL    HW1 8036   6.791   2.082   6.748
 2379SOL    HW2 8037   6.657   2.021   6.819
 2380SOL     OW 8038   6.685   6.435   5.710
 2380SOL    HW1 8039   6.732   6.446   5.797
 2380SOL    HW2 8040   6.709   6.510   5.648
 2381SOL     OW 8041   2.231   4.056   3.925
 2381SOL    HW1 8042   2.262   3.961   3.930
 2381SOL    HW2 8043   2.257   4.095   3.837
 2382SOL     OW 8044   2.191   5.378   3.526
 2382SOL    HW1 8045   2.131   5.338   3.458
 2382SOL    HW2 8046   2.286   5.372   3.494
 2383SOL     OW 8047   5.381   5.979   6.935
 2383SOL    HW1 8048   5.302   6.041   6.938
 2383SOL    HW2 8049   5.388   5.939   6.844
 2384SOL     OW 8050   6.534   6.565   2.213
 2384SOL    HW1 8051   6.534   6.526   2.305
 2384SOL    HW2 8052   6.552   6.492   2.146
 2385SOL     OW 8053   6.126   6.782   1.535
 2385SOL    HW1 8054   6.041   6.811   1.491
 2385SOL    HW2 8055   6.168   6.709   1.482
 2386SOL     OW 8056   5.246   4.579   4.093
 2386SOL    HW1 8057   5.216   4.642   4.021
 2386SOL    HW2 8058   5.211   4.611   4.181
 2387SOL     OW 8059   0.355   2.303   3.330
 2387SOL    HW1 8060   0.358   2.275   3.426
 2387SOL    HW2 8061   0.441   2.279   3.285
 2388SOL     OW 8062   1.105   1.829   3.789
 2388SOL    HW1 8063   1.166   1.859   3.716
 2388SOL    HW2 8064   1.130   1.876   3.874
 2389SOL     OW 8065   5.417   3.386   3.310
 2389SOL    HW1 8066   5.462   3.306   3.349
 2389SOL    HW2 8067   5.326   3.361   3.278
 2390SOL     OW 8068   3.176   4.001   4.382
 2390SOL    HW1 8069   3.261   4.051   4.364
 2390SOL    HW2 8070   3.128   3.985   4.295
 2391SOL     OW 8071   4.376   4.176   5.645
 2391SOL    HW1 8072   4.402   4.114   5.719
 2391SOL    HW2 8073   4.428   4.153   5.563
 2392SOL     OW 8074   3.663   6.704   5.138
 2392SOL    HW1 8075   3.589   6.762   5.103
 2392SOL    HW2 8076   3.742   6.761   5.160
 2393SOL     OW 8077   4.272   4.703   0.273
 2393SOL    HW1 8078   4.274   4.799   0.301
 2393SOL    HW2 8079   4.309   4.694   0.181
 2394SOL     OW 8080   1.572   3.190   4.340
 2394SOL    HW1 8081   1.622   3.211   4.255
 2394SOL    HW2 8082   1.475   3.205   4.326
 2395SOL     OW 8083   6.240   2.542   0.666
 2395SOL    HW1 8084   6.304   2.615   0.641
 2395SOL    HW2 8085   6.289   2.456   0.673
 2396SOL     OW 8086   4.197   5.512   0.737
 2396SOL    HW1 8087   4.144   5.535   0.655
 2396SOL    HW2 8088   4.159   5.560   0.816
 2397SOL     OW 8089   0.249   3.554   6.895
 2397SOL    HW1 8090   0.168   3.592   6.940
 2397SOL    HW2 8091   0.331   3.595   6.934
 2398SOL     OW 8092   3.301   4.263   6.321
 2398SOL    HW1 8093   3.265   4.333   6.383
 2398SOL    HW2 8094   3.240   4.184   6.320
 2399SOL     OW 8095   5.282   1.671   2.893
 2399SOL    HW1 8096   5.194   1.689   2.936
 2399SOL    HW2 8097   5.281   1.579   2.853
 2400SOL     OW 8098   4.201   5.108   0.064
 2400SOL    HW1 8099   4.103   5.097   0.054
 2400SOL    HW2 8100   4.220   5.173   0.138
 2401SOL     OW 8101   4.292   0.606   6.475
 2401SOL    HW1 8102   4.337   0.656   6.548
 2401SOL    HW2 8103   4.214   0.555   6.513
 2402SOL     OW 8104   0.691   2.003   4.375
 2402SOL    HW1 8105   0.723   1.935   4.440
 2402SOL    HW2 8106   0.765   2.028   4.312
 2403SOL     OW 8107   2.701   2.617   0.354
 2403SOL    HW1 8108   2.741   2.573   0.274
 2403SOL    HW2 8109   2.744   2.707   0.368
 2404SOL     OW 8110   6.053   1.060   1.625
 2404SOL    HW1 8111   5.962   1.089   1.596
 2404SOL    HW2 8112   6.121   1.103   1.566
 2405SOL     OW 8113   3.177   3.462   3.326
 2405SOL    HW1 8114   3.177   3.414   3.414
 2405SOL    HW2 8115   3.085   3.494   3.305
 2406SOL     OW 8116   1.620   6.679   3.502
 2406SOL    HW1 8117   1.617   6.582   3.524
 2406SOL    HW2 8118   1.532   6.721   3.524
 2407SOL     OW 8119   5.462   2.510   2.316
 2407SOL    HW1 8120   5.367   2.482   2.300
 2407SOL    HW2 8121   5.495   2.563   2.238
 2408SOL     OW 8122   3.322   4.878   2.814
 2408SOL    HW1 8123   3.252   4.828   2.763
 2408SOL    HW2 8124   3.391   4.912   2.750
 2409SOL     OW 8125   1.941   2.801   1.448
 2409SOL    HW1 8126   1.943   2.762   1.541
 2409SOL    HW2 8127   2.034   2.812   1.414
 2410SOL     OW 8128   5.024   2.443   6.101
 2410SOL    HW1 8129   5.032   2.362   6.159
 2410SOL    HW2 8130   4.931   2.448   6.064
 2411SOL     OW 8131   4.610   5.119   5.549
 2411SOL    HW1 8132   4.519   5.133   5.510
 2411SOL    HW2 8133   4.668   5.198   5.527
 2412SOL     OW 8134   3.339   4.633   6.984
 2412SOL    HW1 8135   3.302   4.550   0.008
 2412SOL    HW2 8136   3.437   4.639   7.003
 2413SOL     OW 8137   6.489   2.308   0.068
 2413SOL    HW1 8138   6.587   2.297   0.053
 2413SOL    HW2 8139   6.463   2.267   0.156
 2414SOL     OW 8140   5.466   4.166   2.216
 2414SOL    HW1 8141   5.558   4.140   2.190
 2414SOL    HW2 8142   5.400   4.107   2.170
 2415SOL     OW 8143   1.118   6.617   1.107
 2415SOL    HW1 8144   1.171   6.534   1.127
 2415SOL    HW2 8145   1.074   6.649   1.191
 2416SOL     OW 8146   3.382   1.956   5.308
 2416SOL    HW1 8147   3.302   1.906   5.274
 2416SOL    HW2 8148   3.363   2.054   5.305
 2417SOL     OW 8149   4.196   3.223   6.244
 2417SOL    HW1 8150   4.146   3.205   6.329
 2417SOL    HW2 8151   4.271   3.157   6.236
 2418SOL     OW 8152   3.145   4.026   3.933
 2418SOL    HW1 8153   3.207   4.093   3.975
 2418SOL    HW2 8154   3.184   3.994   3.846
 2419SOL     OW 8155   0.624   6.453   3.786
 2419SOL    HW1 8156   0.645   6.405   3.700
 2419SOL    HW2 8157   0.611   6.550   3.768
 2420SOL     OW 8158   3.753   1.364   2.025
 2420SOL    HW1 8159   3.836   1.372   2.079
 2420SOL    HW2 8160   3.772   1.310   1.943
 2421SOL     OW 8161   2.632   0.959   5.118
 2421SOL    HW1 8162   2.722   0.967   5.075
 2421SOL    HW2 8163   2.572   0.902   5.063
 2422SOL     OW 8164   5.991   0.384   2.170
 2422SOL    HW1 8165   6.016   0.477   2.196
 2422SOL    HW2 8166   5.902   0.385   2.125
 2423SOL     OW 8167   1.671   6.279   3.798
 2423SOL    HW1 8168   1.766   6.288   3.769
 2423SOL    HW2 8169   1.631   6.370   3.810
 2424SOL     OW 8170   5.904   6.086   6.169
 2424SOL    HW1 8171   5.949   6.028   6.100
 2424SOL    HW2 8172   5.970   6.152   6.204
 2425SOL     OW 8173   6.186   0.255   4.450
 2425SOL    HW1 8174   6.229   0.186   4.508
 2425SOL    HW2 8175   6.087   0.239   4.448
 2426SOL     OW 8176   0.604   4.778   3.806
 2426SOL    HW1 8177   0.678   4.845   3.806
 2426SOL    HW2 8178   0.533   4.806   3.741
 2427SOL     OW 8179   5.810   5.117   6.728
 2427SOL    HW1 8180   5.753   5.064   6.665
 2427SOL    HW2 8181   5.843   5.198   6.681
 2428SOL     OW 8182   0.054   0.333   3.331
 2428SOL    HW1 8183   0.061   0.379   3.419
 2428SOL    HW2 8184   6.979   0.349   3.292
 2429SOL     OW 8185   6.729   5.854   4.761
 2429SOL    HW1 8186   6.692   5.921   4.696
 2429SOL    HW2 8187   6.771   5.902   4.838
 2430SOL     OW 8188   6.600   2.422   1.237
 2430SOL    HW1 8189   6.579   2.501   1.295
 2430SOL    HW2 8190   6.625   2.453   1.146
 2431SOL     OW 8191   3.418   0.359   1.847
 2431SOL    HW1 8192   3.454   0.377   1.939
 2431SOL    HW2 8193   3.342   0.294   1.854
 2432SOL     OW 8194   3.618   6.260   3.071
 2432SOL    HW1 8195   3.630   6.160   3.077
 2432SOL    HW2 8196   3.667   6.304   3.146
 2433SOL     OW 8197   3.466   6.234   1.039
 2433SOL    HW1 8198   3.492   6.171   1.112
 2433SOL    HW2 8199   3.530   6.226   0.963
 2434SOL     OW 8200   4.588   1.412   3.388
 2434SOL    HW1 8201   4.507   1.459   3.353
 2434SOL    HW2 8202   4.667   1.434   3.331
 2435SOL     OW 8203   4.704   5.598   5.804
 2435SOL    HW1 8204   4.754   5.523   5.761
 2435SOL    HW2 8205   4.636   5.634   5.740
 2436SOL     OW 8206   1.838   6.372   1.354
 2436SOL    HW1 8207   1.935   6.378   1.333
 2436SOL    HW2 8208   1.790   6.447   1.307
 2437SOL     OW 8209   3.913   6.125   0.873
 2437SOL    HW1 8210   3.896   6.216   0.835
 2437SOL    HW2 8211   3.838   6.100   0.935
 2438SOL     OW 8212   3.475   1.690   5.786
 2438SOL    HW1 8213   3.567   1.672   5.752
 2438SOL    HW2 8214   3.446   1.782   5.758
 2439SOL     OW 8215   1.381   4.303   6.974
 2439SOL    HW1 8216   1.436   4.269   0.034
 2439SOL    HW2 8217   1.424   4.276   6.888
 2440SOL     OW 8218   3.543   6.360   4.753
 2440SOL    HW1 8219   3.444   6.349   4.766
 2440SOL    HW2 8220   3.567   6.457   4.760
 2441SOL     OW 8221   6.654   0.506   0.085
 2441SOL    HW1 8222   6.746   0.476   0.059
 2441SOL    HW2 8223   6.625   0.458   0.168
 2442SOL     OW 8224   6.630   6.042   4.313
 2442SOL    HW1 8225   6.592   6.082   4.230
 2442SOL    HW2 8226   6.569   5.970   4.347
 2443SOL     OW 8227   3.368   6.665   6.405
 2443SOL    HW1 8228   3.468   6.666   6.406
 2443SOL    HW2 8229   3.333   6.671   6.498
 2444SOL     OW 8230   3.756   4.718   6.075
 2444SOL    HW1 8231   3.669   4.682   6.110
 2444SOL    HW2 8232   3.796   4.779   6.143
 2445SOL     OW 8233   0.010   0.705   2.365
 2445SOL    HW1 8234   7.001   0.610   2.346
 2445SOL    HW2 8235   7.004   0.761   2.285
 2446SOL     OW 8236   0.289   3.151   4.315
 2446SOL    HW1 8237   0.220   3.125   4.247
 2446SOL    HW2 8238   0.307   3.249   4.309
 2447SOL     OW 8239   2.464   1.134   0.984
 2447SOL    HW1 8240   2.440   1.071   1.058
 2447SOL    HW2 8241   2.397   1.126   0.910
 2448SOL     OW 8242   1.136   0.234   5.109
 2448SOL    HW1 8243   1.090   0.314   5.148
 2448SOL    HW2 8244   1.228   0.227   5.146
 2449SOL     OW 8245   0.133   4.238   2.542
 2449SOL    HW1 8246   0.069   4.181   2.595
 2449SOL    HW2 8247   0.191   4.179   2.485
 2450SOL     OW 8248   2.735   4.844   4.425
 2450SOL    HW1 8249   2.655   4.785   4.429
 2450SOL    HW2 8250   2.784   4.829   4.340
 2451SOL     OW 8251   0.638   0.346   4.221
 2451SOL    HW1 8252   0.633   0.303   4.131
 2451SOL    HW2 8253   0.734   0.357   4.247
 2452SOL     OW 8254   2.334   2.308   3.322
 2452SOL    HW1 8255   2.281   2.393   3.325
 2452SOL    HW2 8256   2.413   2.320   3.262
 2453SOL     OW 8257   6.857   3.671   1.031
 2453SOL    HW1 8258   6.888   3.745   0.971
 2453SOL    HW2 8259   6.935   3.615   1.059
 2454SOL     OW 8260   3.505   1.486   0.267
 2454SOL    HW1 8261   3.429   1.507   0.205
 2454SOL    HW2 8262   3.577   1.438   0.216
 2455SOL     OW 8263   5.419   6.914   0.580
 2455SOL    HW1 8264   5.384   6.911   0.486
 2455SOL    HW2 8265   5.355   6.963   0.639
 2456SOL     OW 8266   5.676   0.942   6.972
 2456SOL    HW1 8267   5.645   1.020   0.011
 2456SOL    HW2 8268   5.622   0.861   6.994
 2457SOL     OW 8269   5.790   5.935   6.925
 2457SOL    HW1 8270   5.832   5.927   7.016
 2457SOL    HW2 8271   5.754   6.028   6.914
 2458SOL     OW 8272   2.434   5.335   4.206
 2458SOL    HW1 8273   2.355   5.278   4.228
 2458SOL    HW2 8274   2.438   5.413   4.269
 2459SOL     OW 8275   2.632   6.191   0.752
 2459SOL    HW1 8276   2.573   6.264   0.717
 2459SOL    HW2 8277   2.625   6.111   0.691
 2460SOL     OW 8278   2.077   1.302   1.652
 2460SOL    HW1 8279   2.171   1.268   1.647
 2460SOL    HW2 8280   2.016   1.241   1.603
 2461SOL     OW 8281   3.971   0.201   3.146
 2461SOL    HW1 8282   3.954   0.109   3.110
 2461SOL    HW2 8283   3.885   0.244   3.172
 2462SOL     OW 8284   2.677   5.130   0.165
 2462SOL    HW1 8285   2.756   5.144   0.105
 2462SOL    HW2 8286   2.604   5.084   0.115
 2463SOL     OW 8287   6.406   2.636   3.791
 2463SOL    HW1 8288   6.386   2.539   3.777
 2463SOL    HW2 8289   6.321   2.686   3.808
 2464SOL     OW 8290   1.667   4.576   1.948
 2464SOL    HW1 8291   1.683   4.480   1.923
 2464SOL    HW2 8292   1.755   4.624   1.951
 2465SOL     OW 8293   0.389   6.418   1.348
 2465SOL    HW1 8294   0.436   6.500   1.379
 2465SOL    HW2 8295   0.354   6.432   1.255
 2466SOL     OW 8296   3.688   1.630   2.016
 2466SOL    HW1 8297   3.745   1.660   1.940
 2466SOL    HW2 8298   3.700   1.531   2.029
 2467SOL     OW 8299   5.265   1.544   5.035
 2467SOL    HW1 8300   5.246   1.559   5.132
 2467SOL    HW2 8301   5.351   1.495   5.024
 2468SOL     OW 8302   5.526   6.460   2.590
 2468SOL    HW1 8303   5.544   6.363   2.603
 2468SOL    HW2 8304   5.612   6.510   2.587
 2469SOL     OW 8305   3.497   4.420   5.427
 2469SOL    HW1 8306   3.416   4.475   5.403
 2469SOL    HW2 8307   3.580   4.469   5.399
 2470SOL     OW 8308   3.475   4.350   5.679
 2470SOL    HW1 8309   3.489   4.347   5.580
 2470SOL    HW2 8310   3.530   4.278   5.723
 2471SOL     OW 8311   2.255   6.747   1.280
 2471SOL    HW1 8312   2.343   6.768   1.236
 2471SOL    HW2 8313   2.212   6.669   1.235
 2472SOL     OW 8314   4.568   1.585   3.658
 2472SOL    HW1 8315   4.515   1.544   3.584
 2472SOL    HW2 8316   4.653   1.622   3.620
 2473SOL     OW 8317   1.682   4.104   5.118
 2473SOL    HW1 8318   1.680   4.032   5.049
 2473SOL    HW2 8319   1.725   4.186   5.080
 2474SOL     OW 8320   0.507   5.569   0.430
 2474SOL    HW1 8321   0.501   5.650   0.371
 2474SOL    HW2 8322   0.512   5.487   0.373
 2475SOL     OW 8323   4.620   1.364   0.787
 2475SOL    HW1 8324   4.667   1.452   0.781
 2475SOL    HW2 8325   4.549   1.369   0.857
 2476SOL     OW 8326   1.141   2.934   3.463
 2476SOL    HW1 8327   1.189   2.918   3.377
 2476SOL    HW2 8328   1.132   2.847   3.512
 2477SOL     OW 8329   5.954   0.579   2.686
 2477SOL    HW1 8330   5.865   0.574   2.732
 2477SOL    HW2 8331   5.952   0.523   2.603
 2478SOL     OW 8332   5.369   0.409   2.212
 2478SOL    HW1 8333   5.321   0.438   2.294
 2478SOL    HW2 8334   5.449   0.354   2.237
 2479SOL     OW 8335   1.579   3.729   1.382
 2479SOL    HW1 8336   1.673   3.761   1.393
 2479SOL    HW2 8337   1.519   3.779   1.444
 2480SOL     OW 8338   5.919   4.411   1.101
 2480SOL    HW1 8339   5.895   4.314   1.105
 2480SOL    HW2 8340   5.900   4.454   1.189
 2481SOL     OW 8341   2.562   6.765   0.221
 2481SOL    HW1 8342   2.575   6.727   0.312
 2481SOL    HW2 8343   2.524   6.857   0.228
 2482SOL     OW 8344   5.057   2.722   5.482
 2482SOL    HW1 8345   5.124   2.790   5.510
 2482SOL    HW2 8346   5.100   2.655   5.422
 2483SOL     OW 8347   1.974   1.046   6.545
 2483SOL    HW1 8348   1.901   1.039   6.613
 2483SOL    HW2 8349   1.954   0.987   6.467
 2484SOL     OW 8350   2.166   0.648   0.513
 2484SOL    HW1 8351   2.153   0.704   0.594
 2484SOL    HW2 8352   2.078   0.610   0.484
 2485SOL     OW 8353   4.637   4.502   1.911
 2485SOL    HW1 8354   4.644   4.471   1.816
 2485SOL    HW2 8355   4.592   4.431   1.965
 2486SOL     OW 8356   3.328   5.436   3.003
 2486SOL    HW1 8357   3.376   5.486   2.930
 2486SOL    HW2 8358   3.333   5.338   2.985
 2487SOL     OW 8359   3.584   5.260   6.231
 2487SOL    HW1 8360   3.572   5.323   6.155
 2487SOL    HW2 8361   3.560   5.167   6.201
 2488SOL     OW 8362   2.191   3.964   2.159
 2488SOL    HW1 8363   2.119   3.966   2.090
 2488SOL    HW2 8364   2.159   3.913   2.240
 2489SOL     OW 8365   2.173   5.633   3.517
 2489SOL    HW1 8366   2.269   5.660   3.518
 2489SOL    HW2 8367   2.167   5.533   3.521
 2490SOL     OW 8368   6.828   5.630   1.034
 2490SOL    HW1 8369   6.882   5.671   0.960
 2490SOL    HW2 8370   6.732   5.657   1.023
 2491SOL     OW 8371   2.488   6.470   1.723
 2491SOL    HW1 8372   2.535   6.535   1.664
 2491SOL    HW2 8373   2.519   6.482   1.818
 2492SOL     OW 8374   4.355   3.343   6.909
 2492SOL    HW1 8375   4.315   3.322   6.820
 2492SOL    HW2 8376   4.431   3.406   6.898
 2493SOL     OW 8377   5.600   0.128   2.939
 2493SOL    HW1 8378   5.589   0.031   2.963
 2493SOL    HW2 8379   5.679   0.166   2.988
 2494SOL     OW 8380   5.858   3.532   2.605
 2494SOL    HW1 8381   5.778   3.557   2.550
 2494SOL    HW2 8382   5.941   3.544   2.551
 2495SOL     OW 8383   5.310   0.109   4.811
 2495SOL    HW1 8384   5.249   0.165   4.756
 2495SOL    HW2 8385   5.384   0.073   4.754
 2496SOL     OW 8386   1.028   4.719   6.439
 2496SOL    HW1 8387   1.030   4.725   6.339
 2496SOL    HW2 8388   0.945   4.672   6.468
 2497SOL     OW 8389   6.781   1.435   0.455
 2497SOL    HW1 8390   6.812   1.460   0.547
 2497SOL    HW2 8391   6.683   1.453   0.446
 2498SOL     OW 8392   2.828   2.272   3.374
 2498SOL    HW1 8393   2.767   2.313   3.442
 2498SOL    HW2 8394   2.899   2.220   3.420
 2499SOL     OW 8395   5.150   1.483   4.735
 2499SOL    HW1 8396   5.087   1.559   4.718
 2499SOL    HW2 8397   5.230   1.517   4.785
 2500SOL     OW 8398   4.210   3.331   5.875
 2500SOL    HW1 8399   4.262   3.348   5.792
 2500SOL    HW2 8400   4.244   3.248   5.919
 2501SOL     OW 8401   0.309   5.878   6.793
 2501SOL    HW1 8402   0.369   5.885   6.713
 2501SOL    HW2 8403   0.284   5.970   6.823
 2502SOL     OW 8404   2.546   6.140   3.382
 2502SOL    HW1 8405   2.586   6.101   3.465
 2502SOL    HW2 8406   2.505   6.067   3.327
 2503SOL     OW 8407   3.579   5.857   5.781
 2503SOL    HW1 8408   3.549   5.820   5.692
 2503SOL    HW2 8409   3.594   5.955   5.773
 2504SOL     OW 8410   3.173   5.862   5.224
 2504SOL    HW1 8411   3.169   5.908   5.136
 2504SOL    HW2 8412   3.080   5.843   5.256
 2505SOL     OW 8413   1.460   6.342   4.263
 2505SOL    HW1 8414   1.558   6.353   4.279
 2505SOL    HW2 8415   1.432   6.249   4.286
 2506SOL     OW 8416   6.278   3.121   6.131
 2506SOL    HW1 8417   6.183   3.142   6.107
 2506SOL    HW2 8418   6.281   3.032   6.175
 2507SOL     OW 8419   6.909   4.120   0.142
 2507SOL    HW1 8420   6.862   4.197   0.098
 2507SOL    HW2 8421   7.006   4.140   0.149
 2508SOL     OW 8422   2.775   1.581   2.322
 2508SOL    HW1 8423   2.805   1.676   2.328
 2508SOL    HW2 8424   2.819   1.537   2.243
 2509SOL     OW 8425   5.461   2.977   2.842
 2509SOL    HW1 8426   5.449   2.900   2.779
 2509SOL    HW2 8427   5.558   2.995   2.855
 2510SOL     OW 8428   3.185   4.370   0.750
 2510SOL    HW1 8429   3.164   4.384   0.653
 2510SOL    HW2 8430   3.269   4.317   0.758
 2511SOL     OW 8431   2.017   2.231   4.726
 2511SOL    HW1 8432   2.012   2.259   4.630
 2511SOL    HW2 8433   1.971   2.299   4.783
 2512SOL     OW 8434   5.561   5.204   5.687
 2512SOL    HW1 8435   5.604   5.220   5.598
 2512SOL    HW2 8436   5.463   5.193   5.675
 2513SOL     OW 8437   1.662   2.672   5.902
 2513SOL    HW1 8438   1.727   2.596   5.901
 2513SOL    HW2 8439   1.704   2.753   5.861
 2514SOL     OW 8440   0.338   3.417   4.309
 2514SOL    HW1 8441   0.244   3.447   4.324
 2514SOL    HW2 8442   0.399   3.496   4.309
 2515SOL     OW 8443   1.295   6.506   0.577
 2515SOL    HW1 8444   1.352   6.440   0.527
 2515SOL    HW2 8445   1.312   6.497   0.675
 2516SOL     OW 8446   5.975   6.236   2.825
 2516SOL    HW1 8447   6.039   6.282   2.763
 2516SOL    HW2 8448   5.996   6.261   2.920
 2517SOL     OW 8449   1.910   5.560   5.460
 2517SOL    HW1 8450   1.894   5.463   5.446
 2517SOL    HW2 8451   1.914   5.580   5.557
 2518SOL     OW 8452   2.221   3.200   0.601
 2518SOL    HW1 8453   2.212   3.176   0.504
 2518SOL    HW2 8454   2.146   3.260   0.627
 2519SOL     OW 8455   4.996   5.233   4.177
 2519SOL    HW1 8456   4.962   5.203   4.087
 2519SOL    HW2 8457   4.972   5.165   4.246
 2520SOL     OW 8458   1.281   3.319   0.846
 2520SOL    HW1 8459   1.290   3.236   0.791
 2520SOL    HW2 8460   1.186   3.351   0.842
 2521SOL     OW 8461   1.185   6.452   5.677
 2521SOL    HW1 8462   1.261   6.411   5.626
 2521SOL    HW2 8463   1.185   6.417   5.771
 2522SOL     OW 8464   1.050   2.930   5.800
 2522SOL    HW1 8465   0.986   3.007   5.787
 2522SOL    HW2 8466   1.109   2.923   5.719
 2523SOL     OW 8467   0.722   3.256   1.156
 2523SOL    HW1 8468   0.818   3.283   1.163
 2523SOL    HW2 8469   0.682   3.253   1.247
 2524SOL     OW 8470   0.557   6.183   4.162
 2524SOL    HW1 8471   0.482   6.144   4.216
 2524SOL    HW2 8472   0.642   6.134   4.182
 2525SOL     OW 8473   1.072   2.354   4.688
 2525SOL    HW1 8474   1.114   2.312   4.768
 2525SOL    HW2 8475   1.099   2.450   4.683
 2526SOL     OW 8476   0.925   3.965   5.546
 2526SOL    HW1 8477   0.934   4.032   5.472
 2526SOL    HW2 8478   1.008   3.966   5.602
 2527SOL     OW 8479   4.816   0.113   4.842
 2527SOL    HW1 8480   4.912   0.089   4.828
 2527SOL    HW2 8481   4.801   0.132   4.939
 2528SOL     OW 8482   6.193   4.396   1.029
 2528SOL    HW1 8483   6.093   4.398   1.033
 2528SOL    HW2 8484   6.228   4.489   1.026
 2529SOL     OW 8485   5.804   4.744   6.261
 2529SOL    HW1 8486   5.729   4.693   6.302
 2529SOL    HW2 8487   5.875   4.761   6.330
 2530SOL     OW 8488   1.083   5.976   4.970
 2530SOL    HW1 8489   0.996   5.930   4.949
 2530SOL    HW2 8490   1.153   5.908   4.991
 2531SOL     OW 8491   5.511   5.564   4.699
 2531SOL    HW1 8492   5.483   5.606   4.785
 2531SOL    HW2 8493   5.549   5.633   4.638
 2532SOL     OW 8494   0.599   5.883   0.500
 2532SOL    HW1 8495   0.576   5.863   0.405
 2532SOL    HW2 8496   0.587   5.800   0.555
 2533SOL     OW 8497   4.976   6.515   4.085
 2533SOL    HW1 8498   4.979   6.477   4.177
 2533SOL    HW2 8499   5.069   6.541   4.056
 2534SOL     OW 8500   2.162   0.182   3.395
 2534SOL    HW1 8501   2.181   0.114   3.324
 2534SOL    HW2 8502   2.223   0.261   3.383
 2535SOL     OW 8503   2.636   2.108   6.954
 2535SOL    HW1 8504   2.591   2.049   0.004
 2535SOL    HW2 8505   2.582   2.191   6.941
 2536SOL     OW 8506   0.994   1.659   3.588
 2536SOL    HW1 8507   1.027   1.715   3.664
 2536SOL    HW2 8508   1.006   1.562   3.611
 2537SOL     OW 8509   5.257   6.118   0.332
 2537SOL    HW1 8510   5.263   6.085   0.426
 2537SOL    HW2 8511   5.305   6.055   0.271
 2538SOL     OW 8512   1.590   4.566   5.054
 2538SOL    HW1 8513   1.502   4.595   5.091
 2538SOL    HW2 8514   1.576   4.527   4.963
 2539SOL     OW 8515   3.809   0.267   5.709
 2539SOL    HW1 8516   3.888   0.268   5.647
 2539SOL    HW2 8517   3.763   0.355   5.705
 2540SOL     OW 8518   4.807   0.671   0.854
 2540SOL    HW1 8519   4.723   0.703   0.811
 2540SOL    HW2 8520   4.798   0.574   0.878
 2541SOL     OW 8521   1.889   0.298   6.009
 2541SOL    HW1 8522   1.875   0.217   5.953
 2541SOL    HW2 8523   1.821   0.368   5.985
 2542SOL     OW 8524   3.773   1.858   4.737
 2542SOL    HW1 8525   3.846   1.857   4.669
 2542SOL    HW2 8526   3.710   1.934   4.718
 2543SOL     OW 8527   2.232   0.776   2.845
 2543SOL    HW1 8528   2.151   0.818   2.805
 2543SOL    HW2 8529   2.259   0.696   2.792
 2544SOL     OW 8530   0.205   4.964   2.380
 2544SOL    HW1 8531   0.111   4.991   2.357
 2544SOL    HW2 8532   0.261   4.965   2.297
 2545SOL     OW 8533   1.498   0.721   1.451
 2545SOL    HW1 8534   1.459   0.632   1.426
 2545SOL    HW2 8535   1.434   0.770   1.510
 2546SOL     OW 8536   5.917   3.256   1.338
 2546SOL    HW1 8537   6.004   3.278   1.382
 2546SOL    HW2 8538   5.841   3.283   1.397
 2547SOL     OW 8539   5.333   5.254   6.721
 2547SOL    HW1 8540   5.381   5.337   6.747
 2547SOL    HW2 8541   5.397   5.177   6.719
 2548SOL     OW 8542   2.508   0.684   5.269
 2548SOL    HW1 8543   2.463   0.599   5.242
 2548SOL    HW2 8544   2.457   0.762   5.232
 2549SOL     OW 8545   2.249   1.978   1.880
 2549SOL    HW1 8546   2.305   1.900   1.852
 2549SOL    HW2 8547   2.161   1.944   1.916
 2550SOL     OW 8548   5.886   1.212   6.594
 2550SOL    HW1 8549   5.918   1.130   6.546
 2550SOL    HW2 8550   5.867   1.190   6.690
 2551SOL     OW 8551   3.369   5.470   0.020
 2551SOL    HW1 8552   3.453   5.467   6.981
 2551SOL    HW2 8553   3.325   5.559   0.007
 2552SOL     OW 8554   1.911   5.496   6.383
 2552SOL    HW1 8555   1.932   5.402   6.354
 2552SOL    HW2 8556   1.844   5.494   6.457
 2553SOL     OW 8557   2.913   3.120   6.508
 2553SOL    HW1 8558   2.842   3.050   6.495
 2553SOL    HW2 8559   2.936   3.161   6.419
 2554SOL     OW 8560   1.465   5.665   6.757
 2554SOL    HW1 8561   1.553   5.619   6.772
 2554SOL    HW2 8562   1.406   5.651   6.836
 2555SOL     OW 8563   6.163   6.251   6.566
 2555SOL    HW1 8564   6.210   6.224   6.482
 2555SOL    HW2 8565   6.090   6.186   6.585
 2556SOL     OW 8566   4.211   6.026   0.998
 2556SOL    HW1 8567   4.249   6.081   0.924
 2556SOL    HW2 8568   4.117   5.999   0.976
 2557SOL     OW 8569   2.354   1.405   6.383
 2557SOL    HW1 8570   2.382   1.448   6.469
 2557SOL    HW2 8571   2.285   1.335   6.402
 2558SOL     OW 8572   4.064   3.852   5.112
 2558SOL    HW1 8573   4.012   3.937   5.118
 2558SOL    HW2 8574   4.156   3.866   5.149
 2559SOL     OW 8575   5.995   3.229   3.908
 2559SOL    HW1 8576   6.068   3.161   3.908
 2559SOL    HW2 8577   5.910   3.187   3.876
 2560SOL     OW 8578   4.873   3.833   3.871
 2560SOL    HW1 8579   4.949   3.786   3.827
 2560SOL    HW2 8580   4.862   3.800   3.964
 2561SOL     OW 8581   3.150   0.594   3.597
 2561SOL    HW1 8582   3.242   0.588   3.558
 2561SOL    HW2 8583   3.083   0.610   3.524
 2562SOL     OW 8584   2.463   5.257   3.161
 2562SOL    HW1 8585   2.504   5.307   3.086
 2562SOL    HW2 8586   2.369   5.231   3.137
 2563SOL     OW 8587   3.591   1.519   6.146
 2563SOL    HW1 8588   3.631   1.610   6.160
 2563SOL    HW2 8589   3.516   1.526   6.080
 2564SOL     OW 8590   1.509   6.273   6.889
 2564SOL    HW1 8591   1.562   6.207   6.835
 2564SOL    HW2 8592   1.479   6.348   6.830
 2565SOL     OW 8593   0.323   0.605   0.967
 2565SOL    HW1 8594   0.297   0.545   1.043
 2565SOL    HW2 8595   0.362   0.550   0.893
 2566SOL     OW 8596   1.246   6.853   0.847
 2566SOL    HW1 8597   1.230   6.878   0.752
 2566SOL    HW2 8598   1.212   6.761   0.863
 2567SOL     OW 8599   1.167   1.497   1.749
 2567SOL    HW1 8600   1.139   1.508   1.653
 2567SOL    HW2 8601   1.085   1.485   1.806
 2568SOL     OW 8602   3.341   0.362   0.467
 2568SOL    HW1 8603   3.316   0.458   0.463
 2568SOL    HW2 8604   3.427   0.352   0.517
 2569SOL     OW 8605   2.162   1.385   2.257
 2569SOL    HW1 8606   2.193   1.384   2.352
 2569SOL    HW2 8607   2.136   1.292   2.230
 2570SOL     OW 8608   4.917   6.655   6.284
 2570SOL    HW1 8609   4.900   6.563   6.248
 2570SOL    HW2 8610   4.908   6.722   6.210
 2571SOL     OW 8611   2.910   3.331   4.276
 2571SOL    HW1 8612   2.915   3.269   4.354
 2571SOL    HW2 8613   2.991   3.390   4.275
 2572SOL     OW 8614   1.442   6.515   0.860
 2572SOL    HW1 8615   1.517   6.510   0.795
 2572SOL    HW2 8616   1.440   6.432   0.916
 2573SOL     OW 8617   6.554   1.074   1.859
 2573SOL    HW1 8618   6.540   1.066   1.760
 2573SOL    HW2 8619   6.512   0.995   1.905
 2574SOL     OW 8620   6.280   3.210   0.539
 2574SOL    HW1 8621   6.261   3.239   0.445
 2574SOL    HW2 8622   6.359   3.261   0.574
 2575SOL     OW 8623   4.930   3.813   1.518
 2575SOL    HW1 8624   4.921   3.913   1.511
 2575SOL    HW2 8625   5.022   3.786   1.490
 2576SOL     OW 8626   4.094   6.485   3.964
 2576SOL    HW1 8627   4.036   6.413   3.927
 2576SOL    HW2 8628   4.055   6.520   4.049
 2577SOL     OW 8629   4.605   0.273   3.217
 2577SOL    HW1 8630   4.558   0.352   3.178
 2577SOL    HW2 8631   4.546   0.193   3.210
 2578SOL     OW 8632   4.156   3.106   5.603
 2578SOL    HW1 8633   4.132   3.056   5.520
 2578SOL    HW2 8634   4.255   3.110   5.612
 2579SOL     OW 8635   1.208   1.740   4.660
 2579SOL    HW1 8636   1.308   1.742   4.653
 2579SOL    HW2 8637   1.181   1.684   4.738
 2580SOL     OW 8638   1.393   2.899   6.658
 2580SOL    HW1 8639   1.486   2.931   6.641
 2580SOL    HW2 8640   1.327   2.965   6.623
 2581SOL     OW 8641   5.786   4.655   1.996
 2581SOL    HW1 8642   5.816   4.747   2.022
 2581SOL    HW2 8643   5.860   4.608   1.948
 2582SOL     OW 8644   1.627   4.795   2.744
 2582SOL    HW1 8645   1.688   4.866   2.779
 2582SOL    HW2 8646   1.536   4.834   2.730
 2583SOL     OW 8647   1.558   1.032   1.470
 2583SOL    HW1 8648   1.631   0.972   1.438
 2583SOL    HW2 8649   1.480   0.977   1.498
 2584SOL     OW 8650   3.789   5.596   0.048
 2584SOL    HW1 8651   3.739   5.559   6.986
 2584SOL    HW2 8652   3.743   5.569   0.133
 2585SOL     OW 8653   3.397   0.598   0.216
 2585SOL    HW1 8654   3.403   0.667   0.144
 2585SOL    HW2 8655   3.305   0.557   0.215
 2586SOL     OW 8656   4.749   2.079   4.231
 2586SOL    HW1 8657   4.658   2.044   4.252
 2586SOL    HW2 8658   4.786   2.127   4.310
 2587SOL     OW 8659   6.588   1.311   4.654
 2587SOL    HW1 8660   6.645   1.342   4.578
 2587SOL    HW2 8661   6.584   1.383   4.723
 2588SOL     OW 8662   4.623   0.185   0.397
 2588SOL    HW1 8663   4.655   0.232   0.480
 2588SOL    HW2 8664   4.653   0.089   0.400
 2589SOL     OW 8665   0.328   6.343   5.715
 2589SOL    HW1 8666   0.240   6.296   5.702
 2589SOL    HW2 8667   0.376   6.303   5.792
 2590SOL     OW 8668   3.353   6.146   2.493
 2590SOL    HW1 8669   3.273   6.106   2.538
 2590SOL    HW2 8670   3.405   6.074   2.447
 2591SOL     OW 8671   5.882   6.204   2.503
 2591SOL    HW1 8672   5.940   6.204   2.584
 2591SOL    HW2 8673   5.871   6.110   2.470
 2592SOL     OW 8674   2.597   0.219   1.082
 2592SOL    HW1 8675   2.618   0.311   1.050
 2592SOL    HW2 8676   2.639   0.205   1.172
 2593SOL     OW 8677   3.223   6.665   2.107
 2593SOL    HW1 8678   3.139   6.632   2.150
 2593SOL    HW2 8679   3.299   6.658   2.172
 2594SOL     OW 8680   0.262   6.031   6.019
 2594SOL    HW1 8681   0.313   5.954   5.981
 2594SOL    HW2 8682   0.166   6.024   5.991
 2595SOL     OW 8683   6.326   1.671   5.559
 2595SOL    HW1 8684   6.421   1.702   5.552
 2595SOL    HW2 8685   6.311   1.629   5.648
 2596SOL     OW 8686   3.919   2.343   1.690
 2596SOL    HW1 8687   3.975   2.266   1.720
 2596SOL    HW2 8688   3.845   2.358   1.756
 2597SOL     OW 8689   1.911   4.335   0.698
 2597SOL    HW1 8690   1.944   4.390   0.621
 2597SOL    HW2 8691   1.987   4.315   0.760
 2598SOL     OW 8692   6.014   1.576   4.500
 2598SOL    HW1 8693   6.069   1.513   4.446
 2598SOL    HW2 8694   6.045   1.670   4.484
 2599SOL     OW 8695   3.170   6.525   0.542
 2599SOL    HW1 8696   3.245   6.591   0.533
 2599SOL    HW2 8697   3.201   6.435   0.512
 2600SOL     OW 8698   4.926   3.647   4.779
 2600SOL    HW1 8699   4.922   3.572   4.714
 2600SOL    HW2 8700   4.894   3.615   4.868
 2601SOL     OW 8701   3.459   1.531   6.826
 2601SOL    HW1 8702   3.521   1.547   6.748
 2601SOL    HW2 8703   3.459   1.611   6.885
 2602SOL     OW 8704   6.750   5.071   3.844
 2602SOL    HW1 8705   6.766   5.170   3.854
 2602SOL    HW2 8706   6.734   5.049   3.748
 2603SOL     OW 8707   2.353   2.857   1.598
 2603SOL    HW1 8708   2.301   2.862   1.513
 2603SOL    HW2 8709   2.417   2.933   1.602
 2604SOL     OW 8710   5.067   1.288   3.065
 2604SOL    HW1 8711   5.155   1.279   3.112
 2604SOL    HW2 8712   5.081   1.285   2.966
 2605SOL     OW 8713   3.266   5.160   3.477
 2605SOL    HW1 8714   3.328   5.093   3.437
 2605SOL    HW2 8715   3.316   5.215   3.545
 2606SOL     OW 8716   6.820   4.699   0.327
 2606SOL    HW1 8717   6.908   4.710   0.280
 2606SOL    HW2 8718   6.826   4.622   0.390
 2607SOL     OW 8719   0.699   1.841   6.073
 2607SOL    HW1 8720   0.623   1.864   6.134
 2607SOL    HW2 8721   0.665   1.828   5.980
 2608SOL     OW 8722   3.818   5.763   2.385
 2608SOL    HW1 8723   3.752   5.737   2.454
 2608SOL    HW2 8724   3.786   5.844   2.336
 2609SOL     OW 8725   0.452   2.617   1.786
 2609SOL    HW1 8726   0.401   2.559   1.849
 2609SOL    HW2 8727   0.413   2.709   1.787
 2610SOL     OW 8728   6.885   5.056   4.530
 2610SOL    HW1 8729   6.889   5.119   4.608
 2610SOL    HW2 8730   6.975   5.017   4.514
 2611SOL     OW 8731   5.808   0.095   1.262
 2611SOL    HW1 8732   5.739   0.107   1.190
 2611SOL    HW2 8733   5.832   0.185   1.299
 2612SOL     OW 8734   0.116   6.438   5.935
 2612SOL    HW1 8735   0.095   6.349   5.897
 2612SOL    HW2 8736   0.216   6.448   5.944
 2613SOL     OW 8737   3.057   6.604   1.185
 2613SOL    HW1 8738   3.072   6.576   1.090
 2613SOL    HW2 8739   2.962   6.585   1.211
 2614SOL     OW 8740   6.978   0.203   6.333
 2614SOL    HW1 8741   6.952   0.164   6.421
 2614SOL    HW2 8742   6.897   0.207   6.273
 2615SOL     OW 8743   6.138   4.483   3.073
 2615SOL    HW1 8744   6.198   4.404   3.089
 2615SOL    HW2 8745   6.062   4.455   3.014
 2616SOL     OW 8746   4.036   3.550   3.758
 2616SOL    HW1 8747   4.005   3.584   3.669
 2616SOL    HW2 8748   4.030   3.623   3.826
 2617SOL     OW 8749   3.727   6.483   1.037
 2617SOL    HW1 8750   3.641   6.476   1.086
 2617SOL    HW2 8751   3.758   6.578   1.035
 2618SOL     OW 8752   0.320   6.794   3.931
 2618SOL    HW1 8753   0.321   6.799   4.031
 2618SOL    HW2 8754   0.285   6.880   3.893
 2619SOL     OW 8755   2.824   1.524   3.423
 2619SOL    HW1 8756   2.845   1.483   3.335
 2619SOL    HW2 8757   2.845   1.460   3.497
 2620SOL     OW 8758   0.912   5.975   3.364
 2620SOL    HW1 8759   0.874   6.034   3.435
 2620SOL    HW2 8760   0.850   5.972   3.286
 2621SOL     OW 8761   2.020   5.887   3.165
 2621SOL    HW1 8762   1.953   5.952   3.128
 2621SOL    HW2 8763   2.081   5.936   3.228
 2622SOL     OW 8764   2.908   1.666   0.104
 2622SOL    HW1 8765   2.927   1.710   0.016
 2622SOL    HW2 8766   2.923   1.568   0.096
 2623SOL     OW 8767   3.384   2.139   4.659
 2623SOL    HW1 8768   3.371   2.051   4.612
 2623SOL    HW2 8769   3.340   2.135   4.749
 2624SOL     OW 8770   6.222   3.439   4.894
 2624SOL    HW1 8771   6.231   3.509   4.823
 2624SOL    HW2 8772   6.291   3.368   4.880
 2625SOL     OW 8773   2.466   2.757   6.074
 2625SOL    HW1 8774   2.389   2.814   6.046
 2625SOL    HW2 8775   2.514   2.803   6.149
 2626SOL     OW 8776   0.903   0.417   5.164
 2626SOL    HW1 8777   0.907   0.456   5.256
 2626SOL    HW2 8778   0.842   0.337   5.164
 2627SOL     OW 8779   0.544   0.398   4.928
 2627SOL    HW1 8780   0.633   0.404   4.883
 2627SOL    HW2 8781   0.557   0.398   5.027
 2628SOL     OW 8782   2.684   5.441   6.937
 2628SOL    HW1 8783   2.687   5.528   6.887
 2628SOL    HW2 8784   2.699   5.365   6.874
 2629SOL     OW 8785   3.094   4.171   1.658
 2629SOL    HW1 8786   3.165   4.122   1.609
 2629SOL    HW2 8787   3.077   4.127   1.746
 2630SOL     OW 8788   3.128   1.584   3.535
 2630SOL    HW1 8789   3.072   1.664   3.556
 2630SOL    HW2 8790   3.194   1.607   3.463
 2631SOL     OW 8791   4.670   0.794   4.375
 2631SOL    HW1 8792   4.746   0.834   4.324
 2631SOL    HW2 8793   4.611   0.744   4.312
 2632SOL     OW 8794   2.678   1.891   6.562
 2632SOL    HW1 8795   2.721   1.978   6.585
 2632SOL    HW2 8796   2.746   1.818   6.564
 2633SOL     OW 8797   6.258   2.020   5.408
 2633SOL    HW1 8798   6.219   2.078   5.480
 2633SOL    HW2 8799   6.189   1.953   5.378
 2634SOL     OW 8800   1.935   4.234   2.369
 2634SOL    HW1 8801   1.911   4.223   2.465
 2634SOL    HW2 8802   1.887   4.164   2.315
 2635SOL     OW 8803   5.535   6.260   4.650
 2635SOL    HW1 8804   5.539   6.335   4.715
 2635SOL    HW2 8805   5.533   6.297   4.557
 2636SOL     OW 8806   4.425   0.885   5.654
 2636SOL    HW1 8807   4.407   0.809   5.592
 2636SOL    HW2 8808   4.416   0.971   5.604
 2637SOL     OW 8809   6.213   1.395   3.672
 2637SOL    HW1 8810   6.196   1.463   3.743
 2637SOL    HW2 8811   6.205   1.438   3.582
 2638SOL     OW 8812   0.061   6.901   2.998
 2638SOL    HW1 8813   0.110   6.911   2.911
 2638SOL    HW2 8814   7.016   6.822   2.993
 2639SOL     OW 8815   1.123   0.284   1.724
 2639SOL    HW1 8816   1.190   0.223   1.683
 2639SOL    HW2 8817   1.083   0.343   1.654
 2640SOL     OW 8818   6.784   6.058   4.965
 2640SOL    HW1 8819   6.811   5.973   5.010
 2640SOL    HW2 8820   6.702   6.094   5.008
 2641SOL     OW 8821   5.063   2.979   2.281
 2641SOL    HW1 8822   5.004   2.986   2.361
 2641SOL    HW2 8823   5.030   3.041   2.210
 2642SOL     OW 8824   4.714   6.993   4.558
 2642SOL    HW1 8825   4.705   0.003   4.654
 2642SOL    HW2 8826   4.644   6.926   4.535
 2643SOL     OW 8827   1.172   4.893   2.836
 2643SOL    HW1 8828   1.151   4.803   2.798
 2643SOL    HW2 8829   1.112   4.910   2.914
 2644SOL     OW 8830   6.560   4.995   6.097
 2644SOL    HW1 8831   6.645   4.949   6.124
 2644SOL    HW2 8832   6.516   5.033   6.178
 2645SOL     OW 8833   4.208   5.740   3.986
 2645SOL    HW1 8834   4.196   5.641   3.994
 2645SOL    HW2 8835   4.146   5.776   3.917
 2646SOL     OW 8836   5.787   0.134   6.442
 2646SOL    HW1 8837   5.838   0.126   6.357
 2646SOL    HW2 8838   5.832   0.080   6.513
 2647SOL     OW 8839   6.151   0.664   1.766
 2647SOL    HW1 8840   6.162   0.575   1.723
 2647SOL    HW2 8841   6.116   0.729   1.699
 2648SOL     OW 8842   0.241   0.166   3.308
 2648SOL    HW1 8843   0.335   0.197   3.325
 2648SOL    HW2 8844   0.179   0.245   3.310
 2649SOL     OW 8845   5.464   3.299   6.131
 2649SOL    HW1 8846   5.397   3.341   6.070
 2649SOL    HW2 8847   5.459   3.200   6.124
 2650SOL     OW 8848   0.919   3.698   4.135
 2650SOL    HW1 8849   0.882   3.612   4.172
 2650SOL    HW2 8850   0.869   3.721   4.051
 2651SOL     OW 8851   0.093   2.246   6.929
 2651SOL    HW1 8852   0.191   2.226   6.929
 2651SOL    HW2 8853   0.043   2.168   6.966
 2652SOL     OW 8854   3.016   3.780   3.692
 2652SOL    HW1 8855   2.934   3.745   3.738
 2652SOL    HW2 8856   3.074   3.703   3.666
 2653SOL     OW 8857   4.977   0.066   5.407
 2653SOL    HW1 8858   5.071   0.033   5.413
 2653SOL    HW2 8859   4.963   0.139   5.473
 2654SOL     OW 8860   4.741   4.600   1.286
 2654SOL    HW1 8861   4.739   4.583   1.384
 2654SOL    HW2 8862   4.660   4.652   1.260
 2655SOL     OW 8863   5.426   4.887   4.378
 2655SOL    HW1 8864   5.494   4.816   4.359
 2655SOL    HW2 8865   5.464   4.976   4.356
 2656SOL     OW 8866   3.865   4.901   4.309
 2656SOL    HW1 8867   3.804   4.902   4.230
 2656SOL    HW2 8868   3.946   4.957   4.289
 2657SOL     OW 8869   2.632   4.145   6.569
 2657SOL    HW1 8870   2.706   4.081   6.591
 2657SOL    HW2 8871   2.659   4.201   6.490
 2658SOL     OW 8872   5.176   4.109   0.612
 2658SOL    HW1 8873   5.136   4.056   0.538
 2658SOL    HW2 8874   5.127   4.196   0.621
 2659SOL     OW 8875   6.159   2.811   4.684
 2659SOL    HW1 8876   6.135   2.898   4.641
 2659SOL    HW2 8877   6.117   2.736   4.633
 2660SOL     OW 8878   0.627   1.565   0.847
 2660SOL    HW1 8879   0.606   1.662   0.844
 2660SOL    HW2 8880   0.713   1.551   0.897
 2661SOL     OW 8881   2.198   6.513   1.097
 2661SOL    HW1 8882   2.181   6.448   1.171
 2661SOL    HW2 8883   2.132   6.498   1.024
 2662SOL     OW 8884   3.962   0.251   5.470
 2662SOL    HW1 8885   3.908   0.242   5.387
 2662SOL    HW2 8886   4.057   0.272   5.446
 2663SOL     OW 8887   2.766   4.033   1.376
 2663SOL    HW1 8888   2.790   4.017   1.472
 2663SOL    HW2 8889   2.675   4.075   1.371
 2664SOL     OW 8890   3.675   3.755   4.758
 2664SOL    HW1 8891   3.605   3.710   4.814
 2664SOL    HW2 8892   3.714   3.832   4.808
 2665SOL     OW 8893   2.790   2.493   5.391
 2665SOL    HW1 8894   2.765   2.585   5.420
 2665SOL    HW2 8895   2.886   2.492   5.361
 2666SOL     OW 8896   4.714   3.885   1.797
 2666SOL    HW1 8897   4.791   3.925   1.846
 2666SOL    HW2 8898   4.722   3.785   1.798
 2667SOL     OW 8899   1.588   5.897   4.407
 2667SOL    HW1 8900   1.589   5.932   4.313
 2667SOL    HW2 8901   1.602   5.972   4.471
 2668SOL     OW 8902   5.981   3.349   3.559
 2668SOL    HW1 8903   5.982   3.430   3.618
 2668SOL    HW2 8904   5.887   3.320   3.543
 2669SOL     OW 8905   3.090   4.988   5.089
 2669SOL    HW1 8906   3.042   4.950   5.169
 2669SOL    HW2 8907   3.095   4.919   5.017
 2670SOL     OW 8908   5.363   2.089   6.468
 2670SOL    HW1 8909   5.443   2.096   6.407
 2670SOL    HW2 8910   5.279   2.094   6.413
 2671SOL     OW 8911   3.884   5.422   6.612
 2671SOL    HW1 8912   3.874   5.517   6.584
 2671SOL    HW2 8913   3.828   5.363   6.554
 2672SOL     OW 8914   6.711   5.155   6.951
 2672SOL    HW1 8915   6.679   5.184   0.025
 2672SOL    HW2 8916   6.797   5.201   6.930
 2673SOL     OW 8917   6.197   2.096   3.545
 2673SOL    HW1 8918   6.198   2.011   3.597
 2673SOL    HW2 8919   6.253   2.087   3.463
 2674SOL     OW 8920   1.647   4.129   3.728
 2674SOL    HW1 8921   1.690   4.042   3.707
 2674SOL    HW2 8922   1.714   4.203   3.718
 2675SOL     OW 8923   6.535   5.097   4.682
 2675SOL    HW1 8924   6.448   5.047   4.674
 2675SOL    HW2 8925   6.581   5.097   4.593
 2676SOL     OW 8926   4.619   1.258   1.728
 2676SOL    HW1 8927   4.549   1.294   1.667
 2676SOL    HW2 8928   4.577   1.200   1.797
 2677SOL     OW 8929   3.164   4.444   0.106
 2677SOL    HW1 8930   3.087   4.408   0.053
 2677SOL    HW2 8931   3.176   4.389   0.189
 2678SOL     OW 8932   6.982   4.609   1.352
 2678SOL    HW1 8933   0.059   4.585   1.377
 2678SOL    HW2 8934   6.937   4.656   1.428
 2679SOL     OW 8935   3.761   5.670   0.727
 2679SOL    HW1 8936   3.747   5.574   0.749
 2679SOL    HW2 8937   3.713   5.692   0.642
 2680SOL     OW 8938   0.875   1.855   0.811
 2680SOL    HW1 8939   0.854   1.853   0.713
 2680SOL    HW2 8940   0.919   1.942   0.834
 2681SOL     OW 8941   1.511   2.514   4.200
 2681SOL    HW1 8942   1.491   2.472   4.112
 2681SOL    HW2 8943   1.449   2.591   4.215
 2682SOL     OW 8944   5.561   3.875   2.840
 2682SOL    HW1 8945   5.523   3.808   2.776
 2682SOL    HW2 8946   5.563   3.837   2.932
 2683SOL     OW 8947   2.041   4.190   0.337
 2683SOL    HW1 8948   2.046   4.091   0.333
 2683SOL    HW2 8949   2.115   4.225   0.395
 2684SOL     OW 8950   4.668   5.817   1.481
 2684SOL    HW1 8951   4.716   5.848   1.563
 2684SOL    HW2 8952   4.674   5.717   1.476
 2685SOL     OW 8953   6.142   6.136   6.869
 2685SOL    HW1 8954   6.230   6.098   6.844
 2685SOL    HW2 8955   6.075   6.116   6.798
 2686SOL     OW 8956   1.522   1.699   5.582
 2686SOL    HW1 8957   1.455   1.748   5.637
 2686SOL    HW2 8958   1.503   1.601   5.586
 2687SOL     OW 8959   4.498   4.478   2.511
 2687SOL    HW1 8960   4.519   4.456   2.416
 2687SOL    HW2 8961   4.560   4.429   2.572
 2688SOL     OW 8962   4.866   5.625   6.897
 2688SOL    HW1 8963   4.906   5.584   6.980
 2688SOL    HW2 8964   4.781   5.672   6.922
 2689SOL     OW 8965   1.869   2.822   3.608
 2689SOL    HW1 8966   1.961   2.783   3.609
 2689SOL    HW2 8967   1.868   2.904   3.551
 2690SOL     OW 8968   3.283   3.681   4.062
 2690SOL    HW1 8969   3.272   3.583   4.047
 2690SOL    HW2 8970   3.192   3.724   4.069
 2691SOL     OW 8971   0.955   5.619   2.326
 2691SOL    HW1 8972   0.882   5.674   2.368
 2691SOL    HW2 8973   1.026   5.681   2.292
 2692SOL     OW 8974   4.145   4.845   3.583
 2692SOL    HW1 8975   4.175   4.808   3.495
 2692SOL    HW2 8976   4.195   4.800   3.657
 2693SOL     OW 8977   1.738   4.194   2.789
 2693SOL    HW1 8978   1.762   4.110   2.741
 2693SOL    HW2 8979   1.671   4.173   2.861
 2694SOL     OW 8980   4.311   6.719   2.707
 2694SOL    HW1 8981   4.378   6.753   2.640
 2694SOL    HW2 8982   4.285   6.625   2.683
 2695SOL     OW 8983   5.351   1.016   2.832
 2695SOL    HW1 8984   5.356   0.942   2.764
 2695SOL    HW2 8985   5.431   1.075   2.821
 2696SOL     OW 8986   3.950   3.577   5.161
 2696SOL    HW1 8987   3.997   3.665   5.148
 2696SOL    HW2 8988   3.930   3.564   5.258
 2697SOL     OW 8989   3.586   1.320   3.134
 2697SOL    HW1 8990   3.656   1.256   3.101
 2697SOL    HW2 8991   3.552   1.289   3.223
 2698SOL     OW 8992   2.020   5.523   0.496
 2698SOL    HW1 8993   2.035   5.539   0.593
 2698SOL    HW2 8994   2.069   5.592   0.443
 2699SOL     OW 8995   3.482   6.474   0.367
 2699SOL    HW1 8996   3.474   6.545   0.437
 2699SOL    HW2 8997   3.422   6.397   0.391
 2700SOL     OW 8998   1.967   4.315   1.072
 2700SOL    HW1 8999   1.980   4.358   1.162
 2700SOL    HW2 9000   1.906   4.371   1.017
 2701SOL     OW 9001   3.310   0.540   6.637
 2701SOL    HW1 9002   3.268   0.454   6.608
 2701SOL    HW2 9003   3.335   0.594   6.556
 2702SOL     OW 9004   1.047   3.029   3.115
 2702SOL    HW1 9005   0.980   2.963   3.079
 2702SOL    HW2 9006   1.124   2.980   3.155
 2703SOL     OW 9007   2.051   0.686   2.529
 2703SOL    HW1 9008   2.102   0.621   2.586
 2703SOL    HW2 9009   2.001   0.750   2.588
 2704SOL     OW 9010   0.284   6.121   0.794
 2704SOL    HW1 9011   0.240   6.063   0.863
 2704SOL    HW2 9012   0.310   6.065   0.716
 2705SOL     OW 9013   1.463   5.446   4.336
 2705SOL    HW1 9014   1.443   5.492   4.249
 2705SOL    HW2 9015   1.514   5.508   4.396
 2706SOL     OW 9016   0.146   0.626   1.377
 2706SOL    HW1 9017   0.174   0.698   1.441
 2706SOL    HW2 9018   0.047   0.610   1.386
 2707SOL     OW 9019   2.341   0.848   5.117
 2707SOL    HW1 9020   2.321   0.813   5.026
 2707SOL    HW2 9021   2.271   0.915   5.143
 2708SOL     OW 9022   0.987   2.107   0.866
 2708SOL    HW1 9023   0.972   2.173   0.793
 2708SOL    HW2 9024   1.083   2.111   0.896
 2709SOL     OW 9025   5.540   6.311   0.426
 2709SOL    HW1 9026   5.453   6.323   0.474
 2709SOL    HW2 9027   5.547   6.216   0.394
 2710SOL     OW 9028   0.587   3.343   2.664
 2710SOL    HW1 9029   0.585   3.247   2.692
 2710SOL    HW2 9030   0.637   3.397   2.732
 2711SOL     OW 9031   2.402   1.074   3.649
 2711SOL    HW1 9032   2.315   1.023   3.641
 2711SOL    HW2 9033   2.387   1.169   3.622
 2712SOL     OW 9034   3.250   4.997   0.780
 2712SOL    HW1 9035   3.294   4.957   0.700
 2712SOL    HW2 9036   3.288   5.087   0.799
 2713SOL     OW 9037   2.243   2.098   4.846
 2713SOL    HW1 9038   2.156   2.129   4.806
 2713SOL    HW2 9039   2.225   2.055   4.934
 2714SOL     OW 9040   4.784   2.202   7.006
 2714SOL    HW1 9041   4.819   2.114   6.972
 2714SOL    HW2 9042   4.798   2.208   0.088
 2715SOL     OW 9043   5.296   0.803   0.190
 2715SOL    HW1 9044   5.362   0.837   0.257
 2715SOL    HW2 9045   5.205   0.799   0.233
 2716SOL     OW 9046   5.310   5.071   3.052
 2716SOL    HW1 9047   5.324   5.170   3.042
 2716SOL    HW2 9048   5.397   5.024   3.037
 2717SOL     OW 9049   2.520   4.832   2.123
 2717SOL    HW1 9050   2.575   4.754   2.155
 2717SOL    HW2 9051   2.481   4.810   2.034
 2718SOL     OW 9052   1.624   3.755   5.617
 2718SOL    HW1 9053   1.659   3.825   5.679
 2718SOL    HW2 9054   1.527   3.740   5.634
 2719SOL     OW 9055   6.224   5.876   1.542
 2719SOL    HW1 9056   6.251   5.875   1.638
 2719SOL    HW2 9057   6.196   5.784   1.515
 2720SOL     OW 9058   1.884   6.226   2.722
 2720SOL    HW1 9059   1.807   6.261   2.776
 2720SOL    HW2 9060   1.882   6.266   2.631
 2721SOL     OW 9061   3.097   0.521   4.163
 2721SOL    HW1 9062   3.044   0.579   4.101
 2721SOL    HW2 9063   3.171   0.574   4.205
 2722SOL     OW 9064   6.858   5.875   1.840
 2722SOL    HW1 9065   6.919   5.841   1.769
 2722SOL    HW2 9066   6.909   5.888   1.925
 2723SOL     OW 9067   1.235   6.399   5.941
 2723SOL    HW1 9068   1.182   6.358   6.016
 2723SOL    HW2 9069   1.295   6.470   5.978
 2724SOL     OW 9070   2.548   6.947   6.562
 2724SOL    HW1 9071   2.583   6.860   6.528
 2724SOL    HW2 9072   2.456   6.933   6.599
 2725SOL     OW 9073   6.386   4.710   4.169
 2725SOL    HW1 9074   6.423   4.773   4.101
 2725SOL    HW2 9075   6.287   4.716   4.170
 2726SOL     OW 9076   0.070   3.772   1.224
 2726SOL    HW1 9077   0.112   3.687   1.256
 2726SOL    HW2 9078   6.996   3.753   1.187
 2727SOL     OW 9079   0.491   5.127   3.679
 2727SOL    HW1 9080   0.406   5.140   3.730
 2727SOL    HW2 9081   0.500   5.030   3.654
 2728SOL     OW 9082   3.703   6.978   5.964
 2728SOL    HW1 9083   3.777   0.009   5.917
 2728SOL    HW2 9084   3.638   6.942   5.897
 2729SOL     OW 9085   6.261   5.556   1.187
 2729SOL    HW1 9086   6.225   5.571   1.279
 2729SOL    HW2 9087   6.267   5.644   1.139
 2730SOL     OW 9088   1.763   5.595   1.921
 2730SOL    HW1 9089   1.704   5.555   1.850
 2730SOL    HW2 9090   1.770   5.532   1.998
 2731SOL     OW 9091   3.788   3.508   2.148
 2731SOL    HW1 9092   3.877   3.496   2.194
 2731SOL    HW2 9093   3.764   3.605   2.149
 2732SOL     OW 9094   5.509   3.271   2.131
 2732SOL    HW1 9095   5.435   3.336   2.144
 2732SOL    HW2 9096   5.544   3.278   2.037
 2733SOL     OW 9097   0.397   6.899   4.669
 2733SOL    HW1 9098   0.374   6.968   4.600
 2733SOL    HW2 9099   0.314   6.852   4.698
 2734SOL     OW 9100   2.386   6.004   1.965
 2734SOL    HW1 9101   2.344   5.980   2.053
 2734SOL    HW2 9102   2.392   6.104   1.957
 2735SOL     OW 9103   0.961   3.519   2.716
 2735SOL    HW1 9104   1.030   3.480   2.654
 2735SOL    HW2 9105   0.981   3.491   2.810
 2736SOL     OW 9106   4.083   6.982   4.699
 2736SOL    HW1 9107   4.145   0.040   4.673
 2736SOL    HW2 9108   4.136   6.899   4.716
 2737SOL     OW 9109   3.759   3.714   5.590
 2737SOL    HW1 9110   3.720   3.744   5.503
 2737SOL    HW2 9111   3.708   3.755   5.666
 2738SOL     OW 9112   6.044   4.766   3.918
 2738SOL    HW1 9113   6.099   4.705   3.974
 2738SOL    HW2 9114   5.994   4.830   3.976
 2739SOL     OW 9115   6.579   5.395   0.463
 2739SOL    HW1 9116   6.648   5.331   0.498
 2739SOL    HW2 9117   6.592   5.406   0.364
 2740SOL     OW 9118   6.129   3.553   2.425
 2740SOL    HW1 9119   6.089   3.467   2.396
 2740SOL    HW2 9120   6.194   3.585   2.357
 2741SOL     OW 9121   6.665   1.165   5.436
 2741SOL    HW1 9122   6.617   1.077   5.438
 2741SOL    HW2 9123   6.720   1.171   5.353
 2742SOL     OW 9124   1.742   4.513   6.826
 2742SOL    HW1 9125   1.670   4.448   6.804
 2742SOL    HW2 9126   1.797   4.531   6.744
 2743SOL     OW 9127   6.382   5.434   2.501
 2743SOL    HW1 9128   6.400   5.372   2.425
 2743SOL    HW2 9129   6.467   5.449   2.552
 2744SOL     OW 9130   4.546   1.903   0.058
 2744SOL    HW1 9131   4.469   1.913   0.121
 2744SOL    HW2 9132   4.536   1.968   6.999
 2745SOL     OW 9133   0.852   6.764   6.631
 2745SOL    HW1 9134   0.800   6.741   6.548
 2745SOL    HW2 9135   0.881   6.859   6.626
 2746SOL     OW 9136   2.393   2.190   3.574
 2746SOL    HW1 9137   2.390   2.090   3.570
 2746SOL    HW2 9138   2.385   2.226   3.481
 2747SOL     OW 9139   5.354   3.362   5.857
 2747SOL    HW1 9140   5.429   3.425   5.876
 2747SOL    HW2 9141   5.313   3.385   5.769
 2748SOL     OW 9142   4.209   2.010   0.541
 2748SOL    HW1 9143   4.218   1.984   0.636
 2748SOL    HW2 9144   4.121   1.979   0.505
 2749SOL     OW 9145   5.952   4.388   3.806
 2749SOL    HW1 9146   5.912   4.480   3.803
 2749SOL    HW2 9147   6.045   4.393   3.844
 2750SOL     OW 9148   0.759   4.851   1.119
 2750SOL    HW1 9149   0.809   4.840   1.034
 2750SOL    HW2 9150   0.668   4.812   1.110
 2751SOL     OW 9151   0.568   6.266   0.565
 2751SOL    HW1 9152   0.591   6.238   0.658
 2751SOL    HW2 9153   0.616   6.208   0.499
 2752SOL     OW 9154   4.797   4.539   4.873
 2752SOL    HW1 9155   4.739   4.461   4.851
 2752SOL    HW2 9156   4.860   4.556   4.797
 2753SOL     OW 9157   1.436   6.519   6.375
 2753SOL    HW1 9158   1.531   6.532   6.404
 2753SOL    HW2 9159   1.430   6.437   6.318
 2754SOL     OW 9160   6.617   0.817   3.916
 2754SOL    HW1 9161   6.559   0.846   3.840
 2754SOL    HW2 9162   6.713   0.820   3.887
 2755SOL     OW 9163   2.672   6.501   3.763
 2755SOL    HW1 9164   2.671   6.491   3.664
 2755SOL    HW2 9165   2.585   6.469   3.801
 2756SOL     OW 9166   5.928   4.358   5.478
 2756SOL    HW1 9167   5.920   4.328   5.573
 2756SOL    HW2 9168   5.840   4.351   5.432
 2757SOL     OW 9169   2.301   1.624   6.229
 2757SOL    HW1 9170   2.294   1.534   6.273
 2757SOL    HW2 9171   2.354   1.686   6.286
 2758SOL     OW 9172   5.228   6.163   3.404
 2758SOL    HW1 9173   5.170   6.240   3.433
 2758SOL    HW2 9174   5.320   6.196   3.383
 2759SOL     OW 9175   4.497   5.754   5.346
 2759SOL    HW1 9176   4.420   5.817   5.352
 2759SOL    HW2 9177   4.558   5.782   5.272
 2760SOL     OW 9178   6.601   5.452   2.700
 2760SOL    HW1 9179   6.646   5.418   2.618
 2760SOL    HW2 9180   6.642   5.539   2.728
 2761SOL     OW 9181   1.986   4.285   4.614
 2761SOL    HW1 9182   1.994   4.186   4.602
 2761SOL    HW2 9183   2.029   4.330   4.536
 2762SOL     OW 9184   1.782   1.856   6.623
 2762SOL    HW1 9185   1.686   1.856   6.651
 2762SOL    HW2 9186   1.825   1.941   6.653
 2763SOL     OW 9187   4.731   2.100   5.057
 2763SOL    HW1 9188   4.727   2.088   5.156
 2763SOL    HW2 9189   4.774   2.187   5.035
 2764SOL     OW 9190   0.216   6.279   2.072
 2764SOL    HW1 9191   0.155   6.355   2.094
 2764SOL    HW2 9192   0.163   6.206   2.028
 2765SOL     OW 9193   6.889   0.101   0.746
 2765SOL    HW1 9194   6.928   0.074   0.658
 2765SOL    HW2 9195   6.902   0.199   0.759
 2766SOL     OW 9196   4.057   2.673   6.297
 2766SOL    HW1 9197   3.981   2.623   6.338
 2766SOL    HW2 9198   4.074   2.756   6.349
 2767SOL     OW 9199   6.517   5.415   6.618
 2767SOL    HW1 9200   6.429   5.435   6.575
 2767SOL    HW2 9201   6.525   5.316   6.630
 2768SOL     OW 9202   4.450   0.550   1.049
 2768SOL    HW1 9203   4.370   0.527   1.104
 2768SOL    HW2 9204   4.507   0.615   1.098
 2769SOL     OW 9205   2.757   4.332   6.380
 2769SOL    HW1 9206   2.737   4.265   6.309
 2769SOL    HW2 9207   2.720   4.421   6.354
 2770SOL     OW 9208   4.523   5.029   5.182
 2770SOL    HW1 9209   4.588   5.015   5.257
 2770SOL    HW2 9210   4.506   4.942   5.135
 2771SOL     OW 9211   5.702   0.694   4.648
 2771SOL    HW1 9212   5.724   0.608   4.696
 2771SOL    HW2 9213   5.714   0.771   4.710
 2772SOL     OW 9214   3.476   1.345   1.470
 2772SOL    HW1 9215   3.408   1.276   1.445
 2772SOL    HW2 9216   3.432   1.435   1.475
 2773SOL     OW 9217   6.447   2.755   4.129
 2773SOL    HW1 9218   6.368   2.726   4.075
 2773SOL    HW2 9219   6.498   2.674   4.160
 2774SOL     OW 9220   5.115   3.295   2.785
 2774SOL    HW1 9221   5.210   3.263   2.784
 2774SOL    HW2 9222   5.054   3.218   2.766
 2775SOL     OW 9223   6.253   3.302   4.130
 2775SOL    HW1 9224   6.341   3.301   4.178
 2775SOL    HW2 9225   6.179   3.303   4.196
 2776SOL     OW 9226   5.155   4.255   5.583
 2776SOL    HW1 9227   5.092   4.316   5.631
 2776SOL    HW2 9228   5.163   4.169   5.633
 2777SOL     OW 9229   2.418   1.640   1.217
 2777SOL    HW1 9230   2.421   1.739   1.230
 2777SOL    HW2 9231   2.455   1.594   1.299
 2778SOL     OW 9232   1.036   6.291   6.566
 2778SOL    HW1 9233   1.134   6.281   6.584
 2778SOL    HW2 9234   0.987   6.299   6.653
 2779SOL     OW 9235   5.497   6.727   1.948
 2779SOL    HW1 9236   5.516   6.635   1.983
 2779SOL    HW2 9237   5.581   6.766   1.910
 2780SOL     OW 9238   6.790   0.387   5.945
 2780SOL    HW1 9239   6.756   0.362   6.036
 2780SOL    HW2 9240   6.724   0.448   5.901
 2781SOL     OW 9241   6.236   0.647   3.437
 2781SOL    HW1 9242   6.192   0.684   3.518
 2781SOL    HW2 9243   6.289   0.719   3.392
 2782SOL     OW 9244   4.461   1.287   4.624
 2782SOL    HW1 9245   4.388   1.287   4.692
 2782SOL    HW2 9246   4.521   1.208   4.639
 2783SOL     OW 9247   0.032   4.119   1.785
 2783SOL    HW1 9248   6.963   4.127   1.837
 2783SOL    HW2 9249   0.018   4.154   1.692
 2784SOL     OW 9250   3.503   1.179   2.373
 2784SOL    HW1 9251   3.595   1.200   2.408
 2784SOL    HW2 9252   3.501   1.195   2.274
 2785SOL     OW 9253   5.498   2.495   0.331
 2785SOL    HW1 9254   5.419   2.528   0.383
 2785SOL    HW2 9255   5.549   2.572   0.294
 2786SOL     OW 9256   6.558   6.913   1.830
 2786SOL    HW1 9257   6.575   6.831   1.775
 2786SOL    HW2 9258   6.518   6.984   1.772
 2787SOL     OW 9259   6.005   6.556   5.829
 2787SOL    HW1 9260   5.975   6.471   5.872
 2787SOL    HW2 9261   6.001   6.546   5.729
 2788SOL     OW 9262   2.523   6.333   6.112
 2788SOL    HW1 9263   2.492   6.250   6.158
 2788SOL    HW2 9264   2.490   6.334   6.018
 2789SOL     OW 9265   1.910   1.769   3.863
 2789SOL    HW1 9266   1.982   1.827   3.901
 2789SOL    HW2 9267   1.821   1.806   3.887
 2790SOL     OW 9268   3.478   5.256   1.184
 2790SOL    HW1 9269   3.401   5.211   1.230
 2790SOL    HW2 9270   3.448   5.292   1.096
 2791SOL     OW 9271   0.801   4.394   2.280
 2791SOL    HW1 9272   0.763   4.342   2.203
 2791SOL    HW2 9273   0.792   4.341   2.364
 2792SOL     OW 9274   3.032   0.884   4.488
 2792SOL    HW1 9275   3.095   0.886   4.410
 2792SOL    HW2 9276   2.940   0.861   4.457
 2793SOL     OW 9277   5.135   3.719   2.029
 2793SOL    HW1 9278   5.217   3.673   2.062
 2793SOL    HW2 9279   5.091   3.663   1.959
 2794SOL     OW 9280   6.675   2.029   5.777
 2794SOL    HW1 9281   6.660   1.933   5.800
 2794SOL    HW2 9282   6.701   2.037   5.681
 2795SOL     OW 9283   0.643   4.106   1.118
 2795SOL    HW1 9284   0.612   4.012   1.134
 2795SOL    HW2 9285   0.565   4.168   1.124
 2796SOL     OW 9286   7.014   6.017   3.723
 2796SOL    HW1 9287   0.043   6.043   3.638
 2796SOL    HW2 9288   0.016   5.921   3.743
 2797SOL     OW 9289   5.301   5.071   5.686
 2797SOL    HW1 9290   5.346   4.998   5.737
 2797SOL    HW2 9291   5.260   5.033   5.603
 2798SOL     OW 9292   5.984   5.886   2.578
 2798SOL    HW1 9293   5.933   5.888   2.664
 2798SOL    HW2 9294   5.978   5.795   2.537
 2799SOL     OW 9295   5.754   5.986   6.375
 2799SOL    HW1 9296   5.831   5.992   6.310
 2799SOL    HW2 9297   5.727   6.077   6.403
 2800SOL     OW 9298   5.744   6.668   5.559
 2800SOL    HW1 9299   5.671   6.687   5.494
 2800SOL    HW2 9300   5.753   6.744   5.623
 2801SOL     OW 9301   0.426   5.800   5.909
 2801SOL    HW1 9302   0.395   5.720   5.961
 2801SOL    HW2 9303   0.436   5.775   5.813
 2802SOL     OW 9304   6.296   6.444   5.220
 2802SOL    HW1 9305   6.297   6.413   5.315
 2802SOL    HW2 9306   6.212   6.495   5.203
 2803SOL     OW 9307   3.734   4.910   5.720
 2803SOL    HW1 9308   3.778   4.820   5.712
 2803SOL    HW2 9309   3.643   4.906   5.678
 2804SOL     OW 9310   0.344   3.753   4.879
 2804SOL    HW1 9311   0.350   3.694   4.798
 2804SOL    HW2 9312   0.395   3.711   4.954
 2805SOL     OW 9313   5.592   3.466   2.888
 2805SOL    HW1 9314   5.624   3.511   2.971
 2805SOL    HW2 9315   5.657   3.394   2.862
 2806SOL     OW 9316   1.952   3.806   5.933
 2806SOL    HW1 9317   1.989   3.720   5.897
 2806SOL    HW2 9318   2.005   3.834   6.013
 2807SOL     OW 9319   4.342   0.446   2.984
 2807SOL    HW1 9320   4.358   0.545   2.977
 2807SOL    HW2 9321   4.407   0.399   2.925
 2808SOL     OW 9322   6.355   5.486   0.730
 2808SOL    HW1 9323   6.361   5.406   0.671
 2808SOL    HW2 9324   6.314   5.460   0.818
 2809SOL     OW 9325   5.272   2.218   1.692
 2809SOL    HW1 9326   5.248   2.304   1.738
 2809SOL    HW2 9327   5.330   2.238   1.613
 2810SOL     OW 9328   2.047   5.706   2.716
 2810SOL    HW1 9329   1.978   5.775   2.740
 2810SOL    HW2 9330   2.043   5.630   2.781
 2811SOL     OW 9331   0.731   1.906   2.868
 2811SOL    HW1 9332   0.688   1.816   2.858
 2811SOL    HW2 9333   0.738   1.949   2.779
 2812SOL     OW 9334   6.006   3.644   0.879
 2812SOL    HW1 9335   6.062   3.608   0.804
 2812SOL    HW2 9336   6.007   3.579   0.955
 2813SOL     OW 9337   0.747   1.858   6.846
 2813SOL    HW1 9338   0.733   1.775   6.900
 2813SOL    HW2 9339   0.689   1.854   6.764
 2814SOL     OW 9340   3.434   3.923   5.523
 2814SOL    HW1 9341   3.372   3.932   5.601
 2814SOL    HW2 9342   3.402   3.849   5.463
 2815SOL     OW 9343   6.415   5.076   6.343
 2815SOL    HW1 9344   6.336   5.132   6.316
 2815SOL    HW2 9345   6.466   5.124   6.414
 2816SOL     OW 9346   6.504   6.159   4.573
 2816SOL    HW1 9347   6.482   6.124   4.482
 2816SOL    HW2 9348   6.603   6.154   4.587
 2817SOL     OW 9349   3.282   0.863   2.836
 2817SOL    HW1 9350   3.315   0.789   2.894
 2817SOL    HW2 9351   3.274   0.947   2.890
 2818SOL     OW 9352   0.094   1.103   2.497
 2818SOL    HW1 9353   0.070   1.043   2.573
 2818SOL    HW2 9354   0.111   1.196   2.531
 2819SOL     OW 9355   1.243   0.490   2.222
 2819SOL    HW1 9356   1.188   0.571   2.202
 2819SOL    HW2 9357   1.240   0.427   2.144
 2820SOL     OW 9358   1.122   2.036   2.424
 2820SOL    HW1 9359   1.178   1.973   2.369
 2820SOL    HW2 9360   1.182   2.096   2.477
 2821SOL     OW 9361   2.832   4.815   6.026
 2821SOL    HW1 9362   2.806   4.722   6.051
 2821SOL    HW2 9363   2.800   4.835   5.933
 2822SOL     OW 9364   4.421   2.357   0.154
 2822SOL    HW1 9365   4.399   2.264   0.126
 2822SOL    HW2 9366   4.446   2.358   0.250
 2823SOL     OW 9367   6.195   0.495   7.011
 2823SOL    HW1 9368   6.213   0.542   6.925
 2823SOL    HW2 9369   6.100   0.465   7.013
 2824SOL     OW 9370   2.240   2.176   5.187
 2824SOL    HW1 9371   2.317   2.236   5.162
 2824SOL    HW2 9372   2.276   2.090   5.223
 2825SOL     OW 9373   5.706   6.961   5.472
 2825SOL    HW1 9374   5.718   0.009   5.548
 2825SOL    HW2 9375   5.630   6.899   5.493
 2826SOL     OW 9376   3.664   3.270   6.744
 2826SOL    HW1 9377   3.703   3.281   6.653
 2826SOL    HW2 9378   3.676   3.355   6.795
 2827SOL     OW 9379   0.175   0.958   6.473
 2827SOL    HW1 9380   0.233   0.901   6.529
 2827SOL    HW2 9381   0.110   0.900   6.422
 2828SOL     OW 9382   2.049   3.432   0.690
 2828SOL    HW1 9383   1.991   3.511   0.672
 2828SOL    HW2 9384   2.142   3.463   0.711
 2829SOL     OW 9385   2.995   3.143   3.583
 2829SOL    HW1 9386   2.915   3.199   3.606
 2829SOL    HW2 9387   3.014   3.151   3.485
 2830SOL     OW 9388   3.552   3.993   5.231
 2830SOL    HW1 9389   3.466   4.032   5.261
 2830SOL    HW2 9390   3.569   4.019   5.136
 2831SOL     OW 9391   1.330   3.376   2.849
 2831SOL    HW1 9392   1.321   3.467   2.889
 2831SOL    HW2 9393   1.250   3.320   2.873
 2832SOL     OW 9394   1.087   2.828   1.547
 2832SOL    HW1 9395   1.168   2.794   1.594
 2832SOL    HW2 9396   1.005   2.803   1.598
 2833SOL     OW 9397   2.668   1.841   1.881
 2833SOL    HW1 9398   2.761   1.827   1.916
 2833SOL    HW2 9399   2.603   1.792   1.938
 2834SOL     OW 9400   4.316   6.188   4.380
 2834SOL    HW1 9401   4.407   6.202   4.341
 2834SOL    HW2 9402   4.273   6.109   4.337
 2835SOL     OW 9403   0.902   7.014   0.547
 2835SOL    HW1 9404   0.959   7.004   0.465
 2835SOL    HW2 9405   0.820   0.049   0.525
 2836SOL     OW 9406   1.738   6.300   1.613
 2836SOL    HW1 9407   1.791   6.311   1.529
 2836SOL    HW2 9408   1.725   6.389   1.657
 2837SOL     OW 9409   5.399   4.582   2.539
 2837SOL    HW1 9410   5.378   4.521   2.463
 2837SOL    HW2 9411   5.495   4.570   2.566
 2838SOL     OW 9412   4.707   3.825   0.474
 2838SOL    HW1 9413   4.735   3.735   0.506
 2838SOL    HW2 9414   4.685   3.884   0.553
 2839SOL     OW 9415   0.459   2.954   2.565
 2839SOL    HW1 9416   0.521   2.953   2.487
 2839SOL    HW2 9417   0.384   3.018   2.547
 2840SOL     OW 9418   1.445   6.223   2.646
 2840SOL    HW1 9419   1.386   6.142   2.652
 2840SOL    HW2 9420   1.388   6.305   2.643
 2841SOL     OW 9421   6.263   2.613   6.648
 2841SOL    HW1 9422   6.358   2.643   6.654
 2841SOL    HW2 9423   6.209   2.683   6.601
 2842SOL     OW 9424   0.700   5.795   4.797
 2842SOL    HW1 9425   0.695   5.717   4.860
 2842SOL    HW2 9426   0.742   5.765   4.711
 2843SOL     OW 9427   2.544   1.724   2.088
 2843SOL    HW1 9428   2.555   1.701   2.184
 2843SOL    HW2 9429   2.446   1.729   2.066
 2844SOL     OW 9430   6.264   5.354   0.970
 2844SOL    HW1 9431   6.306   5.396   1.051
 2844SOL    HW2 9432   6.245   5.257   0.990
 2845SOL     OW 9433   5.182   3.246   2.427
 2845SOL    HW1 9434   5.086   3.271   2.444
 2845SOL    HW2 9435   5.242   3.312   2.472
 2846SOL     OW 9436   3.677   0.297   1.060
 2846SOL    HW1 9437   3.644   0.268   0.969
 2846SOL    HW2 9438   3.628   0.379   1.089
 2847SOL     OW 9439   5.163   3.909   3.056
 2847SOL    HW1 9440   5.206   3.953   2.977
 2847SOL    HW2 9441   5.080   3.862   3.028
 2848SOL     OW 9442   2.650   2.583   5.993
 2848SOL    HW1 9443   2.738   2.630   5.992
 2848SOL    HW2 9444   2.579   2.646   6.023
 2849SOL     OW 9445   3.613   1.049   1.524
 2849SOL    HW1 9446   3.583   0.990   1.449
 2849SOL    HW2 9447   3.704   1.085   1.504
 2850SOL     OW 9448   2.208   0.016   3.188
 2850SOL    HW1 9449   2.178   6.944   3.153
 2850SOL    HW2 9450   2.291   0.044   3.139
 2851SOL     OW 9451   4.695   3.238   6.594
 2851SOL    HW1 9452   4.719   3.246   6.691
 2851SOL    HW2 9453   4.681   3.142   6.571
 2852SOL     OW 9454   6.211   4.321   0.061
 2852SOL    HW1 9455   6.213   4.354   0.155
 2852SOL    HW2 9456   6.126   4.350   0.017
 2853SOL     OW 9457   0.910   2.961   6.996
 2853SOL    HW1 9458   0.986   2.968   6.932
 2853SOL    HW2 9459   0.894   3.049   0.023
 2854SOL     OW 9460   3.459   0.634   6.105
 2854SOL    HW1 9461   3.461   0.595   6.013
 2854SOL    HW2 9462   3.510   0.721   6.105
 2855SOL     OW 9463   1.558   2.412   5.034
 2855SOL    HW1 9464   1.540   2.492   5.091
 2855SOL    HW2 9465   1.519   2.426   4.943
 2856SOL     OW 9466   1.195   2.777   4.197
 2856SOL    HW1 9467   1.241   2.798   4.110
 2856SOL    HW2 9468   1.144   2.857   4.227
 2857SOL     OW 9469   0.401   2.788   1.267
 2857SOL    HW1 9470   0.472   2.829   1.324
 2857SOL    HW2 9471   0.444   2.734   1.194
 2858SOL     OW 9472   5.098   6.054   2.109
 2858SOL    HW1 9473   5.091   5.984   2.180
 2858SOL    HW2 9474   5.087   6.144   2.149
 2859SOL     OW 9475   5.952   6.497   6.914
 2859SOL    HW1 9476   5.986   6.460   7.001
 2859SOL    HW2 9477   5.855   6.475   6.905
 2860SOL     OW 9478   2.099   0.133   2.313
 2860SOL    HW1 9479   2.037   0.177   2.377
 2860SOL    HW2 9480   2.047   0.083   2.244
 2861SOL     OW 9481   3.388   5.712   5.323
 2861SOL    HW1 9482   3.325   5.769   5.270
 2861SOL    HW2 9483   3.451   5.665   5.261
 2862SOL     OW 9484   4.299   2.359   1.946
 2862SOL    HW1 9485   4.386   2.400   1.973
 2862SOL    HW2 9486   4.261   2.408   1.867
 2863SOL     OW 9487   5.101   1.621   6.811
 2863SOL    HW1 9488   5.045   1.653   6.735
 2863SOL    HW2 9489   5.164   1.694   6.839
 2864SOL     OW 9490   5.045   2.594   0.690
 2864SOL    HW1 9491   5.077   2.584   0.784
 2864SOL    HW2 9492   5.124   2.597   0.629
 2865SOL     OW 9493   4.346   6.582   3.971
 2865SOL    HW1 9494   4.407   6.519   3.923
 2865SOL    HW2 9495   4.252   6.547   3.968
 2866SOL     OW 9496   5.550   3.689   0.352
 2866SOL    HW1 9497   5.460   3.714   0.315
 2866SOL    HW2 9498   5.620   3.708   0.283
 2867SOL     OW 9499   5.734   6.168   2.904
 2867SOL    HW1 9500   5.686   6.232   2.963
 2867SOL    HW2 9501   5.817   6.211   2.868
 2868SOL     OW 9502   1.053   1.250   5.476
 2868SOL    HW1 9503   1.043   1.151   5.482
 2868SOL    HW2 9504   1.059   1.289   5.568
 2869SOL     OW 9505   6.397   0.880   3.709
 2869SOL    HW1 9506   6.371   0.965   3.665
 2869SOL    HW2 9507   6.466   0.834   3.653
 2870SOL     OW 9508   0.728   1.754   6.505
 2870SOL    HW1 9509   0.658   1.800   6.561
 2870SOL    HW2 9510   0.690   1.733   6.415
 2871SOL     OW 9511   6.196   0.508   0.479
 2871SOL    HW1 9512   6.250   0.565   0.416
 2871SOL    HW2 9513   6.229   0.522   0.572
 2872SOL     OW 9514   2.706   1.890   0.782
 2872SOL    HW1 9515   2.706   1.985   0.751
 2872SOL    HW2 9516   2.644   1.881   0.860
 2873SOL     OW 9517   6.774   6.675   2.402
 2873SOL    HW1 9518   6.710   6.598   2.396
 2873SOL    HW2 9519   6.864   6.641   2.428
 2874SOL     OW 9520   4.061   6.554   2.955
 2874SOL    HW1 9521   4.148   6.589   2.920
 2874SOL    HW2 9522   3.989   6.621   2.939
 2875SOL     OW 9523   4.604   6.521   2.427
 2875SOL    HW1 9524   4.529   6.488   2.368
 2875SOL    HW2 9525   4.630   6.448   2.491
 2876SOL     OW 9526   1.329   6.858   2.473
 2876SOL    HW1 9527   1.310   6.903   2.385
 2876SOL    HW2 9528   1.415   6.808   2.467
 2877SOL     OW 9529   2.127   0.897   5.951
 2877SOL    HW1 9530   2.181   0.815   5.929
 2877SOL    HW2 9531   2.189   0.973   5.972
 2878SOL     OW 9532   3.166   3.516   5.251
 2878SOL    HW1 9533   3.130   3.429   5.285
 2878SOL    HW2 9534   3.108   3.549   5.176
 2879SOL     OW 9535   5.224   5.483   5.565
 2879SOL    HW1 9536   5.169   5.561   5.595
 2879SOL    HW2 9537   5.214   5.408   5.631
 2880SOL     OW 9538   0.028   1.704   3.446
 2880SOL    HW1 9539   6.963   1.677   3.394
 2880SOL    HW2 9540   0.069   1.623   3.488
 2881SOL     OW 9541   3.423   5.896   6.680
 2881SOL    HW1 9542   3.326   5.919   6.670
 2881SOL    HW2 9543   3.471   5.972   6.724
 2882SOL     OW 9544   6.653   5.728   1.500
 2882SOL    HW1 9545   6.656   5.643   1.552
 2882SOL    HW2 9546   6.565   5.735   1.454
 2883SOL     OW 9547   5.537   6.991   3.737
 2883SOL    HW1 9548   5.582   6.940   3.811
 2883SOL    HW2 9549   5.529   0.071   3.764
 2884SOL     OW 9550   6.907   5.954   2.484
 2884SOL    HW1 9551   6.833   5.993   2.540
 2884SOL    HW2 9552   6.963   6.028   2.448
 2885SOL     OW 9553   1.371   2.366   4.521
 2885SOL    HW1 9554   1.369   2.423   4.438
 2885SOL    HW2 9555   1.316   2.283   4.505
 2886SOL     OW 9556   2.096   3.896   6.182
 2886SOL    HW1 9557   2.154   3.815   6.185
 2886SOL    HW2 9558   2.087   3.934   6.274
 2887SOL     OW 9559   0.476   6.119   4.765
 2887SOL    HW1 9560   0.490   6.147   4.860
 2887SOL    HW2 9561   0.563   6.095   4.723
 2888SOL     OW 9562   0.524   4.637   6.904
 2888SOL    HW1 9563   0.609   4.642   6.955
 2888SOL    HW2 9564   0.539   4.588   6.818
 2889SOL     OW 9565   3.247   6.401   2.792
 2889SOL    HW1 9566   3.248   6.415   2.693
 2889SOL    HW2 9567   3.174   6.457   2.832
 2890SOL     OW 9568   1.615   5.757   0.773
 2890SOL    HW1 9569   1.684   5.729   0.707
 2890SOL    HW2 9570   1.625   5.854   0.793
 2891SOL     OW 9571   0.874   3.355   3.410
 2891SOL    HW1 9572   0.831   3.382   3.496
 2891SOL    HW2 9573   0.972   3.344   3.422
 2892SOL     OW 9574   5.533   2.882   1.533
 2892SOL    HW1 9575   5.445   2.840   1.557
 2892SOL    HW2 9576   5.536   2.975   1.569
 2893SOL     OW 9577   1.211   5.307   4.235
 2893SOL    HW1 9578   1.279   5.320   4.306
 2893SOL    HW2 9579   1.256   5.282   4.149
 2894SOL     OW 9580   1.399   3.781   1.615
 2894SOL    HW1 9581   1.350   3.699   1.585
 2894SOL    HW2 9582   1.334   3.856   1.627
 2895SOL     OW 9583   4.459   0.539   6.270
 2895SOL    HW1 9584   4.490   0.451   6.306
 2895SOL    HW2 9585   4.393   0.580   6.334
 2896SOL     OW 9586   3.845   0.174   5.217
 2896SOL    HW1 9587   3.918   0.106   5.204
 2896SOL    HW2 9588   3.771   0.156   5.152
 2897SOL     OW 9589   3.815   4.955   2.466
 2897SOL    HW1 9590   3.845   5.044   2.431
 2897SOL    HW2 9591   3.892   4.891   2.466
 2898SOL     OW 9592   4.912   4.410   4.278
 2898SOL    HW1 9593   4.858   4.486   4.240
 2898SOL    HW2 9594   4.919   4.420   4.377
 2899SOL     OW 9595   6.723   2.015   0.541
 2899SOL    HW1 9596   6.781   1.960   0.481
 2899SOL    HW2 9597   6.781   2.076   0.595
 2900SOL     OW 9598   3.863   4.576   6.548
 2900SOL    HW1 9599   3.924   4.503   6.519
 2900SOL    HW2 9600   3.778   4.537   6.582
 2901SOL     OW 9601   1.805   4.906   3.396
 2901SOL    HW1 9602   1.730   4.971   3.404
 2901SOL    HW2 9603   1.774   4.825   3.346
 2902SOL     OW 9604   6.702   5.028   3.572
 2902SOL    HW1 9605   6.638   4.966   3.527
 2902SOL    HW2 9606   6.692   5.120   3.533
 2903SOL     OW 9607   4.235   6.557   0.334
 2903SOL    HW1 9608   4.202   6.473   0.291
 2903SOL    HW2 9609   4.263   6.537   0.428
 2904SOL     OW 9610   3.086   5.519   5.152
 2904SOL    HW1 9611   3.054   5.568   5.071
 2904SOL    HW2 9612   3.065   5.572   5.234
 2905SOL     OW 9613   1.157   4.060   4.258
 2905SOL    HW1 9614   1.249   4.071   4.222
 2905SOL    HW2 9615   1.152   3.975   4.311
 2906SOL     OW 9616   5.281   6.233   2.708
 2906SOL    HW1 9617   5.299   6.286   2.626
 2906SOL    HW2 9618   5.285   6.292   2.788
 2907SOL     OW 9619   0.795   1.506   3.795
 2907SOL    HW1 9620   0.738   1.546   3.724
 2907SOL    HW2 9621   0.863   1.445   3.753
 2908SOL     OW 9622   5.379   6.579   3.677
 2908SOL    HW1 9623   5.324   6.660   3.697
 2908SOL    HW2 9624   5.322   6.497   3.684
 2909SOL     OW 9625   1.988   5.919   3.972
 2909SOL    HW1 9626   1.922   5.930   3.898
 2909SOL    HW2 9627   1.945   5.944   4.059
 2910SOL     OW 9628   6.865   0.357   3.600
 2910SOL    HW1 9629   6.835   0.378   3.692
 2910SOL    HW2 9630   6.891   0.441   3.553
 2911SOL     OW 9631   1.685   5.216   4.024
 2911SOL    HW1 9632   1.611   5.161   4.063
 2911SOL    HW2 9633   1.655   5.253   3.936
 2912SOL     OW 9634   6.277   6.417   6.808
 2912SOL    HW1 9635   6.230   6.332   6.831
 2912SOL    HW2 9636   6.295   6.469   6.892
 2913SOL     OW 9637   3.162   5.126   1.952
 2913SOL    HW1 9638   3.176   5.028   1.960
 2913SOL    HW2 9639   3.197   5.158   1.864
 2914SOL     OW 9640   5.880   6.061   0.929
 2914SOL    HW1 9641   5.820   6.116   0.871
 2914SOL    HW2 9642   5.834   5.976   0.953
 2915SOL     OW 9643   2.679   1.769   3.429
 2915SOL    HW1 9644   2.748   1.697   3.433
 2915SOL    HW2 9645   2.630   1.763   3.342
 2916SOL     OW 9646   1.394   5.371   0.178
 2916SOL    HW1 9647   1.330   5.305   0.218
 2916SOL    HW2 9648   1.486   5.332   0.178
 2917SOL     OW 9649   3.400   0.222   4.434
 2917SOL    HW1 9650   3.367   0.262   4.349
 2917SOL    HW2 9651   3.410   0.293   4.504
 2918SOL     OW 9652   6.092   3.968   5.721
 2918SOL    HW1 9653   6.009   4.013   5.752
 2918SOL    HW2 9654   6.088   3.871   5.742
 2919SOL     OW 9655   6.383   0.249   3.493
 2919SOL    HW1 9656   6.449   0.310   3.537
 2919SOL    HW2 9657   6.292   0.269   3.529
 2920SOL     OW 9658   3.591   0.352   1.599
 2920SOL    HW1 9659   3.505   0.359   1.649
 2920SOL    HW2 9660   3.572   0.337   1.502
 2921SOL     OW 9661   0.253   7.003   5.396
 2921SOL    HW1 9662   0.173   7.011   5.454
 2921SOL    HW2 9663   0.304   6.920   5.420
 2922SOL     OW 9664   4.260   6.040   1.450
 2922SOL    HW1 9665   4.248   6.132   1.489
 2922SOL    HW2 9666   4.204   6.032   1.368
 2923SOL     OW 9667   6.873   5.492   4.109
 2923SOL    HW1 9668   6.922   5.414   4.150
 2923SOL    HW2 9669   6.937   5.567   4.094
 2924SOL     OW 9670   0.213   2.424   4.827
 2924SOL    HW1 9671   0.252   2.333   4.815
 2924SOL    HW2 9672   0.150   2.424   4.905
 2925SOL     OW 9673   5.863   2.167   0.693
 2925SOL    HW1 9674   5.936   2.162   0.761
 2925SOL    HW2 9675   5.903   2.168   0.601
 2926SOL     OW 9676   5.682   1.974   6.073
 2926SOL    HW1 9677   5.617   1.958   5.999
 2926SOL    HW2 9678   5.773   1.989   6.034
 2927SOL     OW 9679   2.048   3.857   0.690
 2927SOL    HW1 9680   2.021   3.902   0.775
 2927SOL    HW2 9681   1.995   3.773   0.679
 2928SOL     OW 9682   6.542   1.035   6.877
 2928SOL    HW1 9683   6.492   0.979   6.943
 2928SOL    HW2 9684   6.487   1.046   6.794
 2929SOL     OW 9685   2.048   2.792   5.758
 2929SOL    HW1 9686   2.004   2.860   5.701
 2929SOL    HW2 9687   2.125   2.751   5.709
 2930SOL     OW 9688   5.213   6.235   5.261
 2930SOL    HW1 9689   5.223   6.253   5.163
 2930SOL    HW2 9690   5.249   6.144   5.281
 2931SOL     OW 9691   5.013   4.984   6.916
 2931SOL    HW1 9692   5.046   5.077   6.931
 2931SOL    HW2 9693   4.914   4.985   6.905
 2932SOL     OW 9694   0.631   5.827   1.904
 2932SOL    HW1 9695   0.622   5.728   1.917
 2932SOL    HW2 9696   0.552   5.862   1.855
 2933SOL     OW 9697   1.355   6.688   2.137
 2933SOL    HW1 9698   1.446   6.672   2.174
 2933SOL    HW2 9699   1.320   6.603   2.096
 2934SOL     OW 9700   5.604   2.698   0.214
 2934SOL    HW1 9701   5.681   2.673   0.155
 2934SOL    HW2 9702   5.558   2.778   0.177
 2935SOL     OW 9703   6.535   2.507   6.056
 2935SOL    HW1 9704   6.491   2.440   5.996
 2935SOL    HW2 9705   6.531   2.598   6.015
 2936SOL     OW 9706   4.050   6.411   0.675
 2936SOL    HW1 9707   4.053   6.360   0.588
 2936SOL    HW2 9708   3.956   6.409   0.711
 2937SOL     OW 9709   5.515   5.194   1.196
 2937SOL    HW1 9710   5.601   5.197   1.246
 2937SOL    HW2 9711   5.450   5.136   1.245
 2938SOL     OW 9712   6.207   4.857   0.541
 2938SOL    HW1 9713   6.297   4.817   0.560
 2938SOL    HW2 9714   6.216   4.932   0.476
 2939SOL     OW 9715   2.009   0.644   1.240
 2939SOL    HW1 9716   1.940   0.701   1.195
 2939SOL    HW2 9717   2.083   0.703   1.273
 2940SOL     OW 9718   5.946   5.452   5.741
 2940SOL    HW1 9719   5.978   5.380   5.803
 2940SOL    HW2 9720   5.846   5.448   5.734
 2941SOL     OW 9721   2.006   2.125   3.700
 2941SOL    HW1 9722   1.920   2.152   3.745
 2941SOL    HW2 9723   2.053   2.059   3.758
 2942SOL     OW 9724   3.962   1.816   0.793
 2942SOL    HW1 9725   3.985   1.756   0.870
 2942SOL    HW2 9726   4.032   1.885   0.782
 2943SOL     OW 9727   5.443   4.371   3.754
 2943SOL    HW1 9728   5.360   4.377   3.810
 2943SOL    HW2 9729   5.423   4.405   3.662
 2944SOL     OW 9730   2.478   6.106   3.815
 2944SOL    HW1 9731   2.498   6.043   3.740
 2944SOL    HW2 9732   2.563   6.150   3.845
 2945SOL     OW 9733   4.710   2.655   1.809
 2945SOL    HW1 9734   4.653   2.730   1.778
 2945SOL    HW2 9735   4.782   2.638   1.741
 2946SOL     OW 9736   2.143   4.531   6.235
 2946SOL    HW1 9737   2.174   4.521   6.329
 2946SOL    HW2 9738   2.044   4.519   6.230
 2947SOL     OW 9739   0.801   5.654   1.176
 2947SOL    HW1 9740   0.736   5.595   1.127
 2947SOL    HW2 9741   0.761   5.745   1.188
 2948SOL     OW 9742   0.010   4.545   4.491
 2948SOL    HW1 9743   0.049   4.596   4.568
 2948SOL    HW2 9744   0.065   4.464   4.474
 2949SOL     OW 9745   0.513   5.332   0.309
 2949SOL    HW1 9746   0.518   5.232   0.315
 2949SOL    HW2 9747   0.475   5.359   0.221
 2950SOL     OW 9748   6.050   6.169   4.294
 2950SOL    HW1 9749   6.123   6.206   4.237
 2950SOL    HW2 9750   6.082   6.087   4.341
 2951SOL     OW 9751   5.430   1.924   2.236
 2951SOL    HW1 9752   5.421   1.825   2.225
 2951SOL    HW2 9753   5.468   1.945   2.326
 2952SOL     OW 9754   0.102   6.194   5.729
 2952SOL    HW1 9755   0.065   6.124   5.791
 2952SOL    HW2 9756   0.043   6.202   5.649
 2953SOL     OW 9757   6.530   4.266   3.484
 2953SOL    HW1 9758   6.620   4.309   3.483
 2953SOL    HW2 9759   6.500   4.255   3.578
 2954SOL     OW 9760   0.156   4.472   0.846
 2954SOL    HW1 9761   0.178   4.380   0.815
 2954SOL    HW2 9762   0.099   4.517   0.777
 2955SOL     OW 9763   0.376   4.050   0.873
 2955SOL    HW1 9764   0.408   4.029   0.965
 2955SOL    HW2 9765   0.365   3.964   0.822
 2956SOL     OW 9766   6.419   5.471   3.457
 2956SOL    HW1 9767   6.473   5.434   3.382
 2956SOL    HW2 9768   6.384   5.561   3.432
 2957SOL     OW 9769   5.072   4.624   1.425
 2957SOL    HW1 9770   5.170   4.602   1.432
 2957SOL    HW2 9771   5.018   4.541   1.439
 2958SOL     OW 9772   2.025   4.515   3.014
 2958SOL    HW1 9773   2.089   4.451   3.055
 2958SOL    HW2 9774   2.002   4.484   2.921
 2959SOL     OW 9775   5.681   3.066   2.164
 2959SOL    HW1 9776   5.680   3.004   2.085
 2959SOL    HW2 9777   5.602   3.127   2.158
 2960SOL     OW 9778   3.226   0.044   6.672
 2960SOL    HW1 9779   3.273   0.060   6.586
 2960SOL    HW2 9780   3.152   0.111   6.683
 2961SOL     OW 9781   6.023   4.865   3.236
 2961SOL    HW1 9782   6.096   4.900   3.295
 2961SOL    HW2 9783   6.064   4.812   3.161
 2962SOL     OW 9784   4.764   6.206   3.514
 2962SOL    HW1 9785   4.818   6.286   3.487
 2962SOL    HW2 9786   4.668   6.222   3.492
 2963SOL     OW 9787   0.792   0.999   0.070
 2963SOL    HW1 9788   0.820   1.064   0.140
 2963SOL    HW2 9789   0.693   0.999   0.062
 2964SOL     OW 9790   0.597   1.806   5.831
 2964SOL    HW1 9791   0.545   1.721   5.823
 2964SOL    HW2 9792   0.612   1.845   5.741
 2965SOL     OW 9793   0.537   1.074   4.750
 2965SOL    HW1 9794   0.616   1.014   4.737
 2965SOL    HW2 9795   0.505   1.106   4.661
 2966SOL     OW 9796   4.917   5.428   3.385
 2966SOL    HW1 9797   4.835   5.470   3.425
 2966SOL    HW2 9798   4.892   5.340   3.344
 2967SOL     OW 9799   6.073   0.771   5.642
 2967SOL    HW1 9800   6.069   0.717   5.558
 2967SOL    HW2 9801   6.018   0.728   5.713
 2968SOL     OW 9802   0.782   2.255   0.450
 2968SOL    HW1 9803   0.773   2.308   0.366
 2968SOL    HW2 9804   0.734   2.168   0.440
 2969SOL     OW 9805   4.491   2.568   3.984
 2969SOL    HW1 9806   4.406   2.604   4.024
 2969SOL    HW2 9807   4.560   2.640   3.985
 2970SOL     OW 9808   2.556   3.270   5.320
 2970SOL    HW1 9809   2.537   3.187   5.268
 2970SOL    HW2 9810   2.489   3.340   5.297
 2971SOL     OW 9811   5.188   3.680   0.572
 2971SOL    HW1 9812   5.122   3.744   0.533
 2971SOL    HW2 9813   5.149   3.588   0.572
 2972SOL     OW 9814   6.073   5.221   6.560
 2972SOL    HW1 9815   6.094   5.315   6.587
 2972SOL    HW2 9816   6.009   5.223   6.483
 2973SOL     OW 9817   5.056   6.892   1.991
 2973SOL    HW1 9818   5.004   6.815   1.954
 2973SOL    HW2 9819   5.141   6.902   1.939
 2974SOL     OW 9820   7.001   4.475   3.589
 2974SOL    HW1 9821   0.065   4.480   3.649
 2974SOL    HW2 9822   7.014   4.535   3.510
 2975SOL     OW 9823   4.963   4.266   4.053
 2975SOL    HW1 9824   4.893   4.210   4.009
 2975SOL    HW2 9825   4.924   4.310   4.134
 2976SOL     OW 9826   5.145   1.831   2.632
 2976SOL    HW1 9827   5.200   1.894   2.576
 2976SOL    HW2 9828   5.122   1.875   2.719
 2977SOL     OW 9829   0.637   0.627   2.464
 2977SOL    HW1 9830   0.650   0.535   2.427
 2977SOL    HW2 9831   0.684   0.693   2.406
 2978SOL     OW 9832   3.730   4.770   0.361
 2978SOL    HW1 9833   3.696   4.716   0.438
 2978SOL    HW2 9834   3.752   4.863   0.393
 2979SOL     OW 9835   3.167   1.648   4.229
 2979SOL    HW1 9836   3.151   1.566   4.283
 2979SOL    HW2 9837   3.125   1.727   4.274
 2980SOL     OW 9838   1.956   5.578   5.734
 2980SOL    HW1 9839   1.946   5.535   5.824
 2980SOL    HW2 9840   2.051   5.601   5.717
 2981SOL     OW 9841   1.779   1.041   0.314
 2981SOL    HW1 9842   1.712   1.113   0.333
 2981SOL    HW2 9843   1.739   0.972   0.254
 2982SOL     OW 9844   2.536   6.190   1.271
 2982SOL    HW1 9845   2.566   6.132   1.347
 2982SOL    HW2 9846   2.593   6.172   1.191
 2983SOL     OW 9847   6.645   2.323   2.291
 2983SOL    HW1 9848   6.571   2.383   2.322
 2983SOL    HW2 9849   6.680   2.356   2.204
 2984SOL     OW 9850   5.557   5.237   6.918
 2984SOL    HW1 9851   5.549   5.214   7.015
 2984SOL    HW2 9852   5.522   5.162   6.863
 2985SOL     OW 9853   1.705   1.352   4.575
 2985SOL    HW1 9854   1.802   1.377   4.578
 2985SOL    HW2 9855   1.695   1.255   4.596
 2986SOL     OW 9856   3.439   3.928   2.631
 2986SOL    HW1 9857   3.486   3.849   2.592
 2986SOL    HW2 9858   3.505   3.985   2.680
 2987SOL     OW 9859   1.478   1.055   4.448
 2987SOL    HW1 9860   1.389   1.052   4.493
 2987SOL    HW2 9861   1.549   1.026   4.513
 2988SOL     OW 9862   1.859   6.698   2.536
 2988SOL    HW1 9863   1.800   6.647   2.598
 2988SOL    HW2 9864   1.806   6.727   2.457
 2989SOL     OW 9865   5.361   4.685   5.530
 2989SOL    HW1 9866   5.428   4.720   5.464
 2989SOL    HW2 9867   5.273   4.673   5.484
 2990SOL     OW 9868   4.515   2.106   4.364
 2990SOL    HW1 9869   4.434   2.049   4.348
 2990SOL    HW2 9870   4.486   2.201   4.381
 2991SOL     OW 9871   6.314   3.023   5.846
 2991SOL    HW1 9872   6.322   3.040   5.944
 2991SOL    HW2 9873   6.392   3.065   5.798
 2992SOL     OW 9874   1.468   5.090   4.130
 2992SOL    HW1 9875   1.456   5.130   4.221
 2992SOL    HW2 9876   1.391   5.118   4.071
 2993SOL     OW 9877   0.676   5.038   1.336
 2993SOL    HW1 9878   0.592   5.092   1.347
 2993SOL    HW2 9879   0.667   4.980   1.254
 2994SOL     OW 9880   4.008   6.297   0.419
 2994SOL    HW1 9881   3.926   6.350   0.397
 2994SOL    HW2 9882   4.065   6.289   0.337
 2995SOL     OW 9883   3.705   0.740   6.726
 2995SOL    HW1 9884   3.647   0.659   6.733
 2995SOL    HW2 9885   3.793   0.722   6.771
 2996SOL     OW 9886   0.401   1.677   5.469
 2996SOL    HW1 9887   0.416   1.629   5.382
 2996SOL    HW2 9888   0.307   1.662   5.499
 2997SOL     OW 9889   4.886   0.336   3.252
 2997SOL    HW1 9890   4.795   0.307   3.220
 2997SOL    HW2 9891   4.952   0.327   3.177
 2998SOL     OW 9892   4.720   6.731   3.248
 2998SOL    HW1 9893   4.621   6.743   3.237
 2998SOL    HW2 9894   4.767   6.778   3.174
 2999SOL     OW 9895   2.396   5.109   5.401
 2999SOL    HW1 9896   2.408   5.030   5.461
 2999SOL    HW2 9897   2.486   5.146   5.376
 3000SOL     OW 9898   3.148   4.037   6.297
 3000SOL    HW1 9899   3.063   4.014   6.250
 3000SOL    HW2 9900   3.211   3.959   6.291
 3001SOL     OW 9901   6.136   1.461   6.692
 3001SOL    HW1 9902   6.219   1.430   6.739
 3001SOL    HW2 9903   6.146   1.445   6.594
 3002SOL     OW 9904   3.251   2.410   0.316
 3002SOL    HW1 9905   3.239   2.315   0.288
 3002SOL    HW2 9906   3.290   2.413   0.408
 3003SOL     OW 9907   1.126   6.615   0.827
 3003SOL    HW1 9908   1.121   6.626   0.927
 3003SOL    HW2 9909   1.053   6.667   0.784
 3004SOL     OW 9910   1.195   4.638   2.786
 3004SOL    HW1 9911   1.265   4.581   2.743
 3004SOL    HW2 9912   1.119   4.580   2.816
 3005SOL     OW 9913   1.889   2.841   0.085
 3005SOL    HW1 9914   1.809   2.900   0.080
 3005SOL    HW2 9915   1.889   2.777   0.008
 3006SOL     OW 9916   5.444   2.026   4.965
 3006SOL    HW1 9917   5.526   2.013   5.019
 3006SOL    HW2 9918   5.400   1.937   4.949
 3007SOL     OW 9919   4.928   4.778   0.901
 3007SOL    HW1 9920   4.911   4.872   0.871
 3007SOL    HW2 9921   4.936   4.775   1.000
 3008SOL     OW 9922   2.794   2.131   6.537
 3008SOL    HW1 9923   2.869   2.187   6.501
 3008SOL    HW2 9924   2.718   2.190   6.565
 3009SOL     OW 9925   6.777   3.045   2.733
 3009SOL    HW1 9926   6.846   3.107   2.696
 3009SOL    HW2 9927   6.733   3.087   2.813
 3010SOL     OW 9928   2.698   5.571   3.952
 3010SOL    HW1 9929   2.662   5.664   3.943
 3010SOL    HW2 9930   2.791   5.575   3.989
 3011SOL     OW 9931   6.187   1.085   1.867
 3011SOL    HW1 9932   6.208   1.095   1.769
 3011SOL    HW2 9933   6.104   1.030   1.877
 3012SOL     OW 9934   2.294   3.163   0.009
 3012SOL    HW1 9935   2.326   3.146   6.932
 3012SOL    HW2 9936   2.372   3.169   0.071
 3013SOL     OW 9937   5.499   5.153   3.674
 3013SOL    HW1 9938   5.509   5.082   3.603
 3013SOL    HW2 9939   5.503   5.243   3.631
 3014SOL     OW 9940   4.851   2.194   5.759
 3014SOL    HW1 9941   4.875   2.199   5.662
 3014SOL    HW2 9942   4.912   2.130   5.805
 3015SOL     OW 9943   1.765   1.750   0.238
 3015SOL    HW1 9944   1.688   1.800   0.278
 3015SOL    HW2 9945   1.794   1.677   0.300
 3016SOL     OW 9946   3.325   6.687   4.244
 3016SOL    HW1 9947   3.297   6.645   4.330
 3016SOL    HW2 9948   3.372   6.773   4.262
 3017SOL     OW 9949   5.989   5.625   2.505
 3017SOL    HW1 9950   5.905   5.571   2.490
 3017SOL    HW2 9951   6.060   5.565   2.541
 3018SOL     OW 9952   3.065   0.360   6.463
 3018SOL    HW1 9953   3.109   0.297   6.399
 3018SOL    HW2 9954   3.005   0.422   6.412
 3019SOL     OW 9955   0.282   0.300   6.568
 3019SOL    HW1 9956   0.205   0.250   6.608
 3019SOL    HW2 9957   0.367   0.267   6.610
 3020SOL     OW 9958   3.886   3.174   0.817
 3020SOL    HW1 9959   3.885   3.215   0.726
 3020SOL    HW2 9960   3.936   3.234   0.879
 3021SOL     OW 9961   2.861   0.398   4.771
 3021SOL    HW1 9962   2.848   0.321   4.833
 3021SOL    HW2 9963   2.843   0.484   4.819
 3022SOL     OW 9964   4.513   5.059   4.624
 3022SOL    HW1 9965   4.580   4.986   4.632
 3022SOL    HW2 9966   4.432   5.036   4.678
 3023SOL     OW 9967   4.169   6.850   3.082
 3023SOL    HW1 9968   4.260   6.867   3.043
 3023SOL    HW2 9969   4.177   6.782   3.155
 3024SOL     OW 9970   5.869   6.263   4.844
 3024SOL    HW1 9971   5.832   6.335   4.786
 3024SOL    HW2 9972   5.957   6.232   4.807
 3025SOL     OW 9973   4.416   5.910   1.647
 3025SOL    HW1 9974   4.495   5.969   1.663
 3025SOL    HW2 9975   4.368   5.940   1.565
 3026SOL     OW 9976   6.970   1.529   6.420
 3026SOL    HW1 9977   6.928   1.466   6.485
 3026SOL    HW2 9978   0.052   1.512   6.416
 3027SOL     OW 9979   3.452   2.052   2.462
 3027SOL    HW1 9980   3.487   2.086   2.375
 3027SOL    HW2 9981   3.386   1.979   2.446
 3028SOL     OW 9982   1.180   3.949   5.688
 3028SOL    HW1 9983   1.237   3.930   5.768
 3028SOL    HW2 9984   1.237   3.950   5.606
 3029SOL     OW 9985   1.232   3.147   4.160
 3029SOL    HW1 9986   1.149   3.093   4.175
 3029SOL    HW2 9987   1.273   3.121   4.072
 3030SOL     OW 9988   1.747   4.098   0.932
 3030SOL    HW1 9989   1.727   4.196   0.930
 3030SOL    HW2 9990   1.690   4.051   0.865
 3031SOL     OW 9991   0.328   4.718   1.072
 3031SOL    HW1 9992   0.364   4.765   1.153
 3031SOL    HW2 9993   0.348   4.620   1.080
 3032SOL     OW 9994   2.108   6.747   1.505
 3032SOL    HW1 9995   2.085   6.843   1.517
 3032SOL    HW2 9996   2.160   6.735   1.420
 3033SOL     OW 9997   6.050   0.635   2.259
 3033SOL    HW1 9998   5.997   0.717   2.282
 3033SOL    HW2 9999   6.105   0.653   2.177
 3034SOL     OW10000   0.678   6.374   3.273
 3034SOL    HW110001   0.755   6.329   3.228
 3034SOL    HW210002   0.706   6.466   3.302
 3035SOL     OW10003   0.948   3.235   6.080
 3035SOL    HW110004   0.870   3.292   6.053
 3035SOL    HW210005   1.025   3.294   6.105
 3036SOL     OW10006   1.410   1.787   5.969
 3036SOL    HW110007   1.441   1.846   5.895
 3036SOL    HW210008   1.449   1.818   6.055
 3037SOL     OW10009   6.584   4.881   5.622
 3037SOL    HW110010   6.634   4.819   5.562
 3037SOL    HW210011   6.486   4.870   5.607
 3038SOL     OW10012   5.114   4.682   5.465
 3038SOL    HW110013   5.110   4.680   5.365
 3038SOL    HW210014   5.037   4.629   5.503
 3039SOL     OW10015   0.434   2.925   0.648
 3039SOL    HW110016   0.448   2.907   0.746
 3039SOL    HW210017   0.487   2.859   0.595
 3040SOL     OW10018   3.407   5.041   5.456
 3040SOL    HW110019   3.395   4.949   5.494
 3040SOL    HW210020   3.454   5.035   5.368
 3041SOL     OW10021   1.702   4.614   5.636
 3041SOL    HW110022   1.797   4.582   5.639
 3041SOL    HW210023   1.641   4.535   5.633
 3042SOL     OW10024   6.045   6.322   3.063
 3042SOL    HW110025   5.960   6.346   3.110
 3042SOL    HW210026   6.119   6.381   3.095
 3043SOL     OW10027   2.946   3.891   1.627
 3043SOL    HW110028   2.957   3.791   1.628
 3043SOL    HW210029   3.036   3.934   1.622
 3044SOL     OW10030   3.328   5.958   5.587
 3044SOL    HW110031   3.269   5.905   5.526
 3044SOL    HW210032   3.399   6.005   5.533
 3045SOL     OW10033   4.931   6.628   2.866
 3045SOL    HW110034   5.025   6.614   2.836
 3045SOL    HW210035   4.877   6.546   2.846
 3046SOL     OW10036   3.500   0.173   6.895
 3046SOL    HW110037   3.452   0.207   6.976
 3046SOL    HW210038   3.436   0.123   6.836
 3047SOL     OW10039   5.897   0.367   1.303
 3047SOL    HW110040   5.892   0.438   1.234
 3047SOL    HW210041   5.819   0.375   1.365
 3048SOL     OW10042   4.799   2.358   0.471
 3048SOL    HW110043   4.762   2.404   0.552
 3048SOL    HW210044   4.896   2.338   0.487
 3049SOL     OW10045   1.716   6.984   3.302
 3049SOL    HW110046   1.774   0.030   3.354
 3049SOL    HW210047   1.681   0.014   3.221
 3050SOL     OW10048   3.341   1.912   1.747
 3050SOL    HW110049   3.303   1.923   1.655
 3050SOL    HW210050   3.342   2.000   1.794
 3051SOL     OW10051   2.119   6.674   6.529
 3051SOL    HW110052   2.071   6.751   6.570
 3051SOL    HW210053   2.196   6.708   6.474
 3052SOL     OW10054   5.052   5.679   2.252
 3052SOL    HW110055   5.053   5.770   2.294
 3052SOL    HW210056   5.026   5.687   2.156
 3053SOL     OW10057   6.942   3.335   1.381
 3053SOL    HW110058   6.996   3.283   1.446
 3053SOL    HW210059   6.906   3.418   1.425
 3054SOL     OW10060   6.039   2.116   1.752
 3054SOL    HW110061   6.111   2.184   1.733
 3054SOL    HW210062   6.082   2.028   1.772
 3055SOL     OW10063   5.057   0.346   5.156
 3055SOL    HW110064   4.974   0.302   5.122
 3055SOL    HW210065   5.131   0.279   5.159
 3056SOL     OW10066   6.645   1.018   5.743
 3056SOL    HW110067   6.667   0.960   5.664
 3056SOL    HW210068   6.564   1.073   5.722
 3057SOL     OW10069   4.445   5.152   4.193
 3057SOL    HW110070   4.384   5.085   4.235
 3057SOL    HW210071   4.461   5.228   4.256
 3058SOL     OW10072   6.610   4.272   0.818
 3058SOL    HW110073   6.656   4.346   0.867
 3058SOL    HW210074   6.518   4.259   0.856
 3059SOL     OW10075   2.781   1.311   3.582
 3059SOL    HW110076   2.719   1.352   3.649
 3059SOL    HW210077   2.741   1.227   3.547
 3060SOL     OW10078   2.332   5.410   0.706
 3060SOL    HW110079   2.304   5.420   0.802
 3060SOL    HW210080   2.346   5.500   0.666
 3061SOL     OW10081   6.093   5.500   5.506
 3061SOL    HW110082   6.116   5.596   5.523
 3061SOL    HW210083   6.013   5.475   5.559
 3062SOL     OW10084   1.646   6.729   0.559
 3062SOL    HW110085   1.730   6.697   0.516
 3062SOL    HW210086   1.668   6.788   0.637
 3063SOL     OW10087   2.172   4.642   1.394
 3063SOL    HW110088   2.111   4.566   1.373
 3063SOL    HW210089   2.178   4.703   1.315
 3064SOL     OW10090   5.147   3.252   0.416
 3064SOL    HW110091   5.169   3.159   0.388
 3064SOL    HW210092   5.208   3.317   0.371
 3065SOL     OW10093   1.201   2.327   6.205
 3065SOL    HW110094   1.220   2.416   6.164
 3065SOL    HW210095   1.106   2.324   6.235
 3066SOL     OW10096   5.370   4.930   0.484
 3066SOL    HW110097   5.292   4.935   0.421
 3066SOL    HW210098   5.455   4.928   0.431
 3067SOL     OW10099   3.048   0.928   6.670
 3067SOL    HW110100   2.979   0.920   6.598
 3067SOL    HW210101   3.108   1.006   6.649
 3068SOL     OW10102   6.994   6.211   1.446
 3068SOL    HW110103   0.056   6.152   1.465
 3068SOL    HW210104   6.927   6.203   1.520
 3069SOL     OW10105   6.633   6.373   2.686
 3069SOL    HW110106   6.718   6.350   2.732
 3069SOL    HW210107   6.586   6.446   2.736
 3070SOL     OW10108   2.593   0.783   6.867
 3070SOL    HW110109   2.597   0.874   6.825
 3070SOL    HW210110   2.500   0.748   6.861
 3071SOL     OW10111   6.627   6.030   3.860
 3071SOL    HW110112   6.587   5.998   3.946
 3071SOL    HW210113   6.718   6.069   3.878
 3072SOL     OW10114   2.006   5.409   5.957
 3072SOL    HW110115   2.069   5.424   6.033
 3072SOL    HW210116   2.017   5.315   5.924
 3073SOL     OW10117   6.758   3.772   3.084
 3073SOL    HW110118   6.854   3.792   3.062
 3073SOL    HW210119   6.710   3.856   3.107
 3074SOL     OW10120   0.110   3.712   0.935
 3074SOL    HW110121   0.047   3.790   0.945
 3074SOL    HW210122   0.193   3.743   0.887
 3075SOL     OW10123   2.519   5.631   3.253
 3075SOL    HW110124   2.598   5.573   3.233
 3075SOL    HW210125   2.447   5.612   3.186
 3076SOL     OW10126   6.621   1.995   3.774
 3076SOL    HW110127   6.690   1.988   3.703
 3076SOL    HW210128   6.588   2.089   3.780
 3077SOL     OW10129   5.563   4.494   1.935
 3077SOL    HW110130   5.613   4.408   1.925
 3077SOL    HW210131   5.626   4.564   1.969
 3078SOL     OW10132   6.950   3.279   2.662
 3078SOL    HW110133   0.011   3.324   2.709
 3078SOL    HW210134   6.865   3.322   2.690
 3079SOL     OW10135   2.904   2.297   2.929
 3079SOL    HW110136   2.971   2.305   2.855
 3079SOL    HW210137   2.844   2.220   2.912
 3080SOL     OW10138   5.930   4.902   2.088
 3080SOL    HW110139   5.973   4.945   2.009
 3080SOL    HW210140   5.976   4.932   2.171
 3081SOL     OW10141   1.064   4.475   5.697
 3081SOL    HW110142   1.119   4.557   5.678
 3081SOL    HW210143   0.989   4.469   5.631
 3082SOL     OW10144   1.612   5.667   3.782
 3082SOL    HW110145   1.529   5.611   3.792
 3082SOL    HW210146   1.681   5.614   3.732
 3083SOL     OW10147   2.922   6.301   3.510
 3083SOL    HW110148   2.873   6.224   3.469
 3083SOL    HW210149   2.935   6.372   3.441
 3084SOL     OW10150   6.393   4.567   3.483
 3084SOL    HW110151   6.466   4.540   3.420
 3084SOL    HW210152   6.308   4.579   3.432
 3085SOL     OW10153   6.240   4.993   0.321
 3085SOL    HW110154   6.200   4.916   0.271
 3085SOL    HW210155   6.271   5.062   0.255
 3086SOL     OW10156   5.072   1.312   6.969
 3086SOL    HW110157   5.167   1.306   6.938
 3086SOL    HW210158   5.059   1.252   0.032
 3087SOL     OW10159   2.567   6.741   3.576
 3087SOL    HW110160   2.581   6.645   3.550
 3087SOL    HW210161   2.499   6.746   3.649
 3088SOL     OW10162   1.784   3.409   4.965
 3088SOL    HW110163   1.834   3.460   5.035
 3088SOL    HW210164   1.697   3.455   4.946
 3089SOL     OW10165   4.158   2.170   4.620
 3089SOL    HW110166   4.255   2.189   4.608
 3089SOL    HW210167   4.131   2.190   4.714
 3090SOL     OW10168   2.704   1.065   2.001
 3090SOL    HW110169   2.643   1.138   2.032
 3090SOL    HW210170   2.799   1.095   2.009
 3091SOL     OW10171   1.176   1.267   0.550
 3091SOL    HW110172   1.160   1.270   0.649
 3091SOL    HW210173   1.165   1.172   0.518
 3092SOL     OW10174   5.555   0.301   0.756
 3092SOL    HW110175   5.480   0.295   0.822
 3092SOL    HW210176   5.532   0.369   0.686
 3093SOL     OW10177   5.522   5.616   6.350
 3093SOL    HW110178   5.587   5.559   6.400
 3093SOL    HW210179   5.440   5.563   6.329
 3094SOL     OW10180   2.631   0.075   4.103
 3094SOL    HW110181   2.570   7.012   4.097
 3094SOL    HW210182   2.608   0.129   4.185
 3095SOL     OW10183   2.376   3.608   5.446
 3095SOL    HW110184   2.383   3.580   5.542
 3095SOL    HW210185   2.433   3.689   5.431
 3096SOL     OW10186   0.725   5.084   5.735
 3096SOL    HW110187   0.797   5.016   5.729
 3096SOL    HW210188   0.730   5.131   5.823
 3097SOL     OW10189   5.709   3.515   6.952
 3097SOL    HW110190   5.612   3.535   6.936
 3097SOL    HW210191   5.718   3.421   6.987
 3098SOL     OW10192   1.562   3.281   1.411
 3098SOL    HW110193   1.500   3.205   1.391
 3098SOL    HW210194   1.642   3.276   1.350
 3099SOL     OW10195   1.007   6.129   3.989
 3099SOL    HW110196   0.937   6.101   4.055
 3099SOL    HW210197   0.978   6.213   3.943
 3100SOL     OW10198   6.522   6.311   3.844
 3100SOL    HW110199   6.556   6.218   3.860
 3100SOL    HW210200   6.551   6.343   3.754
 3101SOL     OW10201   5.232   5.956   6.147
 3101SOL    HW110202   5.315   5.940   6.200
 3101SOL    HW210203   5.157   5.902   6.184
 3102SOL     OW10204   6.549   0.106   1.128
 3102SOL    HW110205   6.627   0.082   1.070
 3102SOL    HW210206   6.482   0.032   1.125
 3103SOL     OW10207   4.096   1.187   1.255
 3103SOL    HW110208   4.160   1.225   1.322
 3103SOL    HW210209   4.144   1.122   1.196
 3104SOL     OW10210   4.138   0.602   6.146
 3104SOL    HW110211   4.215   0.541   6.129
 3104SOL    HW210212   4.080   0.563   6.217
 3105SOL     OW10213   5.334   3.444   1.710
 3105SOL    HW110214   5.396   3.461   1.633
 3105SOL    HW210215   5.341   3.348   1.737
 3106SOL     OW10216   4.844   6.510   5.074
 3106SOL    HW110217   4.755   6.549   5.098
 3106SOL    HW210218   4.896   6.575   5.020
 3107SOL     OW10219   3.677   0.916   4.768
 3107SOL    HW110220   3.724   0.904   4.855
 3107SOL    HW210221   3.685   1.012   4.738
 3108SOL     OW10222   2.101   5.662   4.795
 3108SOL    HW110223   2.096   5.744   4.851
 3108SOL    HW210224   2.058   5.679   4.706
 3109SOL     OW10225   5.909   0.265   3.944
 3109SOL    HW110226   5.965   0.340   3.908
 3109SOL    HW210227   5.948   0.178   3.915
 3110SOL     OW10228   1.196   4.284   2.931
 3110SOL    HW110229   1.163   4.195   2.963
 3110SOL    HW210230   1.156   4.305   2.843
 3111SOL     OW10231   6.991   5.171   3.422
 3111SOL    HW110232   6.946   5.188   3.334
 3111SOL    HW210233   6.977   5.075   3.448
 3112SOL     OW10234   3.281   3.178   0.731
 3112SOL    HW110235   3.231   3.095   0.709
 3112SOL    HW210236   3.343   3.201   0.656
 3113SOL     OW10237   3.321   5.745   2.656
 3113SOL    HW110238   3.263   5.716   2.580
 3113SOL    HW210239   3.359   5.835   2.637
 3114SOL     OW10240   3.512   1.831   0.499
 3114SOL    HW110241   3.584   1.807   0.433
 3114SOL    HW210242   3.433   1.867   0.450
 3115SOL     OW10243   4.101   4.786   6.365
 3115SOL    HW110244   4.175   4.738   6.413
 3115SOL    HW210245   4.141   4.852   6.301
 3116SOL     OW10246   6.780   2.382   6.947
 3116SOL    HW110247   6.697   2.428   6.915
 3116SOL    HW210248   6.803   2.308   6.884
 3117SOL     OW10249   4.473   3.797   5.578
 3117SOL    HW110250   4.439   3.810   5.484
 3117SOL    HW210251   4.396   3.784   5.640
 3118SOL     OW10252   0.641   5.431   2.348
 3118SOL    HW110253   0.679   5.373   2.420
 3118SOL    HW210254   0.665   5.394   2.259
 3119SOL     OW10255   2.386   2.339   0.038
 3119SOL    HW110256   2.464   2.400   0.023
 3119SOL    HW210257   2.383   2.312   0.134
 3120SOL     OW10258   2.413   0.234   5.633
 3120SOL    HW110259   2.363   0.281   5.561
 3120SOL    HW210260   2.438   0.142   5.601
 3121SOL     OW10261   6.007   1.575   4.812
 3121SOL    HW110262   6.014   1.488   4.762
 3121SOL    HW210263   6.015   1.651   4.747
 3122SOL     OW10264   5.029   5.144   5.206
 3122SOL    HW110265   5.117   5.109   5.171
 3122SOL    HW210266   5.044   5.188   5.294
 3123SOL     OW10267   1.886   1.439   2.621
 3123SOL    HW110268   1.846   1.448   2.530
 3123SOL    HW210269   1.943   1.518   2.641
 3124SOL     OW10270   4.845   0.339   4.345
 3124SOL    HW110271   4.856   0.319   4.247
 3124SOL    HW210272   4.906   0.414   4.371
 3125SOL     OW10273   1.539   3.255   5.126
 3125SOL    HW110274   1.563   3.328   5.062
 3125SOL    HW210275   1.501   3.296   5.209
 3126SOL     OW10276   5.474   4.573   5.173
 3126SOL    HW110277   5.499   4.516   5.095
 3126SOL    HW210278   5.556   4.604   5.220
 3127SOL     OW10279   2.235   1.728   6.727
 3127SOL    HW110280   2.325   1.760   6.699
 3127SOL    HW210281   2.190   1.799   6.782
 3128SOL     OW10282   3.426   0.943   0.240
 3128SOL    HW110283   3.434   1.005   0.317
 3128SOL    HW210284   3.517   0.927   0.200
 3129SOL     OW10285   5.836   3.757   0.719
 3129SOL    HW110286   5.894   3.705   0.781
 3129SOL    HW210287   5.835   3.712   0.629
 3130SOL     OW10288   2.043   4.442   1.877
 3130SOL    HW110289   2.043   4.520   1.814
 3130SOL    HW210290   1.956   4.393   1.868
 3131SOL     OW10291   1.038   3.836   2.095
 3131SOL    HW110292   1.127   3.874   2.069
 3131SOL    HW210293   1.023   3.851   2.192
 3132SOL     OW10294   5.139   5.140   6.543
 3132SOL    HW110295   5.060   5.195   6.572
 3132SOL    HW210296   5.215   5.156   6.606
 3133SOL     OW10297   3.363   0.797   3.554
 3133SOL    HW110298   3.275   0.838   3.576
 3133SOL    HW210299   3.363   0.765   3.459
 3134SOL     OW10300   4.342   4.867   0.715
 3134SOL    HW110301   4.352   4.946   0.775
 3134SOL    HW210302   4.432   4.838   0.683
 3135SOL     OW10303   4.652   0.405   5.471
 3135SOL    HW110304   4.652   0.380   5.374
 3135SOL    HW210305   4.586   0.349   5.520
 3136SOL     OW10306   5.552   6.932   2.611
 3136SOL    HW110307   5.590   6.905   2.699
 3136SOL    HW210308   5.551   0.015   2.603
 3137SOL     OW10309   6.893   6.488   3.522
 3137SOL    HW110310   6.853   6.398   3.511
 3137SOL    HW210311   6.826   6.549   3.566
 3138SOL     OW10312   5.996   5.726   4.006
 3138SOL    HW110313   6.058   5.735   3.928
 3138SOL    HW210314   6.032   5.660   4.071
 3139SOL     OW10315   3.381   5.239   0.786
 3139SOL    HW110316   3.342   5.264   0.697
 3139SOL    HW210317   3.349   5.304   0.856
 3140SOL     OW10318   6.083   6.093   5.931
 3140SOL    HW110319   6.122   6.096   5.839
 3140SOL    HW210320   6.015   6.166   5.941
 3141SOL     OW10321   0.635   0.258   6.445
 3141SOL    HW110322   0.562   0.305   6.396
 3141SOL    HW210323   0.723   0.300   6.422
 3142SOL     OW10324   3.216   0.021   2.735
 3142SOL    HW110325   3.201   0.090   2.665
 3142SOL    HW210326   3.314   0.011   2.753
 3143SOL     OW10327   6.034   1.490   6.989
 3143SOL    HW110328   6.113   1.450   6.942
 3143SOL    HW210329   5.958   1.500   6.924
 3144SOL     OW10330   4.533   3.865   0.748
 3144SOL    HW110331   4.471   3.818   0.811
 3144SOL    HW210332   4.607   3.907   0.800
 3145SOL     OW10333   2.053   6.426   2.334
 3145SOL    HW110334   2.150   6.448   2.337
 3145SOL    HW210335   2.005   6.493   2.278
 3146SOL     OW10336   0.708   1.383   4.380
 3146SOL    HW110337   0.799   1.408   4.414
 3146SOL    HW210338   0.691   1.432   4.294
 3147SOL     OW10339   3.298   5.226   0.157
 3147SOL    HW110340   3.275   5.160   0.086
 3147SOL    HW210341   3.339   5.307   0.115
 3148SOL     OW10342   6.922   6.942   3.999
 3148SOL    HW110343   6.936   6.852   3.957
 3148SOL    HW210344   7.005   6.970   4.047
 3149SOL     OW10345   2.814   0.965   6.483
 3149SOL    HW110346   2.831   0.871   6.454
 3149SOL    HW210347   2.722   0.972   6.521
 3150SOL     OW10348   0.009   5.913   5.188
 3150SOL    HW110349   0.104   5.922   5.157
 3150SOL    HW210350   6.973   5.866   5.117
 3151SOL     OW10351   0.476   1.217   5.317
 3151SOL    HW110352   0.508   1.139   5.263
 3151SOL    HW210353   0.534   1.227   5.398
 3152SOL     OW10354   0.954   4.891   0.341
 3152SOL    HW110355   0.979   4.838   0.260
 3152SOL    HW210356   0.855   4.883   0.357
 3153SOL     OW10357   6.150   5.659   0.734
 3153SOL    HW110358   6.102   5.649   0.647
 3153SOL    HW210359   6.236   5.608   0.732
 3154SOL     OW10360   6.871   2.099   0.059
 3154SOL    HW110361   6.846   2.188   0.096
 3154SOL    HW210362   6.789   2.052   0.027
 3155SOL     OW10363   6.627   5.216   0.182
 3155SOL    HW110364   6.528   5.226   0.181
 3155SOL    HW210365   6.653   5.140   0.242
 3156SOL     OW10366   2.839   3.461   1.959
 3156SOL    HW110367   2.789   3.376   1.977
 3156SOL    HW210368   2.937   3.443   1.964
 3157SOL     OW10369   2.115   1.784   5.772
 3157SOL    HW110370   2.176   1.832   5.709
 3157SOL    HW210371   2.082   1.847   5.841
 3158SOL     OW10372   2.637   1.238   3.971
 3158SOL    HW110373   2.594   1.149   3.958
 3158SOL    HW210374   2.737   1.228   3.968
 3159SOL     OW10375   5.581   0.291   6.341
 3159SOL    HW110376   5.576   0.376   6.394
 3159SOL    HW210377   5.641   0.226   6.387
 3160SOL     OW10378   1.411   5.763   5.956
 3160SOL    HW110379   1.475   5.833   5.923
 3160SOL    HW210380   1.318   5.792   5.937
 3161SOL     OW10381   2.508   2.571   2.856
 3161SOL    HW110382   2.578   2.528   2.912
 3161SOL    HW210383   2.518   2.542   2.761
 3162SOL     OW10384   1.391   5.981   1.810
 3162SOL    HW110385   1.472   6.014   1.763
 3162SOL    HW210386   1.309   6.016   1.765
 3163SOL     OW10387   4.593   3.920   6.439
 3163SOL    HW110388   4.626   3.985   6.371
 3163SOL    HW210389   4.520   3.865   6.400
 3164SOL     OW10390   4.056   5.631   0.928
 3164SOL    HW110391   4.010   5.715   0.900
 3164SOL    HW210392   3.991   5.573   0.979
 3165SOL     OW10393   1.966   6.526   1.619
 3165SOL    HW110394   2.009   6.439   1.596
 3165SOL    HW210395   2.020   6.601   1.580
 3166SOL     OW10396   4.188   1.882   3.436
 3166SOL    HW110397   4.156   1.945   3.507
 3166SOL    HW210398   4.224   1.934   3.359
 3167SOL     OW10399   5.392   4.319   1.024
 3167SOL    HW110400   5.428   4.357   0.938
 3167SOL    HW210401   5.321   4.379   1.060
 3168SOL     OW10402   5.335   2.880   6.894
 3168SOL    HW110403   5.385   2.815   6.837
 3168SOL    HW210404   5.261   2.833   6.941
 3169SOL     OW10405   2.410   4.354   3.704
 3169SOL    HW110406   2.475   4.418   3.663
 3169SOL    HW210407   2.363   4.399   3.780
 3170SOL     OW10408   4.219   5.996   1.802
 3170SOL    HW110409   4.285   5.979   1.729
 3170SOL    HW210410   4.127   5.973   1.771
 3171SOL     OW10411   6.844   1.635   2.225
 3171SOL    HW110412   6.773   1.673   2.167
 3171SOL    HW210413   6.823   1.654   2.321
 3172SOL     OW10414   6.374   5.515   6.851
 3172SOL    HW110415   6.436   5.511   6.773
 3172SOL    HW210416   6.394   5.597   6.905
 3173SOL     OW10417   3.364   2.585   0.164
 3173SOL    HW110418   3.313   2.669   0.143
 3173SOL    HW210419   3.318   2.536   0.238
 3174SOL     OW10420   3.225   2.862   0.238
 3174SOL    HW110421   3.246   2.945   0.187
 3174SOL    HW210422   3.128   2.861   0.263
 3175SOL     OW10423   5.861   1.212   1.496
 3175SOL    HW110424   5.931   1.271   1.455
 3175SOL    HW210425   5.771   1.252   1.480
 3176SOL     OW10426   0.725   3.942   5.174
 3176SOL    HW110427   0.653   3.885   5.215
 3176SOL    HW210428   0.716   4.036   5.207
 3177SOL     OW10429   5.114   4.430   3.851
 3177SOL    HW110430   5.048   4.392   3.917
 3177SOL    HW210431   5.190   4.471   3.901
 3178SOL     OW10432   6.628   2.546   1.008
 3178SOL    HW110433   6.535   2.535   1.043
 3178SOL    HW210434   6.627   2.597   0.923
 3179SOL     OW10435   1.000   2.079   1.946
 3179SOL    HW110436   1.032   2.142   1.876
 3179SOL    HW210437   0.949   2.130   2.016
 3180SOL     OW10438   5.185   0.309   0.314
 3180SOL    HW110439   5.124   0.354   0.249
 3180SOL    HW210440   5.137   0.234   0.358
 3181SOL     OW10441   6.315   2.077   3.265
 3181SOL    HW110442   6.349   2.032   3.183
 3181SOL    HW210443   6.257   2.154   3.239
 3182SOL     OW10444   2.576   0.380   6.980
 3182SOL    HW110445   2.565   0.282   6.998
 3182SOL    HW210446   2.614   0.392   6.888
 3183SOL     OW10447   4.793   4.195   1.945
 3183SOL    HW110448   4.710   4.239   1.978
 3183SOL    HW210449   4.798   4.102   1.981
 3184SOL     OW10450   1.019   2.771   2.804
 3184SOL    HW110451   0.954   2.777   2.728
 3184SOL    HW210452   0.972   2.792   2.889
 3185SOL     OW10453   4.630   5.769   6.928
 3185SOL    HW110454   4.666   5.844   6.873
 3185SOL    HW210455   4.551   5.729   6.882
 3186SOL     OW10456   3.120   1.818   0.762
 3186SOL    HW110457   3.147   1.822   0.858
 3186SOL    HW210458   3.185   1.761   0.712
 3187SOL     OW10459   5.046   5.344   0.956
 3187SOL    HW110460   4.997   5.423   0.992
 3187SOL    HW210461   5.076   5.364   0.862
 3188SOL     OW10462   1.409   6.620   4.203
 3188SOL    HW110463   1.413   6.684   4.279
 3188SOL    HW210464   1.415   6.526   4.238
 3189SOL     OW10465   1.359   2.435   1.422
 3189SOL    HW110466   1.448   2.392   1.434
 3189SOL    HW210467   1.354   2.478   1.332
 3190SOL     OW10468   0.235   5.231   0.627
 3190SOL    HW110469   0.333   5.209   0.628
 3190SOL    HW210470   0.183   5.152   0.660
 3191SOL     OW10471   4.901   5.784   1.181
 3191SOL    HW110472   4.942   5.801   1.271
 3191SOL    HW210473   4.806   5.813   1.181
 3192SOL     OW10474   0.500   3.412   1.374
 3192SOL    HW110475   0.434   3.398   1.449
 3192SOL    HW210476   0.591   3.424   1.413
 3193SOL     OW10477   4.096   1.113   6.412
 3193SOL    HW110478   4.004   1.153   6.406
 3193SOL    HW210479   4.087   1.014   6.422
 3194SOL     OW10480   1.783   1.821   6.343
 3194SOL    HW110481   1.806   1.829   6.440
 3194SOL    HW210482   1.844   1.880   6.290
 3195SOL     OW10483   1.988   0.377   3.050
 3195SOL    HW110484   2.031   0.381   3.140
 3195SOL    HW210485   1.932   0.459   3.036
 3196SOL     OW10486   0.484   0.988   0.048
 3196SOL    HW110487   0.478   1.072   7.010
 3196SOL    HW210488   0.397   0.971   0.094
 3197SOL     OW10489   2.894   6.617   4.516
 3197SOL    HW110490   2.954   6.603   4.594
 3197SOL    HW210491   2.947   6.609   4.431
 3198SOL     OW10492   6.312   2.832   3.578
 3198SOL    HW110493   6.225   2.846   3.626
 3198SOL    HW210494   6.387   2.857   3.639
 3199SOL     OW10495   5.488   4.130   2.839
 3199SOL    HW110496   5.545   4.193   2.892
 3199SOL    HW210497   5.527   4.038   2.842
 3200SOL     OW10498   5.355   3.192   2.700
 3200SOL    HW110499   5.392   3.134   2.773
 3200SOL    HW210500   5.430   3.242   2.656
 3201SOL     OW10501   6.645   4.721   3.744
 3201SOL    HW110502   6.744   4.729   3.752
 3201SOL    HW210503   6.601   4.764   3.823
 3202SOL     OW10504   1.618   5.241   1.234
 3202SOL    HW110505   1.712   5.208   1.233
 3202SOL    HW210506   1.565   5.191   1.303
 3203SOL     OW10507   5.576   2.140   0.119
 3203SOL    HW110508   5.611   2.233   0.120
 3203SOL    HW210509   5.634   2.082   0.177
 3204SOL     OW10510   4.571   6.540   3.038
 3204SOL    HW110511   4.550   6.623   3.089
 3204SOL    HW210512   4.560   6.460   3.097
 3205SOL     OW10513   5.382   2.380   5.438
 3205SOL    HW110514   5.338   2.396   5.527
 3205SOL    HW210515   5.476   2.413   5.441
 3206SOL     OW10516   1.987   4.995   0.750
 3206SOL    HW110517   2.024   4.924   0.690
 3206SOL    HW210518   2.008   5.085   0.711
 3207SOL     OW10519   1.389   0.936   6.528
 3207SOL    HW110520   1.463   0.869   6.536
 3207SOL    HW210521   1.327   0.925   6.606
 3208SOL     OW10522   4.623   6.436   6.063
 3208SOL    HW110523   4.556   6.403   6.130
 3208SOL    HW210524   4.617   6.380   5.980
 3209SOL     OW10525   3.400   4.907   3.806
 3209SOL    HW110526   3.358   4.997   3.805
 3209SOL    HW210527   3.419   4.878   3.712
 3210SOL     OW10528   1.412   4.225   0.679
 3210SOL    HW110529   1.405   4.273   0.767
 3210SOL    HW210530   1.498   4.248   0.635
 3211SOL     OW10531   1.587   3.986   0.717
 3211SOL    HW110532   1.496   4.014   0.746
 3211SOL    HW210533   1.602   4.013   0.622
 3212SOL     OW10534   2.952   6.891   1.661
 3212SOL    HW110535   2.946   6.806   1.712
 3212SOL    HW210536   3.048   6.919   1.654
 3213SOL     OW10537   1.805   0.026   0.429
 3213SOL    HW110538   1.753   6.957   0.434
 3213SOL    HW210539   1.899   0.009   0.459
 3214SOL     OW10540   4.554   5.910   0.721
 3214SOL    HW110541   4.629   5.906   0.655
 3214SOL    HW210542   4.470   5.936   0.675
 3215SOL     OW10543   0.440   3.669   0.952
 3215SOL    HW110544   0.380   3.593   0.978
 3215SOL    HW210545   0.536   3.642   0.965
 3216SOL     OW10546   5.917   5.495   0.578
 3216SOL    HW110547   5.921   5.414   0.636
 3216SOL    HW210548   5.848   5.558   0.613
 3217SOL     OW10549   7.004   5.304   2.275
 3217SOL    HW110550   0.055   5.258   2.216
 3217SOL    HW210551   0.005   5.402   2.274
 3218SOL     OW10552   4.818   2.670   3.637
 3218SOL    HW110553   4.837   2.587   3.690
 3218SOL    HW210554   4.844   2.654   3.542
 3219SOL     OW10555   0.720   1.711   3.353
 3219SOL    HW110556   0.771   1.628   3.377
 3219SOL    HW210557   0.746   1.786   3.413
 3220SOL     OW10558   0.167   5.204   5.888
 3220SOL    HW110559   0.083   5.188   5.940
 3220SOL    HW210560   0.224   5.271   5.938
 3221SOL     OW10561   3.952   0.154   1.743
 3221SOL    HW110562   3.852   0.145   1.746
 3221SOL    HW210563   3.994   0.064   1.752
 3222SOL     OW10564   2.848   1.370   2.928
 3222SOL    HW110565   2.910   1.369   2.849
 3222SOL    HW210566   2.838   1.277   2.963
 3223SOL     OW10567   2.308   6.781   6.346
 3223SOL    HW110568   2.266   6.838   6.275
 3223SOL    HW210569   2.365   6.711   6.303
 3224SOL     OW10570   4.973   3.209   5.155
 3224SOL    HW110571   4.888   3.255   5.181
 3224SOL    HW210572   4.993   3.137   5.221
 3225SOL     OW10573   5.212   2.571   5.330
 3225SOL    HW110574   5.256   2.494   5.376
 3225SOL    HW210575   5.273   2.650   5.332
 3226SOL     OW10576   2.498   1.017   2.658
 3226SOL    HW110577   2.419   1.029   2.598
 3226SOL    HW210578   2.568   1.085   2.635
 3227SOL     OW10579   3.082   3.467   6.778
 3227SOL    HW110580   3.082   3.399   6.852
 3227SOL    HW210581   2.993   3.467   6.732
 3228SOL     OW10582   6.961   3.815   1.475
 3228SOL    HW110583   6.931   3.908   1.496
 3228SOL    HW210584   6.993   3.811   1.380
 3229SOL     OW10585   3.442   0.297   5.280
 3229SOL    HW110586   3.382   0.345   5.343
 3229SOL    HW210587   3.513   0.249   5.331
 3230SOL     OW10588   2.095   4.282   5.485
 3230SOL    HW110589   2.043   4.336   5.419
 3230SOL    HW210590   2.159   4.222   5.436
 3231SOL     OW10591   2.969   0.270   1.673
 3231SOL    HW110592   3.016   0.350   1.708
 3231SOL    HW210593   3.010   0.187   1.712
 3232SOL     OW10594   4.742   6.623   4.673
 3232SOL    HW110595   4.739   6.669   4.585
 3232SOL    HW210596   4.813   6.553   4.672
 3233SOL     OW10597   0.056   2.634   1.079
 3233SOL    HW110598   0.113   2.600   1.154
 3233SOL    HW210599   0.103   2.710   1.034
 3234SOL     OW10600   0.688   2.266   6.926
 3234SOL    HW110601   0.671   2.255   6.828
 3234SOL    HW210602   0.700   2.362   6.948
 3235SOL     OW10603   6.780   0.281   1.984
 3235SOL    HW110604   6.800   0.352   1.916
 3235SOL    HW210605   6.708   0.313   2.046
 3236SOL     OW10606   1.577   3.815   0.214
 3236SOL    HW110607   1.493   3.859   0.181
 3236SOL    HW210608   1.553   3.737   0.271
 3237SOL     OW10609   5.780   1.258   3.488
 3237SOL    HW110610   5.747   1.322   3.557
 3237SOL    HW210611   5.838   1.306   3.423
 3238SOL     OW10612   0.094   5.230   0.210
 3238SOL    HW110613   0.041   5.242   0.125
 3238SOL    HW210614   0.178   5.180   0.189
 3239SOL     OW10615   6.521   1.257   2.224
 3239SOL    HW110616   6.488   1.168   2.254
 3239SOL    HW210617   6.611   1.247   2.183
 3240SOL     OW10618   6.944   6.262   6.248
 3240SOL    HW110619   6.998   6.346   6.241
 3240SOL    HW210620   6.998   6.193   6.295
 3241SOL     OW10621   4.558   0.504   4.888
 3241SOL    HW110622   4.535   0.490   4.792
 3241SOL    HW210623   4.642   0.453   4.910
 3242SOL     OW10624   4.351   4.306   6.700
 3242SOL    HW110625   4.448   4.291   6.683
 3242SOL    HW210626   4.297   4.237   6.652
 3243SOL     OW10627   4.495   4.899   0.045
 3243SOL    HW110628   4.424   4.967   0.060
 3243SOL    HW210629   4.454   4.808   0.042
 3244SOL     OW10630   4.909   5.657   0.387
 3244SOL    HW110631   4.900   5.657   0.487
 3244SOL    HW210632   4.943   5.746   0.357
 3245SOL     OW10633   5.428   3.480   4.356
 3245SOL    HW110634   5.432   3.424   4.439
 3245SOL    HW210635   5.500   3.549   4.360
 3246SOL     OW10636   6.280   0.505   2.957
 3246SOL    HW110637   6.241   0.549   2.876
 3246SOL    HW210638   6.238   0.543   3.039
 3247SOL     OW10639   5.893   4.397   2.872
 3247SOL    HW110640   5.810   4.375   2.923
 3247SOL    HW210641   5.912   4.324   2.807
 3248SOL     OW10642   5.768   3.316   1.988
 3248SOL    HW110643   5.765   3.217   1.999
 3248SOL    HW210644   5.819   3.357   2.064
 3249SOL     OW10645   3.837   4.063   3.875
 3249SOL    HW110646   3.887   4.042   3.958
 3249SOL    HW210647   3.899   4.100   3.806
 3250SOL     OW10648   5.478   0.379   2.880
 3250SOL    HW110649   5.440   0.428   2.959
 3250SOL    HW210650   5.539   0.306   2.912
 3251SOL     OW10651   3.150   0.898   3.892
 3251SOL    HW110652   3.125   0.801   3.890
 3251SOL    HW210653   3.165   0.927   3.987
 3252SOL     OW10654   2.693   0.833   2.646
 3252SOL    HW110655   2.609   0.883   2.625
 3252SOL    HW210656   2.713   0.768   2.572
 3253SOL     OW10657   4.488   4.009   1.682
 3253SOL    HW110658   4.474   4.092   1.736
 3253SOL    HW210659   4.566   3.959   1.718
 3254SOL     OW10660   5.486   5.952   6.289
 3254SOL    HW110661   5.441   6.039   6.311
 3254SOL    HW210662   5.583   5.959   6.311
 3255SOL     OW10663   4.860   6.685   0.125
 3255SOL    HW110664   4.925   6.749   0.167
 3255SOL    HW210665   4.769   6.726   0.122
 3256SOL     OW10666   3.830   1.354   0.744
 3256SOL    HW110667   3.752   1.312   0.792
 3256SOL    HW210668   3.915   1.314   0.778
 3257SOL     OW10669   1.274   1.877   2.273
 3257SOL    HW110670   1.371   1.893   2.259
 3257SOL    HW210671   1.261   1.789   2.320
 3258SOL     OW10672   4.870   5.943   2.588
 3258SOL    HW110673   4.942   5.990   2.639
 3258SOL    HW210674   4.844   5.859   2.635
 3259SOL     OW10675   5.062   4.659   5.178
 3259SOL    HW110676   5.015   4.722   5.116
 3259SOL    HW210677   5.159   4.683   5.182
 3260SOL     OW10678   1.249   2.333   1.108
 3260SOL    HW110679   1.261   2.251   1.053
 3260SOL    HW210680   1.333   2.387   1.107
 3261SOL     OW10681   5.595   0.900   1.735
 3261SOL    HW110682   5.599   0.999   1.736
 3261SOL    HW210683   5.683   0.863   1.707
 3262SOL     OW10684   3.160   1.897   2.454
 3262SOL    HW110685   3.063   1.884   2.474
 3262SOL    HW210686   3.205   1.807   2.450
 3263SOL     OW10687   2.263   1.064   3.158
 3263SOL    HW110688   2.328   1.048   3.084
 3263SOL    HW210689   2.260   0.983   3.218
 3264SOL     OW10690   1.083   4.996   0.710
 3264SOL    HW110691   1.144   5.028   0.783
 3264SOL    HW210692   1.113   5.034   0.622
 3265SOL     OW10693   5.037   0.719   6.369
 3265SOL    HW110694   5.046   0.779   6.290
 3265SOL    HW210695   4.942   0.718   6.400
 3266SOL     OW10696   1.856   4.564   0.233
 3266SOL    HW110697   1.840   4.601   0.141
 3266SOL    HW210698   1.906   4.477   0.225
 3267SOL     OW10699   3.048   6.400   1.606
 3267SOL    HW110700   3.077   6.405   1.510
 3267SOL    HW210701   3.090   6.475   1.657
 3268SOL     OW10702   1.847   3.850   1.450
 3268SOL    HW110703   1.858   3.894   1.539
 3268SOL    HW210704   1.910   3.892   1.385
 3269SOL     OW10705   4.991   5.554   2.545
 3269SOL    HW110706   4.899   5.574   2.513
 3269SOL    HW210707   5.009   5.606   2.629
 3270SOL     OW10708   1.248   4.133   6.258
 3270SOL    HW110709   1.277   4.198   6.188
 3270SOL    HW210710   1.168   4.082   6.225
 3271SOL     OW10711   5.841   3.532   2.195
 3271SOL    HW110712   5.815   3.603   2.129
 3271SOL    HW210713   5.855   3.574   2.285
 3272SOL     OW10714   3.015   4.365   6.002
 3272SOL    HW110715   3.023   4.390   5.905
 3272SOL    HW210716   2.968   4.277   6.010
 3273SOL     OW10717   6.191   5.802   0.299
 3273SOL    HW110718   6.262   5.789   0.368
 3273SOL    HW210719   6.201   5.893   0.258
 3274SOL     OW10720   5.844   1.266   0.873
 3274SOL    HW110721   5.815   1.347   0.926
 3274SOL    HW210722   5.765   1.207   0.858
 3275SOL     OW10723   5.831   1.275   0.067
 3275SOL    HW110724   5.835   1.222   0.151
 3275SOL    HW210725   5.908   1.339   0.064
 3276SOL     OW10726   3.183   5.623   6.605
 3276SOL    HW110727   3.272   5.598   6.645
 3276SOL    HW210728   3.146   5.544   6.556
 3277SOL     OW10729   3.854   6.670   0.132
 3277SOL    HW110730   3.805   6.627   0.207
 3277SOL    HW210731   3.948   6.692   0.161
 3278SOL     OW10732   0.785   0.790   5.935
 3278SOL    HW110733   0.789   0.722   6.008
 3278SOL    HW210734   0.714   0.764   5.870
 3279SOL     OW10735   5.074   0.096   0.460
 3279SOL    HW110736   5.098   0.122   0.553
 3279SOL    HW210737   5.005   0.023   0.462
 3280SOL     OW10738   4.665   4.664   4.345
 3280SOL    HW110739   4.591   4.691   4.283
 3280SOL    HW210740   4.627   4.616   4.423
 3281SOL     OW10741   1.533   5.101   2.038
 3281SOL    HW110742   1.531   5.147   1.949
 3281SOL    HW210743   1.445   5.057   2.055
 3282SOL     OW10744   6.892   4.997   5.398
 3282SOL    HW110745   6.954   5.066   5.361
 3282SOL    HW210746   6.830   5.040   5.464
 3283SOL     OW10747   3.905   0.278   1.197
 3283SOL    HW110748   3.893   0.345   1.271
 3283SOL    HW210749   3.823   0.276   1.140
 3284SOL     OW10750   0.622   5.021   6.803
 3284SOL    HW110751   0.626   4.969   6.717
 3284SOL    HW210752   0.532   5.009   6.845
 3285SOL     OW10753   4.329   2.309   3.587
 3285SOL    HW110754   4.343   2.230   3.646
 3285SOL    HW210755   4.388   2.384   3.617
 3286SOL     OW10756   3.446   3.013   2.666
 3286SOL    HW110757   3.429   3.007   2.764
 3286SOL    HW210758   3.384   2.952   2.617
 3287SOL     OW10759   0.916   0.855   0.458
 3287SOL    HW110760   0.830   0.879   0.503
 3287SOL    HW210761   0.972   0.801   0.521
 3288SOL     OW10762   1.434   5.881   6.578
 3288SOL    HW110763   1.346   5.919   6.552
 3288SOL    HW210764   1.421   5.806   6.643
 3289SOL     OW10765   2.604   0.396   5.053
 3289SOL    HW110766   2.670   0.460   5.093
 3289SOL    HW210767   2.522   0.393   5.109
 3290SOL     OW10768   0.239   5.861   1.122
 3290SOL    HW110769   0.243   5.777   1.068
 3290SOL    HW210770   0.328   5.907   1.118
 3291SOL     OW10771   1.904   0.122   0.013
 3291SOL    HW110772   1.996   0.094   0.039
 3291SOL    HW210773   1.864   0.177   0.087
 3292SOL     OW10774   0.237   0.699   0.488
 3292SOL    HW110775   0.171   0.671   0.419
 3292SOL    HW210776   0.257   0.621   0.548
 3293SOL     OW10777   0.289   4.072   1.482
 3293SOL    HW110778   0.261   4.055   1.388
 3293SOL    HW210779   0.295   3.986   1.531
 3294SOL     OW10780   6.249   1.967   5.897
 3294SOL    HW110781   6.168   1.923   5.857
 3294SOL    HW210782   6.314   1.896   5.926
 3295SOL     OW10783   1.547   2.449   2.421
 3295SOL    HW110784   1.617   2.416   2.358
 3295SOL    HW210785   1.459   2.454   2.374
 3296SOL     OW10786   1.074   6.974   2.893
 3296SOL    HW110787   1.067   6.880   2.926
 3296SOL    HW210788   1.064   0.021   2.970
 3297SOL     OW10789   3.301   1.286   5.785
 3297SOL    HW110790   3.366   1.210   5.786
 3297SOL    HW210791   3.213   1.255   5.749
 3298SOL     OW10792   5.966   1.940   5.382
 3298SOL    HW110793   5.965   1.848   5.343
 3298SOL    HW210794   5.877   1.959   5.423
 3299SOL     OW10795   3.508   5.743   3.094
 3299SOL    HW110796   3.514   5.666   3.030
 3299SOL    HW210797   3.475   5.824   3.045
 3300SOL     OW10798   0.201   0.871   5.592
 3300SOL    HW110799   0.154   0.803   5.650
 3300SOL    HW210800   0.135   0.911   5.529
 3301SOL     OW10801   2.047   3.168   3.798
 3301SOL    HW110802   2.053   3.129   3.890
 3301SOL    HW210803   1.963   3.221   3.790
 3302SOL     OW10804   0.604   4.887   5.364
 3302SOL    HW110805   0.635   4.973   5.323
 3302SOL    HW210806   0.591   4.818   5.292
 3303SOL     OW10807   3.669   3.854   0.822
 3303SOL    HW110808   3.614   3.893   0.895
 3303SOL    HW210809   3.766   3.856   0.847
 3304SOL     OW10810   1.333   5.359   4.542
 3304SOL    HW110811   1.262   5.429   4.544
 3304SOL    HW210812   1.394   5.375   4.465
 3305SOL     OW10813   2.251   1.174   2.494
 3305SOL    HW110814   2.188   1.119   2.438
 3305SOL    HW210815   2.208   1.195   2.582
 3306SOL     OW10816   2.370   5.546   4.703
 3306SOL    HW110817   2.270   5.542   4.703
 3306SOL    HW210818   2.407   5.454   4.719
 3307SOL     OW10819   7.000   5.504   6.719
 3307SOL    HW110820   0.050   5.504   6.794
 3307SOL    HW210821   6.917   5.551   6.748
 3308SOL     OW10822   3.081   6.200   1.221
 3308SOL    HW110823   3.085   6.231   1.126
 3308SOL    HW210824   3.096   6.277   1.282
 3309SOL     OW10825   6.778   5.876   3.677
 3309SOL    HW110826   6.691   5.880   3.726
 3309SOL    HW210827   6.841   5.942   3.718
 3310SOL     OW10828   0.488   3.833   5.761
 3310SOL    HW110829   0.566   3.889   5.732
 3310SOL    HW210830   0.433   3.883   5.827
 3311SOL     OW10831   3.826   3.682   1.249
 3311SOL    HW110832   3.917   3.663   1.286
 3311SOL    HW210833   3.786   3.597   1.215
 3312SOL     OW10834   4.500   4.492   6.124
 3312SOL    HW110835   4.485   4.437   6.042
 3312SOL    HW210836   4.446   4.576   6.120
 3313SOL     OW10837   1.020   6.448   3.744
 3313SOL    HW110838   1.018   6.517   3.672
 3313SOL    HW210839   1.094   6.383   3.727
 3314SOL     OW10840   2.347   1.314   2.799
 3314SOL    HW110841   2.252   1.324   2.769
 3314SOL    HW210842   2.401   1.391   2.766
 3315SOL     OW10843   6.578   4.454   4.086
 3315SOL    HW110844   6.661   4.491   4.043
 3315SOL    HW210845   6.504   4.520   4.077
 3316SOL     OW10846   4.995   1.166   5.802
 3316SOL    HW110847   4.967   1.208   5.888
 3316SOL    HW210848   5.069   1.101   5.819
 3317SOL     OW10849   4.609   2.852   1.681
 3317SOL    HW110850   4.597   2.865   1.583
 3317SOL    HW210851   4.604   2.941   1.727
 3318SOL     OW10852   2.111   1.703   0.729
 3318SOL    HW110853   2.198   1.718   0.681
 3318SOL    HW210854   2.119   1.731   0.824
 3319SOL     OW10855   6.397   1.851   3.777
 3319SOL    HW110856   6.479   1.908   3.783
 3319SOL    HW210857   6.401   1.795   3.694
 3320SOL     OW10858   6.417   0.717   5.179
 3320SOL    HW110859   6.511   0.699   5.150
 3320SOL    HW210860   6.364   0.632   5.179
 3321SOL     OW10861   4.741   1.720   0.060
 3321SOL    HW110862   4.700   1.649   0.002
 3321SOL    HW210863   4.675   1.793   0.074
 3322SOL     OW10864   6.654   2.813   1.269
 3322SOL    HW110865   6.608   2.848   1.187
 3322SOL    HW210866   6.731   2.756   1.242
 3323SOL     OW10867   3.283   2.733   0.504
 3323SOL    HW110868   3.360   2.672   0.521
 3323SOL    HW210869   3.271   2.746   0.406
 3324SOL     OW10870   4.092   5.117   6.669
 3324SOL    HW110871   4.188   5.131   6.644
 3324SOL    HW210872   4.036   5.115   6.586
 3325SOL     OW10873   0.341   3.307   6.470
 3325SOL    HW110874   0.352   3.323   6.372
 3325SOL    HW210875   0.299   3.388   6.513
 3326SOL     OW10876   5.403   1.655   2.259
 3326SOL    HW110877   5.423   1.578   2.198
 3326SOL    HW210878   5.305   1.666   2.269
 3327SOL     OW10879   3.639   5.400   1.562
 3327SOL    HW110880   3.556   5.453   1.543
 3327SOL    HW210881   3.625   5.305   1.534
 3328SOL     OW10882   4.662   2.117   0.520
 3328SOL    HW110883   4.589   2.093   0.457
 3328SOL    HW210884   4.718   2.190   0.480
 3329SOL     OW10885   5.524   0.054   4.586
 3329SOL    HW110886   5.577   0.135   4.561
 3329SOL    HW210887   5.565   0.009   4.665
 3330SOL     OW10888   6.578   4.685   1.821
 3330SOL    HW110889   6.621   4.599   1.791
 3330SOL    HW210890   6.564   4.682   1.920
 3331SOL     OW10891   2.684   3.274   1.359
 3331SOL    HW110892   2.751   3.258   1.431
 3331SOL    HW210893   2.653   3.187   1.321
 3332SOL     OW10894   5.646   5.562   0.002
 3332SOL    HW110895   5.550   5.540   0.015
 3332SOL    HW210896   5.700   5.523   0.076
 3333SOL     OW10897   4.728   4.475   6.452
 3333SOL    HW110898   4.698   4.552   6.509
 3333SOL    HW210899   4.659   4.456   6.383
 3334SOL     OW10900   2.708   4.014   1.681
 3334SOL    HW110901   2.794   3.965   1.697
 3334SOL    HW210902   2.727   4.112   1.675
 3335SOL     OW10903   4.534   6.400   5.300
 3335SOL    HW110904   4.590   6.325   5.263
 3335SOL    HW210905   4.453   6.362   5.343
 3336SOL     OW10906   2.607   6.214   4.773
 3336SOL    HW110907   2.585   6.155   4.696
 3336SOL    HW210908   2.705   6.211   4.791
 3337SOL     OW10909   2.922   3.768   2.796
 3337SOL    HW110910   2.949   3.854   2.753
 3337SOL    HW210911   2.990   3.698   2.776
 3338SOL     OW10912   5.782   2.539   1.540
 3338SOL    HW110913   5.823   2.475   1.474
 3338SOL    HW210914   5.815   2.631   1.520
 3339SOL     OW10915   5.997   0.372   6.576
 3339SOL    HW110916   5.901   0.359   6.553
 3339SOL    HW210917   6.015   0.337   6.668
 3340SOL     OW10918   3.758   0.933   2.401
 3340SOL    HW110919   3.761   0.947   2.302
 3340SOL    HW210920   3.664   0.945   2.434
 3341SOL     OW10921   1.304   5.344   3.197
 3341SOL    HW110922   1.305   5.440   3.168
 3341SOL    HW210923   1.355   5.289   3.131
 3342SOL     OW10924   2.549   0.126   4.375
 3342SOL    HW110925   2.496   0.192   4.428
 3342SOL    HW210926   2.628   0.096   4.429
 3343SOL     OW10927   5.391   3.106   0.714
 3343SOL    HW110928   5.454   3.062   0.778
 3343SOL    HW210929   5.315   3.044   0.694
 3344SOL     OW10930   5.697   3.173   4.097
 3344SOL    HW110931   5.726   3.135   4.009
 3344SOL    HW210932   5.610   3.131   4.123
 3345SOL     OW10933   1.422   3.776   6.141
 3345SOL    HW110934   1.386   3.683   6.148
 3345SOL    HW210935   1.515   3.773   6.104
 3346SOL     OW10936   1.335   0.655   0.977
 3346SOL    HW110937   1.311   0.668   0.881
 3346SOL    HW210938   1.296   0.569   1.010
 3347SOL     OW10939   0.616   3.913   4.526
 3347SOL    HW110940   0.646   3.938   4.618
 3347SOL    HW210941   0.666   3.832   4.495
 3348SOL     OW10942   3.223   3.576   3.639
 3348SOL    HW110943   3.243   3.478   3.628
 3348SOL    HW210944   3.307   3.623   3.666
 3349SOL     OW10945   0.808   5.676   2.936
 3349SOL    HW110946   0.812   5.638   2.843
 3349SOL    HW210947   0.744   5.623   2.991
 3350SOL     OW10948   1.431   2.153   5.730
 3350SOL    HW110949   1.391   2.192   5.813
 3350SOL    HW210950   1.376   2.075   5.700
 3351SOL     OW10951   4.863   1.014   2.682
 3351SOL    HW110952   4.906   1.092   2.636
 3351SOL    HW210953   4.786   0.981   2.629
 3352SOL     OW10954   6.956   2.596   0.320
 3352SOL    HW110955   6.918   2.650   0.395
 3352SOL    HW210956   0.014   2.538   0.354
 3353SOL     OW10957   1.455   5.466   2.117
 3353SOL    HW110958   1.442   5.562   2.093
 3353SOL    HW210959   1.549   5.439   2.096
 3354SOL     OW10960   4.745   2.400   5.431
 3354SOL    HW110961   4.829   2.347   5.441
 3354SOL    HW210962   4.739   2.467   5.505
 3355SOL     OW10963   2.160   1.363   6.855
 3355SOL    HW110964   2.219   1.311   6.794
 3355SOL    HW210965   2.209   1.444   6.889
 3356SOL     OW10966   1.950   4.609   5.929
 3356SOL    HW110967   2.035   4.658   5.949
 3356SOL    HW210968   1.954   4.570   5.838
 3357SOL     OW10969   2.659   4.757   1.813
 3357SOL    HW110970   2.737   4.775   1.754
 3357SOL    HW210971   2.689   4.703   1.892
 3358SOL     OW10972   4.964   1.053   0.886
 3358SOL    HW110973   5.011   1.026   0.970
 3358SOL    HW210974   4.970   0.979   0.820
 3359SOL     OW10975   6.797   0.512   3.861
 3359SOL    HW110976   6.848   0.543   3.941
 3359SOL    HW210977   6.718   0.458   3.890
 3360SOL     OW10978   0.551   1.265   6.963
 3360SOL    HW110979   0.540   1.346   6.906
 3360SOL    HW210980   0.614   1.286   0.022
 3361SOL     OW10981   1.039   4.540   3.848
 3361SOL    HW110982   1.123   4.500   3.885
 3361SOL    HW210983   0.969   4.542   3.919
 3362SOL     OW10984   3.908   1.825   3.406
 3362SOL    HW110985   3.823   1.808   3.356
 3362SOL    HW210986   3.970   1.878   3.348
 3363SOL     OW10987   6.420   6.883   0.816
 3363SOL    HW110988   6.490   6.949   0.791
 3363SOL    HW210989   6.388   6.836   0.734
 3364SOL     OW10990   1.529   4.320   3.930
 3364SOL    HW110991   1.462   4.394   3.920
 3364SOL    HW210992   1.522   4.258   3.851
 3365SOL     OW10993   0.352   2.215   5.414
 3365SOL    HW110994   0.430   2.176   5.365
 3365SOL    HW210995   0.342   2.312   5.390
 3366SOL     OW10996   5.951   7.012   5.825
 3366SOL    HW110997   5.942   6.965   5.912
 3366SOL    HW210998   5.957   6.945   5.751
 3367SOL     OW10999   3.594   2.836   1.403
 3367SOL    HW111000   3.598   2.741   1.372
 3367SOL    HW211001   3.676   2.858   1.456
 3368SOL     OW11002   0.572   4.859   5.798
 3368SOL    HW111003   0.605   4.952   5.785
 3368SOL    HW211004   0.488   4.845   5.746
 3369SOL     OW11005   3.851   2.501   6.084
 3369SOL    HW111006   3.833   2.598   6.067
 3369SOL    HW211007   3.947   2.481   6.061
 3370SOL     OW11008   6.909   5.840   6.696
 3370SOL    HW111009   6.839   5.908   6.674
 3370SOL    HW211010   6.992   5.861   6.645
 3371SOL     OW11011   1.803   3.384   2.084
 3371SOL    HW111012   1.827   3.416   1.992
 3371SOL    HW211013   1.788   3.285   2.082
 3372SOL     OW11014   0.882   1.643   0.967
 3372SOL    HW111015   0.977   1.611   0.972
 3372SOL    HW211016   0.877   1.724   0.908
 3373SOL     OW11017   6.873   1.904   3.004
 3373SOL    HW111018   6.951   1.965   2.989
 3373SOL    HW211019   6.830   1.882   2.916
 3374SOL     OW11020   1.326   5.971   4.565
 3374SOL    HW111021   1.252   6.010   4.620
 3374SOL    HW211022   1.316   6.002   4.470
 3375SOL     OW11023   6.125   5.856   6.390
 3375SOL    HW111024   6.050   5.835   6.453
 3375SOL    HW211025   6.093   5.842   6.296
 3376SOL     OW11026   3.975   3.271   3.529
 3376SOL    HW111027   3.996   3.243   3.623
 3376SOL    HW211028   4.051   3.326   3.493
 3377SOL     OW11029   0.208   6.615   5.000
 3377SOL    HW111030   0.131   6.574   5.047
 3377SOL    HW211031   0.267   6.662   5.066
 3378SOL     OW11032   6.919   1.064   0.494
 3378SOL    HW111033   6.880   0.996   0.556
 3378SOL    HW211034   6.971   1.131   0.547
 3379SOL     OW11035   6.637   6.642   6.591
 3379SOL    HW111036   6.537   6.640   6.597
 3379SOL    HW211037   6.673   6.550   6.611
 3380SOL     OW11038   5.921   6.754   6.006
 3380SOL    HW111039   5.924   6.701   5.922
 3380SOL    HW211040   5.962   6.701   6.081
 3381SOL     OW11041   1.259   2.776   1.303
 3381SOL    HW111042   1.216   2.800   1.390
 3381SOL    HW211043   1.341   2.721   1.321
 3382SOL     OW11044   0.374   1.659   0.982
 3382SOL    HW111045   0.458   1.612   1.011
 3382SOL    HW211046   0.385   1.690   0.888
 3383SOL     OW11047   4.658   5.935   2.060
 3383SOL    HW111048   4.737   5.965   2.007
 3383SOL    HW211049   4.590   5.896   1.998
 3384SOL     OW11050   2.530   3.198   5.871
 3384SOL    HW111051   2.485   3.160   5.790
 3384SOL    HW211052   2.571   3.286   5.848
 3385SOL     OW11053   6.823   2.647   4.408
 3385SOL    HW111054   6.921   2.654   4.427
 3385SOL    HW211055   6.802   2.553   4.382
 3386SOL     OW11056   6.122   3.669   6.683
 3386SOL    HW111057   6.024   3.660   6.703
 3386SOL    HW211058   6.144   3.613   6.603
 3387SOL     OW11059   2.876   0.925   3.685
 3387SOL    HW111060   2.789   0.964   3.656
 3387SOL    HW211061   2.952   0.978   3.647
 3388SOL     OW11062   5.067   3.265   1.833
 3388SOL    HW111063   4.990   3.216   1.792
 3388SOL    HW211064   5.152   3.217   1.813
 3389SOL     OW11065   5.610   4.956   5.531
 3389SOL    HW111066   5.611   5.027   5.602
 3389SOL    HW211067   5.594   4.998   5.442
 3390SOL     OW11068   4.958   4.890   5.714
 3390SOL    HW111069   4.986   4.952   5.788
 3390SOL    HW211070   4.858   4.891   5.706
 3391SOL     OW11071   5.368   3.079   4.804
 3391SOL    HW111072   5.347   3.174   4.779
 3391SOL    HW211073   5.294   3.042   4.860
 3392SOL     OW11074   2.725   6.931   3.783
 3392SOL    HW111075   2.792   6.894   3.847
 3392SOL    HW211076   2.633   6.908   3.815
 3393SOL     OW11077   0.424   6.360   0.107
 3393SOL    HW111078   0.431   6.287   0.039
 3393SOL    HW211079   0.483   6.436   0.081
 3394SOL     OW11080   6.115   3.218   2.004
 3394SOL    HW111081   6.086   3.251   1.914
 3394SOL    HW211082   6.214   3.205   2.004
 3395SOL     OW11083   5.318   2.943   3.414
 3395SOL    HW111084   5.251   2.928   3.342
 3395SOL    HW211085   5.289   2.895   3.497
 3396SOL     OW11086   4.875   1.975   3.629
 3396SOL    HW111087   4.847   1.885   3.663
 3396SOL    HW211088   4.793   2.028   3.606
 3397SOL     OW11089   2.133   0.664   5.290
 3397SOL    HW111090   2.175   0.736   5.345
 3397SOL    HW211091   2.157   0.678   5.194
 3398SOL     OW11092   0.716   6.835   4.769
 3398SOL    HW111093   0.688   6.743   4.742
 3398SOL    HW211094   0.636   6.893   4.779
 3399SOL     OW11095   5.268   4.236   4.194
 3399SOL    HW111096   5.328   4.288   4.132
 3399SOL    HW211097   5.175   4.234   4.157
 3400SOL     OW11098   4.880   2.649   5.763
 3400SOL    HW111099   4.820   2.646   5.683
 3400SOL    HW211100   4.948   2.577   5.756
 3401SOL     OW11101   0.027   3.476   1.157
 3401SOL    HW111102   6.993   3.445   1.238
 3401SOL    HW211103   0.016   3.410   1.083
 3402SOL     OW11104   3.684   6.139   6.390
 3402SOL    HW111105   3.620   6.064   6.374
 3402SOL    HW211106   3.777   6.102   6.395
 3403SOL     OW11107   3.689   5.996   4.686
 3403SOL    HW111108   3.786   6.012   4.704
 3403SOL    HW211109   3.659   6.055   4.611
 3404SOL     OW11110   5.085   1.602   0.131
 3404SOL    HW111111   5.034   1.547   0.065
 3404SOL    HW211112   5.082   1.698   0.103
 3405SOL     OW11113   0.087   3.783   4.406
 3405SOL    HW111114   0.186   3.775   4.412
 3405SOL    HW211115   0.054   3.842   4.480
 3406SOL     OW11116   0.643   4.060   1.832
 3406SOL    HW111117   0.724   4.003   1.847
 3406SOL    HW211118   0.623   4.064   1.734
 3407SOL     OW11119   1.278   5.343   6.652
 3407SOL    HW111120   1.314   5.252   6.630
 3407SOL    HW211121   1.323   5.411   6.595
 3408SOL     OW11122   4.759   3.836   5.286
 3408SOL    HW111123   4.802   3.877   5.205
 3408SOL    HW211124   4.714   3.751   5.260
 3409SOL     OW11125   3.293   6.297   6.450
 3409SOL    HW111126   3.386   6.332   6.458
 3409SOL    HW211127   3.233   6.348   6.511
 3410SOL     OW11128   0.254   6.005   0.236
 3410SOL    HW111129   0.323   5.949   0.191
 3410SOL    HW211130   0.300   6.076   0.291
 3411SOL     OW11131   0.814   3.313   1.864
 3411SOL    HW111132   0.881   3.250   1.825
 3411SOL    HW211133   0.722   3.282   1.841
 3412SOL     OW11134   4.042   2.936   6.659
 3412SOL    HW111135   4.051   2.956   6.757
 3412SOL    HW211136   4.013   3.018   6.611
 3413SOL     OW11137   5.814   1.402   0.606
 3413SOL    HW111138   5.784   1.492   0.636
 3413SOL    HW211139   5.830   1.344   0.686
 3414SOL     OW11140   2.147   0.213   5.776
 3414SOL    HW111141   2.079   0.175   5.713
 3414SOL    HW211142   2.236   0.219   5.730
 3415SOL     OW11143   1.633   3.814   5.010
 3415SOL    HW111144   1.622   3.765   4.923
 3415SOL    HW211145   1.662   3.750   5.081
 3416SOL     OW11146   0.223   5.751   0.675
 3416SOL    HW111147   0.255   5.817   0.608
 3416SOL    HW211148   0.229   5.659   0.635
 3417SOL     OW11149   0.243   5.679   2.939
 3417SOL    HW111150   0.320   5.742   2.934
 3417SOL    HW211151   0.274   5.590   2.973
 3418SOL     OW11152   3.618   0.845   4.512
 3418SOL    HW111153   3.568   0.759   4.502
 3418SOL    HW211154   3.653   0.852   4.606
 3419SOL     OW11155   3.764   5.571   4.932
 3419SOL    HW111156   3.731   5.487   4.889
 3419SOL    HW211157   3.783   5.640   4.862
 3420SOL     OW11158   5.041   2.913   4.214
 3420SOL    HW111159   5.023   2.815   4.211
 3420SOL    HW211160   5.041   2.944   4.309
 3421SOL     OW11161   4.951   0.901   5.536
 3421SOL    HW111162   4.989   0.838   5.604
 3421SOL    HW211163   4.851   0.891   5.535
 3422SOL     OW11164   1.918   0.378   1.149
 3422SOL    HW111165   1.977   0.310   1.192
 3422SOL    HW211166   1.955   0.470   1.168
 3423SOL     OW11167   1.289   4.846   0.180
 3423SOL    HW111168   1.364   4.807   0.125
 3423SOL    HW211169   1.298   4.814   0.274
 3424SOL     OW11170   3.168   6.636   1.698
 3424SOL    HW111171   3.238   6.579   1.741
 3424SOL    HW211172   3.100   6.663   1.766
 3425SOL     OW11173   5.105   5.037   2.823
 3425SOL    HW111174   5.160   5.034   2.906
 3425SOL    HW211175   5.116   4.952   2.772
 3426SOL     OW11176   4.473   2.729   0.717
 3426SOL    HW111177   4.459   2.818   0.760
 3426SOL    HW211178   4.508   2.664   0.784
 3427SOL     OW11179   6.154   0.285   6.800
 3427SOL    HW111180   6.158   0.185   6.799
 3427SOL    HW211181   6.226   0.321   6.859
 3428SOL     OW11182   3.023   5.003   0.959
 3428SOL    HW111183   3.086   4.982   0.885
 3428SOL    HW211184   2.931   4.974   0.934
 3429SOL     OW11185   0.416   2.288   0.344
 3429SOL    HW111186   0.337   2.228   0.327
 3429SOL    HW211187   0.498   2.247   0.304
 3430SOL     OW11188   0.535   6.456   5.131
 3430SOL    HW111189   0.577   6.400   5.202
 3430SOL    HW211190   0.490   6.534   5.174
 3431SOL     OW11191   0.749   6.984   1.259
 3431SOL    HW111192   0.710   6.910   1.205
 3431SOL    HW211193   0.761   0.049   1.202
 3432SOL     OW11194   1.747   2.323   0.069
 3432SOL    HW111195   1.742   2.401   0.006
 3432SOL    HW211196   1.655   2.290   0.090
 3433SOL     OW11197   0.958   0.604   6.385
 3433SOL    HW111198   0.949   0.505   6.380
 3433SOL    HW211199   1.033   0.628   6.446
 3434SOL     OW11200   4.988   2.072   0.717
 3434SOL    HW111201   5.015   2.048   0.810
 3434SOL    HW211202   5.028   2.160   0.692
 3435SOL     OW11203   0.785   1.749   0.564
 3435SOL    HW111204   0.839   1.667   0.546
 3435SOL    HW211205   0.688   1.729   0.548
 3436SOL     OW11206   3.779   5.671   6.518
 3436SOL    HW111207   3.834   5.729   6.458
 3436SOL    HW211208   3.791   5.700   6.612
 3437SOL     OW11209   1.908   1.141   5.700
 3437SOL    HW111210   1.888   1.097   5.787
 3437SOL    HW211211   1.883   1.238   5.705
 3438SOL     OW11212   1.147   2.779   6.842
 3438SOL    HW111213   1.103   2.724   6.771
 3438SOL    HW211214   1.129   2.738   6.932
 3439SOL     OW11215   1.833   6.415   4.940
 3439SOL    HW111216   1.877   6.340   4.892
 3439SOL    HW211217   1.880   6.501   4.920
 3440SOL     OW11218   3.689   3.405   1.729
 3440SOL    HW111219   3.647   3.383   1.817
 3440SOL    HW211220   3.756   3.334   1.707
 3441SOL     OW11221   5.196   0.205   4.557
 3441SOL    HW111222   5.189   0.276   4.487
 3441SOL    HW211223   5.225   0.119   4.514
 3442SOL     OW11224   3.281   5.462   2.125
 3442SOL    HW111225   3.313   5.371   2.150
 3442SOL    HW211226   3.288   5.474   2.026
 3443SOL     OW11227   4.979   5.846   1.455
 3443SOL    HW111228   4.910   5.818   1.522
 3443SOL    HW211229   5.022   5.931   1.486
 3444SOL     OW11230   5.247   5.525   0.402
 3444SOL    HW111231   5.265   5.542   0.499
 3444SOL    HW211232   5.180   5.452   0.392
 3445SOL     OW11233   6.501   5.666   4.469
 3445SOL    HW111234   6.463   5.698   4.556
 3445SOL    HW211235   6.494   5.566   4.464
 3446SOL     OW11236   6.086   0.176   2.639
 3446SOL    HW111237   6.168   0.186   2.694
 3446SOL    HW211238   6.008   0.217   2.687
 3447SOL     OW11239   5.456   5.798   0.829
 3447SOL    HW111240   5.375   5.853   0.845
 3447SOL    HW211241   5.495   5.819   0.739
 3448SOL     OW11242   3.192   0.305   1.115
 3448SOL    HW111243   3.095   0.321   1.096
 3448SOL    HW211244   3.218   0.353   1.198
 3449SOL     OW11245   6.186   6.502   3.755
 3449SOL    HW111246   6.193   6.406   3.728
 3449SOL    HW211247   6.101   6.541   3.717
 3450SOL     OW11248   6.643   2.489   6.561
 3450SOL    HW111249   6.646   2.517   6.466
 3450SOL    HW211250   6.574   2.417   6.573
 3451SOL     OW11251   2.075   6.247   1.580
 3451SOL    HW111252   2.140   6.203   1.641
 3451SOL    HW211253   2.032   6.178   1.521
 3452SOL     OW11254   5.717   0.802   5.885
 3452SOL    HW111255   5.638   0.766   5.836
 3452SOL    HW211256   5.731   0.751   5.970
 3453SOL     OW11257   6.429   6.017   5.766
 3453SOL    HW111258   6.499   6.086   5.782
 3453SOL    HW211259   6.352   6.058   5.717
 3454SOL     OW11260   1.287   2.216   5.947
 3454SOL    HW111261   1.278   2.259   6.036
 3454SOL    HW211262   1.240   2.127   5.948
 3455SOL     OW11263   2.431   2.011   4.187
 3455SOL    HW111264   2.480   1.933   4.225
 3455SOL    HW211265   2.454   2.093   4.238
 3456SOL     OW11266   5.894   5.648   2.922
 3456SOL    HW111267   5.860   5.564   2.878
 3456SOL    HW211268   5.888   5.724   2.858
 3457SOL     OW11269   2.746   5.467   3.205
 3457SOL    HW111270   2.828   5.413   3.222
 3457SOL    HW211271   2.729   5.473   3.107
 3458SOL     OW11272   4.432   0.436   1.396
 3458SOL    HW111273   4.425   0.535   1.386
 3458SOL    HW211274   4.395   0.408   1.484
 3459SOL     OW11275   5.898   3.702   2.840
 3459SOL    HW111276   5.903   3.697   2.940
 3459SOL    HW211277   5.904   3.610   2.801
 3460SOL     OW11278   2.634   2.882   6.848
 3460SOL    HW111279   2.714   2.879   6.907
 3460SOL    HW211280   2.587   2.793   6.852
 3461SOL     OW11281   4.494   6.330   4.996
 3461SOL    HW111282   4.410   6.345   4.943
 3461SOL    HW211283   4.516   6.412   5.049
 3462SOL     OW11284   0.615   3.466   2.153
 3462SOL    HW111285   0.517   3.484   2.155
 3462SOL    HW211286   0.661   3.535   2.096
 3463SOL     OW11287   0.676   3.735   3.001
 3463SOL    HW111288   0.766   3.761   3.037
 3463SOL    HW211289   0.606   3.751   3.071
 3464SOL     OW11290   6.433   3.207   6.496
 3464SOL    HW111291   6.439   3.127   6.435
 3464SOL    HW211292   6.378   3.278   6.452
 3465SOL     OW11293   2.062   2.263   2.154
 3465SOL    HW111294   1.983   2.322   2.139
 3465SOL    HW211295   2.031   2.176   2.193
 3466SOL     OW11296   0.256   4.654   0.112
 3466SOL    HW111297   0.313   4.606   0.179
 3466SOL    HW211298   0.311   4.721   0.063
 3467SOL     OW11299   1.889   2.103   1.058
 3467SOL    HW111300   1.923   2.034   1.121
 3467SOL    HW211301   1.966   2.146   1.011
 3468SOL     OW11302   5.879   6.689   2.825
 3468SOL    HW111303   5.924   6.632   2.756
 3468SOL    HW211304   5.839   6.769   2.780
 3469SOL     OW11305   4.563   0.313   3.515
 3469SOL    HW111306   4.463   0.311   3.512
 3469SOL    HW211307   4.599   0.330   3.423
 3470SOL     OW11308   6.617   3.155   1.802
 3470SOL    HW111309   6.591   3.225   1.869
 3470SOL    HW211310   6.702   3.182   1.757
 3471SOL     OW11311   4.277   5.068   4.433
 3471SOL    HW111312   4.271   5.162   4.399
 3471SOL    HW211313   4.273   5.068   4.533
 3472SOL     OW11314   2.772   1.125   3.275
 3472SOL    HW111315   2.724   1.037   3.275
 3472SOL    HW211316   2.705   1.199   3.281
 3473SOL     OW11317   0.039   2.568   1.467
 3473SOL    HW111318   0.011   2.664   1.467
 3473SOL    HW211319   0.116   2.556   1.403
 3474SOL     OW11320   0.937   4.904   2.296
 3474SOL    HW111321   0.921   4.811   2.264
 3474SOL    HW211322   1.034   4.915   2.320
 3475SOL     OW11323   1.369   4.636   4.356
 3475SOL    HW111324   1.467   4.650   4.371
 3475SOL    HW211325   1.322   4.724   4.360
 3476SOL     OW11326   2.391   1.375   3.061
 3476SOL    HW111327   2.350   1.465   3.079
 3476SOL    HW211328   2.364   1.343   2.971
 3477SOL     OW11329   1.503   5.714   1.173
 3477SOL    HW111330   1.512   5.642   1.241
 3477SOL    HW211331   1.557   5.793   1.201
 3478SOL     OW11332   2.662   5.423   5.128
 3478SOL    HW111333   2.685   5.506   5.178
 3478SOL    HW211334   2.648   5.348   5.193
 3479SOL     OW11335   0.751   0.144   3.318
 3479SOL    HW111336   0.679   0.142   3.249
 3479SOL    HW211337   0.727   0.211   3.388
 3480SOL     OW11338   0.609   6.595   4.634
 3480SOL    HW111339   0.531   6.566   4.690
 3480SOL    HW211340   0.623   6.529   4.560
 3481SOL     OW11341   4.568   0.546   0.309
 3481SOL    HW111342   4.486   0.528   0.255
 3481SOL    HW211343   4.568   0.488   0.390
 3482SOL     OW11344   6.392   1.492   1.734
 3482SOL    HW111345   6.468   1.448   1.782
 3482SOL    HW211346   6.306   1.473   1.782
 3483SOL     OW11347   4.881   2.126   1.871
 3483SOL    HW111348   4.854   2.090   1.960
 3483SOL    HW211349   4.801   2.162   1.823
 3484SOL     OW11350   1.141   3.038   6.843
 3484SOL    HW111351   1.155   3.085   6.756
 3484SOL    HW211352   1.139   2.939   6.827
 3485SOL     OW11353   1.916   1.386   4.255
 3485SOL    HW111354   1.916   1.416   4.350
 3485SOL    HW211355   1.838   1.428   4.207
 3486SOL     OW11356   2.846   0.194   3.746
 3486SOL    HW111357   2.822   0.101   3.720
 3486SOL    HW211358   2.939   0.196   3.781
 3487SOL     OW11359   6.167   2.347   5.405
 3487SOL    HW111360   6.100   2.289   5.361
 3487SOL    HW211361   6.143   2.358   5.502
 3488SOL     OW11362   6.222   1.020   4.411
 3488SOL    HW111363   6.270   1.048   4.328
 3488SOL    HW211364   6.160   0.944   4.389
 3489SOL     OW11365   4.436   6.826   1.306
 3489SOL    HW111366   4.509   6.876   1.258
 3489SOL    HW211367   4.419   6.869   1.395
 3490SOL     OW11368   4.382   4.513   0.490
 3490SOL    HW111369   4.465   4.568   0.501
 3490SOL    HW211370   4.307   4.572   0.460
 3491SOL     OW11371   4.477   2.330   5.402
 3491SOL    HW111372   4.543   2.317   5.477
 3491SOL    HW211373   4.522   2.308   5.315
 3492SOL     OW11374   6.864   4.860   1.289
 3492SOL    HW111375   6.914   4.777   1.265
 3492SOL    HW211376   6.772   4.837   1.318
 3493SOL     OW11377   5.419   4.227   5.435
 3493SOL    HW111378   5.355   4.282   5.382
 3493SOL    HW211379   5.393   4.229   5.532
 3494SOL     OW11380   3.525   0.280   1.319
 3494SOL    HW111381   3.426   0.273   1.336
 3494SOL    HW211382   3.540   0.335   1.236
 3495SOL     OW11383   5.527   4.876   1.960
 3495SOL    HW111384   5.493   4.797   2.010
 3495SOL    HW211385   5.457   4.907   1.895
 3496SOL     OW11386   6.165   4.272   1.268
 3496SOL    HW111387   6.174   4.337   1.193
 3496SOL    HW211388   6.171   4.179   1.233
 3497SOL     OW11389   3.021   1.225   3.857
 3497SOL    HW111390   3.054   1.319   3.846
 3497SOL    HW211391   2.971   1.198   3.774
 3498SOL     OW11392   2.853   2.195   0.957
 3498SOL    HW111393   2.892   2.287   0.959
 3498SOL    HW211394   2.775   2.193   0.894
 3499SOL     OW11395   5.044   3.691   4.106
 3499SOL    HW111396   5.118   3.741   4.061
 3499SOL    HW211397   4.966   3.753   4.120
 3500SOL     OW11398   1.594   3.669   5.238
 3500SOL    HW111399   1.550   3.608   5.304
 3500SOL    HW211400   1.567   3.763   5.257
 3501SOL     OW11401   1.785   5.553   4.837
 3501SOL    HW111402   1.740   5.624   4.782
 3501SOL    HW211403   1.765   5.463   4.798
 3502SOL     OW11404   6.570   2.870   2.598
 3502SOL    HW111405   6.651   2.912   2.641
 3502SOL    HW211406   6.588   2.857   2.500
 3503SOL     OW11407   6.094   6.532   4.929
 3503SOL    HW111408   6.161   6.459   4.939
 3503SOL    HW211409   6.018   6.517   4.992
 3504SOL     OW11410   2.383   1.779   1.756
 3504SOL    HW111411   2.390   1.684   1.788
 3504SOL    HW211412   2.297   1.791   1.705
 3505SOL     OW11413   5.911   4.572   4.810
 3505SOL    HW111414   5.939   4.639   4.878
 3505SOL    HW211415   5.840   4.513   4.848
 3506SOL     OW11416   5.029   5.583   5.841
 3506SOL    HW111417   4.937   5.597   5.877
 3506SOL    HW211418   5.047   5.485   5.831
 3507SOL     OW11419   1.583   0.718   0.913
 3507SOL    HW111420   1.496   0.671   0.926
 3507SOL    HW211421   1.594   0.788   0.984
 3508SOL     OW11422   2.947   2.276   5.512
 3508SOL    HW111423   2.895   2.315   5.588
 3508SOL    HW211424   2.884   2.238   5.444
 3509SOL     OW11425   5.454   0.019   5.894
 3509SOL    HW111426   5.357   0.041   5.891
 3509SOL    HW211427   5.465   6.938   5.914
 3510SOL     OW11428   1.613   2.162   1.937
 3510SOL    HW111429   1.533   2.160   1.877
 3510SOL    HW211430   1.584   2.155   2.032
 3511SOL     OW11431   3.016   5.301   0.497
 3511SOL    HW111432   2.919   5.279   0.487
 3511SOL    HW211433   3.070   5.217   0.490
 3512SOL     OW11434   0.479   4.324   1.119
 3512SOL    HW111435   0.544   4.396   1.145
 3512SOL    HW211436   0.391   4.365   1.095
 3513SOL     OW11437   6.327   2.981   0.680
 3513SOL    HW111438   6.369   3.018   0.763
 3513SOL    HW211439   6.307   3.055   0.617
 3514SOL     OW11440   0.565   1.485   1.964
 3514SOL    HW111441   0.579   1.544   1.884
 3514SOL    HW211442   0.484   1.429   1.950
 3515SOL     OW11443   5.581   6.010   3.090
 3515SOL    HW111444   5.553   6.026   2.996
 3515SOL    HW211445   5.603   5.913   3.102
 3516SOL     OW11446   4.965   6.996   0.705
 3516SOL    HW111447   4.912   6.959   0.629
 3516SOL    HW211448   4.959   0.079   0.705
 3517SOL     OW11449   1.562   2.477   0.464
 3517SOL    HW111450   1.567   2.484   0.365
 3517SOL    HW211451   1.654   2.474   0.503
 3518SOL     OW11452   6.030   2.693   4.290
 3518SOL    HW111453   6.047   2.791   4.283
 3518SOL    HW211454   6.085   2.655   4.365
 3519SOL     OW11455   1.544   0.834   6.881
 3519SOL    HW111456   1.522   0.932   6.871
 3519SOL    HW211457   1.459   0.782   6.891
 3520SOL     OW11458   3.116   4.696   6.222
 3520SOL    HW111459   3.088   4.752   6.144
 3520SOL    HW211460   3.182   4.627   6.192
 3521SOL     OW11461   4.869   1.949   6.899
 3521SOL    HW111462   4.818   1.863   6.898
 3521SOL    HW211463   4.936   1.947   6.973
 3522SOL     OW11464   0.237   4.523   1.765
 3522SOL    HW111465   0.295   4.460   1.714
 3522SOL    HW211466   0.292   4.574   1.832
 3523SOL     OW11467   1.972   5.218   6.342
 3523SOL    HW111468   1.920   5.145   6.298
 3523SOL    HW211469   2.057   5.233   6.292
 3524SOL     OW11470   4.591   1.609   1.686
 3524SOL    HW111471   4.556   1.531   1.635
 3524SOL    HW211472   4.673   1.644   1.641
 3525SOL     OW11473   1.265   4.308   3.200
 3525SOL    HW111474   1.236   4.299   3.105
 3525SOL    HW211475   1.284   4.404   3.220
 3526SOL     OW11476   2.338   6.175   4.247
 3526SOL    HW111477   2.430   6.179   4.288
 3526SOL    HW211478   2.269   6.185   4.319
 3527SOL     OW11479   5.973   2.765   6.275
 3527SOL    HW111480   6.054   2.735   6.226
 3527SOL    HW211481   5.941   2.691   6.335
 3528SOL     OW11482   0.800   5.650   4.579
 3528SOL    HW111483   0.850   5.591   4.643
 3528SOL    HW211484   0.709   5.611   4.562
 3529SOL     OW11485   4.171   0.327   0.070
 3529SOL    HW111486   4.216   0.298   0.154
 3529SOL    HW211487   4.117   0.251   0.033
 3530SOL     OW11488   0.354   5.231   2.718
 3530SOL    HW111489   0.306   5.233   2.630
 3530SOL    HW211490   0.414   5.151   2.721
 3531SOL     OW11491   5.634   2.733   0.749
 3531SOL    HW111492   5.551   2.743   0.804
 3531SOL    HW211493   5.710   2.778   0.795
 3532SOL     OW11494   3.037   0.906   1.726
 3532SOL    HW111495   3.019   0.924   1.823
 3532SOL    HW211496   3.123   0.856   1.717
 3533SOL     OW11497   1.857   1.851   2.445
 3533SOL    HW111498   1.786   1.786   2.417
 3533SOL    HW211499   1.908   1.815   2.522
 3534SOL     OW11500   5.510   0.599   5.870
 3534SOL    HW111501   5.528   0.562   5.961
 3534SOL    HW211502   5.454   0.535   5.819
 3535SOL     OW11503   1.795   5.729   0.569
 3535SOL    HW111504   1.794   5.634   0.539
 3535SOL    HW211505   1.840   5.786   0.500
 3536SOL     OW11506   2.560   2.513   3.293
 3536SOL    HW111507   2.619   2.503   3.213
 3536SOL    HW211508   2.584   2.442   3.360
 3537SOL     OW11509   3.202   5.520   1.249
 3537SOL    HW111510   3.188   5.614   1.219
 3537SOL    HW211511   3.116   5.482   1.284
 3538SOL     OW11512   1.229   0.484   6.299
 3538SOL    HW111513   1.224   0.582   6.282
 3538SOL    HW211514   1.187   0.435   6.223
 3539SOL     OW11515   5.904   3.540   5.961
 3539SOL    HW111516   5.838   3.513   6.030
 3539SOL    HW211517   5.892   3.484   5.879
 3540SOL     OW11518   2.282   2.399   6.337
 3540SOL    HW111519   2.298   2.458   6.258
 3540SOL    HW211520   2.260   2.455   6.417
 3541SOL     OW11521   1.635   2.442   6.567
 3541SOL    HW111522   1.662   2.524   6.517
 3541SOL    HW211523   1.561   2.396   6.518
 3542SOL     OW11524   1.484   4.784   2.224
 3542SOL    HW111525   1.438   4.865   2.189
 3542SOL    HW211526   1.446   4.702   2.179
 3543SOL     OW11527   0.794   2.398   4.816
 3543SOL    HW111528   0.856   2.324   4.840
 3543SOL    HW211529   0.751   2.380   4.728
 3544SOL     OW11530   2.898   3.923   6.140
 3544SOL    HW111531   2.888   3.837   6.090
 3544SOL    HW211532   2.852   3.915   6.228
 3545SOL     OW11533   4.143   5.391   0.462
 3545SOL    HW111534   4.102   5.478   0.488
 3545SOL    HW211535   4.106   5.318   0.519
 3546SOL     OW11536   0.469   3.587   4.058
 3546SOL    HW111537   0.450   3.489   4.050
 3546SOL    HW211538   0.493   3.624   3.969
 3547SOL     OW11539   6.709   4.768   5.106
 3547SOL    HW111540   6.805   4.785   5.130
 3547SOL    HW211541   6.695   4.788   5.009
 3548SOL     OW11542   5.534   0.476   5.537
 3548SOL    HW111543   5.632   0.473   5.555
 3548SOL    HW211544   5.517   0.464   5.440
 3549SOL     OW11545   6.943   4.478   5.894
 3549SOL    HW111546   6.922   4.499   5.798
 3549SOL    HW211547   6.864   4.500   5.951
 3550SOL     OW11548   5.752   3.326   3.385
 3550SOL    HW111549   5.671   3.283   3.424
 3550SOL    HW211550   5.796   3.262   3.322
 3551SOL     OW11551   3.243   2.129   2.694
 3551SOL    HW111552   3.331   2.155   2.655
 3551SOL    HW211553   3.169   2.172   2.641
 3552SOL     OW11554   6.358   6.581   1.551
 3552SOL    HW111555   6.374   6.644   1.474
 3552SOL    HW211556   6.260   6.560   1.556
 3553SOL     OW11557   4.667   5.259   1.055
 3553SOL    HW111558   4.751   5.283   1.103
 3553SOL    HW211559   4.685   5.254   0.957
 3554SOL     OW11560   4.476   2.045   1.181
 3554SOL    HW111561   4.465   1.955   1.223
 3554SOL    HW211562   4.562   2.046   1.129
 3555SOL     OW11563   0.502   4.471   3.734
 3555SOL    HW111564   0.528   4.551   3.789
 3555SOL    HW211565   0.564   4.395   3.755
 3556SOL     OW11566   3.937   1.305   4.240
 3556SOL    HW111567   3.973   1.341   4.153
 3556SOL    HW211568   3.911   1.209   4.228
 3557SOL     OW11569   1.066   1.521   4.403
 3557SOL    HW111570   1.085   1.495   4.498
 3557SOL    HW211571   0.972   1.555   4.396
 3558SOL     OW11572   1.109   6.130   2.265
 3558SOL    HW111573   1.027   6.077   2.288
 3558SOL    HW211574   1.117   6.207   2.329
 3559SOL     OW11575   0.260   6.058   5.420
 3559SOL    HW111576   0.182   6.015   5.464
 3559SOL    HW211577   0.338   6.057   5.483
 3560SOL     OW11578   1.343   5.684   2.776
 3560SOL    HW111579   1.363   5.586   2.774
 3560SOL    HW211580   1.415   5.733   2.727
 3561SOL     OW11581   4.296   4.747   4.887
 3561SOL    HW111582   4.240   4.794   4.955
 3561SOL    HW211583   4.322   4.657   4.923
 3562SOL     OW11584   4.104   1.463   3.242
 3562SOL    HW111585   4.080   1.366   3.234
 3562SOL    HW211586   4.037   1.518   3.192
 3563SOL     OW11587   5.720   1.559   0.134
 3563SOL    HW111588   5.647   1.568   0.067
 3563SOL    HW211589   5.751   1.464   0.137
 3564SOL     OW11590   0.894   4.439   3.448
 3564SOL    HW111591   0.966   4.502   3.476
 3564SOL    HW211592   0.874   4.375   3.522
 3565SOL     OW11593   2.985   5.679   4.951
 3565SOL    HW111594   3.063   5.715   4.899
 3565SOL    HW211595   2.923   5.630   4.890
 3566SOL     OW11596   0.126   3.648   5.883
 3566SOL    HW111597   0.065   3.580   5.842
 3566SOL    HW211598   0.071   3.722   5.922
 3567SOL     OW11599   0.344   2.753   6.598
 3567SOL    HW111600   0.296   2.813   6.534
 3567SOL    HW211601   0.279   2.721   6.668
 3568SOL     OW11602   4.691   5.293   4.039
 3568SOL    HW111603   4.706   5.361   4.111
 3568SOL    HW211604   4.595   5.291   4.014
 3569SOL     OW11605   2.163   1.516   5.761
 3569SOL    HW111606   2.259   1.493   5.773
 3569SOL    HW211607   2.155   1.614   5.742
 3570SOL     OW11608   5.244   0.668   5.347
 3570SOL    HW111609   5.206   0.753   5.311
 3570SOL    HW211610   5.311   0.688   5.418
 3571SOL     OW11611   0.925   5.447   4.736
 3571SOL    HW111612   0.915   5.358   4.691
 3571SOL    HW211613   1.007   5.447   4.792
 3572SOL     OW11614   5.751   3.946   3.135
 3572SOL    HW111615   5.763   4.000   3.218
 3572SOL    HW211616   5.684   3.873   3.151
 3573SOL     OW11617   0.294   5.392   3.628
 3573SOL    HW111618   0.312   5.319   3.693
 3573SOL    HW211619   0.202   5.382   3.590
 3574SOL     OW11620   0.788   3.361   0.840
 3574SOL    HW111621   0.727   3.355   0.919
 3574SOL    HW211622   0.827   3.270   0.821
 3575SOL     OW11623   5.512   5.364   2.213
 3575SOL    HW111624   5.538   5.305   2.137
 3575SOL    HW211625   5.425   5.409   2.192
 3576SOL     OW11626   0.495   2.690   5.978
 3576SOL    HW111627   0.510   2.788   5.967
 3576SOL    HW211628   0.473   2.670   6.074
 3577SOL     OW11629   1.295   2.021   6.388
 3577SOL    HW111630   1.358   2.033   6.312
 3577SOL    HW211631   1.217   1.965   6.358
 3578SOL     OW11632   3.825   1.855   0.073
 3578SOL    HW111633   3.844   1.763   0.108
 3578SOL    HW211634   3.902   1.916   0.093
 3579SOL     OW11635   0.524   2.251   3.600
 3579SOL    HW111636   0.615   2.214   3.581
 3579SOL    HW211637   0.532   2.343   3.638
 3580SOL     OW11638   6.443   3.454   1.436
 3580SOL    HW111639   6.346   3.440   1.456
 3580SOL    HW211640   6.453   3.491   1.344
 3581SOL     OW11641   1.379   5.772   3.463
 3581SOL    HW111642   1.283   5.801   3.454
 3581SOL    HW211643   1.382   5.686   3.513
 3582SOL     OW11644   0.986   3.392   6.458
 3582SOL    HW111645   0.988   3.476   6.512
 3582SOL    HW211646   0.911   3.334   6.490
 3583SOL     OW11647   1.174   4.470   6.441
 3583SOL    HW111648   1.158   4.460   6.343
 3583SOL    HW211649   1.170   4.567   6.465
 3584SOL     OW11650   5.661   4.932   6.574
 3584SOL    HW111651   5.667   4.923   6.475
 3584SOL    HW211652   5.645   4.841   6.614
 3585SOL     OW11653   3.124   1.109   4.603
 3585SOL    HW111654   3.078   1.021   4.591
 3585SOL    HW211655   3.217   1.103   4.566
 3586SOL     OW11656   6.272   1.539   4.876
 3586SOL    HW111657   6.331   1.577   4.805
 3586SOL    HW211658   6.177   1.563   4.856
 3587SOL     OW11659   2.110   4.697   5.622
 3587SOL    HW111660   2.201   4.655   5.622
 3587SOL    HW211661   2.040   4.625   5.619
 3588SOL     OW11662   1.430   3.033   5.368
 3588SOL    HW111663   1.476   2.954   5.327
 3588SOL    HW211664   1.361   3.067   5.304
 3589SOL     OW11665   5.303   0.886   5.117
 3589SOL    HW111666   5.279   0.962   5.177
 3589SOL    HW211667   5.225   0.824   5.109
 3590SOL     OW11668   1.017   3.353   0.364
 3590SOL    HW111669   0.988   3.312   0.451
 3590SOL    HW211670   1.114   3.331   0.348
 3591SOL     OW11671   5.342   4.035   6.704
 3591SOL    HW111672   5.404   3.959   6.725
 3591SOL    HW211673   5.298   4.019   6.616
 3592SOL     OW11674   0.682   5.252   1.864
 3592SOL    HW111675   0.769   5.292   1.895
 3592SOL    HW211676   0.698   5.202   1.779
 3593SOL     OW11677   0.781   5.206   5.481
 3593SOL    HW111678   0.742   5.165   5.563
 3593SOL    HW211679   0.829   5.290   5.505
 3594SOL     OW11680   5.041   6.668   3.606
 3594SOL    HW111681   5.052   6.766   3.621
 3594SOL    HW211682   4.956   6.651   3.556
 3595SOL     OW11683   4.585   5.688   6.222
 3595SOL    HW111684   4.589   5.677   6.321
 3595SOL    HW211685   4.588   5.785   6.199
 3596SOL     OW11686   6.634   3.135   2.965
 3596SOL    HW111687   6.632   3.161   3.062
 3596SOL    HW211688   6.548   3.089   2.942
 3597SOL     OW11689   1.919   1.984   5.643
 3597SOL    HW111690   1.913   2.072   5.596
 3597SOL    HW211691   1.990   1.988   5.713
 3598SOL     OW11692   0.964   5.726   6.446
 3598SOL    HW111693   0.869   5.718   6.477
 3598SOL    HW211694   0.966   5.770   6.356
 3599SOL     OW11695   5.986   2.285   6.323
 3599SOL    HW111696   6.079   2.312   6.350
 3599SOL    HW211697   5.930   2.272   6.405
 3600SOL     OW11698   0.593   2.985   1.760
 3600SOL    HW111699   0.501   2.962   1.728
 3600SOL    HW211700   0.633   3.054   1.699
 3601SOL     OW11701   5.168   3.056   6.058
 3601SOL    HW111702   5.117   2.980   6.016
 3601SOL    HW211703   5.123   3.142   6.034
 3602SOL     OW11704   1.625   3.722   0.753
 3602SOL    HW111705   1.622   3.821   0.740
 3602SOL    HW211706   1.532   3.685   0.749
 3603SOL     OW11707   3.390   1.297   4.010
 3603SOL    HW111708   3.364   1.374   3.951
 3603SOL    HW211709   3.482   1.311   4.045
 3604SOL     OW11710   6.526   6.015   3.350
 3604SOL    HW111711   6.468   6.088   3.314
 3604SOL    HW211712   6.609   6.055   3.388
 3605SOL     OW11713   6.583   4.146   4.640
 3605SOL    HW111714   6.614   4.237   4.667
 3605SOL    HW211715   6.498   4.124   4.688
 3606SOL     OW11716   0.712   0.481   4.502
 3606SOL    HW111717   0.758   0.484   4.590
 3606SOL    HW211718   0.613   0.490   4.516
 3607SOL     OW11719   5.609   5.271   1.964
 3607SOL    HW111720   5.523   5.280   1.913
 3607SOL    HW211721   5.669   5.348   1.943
 3608SOL     OW11722   4.821   2.386   4.673
 3608SOL    HW111723   4.781   2.317   4.613
 3608SOL    HW211724   4.841   2.469   4.620
 3609SOL     OW11725   1.298   0.425   4.506
 3609SOL    HW111726   1.284   0.492   4.433
 3609SOL    HW211727   1.293   0.333   4.468
 3610SOL     OW11728   1.767   6.744   5.793
 3610SOL    HW111729   1.723   6.670   5.742
 3610SOL    HW211730   1.828   6.795   5.732
 3611SOL     OW11731   4.575   4.792   4.839
 3611SOL    HW111732   4.475   4.793   4.836
 3611SOL    HW211733   4.606   4.718   4.898
 3612SOL     OW11734   0.254   6.859   0.346
 3612SOL    HW111735   0.329   6.795   0.364
 3612SOL    HW211736   0.168   6.818   0.375
 3613SOL     OW11737   4.854   4.660   2.053
 3613SOL    HW111738   4.767   4.618   2.028
 3613SOL    HW211739   4.877   4.635   2.148
 3614SOL     OW11740   3.829   3.455   0.916
 3614SOL    HW111741   3.829   3.426   1.012
 3614SOL    HW211742   3.735   3.468   0.885
 3615SOL     OW11743   5.176   3.688   6.141
 3615SOL    HW111744   5.137   3.625   6.209
 3615SOL    HW211745   5.275   3.687   6.149
 3616SOL     OW11746   0.428   1.754   6.370
 3616SOL    HW111747   0.372   1.760   6.287
 3616SOL    HW211748   0.437   1.658   6.396
 3617SOL     OW11749   4.523   0.838   0.293
 3617SOL    HW111750   4.558   0.745   0.304
 3617SOL    HW211751   4.463   0.842   0.214
 3618SOL     OW11752   2.569   2.937   5.584
 3618SOL    HW111753   2.485   2.957   5.533
 3618SOL    HW211754   2.555   2.857   5.642
 3619SOL     OW11755   5.916   2.845   4.880
 3619SOL    HW111756   5.859   2.764   4.887
 3619SOL    HW211757   5.998   2.823   4.826
 3620SOL     OW11758   6.199   6.151   5.650
 3620SOL    HW111759   6.102   6.168   5.666
 3620SOL    HW211760   6.218   6.155   5.552
 3621SOL     OW11761   3.363   2.933   5.313
 3621SOL    HW111762   3.279   2.878   5.322
 3621SOL    HW211763   3.362   2.982   5.226
 3622SOL     OW11764   0.935   1.963   6.508
 3622SOL    HW111765   0.995   1.922   6.439
 3622SOL    HW211766   0.855   1.904   6.521
 3623SOL     OW11767   6.874   6.485   4.559
 3623SOL    HW111768   6.840   6.422   4.488
 3623SOL    HW211769   6.843   6.454   4.649
 3624SOL     OW11770   1.801   6.859   2.227
 3624SOL    HW111771   1.864   6.918   2.178
 3624SOL    HW211772   1.747   6.913   2.292
 3625SOL     OW11773   0.152   3.016   6.696
 3625SOL    HW111774   0.248   3.045   6.705
 3625SOL    HW211775   0.118   2.983   6.784
 3626SOL     OW11776   1.679   2.471   5.495
 3626SOL    HW111777   1.610   2.541   5.514
 3626SOL    HW211778   1.645   2.410   5.423
 3627SOL     OW11779   3.098   3.449   1.843
 3627SOL    HW111780   3.110   3.358   1.805
 3627SOL    HW211781   3.186   3.485   1.874
 3628SOL     OW11782   1.560   0.987   2.428
 3628SOL    HW111783   1.523   1.032   2.510
 3628SOL    HW211784   1.553   0.888   2.439
 3629SOL     OW11785   6.908   1.109   5.523
 3629SOL    HW111786   6.923   1.134   5.427
 3629SOL    HW211787   6.810   1.112   5.543
 3630SOL     OW11788   5.126   2.290   4.143
 3630SOL    HW111789   5.189   2.362   4.173
 3630SOL    HW211790   5.060   2.271   4.216
 3631SOL     OW11791   2.242   0.879   3.340
 3631SOL    HW111792   2.174   0.896   3.412
 3631SOL    HW211793   2.318   0.825   3.378
 3632SOL     OW11794   5.539   5.266   0.705
 3632SOL    HW111795   5.534   5.312   0.793
 3632SOL    HW211796   5.629   5.225   0.694
 3633SOL     OW11797   4.158   1.937   5.784
 3633SOL    HW111798   4.236   1.992   5.754
 3633SOL    HW211799   4.164   1.846   5.742
 3634SOL     OW11800   1.704   5.253   5.650
 3634SOL    HW111801   1.787   5.266   5.595
 3634SOL    HW211802   1.722   5.189   5.724
 3635SOL     OW11803   3.333   6.734   0.958
 3635SOL    HW111804   3.301   6.785   1.038
 3635SOL    HW211805   3.323   6.636   0.975
 3636SOL     OW11806   6.998   5.791   0.804
 3636SOL    HW111807   0.044   5.771   0.728
 3636SOL    HW211808   0.017   5.868   0.858
 3637SOL     OW11809   0.314   2.771   2.065
 3637SOL    HW111810   0.238   2.795   2.005
 3637SOL    HW211811   0.281   2.765   2.160
 3638SOL     OW11812   0.818   4.143   3.102
 3638SOL    HW111813   0.808   4.243   3.100
 3638SOL    HW211814   0.730   4.101   3.123
 3639SOL     OW11815   4.046   5.644   0.559
 3639SOL    HW111816   4.040   5.696   0.473
 3639SOL    HW211817   4.030   5.705   0.636
 3640SOL     OW11818   4.157   1.001   0.428
 3640SOL    HW111819   4.203   0.952   0.354
 3640SOL    HW211820   4.097   1.071   0.389
 3641SOL     OW11821   6.107   3.851   2.435
 3641SOL    HW111822   6.122   3.910   2.515
 3641SOL    HW211823   6.135   3.757   2.457
 3642SOL     OW11824   5.445   2.028   6.924
 3642SOL    HW111825   5.496   2.053   7.006
 3642SOL    HW211826   5.505   2.029   6.844
 3643SOL     OW11827   2.525   5.771   4.761
 3643SOL    HW111828   2.598   5.737   4.820
 3643SOL    HW211829   2.472   5.694   4.725
 3644SOL     OW11830   1.385   1.695   1.903
 3644SOL    HW111831   1.315   1.626   1.882
 3644SOL    HW211832   1.470   1.670   1.858
 3645SOL     OW11833   1.595   2.047   3.884
 3645SOL    HW111834   1.680   2.029   3.935
 3645SOL    HW211835   1.519   2.057   3.949
 3646SOL     OW11836   1.998   4.163   6.139
 3646SOL    HW111837   1.966   4.191   6.230
 3646SOL    HW211838   2.032   4.069   6.143
 3647SOL     OW11839   2.338   6.268   6.787
 3647SOL    HW111840   2.436   6.288   6.790
 3647SOL    HW211841   2.292   6.338   6.732
 3648SOL     OW11842   4.518   5.914   2.500
 3648SOL    HW111843   4.590   5.856   2.537
 3648SOL    HW211844   4.513   5.999   2.554
 3649SOL     OW11845   6.357   3.006   1.285
 3649SOL    HW111846   6.291   2.960   1.344
 3649SOL    HW211847   6.449   2.995   1.323
 3650SOL     OW11848   6.460   5.299   2.202
 3650SOL    HW111849   6.560   5.303   2.209
 3650SOL    HW211850   6.428   5.378   2.149
 3651SOL     OW11851   0.888   0.707   4.382
 3651SOL    HW111852   0.940   0.665   4.308
 3651SOL    HW211853   0.850   0.636   4.441
 3652SOL     OW11854   6.153   0.032   3.484
 3652SOL    HW111855   6.186   0.104   3.545
 3652SOL    HW211856   6.208   6.966   3.495
 3653SOL     OW11857   1.252   1.199   3.023
 3653SOL    HW111858   1.336   1.254   3.016
 3653SOL    HW211859   1.273   1.112   3.066
 3654SOL     OW11860   3.940   5.035   0.030
 3654SOL    HW111861   3.980   4.985   6.969
 3654SOL    HW211862   3.849   4.998   0.050
 3655SOL     OW11863   3.416   6.830   3.958
 3655SOL    HW111864   3.430   6.851   4.055
 3655SOL    HW211865   3.342   6.763   3.949
 3656SOL     OW11866   0.362   5.130   1.741
 3656SOL    HW111867   0.386   5.204   1.678
 3656SOL    HW211868   0.324   5.053   1.689
 3657SOL     OW11869   5.636   5.318   5.418
 3657SOL    HW111870   5.686   5.349   5.338
 3657SOL    HW211871   5.575   5.243   5.392
 3658SOL     OW11872   2.549   4.523   6.557
 3658SOL    HW111873   2.492   4.443   6.578
 3658SOL    HW211874   2.541   4.544   6.459
 3659SOL     OW11875   2.316   2.533   6.092
 3659SOL    HW111876   2.242   2.547   6.026
 3659SOL    HW211877   2.380   2.610   6.087
 3660SOL     OW11878   5.483   6.103   4.272
 3660SOL    HW111879   5.417   6.064   4.209
 3660SOL    HW211880   5.545   6.031   4.304
 3661SOL     OW11881   6.893   0.697   5.044
 3661SOL    HW111882   6.969   0.640   5.013
 3661SOL    HW211883   6.894   0.703   5.144
 3662SOL     OW11884   4.168   0.619   4.187
 3662SOL    HW111885   4.197   0.645   4.095
 3662SOL    HW211886   4.223   0.669   4.254
 3663SOL     OW11887   1.799   2.572   0.618
 3663SOL    HW111888   1.797   2.592   0.716
 3663SOL    HW211889   1.773   2.477   0.603
 3664SOL     OW11890   4.603   2.211   1.776
 3664SOL    HW111891   4.571   2.126   1.816
 3664SOL    HW211892   4.592   2.286   1.841
 3665SOL     OW11893   1.137   6.228   4.928
 3665SOL    HW111894   1.120   6.133   4.955
 3665SOL    HW211895   1.050   6.273   4.907
 3666SOL     OW11896   1.101   4.024   2.779
 3666SOL    HW111897   1.126   3.968   2.858
 3666SOL    HW211898   1.003   4.043   2.781
 3667SOL     OW11899   0.376   1.345   3.707
 3667SOL    HW111900   0.317   1.315   3.632
 3667SOL    HW211901   0.333   1.421   3.755
 3668SOL     OW11902   1.343   0.868   1.609
 3668SOL    HW111903   1.378   0.908   1.694
 3668SOL    HW211904   1.247   0.893   1.599
 3669SOL     OW11905   5.451   1.954   3.446
 3669SOL    HW111906   5.500   1.875   3.412
 3669SOL    HW211907   5.353   1.933   3.450
 3670SOL     OW11908   2.084   5.545   6.682
 3670SOL    HW111909   2.129   5.518   6.597
 3670SOL    HW211910   2.023   5.623   6.664
 3671SOL     OW11911   7.007   1.879   4.009
 3671SOL    HW111912   6.910   1.858   3.996
 3671SOL    HW211913   0.002   1.977   4.020
 3672SOL     OW11914   4.455   2.075   2.169
 3672SOL    HW111915   4.543   2.106   2.133
 3672SOL    HW211916   4.381   2.106   2.109
 3673SOL     OW11917   3.814   5.758   6.799
 3673SOL    HW111918   3.773   5.847   6.821
 3673SOL    HW211919   3.809   5.699   6.879
 3674SOL     OW11920   1.609   5.642   5.688
 3674SOL    HW111921   1.622   5.642   5.588
 3674SOL    HW211922   1.597   5.736   5.720
 3675SOL     OW11923   1.924   2.836   4.482
 3675SOL    HW111924   1.852   2.770   4.464
 3675SOL    HW211925   1.886   2.929   4.477
 3676SOL     OW11926   6.729   4.293   2.905
 3676SOL    HW111927   6.654   4.227   2.902
 3676SOL    HW211928   6.749   4.325   2.812
 3677SOL     OW11929   2.780   6.343   4.446
 3677SOL    HW111930   2.733   6.343   4.358
 3677SOL    HW211931   2.844   6.419   4.450
 3678SOL     OW11932   1.319   1.383   4.408
 3678SOL    HW111933   1.239   1.413   4.357
 3678SOL    HW211934   1.291   1.348   4.497
 3679SOL     OW11935   6.837   0.410   3.242
 3679SOL    HW111936   6.850   0.442   3.148
 3679SOL    HW211937   6.773   0.470   3.289
 3680SOL     OW11938   5.121   2.597   3.826
 3680SOL    HW111939   5.037   2.555   3.859
 3680SOL    HW211940   5.138   2.569   3.732
 3681SOL     OW11941   0.745   1.350   6.626
 3681SOL    HW111942   0.691   1.418   6.675
 3681SOL    HW211943   0.692   1.266   6.614
 3682SOL     OW11944   6.025   2.828   0.126
 3682SOL    HW111945   6.094   2.757   0.114
 3682SOL    HW211946   6.047   2.883   0.207
 3683SOL     OW11947   0.348   1.526   4.430
 3683SOL    HW111948   0.419   1.484   4.487
 3683SOL    HW211949   0.265   1.470   4.433
 3684SOL     OW11950   1.082   5.520   0.508
 3684SOL    HW111951   1.085   5.600   0.567
 3684SOL    HW211952   0.996   5.471   0.521
 3685SOL     OW11953   1.925   5.945   6.245
 3685SOL    HW111954   1.955   5.854   6.215
 3685SOL    HW211955   1.967   6.015   6.188
 3686SOL     OW11956   6.288   4.975   4.677
 3686SOL    HW111957   6.273   4.881   4.706
 3686SOL    HW211958   6.201   5.024   4.675
 3687SOL     OW11959   3.876   6.026   4.034
 3687SOL    HW111960   3.953   6.090   4.039
 3687SOL    HW211961   3.795   6.069   4.072
 3688SOL     OW11962   0.022   2.728   0.091
 3688SOL    HW111963   0.009   2.684   0.002
 3688SOL    HW211964   7.010   2.666   0.164
 3689SOL     OW11965   1.803   0.385   5.650
 3689SOL    HW111966   1.872   0.317   5.675
 3689SOL    HW211967   1.759   0.358   5.565
 3690SOL     OW11968   3.880   5.834   0.158
 3690SOL    HW111969   3.866   5.776   0.077
 3690SOL    HW211970   3.793   5.874   0.185
 3691SOL     OW11971   2.649   1.373   6.871
 3691SOL    HW111972   2.704   1.309   6.923
 3691SOL    HW211973   2.647   1.346   6.775
 3692SOL     OW11974   6.682   5.125   5.539
 3692SOL    HW111975   6.755   5.167   5.593
 3692SOL    HW211976   6.653   5.040   5.584
 3693SOL     OW11977   2.024   3.155   2.954
 3693SOL    HW111978   2.062   3.214   2.884
 3693SOL    HW211979   2.036   3.059   2.928
 3694SOL     OW11980   0.721   6.306   2.247
 3694SOL    HW111981   0.623   6.288   2.252
 3694SOL    HW211982   0.766   6.235   2.193
 3695SOL     OW11983   4.994   3.044   1.241
 3695SOL    HW111984   5.057   3.025   1.316
 3695SOL    HW211985   4.997   3.142   1.219
 3696SOL     OW11986   3.754   0.460   4.064
 3696SOL    HW111987   3.808   0.517   4.125
 3696SOL    HW211988   3.802   0.374   4.047
 3697SOL     OW11989   0.133   6.010   2.912
 3697SOL    HW111990   0.133   5.997   2.812
 3697SOL    HW211991   0.227   6.007   2.946
 3698SOL     OW11992   2.370   0.803   3.851
 3698SOL    HW111993   2.383   0.710   3.886
 3698SOL    HW211994   2.272   0.823   3.848
 3699SOL     OW11995   1.907   1.023   3.358
 3699SOL    HW111996   1.839   1.060   3.421
 3699SOL    HW211997   1.904   0.923   3.362
 3700SOL     OW11998   1.538   5.136   4.905
 3700SOL    HW111999   1.508   5.203   4.973
 3700SOL    HW212000   1.572   5.054   4.952
 3701SOL     OW12001   1.593   0.003   3.709
 3701SOL    HW112002   1.573   0.082   3.767
 3701SOL    HW212003   1.687   6.990   3.724
 3702SOL     OW12004   5.642   6.570   3.759
 3702SOL    HW112005   5.678   6.495   3.703
 3702SOL    HW212006   5.555   6.601   3.720
 3703SOL     OW12007   6.772   0.750   6.517
 3703SOL    HW112008   6.782   0.665   6.568
 3703SOL    HW212009   6.860   0.798   6.514
 3704SOL     OW12010   3.870   2.053   1.063
 3704SOL    HW112011   3.845   2.044   0.967
 3704SOL    HW212012   3.847   2.145   1.096
 3705SOL     OW12013   5.364   4.218   4.599
 3705SOL    HW112014   5.276   4.214   4.553
 3705SOL    HW212015   5.416   4.297   4.567
 3706SOL     OW12016   0.487   3.671   6.947
 3706SOL    HW112017   0.551   3.601   6.915
 3706SOL    HW212018   0.524   3.716   0.012
 3707SOL     OW12019   5.233   5.137   4.915
 3707SOL    HW112020   5.153   5.077   4.918
 3707SOL    HW212021   5.205   5.227   4.880
 3708SOL     OW12022   5.707   0.013   0.632
 3708SOL    HW112023   5.681   0.076   0.706
 3708SOL    HW212024   5.626   7.006   0.578
 3709SOL     OW12025   3.699   0.138   1.790
 3709SOL    HW112026   3.628   0.205   1.767
 3709SOL    HW212027   3.669   0.084   1.868
 3710SOL     OW12028   6.542   5.256   5.286
 3710SOL    HW112029   6.481   5.302   5.222
 3710SOL    HW212030   6.522   5.287   5.379
 3711SOL     OW12031   1.234   5.468   5.189
 3711SOL    HW112032   1.173   5.391   5.208
 3711SOL    HW212033   1.303   5.474   5.261
 3712SOL     OW12034   1.146   5.098   6.159
 3712SOL    HW112035   1.050   5.093   6.188
 3712SOL    HW212036   1.152   5.082   6.061
 3713SOL     OW12037   0.587   6.906   5.141
 3713SOL    HW112038   0.587   6.940   5.235
 3713SOL    HW212039   0.678   6.914   5.102
 3714SOL     OW12040   5.856   5.817   6.562
 3714SOL    HW112041   5.809   5.869   6.492
 3714SOL    HW212042   5.789   5.771   6.621
 3715SOL     OW12043   1.105   4.249   2.437
 3715SOL    HW112044   1.011   4.217   2.448
 3715SOL    HW212045   1.119   4.332   2.492
 3716SOL     OW12046   5.914   6.478   4.587
 3716SOL    HW112047   5.875   6.444   4.502
 3716SOL    HW212048   6.004   6.436   4.602
 3717SOL     OW12049   5.851   0.409   0.055
 3717SOL    HW112050   5.915   0.353   0.106
 3717SOL    HW212051   5.855   0.503   0.088
 3718SOL     OW12052   6.703   0.378   0.500
 3718SOL    HW112053   6.622   0.394   0.558
 3718SOL    HW212054   6.686   0.299   0.442
 3719SOL     OW12055   5.148   2.921   0.668
 3719SOL    HW112056   5.083   2.883   0.602
 3719SOL    HW212057   5.099   2.981   0.732
 3720SOL     OW12058   5.998   3.059   0.795
 3720SOL    HW112059   6.062   2.984   0.776
 3720SOL    HW212060   5.927   3.027   0.858
 3721SOL     OW12061   0.237   5.116   1.477
 3721SOL    HW112062   0.171   5.121   1.552
 3721SOL    HW212063   0.189   5.124   1.389
 3722SOL     OW12064   5.645   5.902   0.994
 3722SOL    HW112065   5.579   5.848   0.941
 3722SOL    HW212066   5.674   5.851   1.075
 3723SOL     OW12067   5.379   4.679   0.947
 3723SOL    HW112068   5.406   4.713   0.857
 3723SOL    HW212069   5.427   4.731   1.018
 3724SOL     OW12070   1.861   4.520   5.014
 3724SOL    HW112071   1.766   4.542   5.037
 3724SOL    HW212072   1.862   4.449   4.943
 3725SOL     OW12073   0.351   5.332   6.805
 3725SOL    HW112074   0.308   5.294   6.723
 3725SOL    HW212075   0.450   5.324   6.797
 3726SOL     OW12076   5.813   2.917   6.069
 3726SOL    HW112077   5.826   2.847   6.140
 3726SOL    HW212078   5.721   2.911   6.032
 3727SOL     OW12079   6.583   2.115   5.351
 3727SOL    HW112080   6.540   2.138   5.264
 3727SOL    HW212081   6.572   2.017   5.369
 3728SOL     OW12082   0.925   3.174   6.662
 3728SOL    HW112083   1.003   3.153   6.604
 3728SOL    HW212084   0.883   3.088   6.692
 3729SOL     OW12085   1.621   1.319   4.016
 3729SOL    HW112086   1.585   1.294   4.106
 3729SOL    HW212087   1.639   1.417   4.014
 3730SOL     OW12088   3.024   5.712   5.511
 3730SOL    HW112089   3.044   5.631   5.566
 3730SOL    HW212090   2.942   5.695   5.455
 3731SOL     OW12091   6.960   1.468   0.161
 3731SOL    HW112092   6.960   1.372   0.187
 3731SOL    HW212093   0.035   1.494   0.129
 3732SOL     OW12094   2.557   1.986   0.173
 3732SOL    HW112095   2.550   1.887   0.168
 3732SOL    HW212096   2.632   2.012   0.234
 3733SOL     OW12097   2.090   2.862   2.910
 3733SOL    HW112098   2.050   2.847   2.819
 3733SOL    HW212099   2.122   2.775   2.947
 3734SOL     OW12100   5.424   0.275   1.019
 3734SOL    HW112101   5.330   0.255   0.991
 3734SOL    HW212102   5.433   0.261   1.118
 3735SOL     OW12103   3.121   0.439   2.502
 3735SOL    HW112104   3.102   0.401   2.411
 3735SOL    HW212105   3.184   0.377   2.550
 3736SOL     OW12106   0.398   1.268   1.108
 3736SOL    HW112107   0.487   1.304   1.135
 3736SOL    HW212108   0.409   1.207   1.030
 3737SOL     OW12109   5.264   1.579   3.929
 3737SOL    HW112110   5.177   1.618   3.959
 3737SOL    HW212111   5.340   1.627   3.974
 3738SOL     OW12112   6.413   0.468   1.256
 3738SOL    HW112113   6.430   0.454   1.158
 3738SOL    HW212114   6.316   0.490   1.270
 3739SOL     OW12115   2.366   5.311   1.098
 3739SOL    HW112116   2.448   5.272   1.056
 3739SOL    HW212117   2.386   5.338   1.192
 3740SOL     OW12118   6.574   0.071   0.732
 3740SOL    HW112119   6.651   0.116   0.777
 3740SOL    HW212120   6.597   0.051   0.637
 3741SOL     OW12121   5.062   2.846   5.866
 3741SOL    HW112122   4.992   2.775   5.860
 3741SOL    HW212123   5.146   2.813   5.822
 3742SOL     OW12124   3.749   1.419   0.114
 3742SOL    HW112125   3.790   1.416   0.023
 3742SOL    HW212126   3.795   1.489   0.169
 3743SOL     OW12127   5.789   2.977   0.446
 3743SOL    HW112128   5.822   2.910   0.512
 3743SOL    HW212129   5.857   3.049   0.434
 3744SOL     OW12130   1.202   6.560   1.887
 3744SOL    HW112131   1.204   6.486   1.954
 3744SOL    HW212132   1.150   6.637   1.925
 3745SOL     OW12133   4.727   4.521   2.833
 3745SOL    HW112134   4.713   4.439   2.778
 3745SOL    HW212135   4.731   4.497   2.930
 3746SOL     OW12136   6.984   0.521   4.169
 3746SOL    HW112137   0.046   0.582   4.159
 3746SOL    HW212138   6.900   0.575   4.164
 3747SOL     OW12139   3.891   5.581   5.170
 3747SOL    HW112140   3.843   5.578   5.082
 3747SOL    HW212141   3.835   5.629   5.237
 3748SOL     OW12142   5.623   1.339   1.495
 3748SOL    HW112143   5.666   1.417   1.541
 3748SOL    HW212144   5.573   1.284   1.562
 3749SOL     OW12145   2.603   4.893   3.010
 3749SOL    HW112146   2.681   4.877   3.070
 3749SOL    HW212147   2.569   4.986   3.025
 3750SOL     OW12148   6.365   4.711   1.205
 3750SOL    HW112149   6.447   4.654   1.195
 3750SOL    HW212150   6.312   4.681   1.284
 3751SOL     OW12151   6.770   3.360   1.001
 3751SOL    HW112152   6.856   3.312   0.987
 3751SOL    HW212153   6.728   3.329   1.087
 3752SOL     OW12154   0.264   6.556   0.220
 3752SOL    HW112155   0.333   6.596   0.160
 3752SOL    HW212156   0.253   6.459   0.199
 3753SOL     OW12157   0.224   1.117   3.873
 3753SOL    HW112158   0.308   1.159   3.837
 3753SOL    HW212159   0.216   1.137   3.971
 3754SOL     OW12160   3.869   6.733   1.214
 3754SOL    HW112161   3.842   6.813   1.267
 3754SOL    HW212162   3.844   6.746   1.118
 3755SOL     OW12163   5.241   5.733   4.481
 3755SOL    HW112164   5.247   5.779   4.392
 3755SOL    HW212165   5.222   5.636   4.467
 3756SOL     OW12166   2.418   6.037   6.115
 3756SOL    HW112167   2.440   5.969   6.185
 3756SOL    HW212168   2.496   6.046   6.052
 3757SOL     OW12169   3.893   6.702   6.110
 3757SOL    HW112170   3.912   6.606   6.090
 3757SOL    HW212171   3.797   6.713   6.135
 3758SOL     OW12172   2.135   1.644   4.895
 3758SOL    HW112173   2.107   1.655   4.799
 3758SOL    HW212174   2.229   1.612   4.899
 3759SOL     OW12175   4.491   5.522   5.973
 3759SOL    HW112176   4.497   5.580   6.055
 3759SOL    HW212177   4.569   5.541   5.913
 3760SOL     OW12178   1.729   2.078   4.949
 3760SOL    HW112179   1.741   2.167   4.905
 3760SOL    HW212180   1.739   2.089   5.048
 3761SOL     OW12181   0.826   0.851   5.425
 3761SOL    HW112182   0.749   0.794   5.396
 3761SOL    HW212183   0.895   0.852   5.353
 3762SOL     OW12184   1.275   4.502   0.253
 3762SOL    HW112185   1.372   4.506   0.231
 3762SOL    HW212186   1.224   4.558   0.187
 3763SOL     OW12187   6.752   4.549   0.562
 3763SOL    HW112188   6.656   4.572   0.580
 3763SOL    HW212189   6.758   4.452   0.537
 3764SOL     OW12190   1.840   6.732   4.451
 3764SOL    HW112191   1.811   6.816   4.405
 3764SOL    HW212192   1.763   6.694   4.502
 3765SOL     OW12193   4.889   0.778   1.097
 3765SOL    HW112194   4.858   0.735   1.012
 3765SOL    HW212195   4.813   0.782   1.161
 3766SOL     OW12196   1.061   1.411   3.675
 3766SOL    HW112197   1.067   1.350   3.754
 3766SOL    HW212198   1.132   1.387   3.609
 3767SOL     OW12199   2.607   4.551   0.876
 3767SOL    HW112200   2.628   4.527   0.970
 3767SOL    HW212201   2.692   4.564   0.825
 3768SOL     OW12202   2.025   6.052   4.997
 3768SOL    HW112203   2.074   6.041   4.910
 3768SOL    HW212204   1.928   6.032   4.983
 3769SOL     OW12205   5.950   6.263   5.678
 3769SOL    HW112206   5.864   6.246   5.727
 3769SOL    HW212207   5.956   6.360   5.655
 3770SOL     OW12208   1.878   0.181   6.763
 3770SOL    HW112209   1.886   0.151   6.858
 3770SOL    HW212210   1.906   0.106   6.702
 3771SOL     OW12211   6.165   2.950   0.381
 3771SOL    HW112212   6.168   2.907   0.471
 3771SOL    HW212213   6.095   3.022   0.381
 3772SOL     OW12214   6.983   0.717   0.309
 3772SOL    HW112215   6.916   0.739   0.239
 3772SOL    HW212216   6.935   0.693   0.394
 3773SOL     OW12217   6.532   3.174   5.703
 3773SOL    HW112218   6.591   3.179   5.622
 3773SOL    HW212219   6.472   3.254   5.704
 3774SOL     OW12220   0.219   5.566   0.172
 3774SOL    HW112221   0.164   5.621   0.235
 3774SOL    HW212222   0.208   5.469   0.193
 3775SOL     OW12223   5.090   5.195   2.471
 3775SOL    HW112224   5.013   5.200   2.535
 3775SOL    HW212225   5.115   5.287   2.442
 3776SOL     OW12226   3.943   1.621   1.022
 3776SOL    HW112227   3.969   1.524   1.018
 3776SOL    HW212228   3.907   1.642   1.113
 3777SOL     OW12229   3.457   4.941   4.366
 3777SOL    HW112230   3.439   4.908   4.273
 3777SOL    HW212231   3.376   4.927   4.423
 3778SOL     OW12232   3.282   4.887   2.365
 3778SOL    HW112233   3.358   4.898   2.429
 3778SOL    HW212234   3.222   4.813   2.397
 3779SOL     OW12235   1.912   5.185   1.080
 3779SOL    HW112236   1.998   5.163   1.126
 3779SOL    HW212237   1.924   5.270   1.028
 3780SOL     OW12238   5.190   5.935   5.610
 3780SOL    HW112239   5.174   6.016   5.666
 3780SOL    HW212240   5.239   5.867   5.663
 3781SOL     OW12241   1.331   6.797   4.390
 3781SOL    HW112242   1.291   6.873   4.340
 3781SOL    HW212243   1.287   6.789   4.480
 3782SOL     OW12244   2.641   0.710   4.088
 3782SOL    HW112245   2.571   0.664   4.035
 3782SOL    HW212246   2.606   0.733   4.179
 3783SOL     OW12247   5.390   5.472   4.313
 3783SOL    HW112248   5.461   5.531   4.274
 3783SOL    HW212249   5.317   5.458   4.246
 3784SOL     OW12250   4.747   2.858   2.253
 3784SOL    HW112251   4.738   2.915   2.172
 3784SOL    HW212252   4.696   2.773   2.240
 3785SOL     OW12253   1.663   1.553   6.342
 3785SOL    HW112254   1.747   1.606   6.327
 3785SOL    HW212255   1.680   1.458   6.316
 3786SOL     OW12256   2.106   6.482   2.651
 3786SOL    HW112257   2.070   6.519   2.737
 3786SOL    HW212258   2.066   6.531   2.574
 3787SOL     OW12259   5.970   0.385   2.499
 3787SOL    HW112260   6.029   0.324   2.552
 3787SOL    HW212261   5.998   0.383   2.403
 3788SOL     OW12262   1.135   4.272   4.442
 3788SOL    HW112263   1.044   4.270   4.483
 3788SOL    HW212264   1.154   4.183   4.399
 3789SOL     OW12265   0.566   3.212   5.279
 3789SOL    HW112266   0.482   3.183   5.324
 3789SOL    HW212267   0.633   3.138   5.282
 3790SOL     OW12268   1.740   4.804   5.367
 3790SOL    HW112269   1.697   4.718   5.393
 3790SOL    HW212270   1.829   4.785   5.324
 3791SOL     OW12271   5.765   0.584   0.382
 3791SOL    HW112272   5.801   0.647   0.313
 3791SOL    HW212273   5.692   0.529   0.342
 3792SOL     OW12274   0.830   1.665   4.422
 3792SOL    HW112275   0.831   1.714   4.509
 3792SOL    HW212276   0.757   1.700   4.364
 3793SOL     OW12277   4.072   6.892   2.788
 3793SOL    HW112278   4.098   6.939   2.873
 3793SOL    HW212279   4.150   6.839   2.755
 3794SOL     OW12280   2.473   4.119   1.125
 3794SOL    HW112281   2.488   4.210   1.086
 3794SOL    HW212282   2.489   4.122   1.223
 3795SOL     OW12283   4.690   5.981   6.765
 3795SOL    HW112284   4.612   6.011   6.711
 3795SOL    HW212285   4.719   6.055   6.826
 3796SOL     OW12286   2.570   1.765   1.531
 3796SOL    HW112287   2.513   1.838   1.570
 3796SOL    HW212288   2.533   1.676   1.557
 3797SOL     OW12289   0.431   4.213   2.630
 3797SOL    HW112290   0.394   4.296   2.588
 3797SOL    HW212291   0.365   4.177   2.695
 3798SOL     OW12292   3.008   5.447   2.497
 3798SOL    HW112293   2.923   5.484   2.459
 3798SOL    HW212294   3.025   5.488   2.586
 3799SOL     OW12295   0.908   2.270   4.483
 3799SOL    HW112296   0.826   2.228   4.522
 3799SOL    HW212297   0.965   2.307   4.557
 3800SOL     OW12298   5.474   3.271   4.505
 3800SOL    HW112299   5.543   3.323   4.554
 3800SOL    HW212300   5.389   3.269   4.557
 3801SOL     OW12301   6.309   6.475   2.775
 3801SOL    HW112302   6.233   6.536   2.797
 3801SOL    HW212303   6.380   6.483   2.845
 3802SOL     OW12304   1.209   2.224   2.597
 3802SOL    HW112305   1.197   2.203   2.694
 3802SOL    HW212306   1.179   2.318   2.579
 3803SOL     OW12307   3.618   2.216   1.373
 3803SOL    HW112308   3.717   2.229   1.385
 3803SOL    HW212309   3.572   2.236   1.460
 3804SOL     OW12310   5.371   1.358   3.695
 3804SOL    HW112311   5.275   1.383   3.695
 3804SOL    HW212312   5.380   1.259   3.683
 3805SOL     OW12313   2.609   3.358   1.728
 3805SOL    HW112314   2.622   3.431   1.661
 3805SOL    HW212315   2.528   3.376   1.783
 3806SOL     OW12316   3.939   4.113   6.718
 3806SOL    HW112317   3.957   4.165   6.802
 3806SOL    HW212318   3.841   4.108   6.702
 3807SOL     OW12319   1.854   6.351   3.439
 3807SOL    HW112320   1.871   6.328   3.535
 3807SOL    HW212321   1.780   6.294   3.403
 3808SOL     OW12322   4.838   0.050   0.975
 3808SOL    HW112323   4.906   0.113   1.011
 3808SOL    HW212324   4.877   7.012   0.900
 3809SOL     OW12325   5.781   2.871   0.897
 3809SOL    HW112326   5.826   2.848   0.983
 3809SOL    HW212327   5.697   2.922   0.915
 3810SOL     OW12328   4.676   2.751   4.477
 3810SOL    HW112329   4.706   2.830   4.424
 3810SOL    HW212330   4.631   2.685   4.417
 3811SOL     OW12331   1.005   4.160   4.066
 3811SOL    HW112332   0.960   4.087   4.016
 3811SOL    HW212333   1.049   4.122   4.147
 3812SOL     OW12334   5.457   0.424   5.255
 3812SOL    HW112335   5.378   0.486   5.262
 3812SOL    HW212336   5.505   0.441   5.168
 3813SOL     OW12337   4.702   4.734   0.247
 3813SOL    HW112338   4.669   4.713   0.155
 3813SOL    HW212339   4.801   4.745   0.245
 3814SOL     OW12340   0.189   6.556   0.481
 3814SOL    HW112341   0.256   6.521   0.547
 3814SOL    HW212342   0.230   6.557   0.390
 3815SOL     OW12343   4.397   3.011   6.797
 3815SOL    HW112344   4.345   3.081   6.847
 3815SOL    HW212345   4.441   2.950   6.863
 3816SOL     OW12346   0.621   5.937   6.921
 3816SOL    HW112347   0.718   5.959   6.922
 3816SOL    HW212348   0.609   5.840   6.900
 3817SOL     OW12349   4.890   3.911   2.710
 3817SOL    HW112350   4.837   3.961   2.778
 3817SOL    HW212351   4.879   3.813   2.726
 3818SOL     OW12352   5.549   0.431   0.293
 3818SOL    HW112353   5.484   0.480   0.351
 3818SOL    HW212354   5.534   0.332   0.302
 3819SOL     OW12355   5.255   5.460   1.301
 3819SOL    HW112356   5.226   5.545   1.256
 3819SOL    HW212357   5.234   5.382   1.242
 3820SOL     OW12358   6.174   6.718   3.272
 3820SOL    HW112359   6.259   6.756   3.309
 3820SOL    HW212360   6.117   6.792   3.236
 3821SOL     OW12361   2.877   1.676   0.743
 3821SOL    HW112362   2.799   1.739   0.749
 3821SOL    HW212363   2.962   1.727   0.753
 3822SOL     OW12364   1.195   6.722   2.678
 3822SOL    HW112365   1.240   6.756   2.595
 3822SOL    HW212366   1.233   6.769   2.757
 3823SOL     OW12367   3.069   2.862   6.168
 3823SOL    HW112368   3.136   2.799   6.129
 3823SOL    HW212369   3.116   2.939   6.209
 3824SOL     OW12370   6.040   2.093   0.475
 3824SOL    HW112371   6.029   1.997   0.500
 3824SOL    HW212372   6.072   2.099   0.380
 3825SOL     OW12373   0.979   6.232   0.566
 3825SOL    HW112374   0.889   6.191   0.551
 3825SOL    HW212375   1.048   6.181   0.514
 3826SOL     OW12376   0.717   2.792   0.114
 3826SOL    HW112377   0.749   2.860   0.048
 3826SOL    HW212378   0.658   2.836   0.182
 3827SOL     OW12379   2.893   2.938   1.119
 3827SOL    HW112380   2.845   3.024   1.100
 3827SOL    HW212381   2.936   2.943   1.209
 3828SOL     OW12382   3.726   2.600   1.710
 3828SOL    HW112383   3.713   2.515   1.761
 3828SOL    HW212384   3.803   2.589   1.647
 3829SOL     OW12385   1.948   4.762   4.348
 3829SOL    HW112386   1.965   4.861   4.342
 3829SOL    HW212387   1.949   4.734   4.444
 3830SOL     OW12388   0.553   0.224   4.443
 3830SOL    HW112389   0.539   0.293   4.514
 3830SOL    HW212390   0.555   0.268   4.353
 3831SOL     OW12391   4.595   1.861   2.308
 3831SOL    HW112392   4.687   1.880   2.275
 3831SOL    HW212393   4.528   1.910   2.253
 3832SOL     OW12394   5.581   0.550   2.673
 3832SOL    HW112395   5.540   0.498   2.747
 3832SOL    HW212396   5.613   0.488   2.602
 3833SOL     OW12397   0.864   5.917   6.209
 3833SOL    HW112398   0.900   5.980   6.277
 3833SOL    HW212399   0.924   5.916   6.129
 3834SOL     OW12400   4.312   3.170   1.485
 3834SOL    HW112401   4.264   3.086   1.510
 3834SOL    HW212402   4.376   3.196   1.557
 3835SOL     OW12403   3.334   5.516   5.004
 3835SOL    HW112404   3.402   5.542   5.072
 3835SOL    HW212405   3.242   5.521   5.045
 3836SOL     OW12406   1.368   4.030   5.971
 3836SOL    HW112407   1.412   3.955   6.020
 3836SOL    HW212408   1.387   4.116   6.019
 3837SOL     OW12409   4.843   3.563   6.903
 3837SOL    HW112410   4.839   3.661   6.920
 3837SOL    HW212411   4.888   3.518   6.981
 3838SOL     OW12412   0.198   3.118   4.647
 3838SOL    HW112413   0.152   3.144   4.561
 3838SOL    HW212414   0.297   3.120   4.633
 3839SOL     OW12415   3.897   0.574   4.254
 3839SOL    HW112416   3.984   0.581   4.205
 3839SOL    HW212417   3.876   0.661   4.298
 3840SOL     OW12418   1.893   1.472   5.344
 3840SOL    HW112419   1.924   1.467   5.249
 3840SOL    HW212420   1.878   1.567   5.369
 3841SOL     OW12421   0.175   3.224   5.165
 3841SOL    HW112422   0.179   3.255   5.260
 3841SOL    HW212423   0.213   3.294   5.105
 3842SOL     OW12424   0.767   3.956   7.008
 3842SOL    HW112425   0.739   3.958   6.912
 3842SOL    HW212426   0.805   4.045   0.017
 3843SOL     OW12427   6.935   4.129   2.697
 3843SOL    HW112428   6.919   4.225   2.674
 3843SOL    HW212429   6.847   4.086   2.720
 3844SOL     OW12430   6.823   3.563   6.160
 3844SOL    HW112431   6.891   3.580   6.232
 3844SOL    HW212432   6.846   3.478   6.112
 3845SOL     OW12433   3.789   3.001   3.134
 3845SOL    HW112434   3.719   3.000   3.205
 3845SOL    HW212435   3.841   3.087   3.138
 3846SOL     OW12436   1.223   4.731   4.050
 3846SOL    HW112437   1.157   4.656   4.063
 3846SOL    HW212438   1.303   4.697   4.002
 3847SOL     OW12439   6.104   0.656   4.915
 3847SOL    HW112440   6.166   0.588   4.875
 3847SOL    HW212441   6.015   0.651   4.868
 3848SOL     OW12442   3.179   5.254   2.478
 3848SOL    HW112443   3.264   5.258   2.530
 3848SOL    HW212444   3.134   5.344   2.482
 3849SOL     OW12445   0.959   1.522   5.260
 3849SOL    HW112446   0.936   1.427   5.280
 3849SOL    HW212447   0.877   1.579   5.269
 3850SOL     OW12448   2.860   3.897   1.152
 3850SOL    HW112449   2.808   3.949   1.219
 3850SOL    HW212450   2.923   3.834   1.198
 3851SOL     OW12451   1.323   4.628   3.033
 3851SOL    HW112452   1.261   4.663   2.963
 3851SOL    HW212453   1.370   4.547   2.997
 3852SOL     OW12454   4.744   6.747   4.401
 3852SOL    HW112455   4.720   6.819   4.336
 3852SOL    HW212456   4.844   6.742   4.410
 3853SOL     OW12457   1.522   3.213   2.753
 3853SOL    HW112458   1.467   3.296   2.763
 3853SOL    HW212459   1.608   3.224   2.803
 3854SOL     OW12460   1.528   3.585   2.555
 3854SOL    HW112461   1.512   3.508   2.494
 3854SOL    HW212462   1.451   3.596   2.617
 3855SOL     OW12463   4.779   6.064   6.472
 3855SOL    HW112464   4.791   6.163   6.466
 3855SOL    HW212465   4.690   6.044   6.512
 3856SOL     OW12466   6.450   6.125   5.444
 3856SOL    HW112467   6.520   6.056   5.421
 3856SOL    HW212468   6.394   6.143   5.364
 3857SOL     OW12469   1.103   5.925   6.089
 3857SOL    HW112470   1.122   5.888   5.998
 3857SOL    HW212471   1.184   5.915   6.147
 3858SOL     OW12472   1.521   5.927   5.497
 3858SOL    HW112473   1.445   5.923   5.432
 3858SOL    HW212474   1.603   5.887   5.456
 3859SOL     OW12475   6.356   2.356   3.470
 3859SOL    HW112476   6.414   2.437   3.473
 3859SOL    HW212477   6.277   2.374   3.411
 3860SOL     OW12478   1.123   0.739   5.641
 3860SOL    HW112479   1.077   0.825   5.618
 3860SOL    HW212480   1.147   0.691   5.558
 3861SOL     OW12481   5.119   4.531   1.922
 3861SOL    HW112482   5.029   4.572   1.935
 3861SOL    HW212483   5.170   4.584   1.853
 3862SOL     OW12484   0.179   6.776   4.796
 3862SOL    HW112485   0.162   6.721   4.878
 3862SOL    HW212486   0.100   6.768   4.735
 3863SOL     OW12487   3.995   3.470   6.330
 3863SOL    HW112488   3.999   3.375   6.300
 3863SOL    HW212489   3.966   3.528   6.255
 3864SOL     OW12490   3.614   1.540   5.032
 3864SOL    HW112491   3.674   1.619   5.022
 3864SOL    HW212492   3.528   1.568   5.076
 3865SOL     OW12493   4.083   0.024   0.817
 3865SOL    HW112494   4.001   0.080   0.811
 3865SOL    HW212495   4.107   0.010   0.913
 3866SOL     OW12496   4.263   0.938   1.217
 3866SOL    HW112497   4.226   0.924   1.308
 3866SOL    HW212498   4.198   0.904   1.148
 3867SOL     OW12499   2.077   3.538   3.666
 3867SOL    HW112500   2.148   3.477   3.630
 3867SOL    HW212501   1.996   3.533   3.608
 3868SOL     OW12502   2.659   6.434   1.454
 3868SOL    HW112503   2.562   6.410   1.458
 3868SOL    HW212504   2.714   6.358   1.491
 3869SOL     OW12505   6.960   2.944   4.411
 3869SOL    HW112506   6.886   2.902   4.463
 3869SOL    HW212507   6.972   3.039   4.440
 3870SOL     OW12508   4.803   4.837   0.621
 3870SOL    HW112509   4.812   4.906   0.692
 3870SOL    HW212510   4.707   4.823   0.599
 3871SOL     OW12511   3.697   0.662   2.702
 3871SOL    HW112512   3.767   0.670   2.631
 3871SOL    HW212513   3.619   0.720   2.678
 3872SOL     OW12514   3.156   2.978   2.117
 3872SOL    HW112515   3.160   2.885   2.082
 3872SOL    HW212516   3.222   3.035   2.069
 3873SOL     OW12517   6.901   5.744   1.290
 3873SOL    HW112518   6.854   5.715   1.207
 3873SOL    HW212519   6.837   5.740   1.368
 3874SOL     OW12520   3.986   6.054   6.930
 3874SOL    HW112521   4.066   6.063   6.989
 3874SOL    HW212522   3.908   6.023   6.984
 3875SOL     OW12523   1.253   3.068   2.311
 3875SOL    HW112524   1.314   3.117   2.373
 3875SOL    HW212525   1.181   3.130   2.280
 3876SOL     OW12526   5.691   5.420   6.740
 3876SOL    HW112527   5.730   5.487   6.803
 3876SOL    HW212528   5.642   5.350   6.792
 3877SOL     OW12529   0.002   2.013   0.273
 3877SOL    HW112530   7.014   2.102   0.317
 3877SOL    HW212531   6.970   2.016   0.186
 3878SOL     OW12532   2.147   6.091   5.670
 3878SOL    HW112533   2.101   6.102   5.758
 3878SOL    HW212534   2.221   6.024   5.679
 3879SOL     OW12535   4.531   6.480   1.272
 3879SOL    HW112536   4.448   6.509   1.320
 3879SOL    HW212537   4.523   6.503   1.175
 3880SOL     OW12538   5.479   4.019   3.493
 3880SOL    HW112539   5.521   3.951   3.553
 3880SOL    HW212540   5.380   4.005   3.491
 3881SOL     OW12541   1.472   4.946   0.379
 3881SOL    HW112542   1.476   5.039   0.417
 3881SOL    HW212543   1.524   4.941   0.295
 3882SOL     OW12544   6.473   1.218   4.961
 3882SOL    HW112545   6.553   1.272   4.986
 3882SOL    HW212546   6.390   1.272   4.979
 3883SOL     OW12547   4.401   1.290   3.579
 3883SOL    HW112548   4.470   1.300   3.507
 3883SOL    HW212549   4.354   1.202   3.568
 3884SOL     OW12550   0.830   5.539   4.319
 3884SOL    HW112551   0.902   5.589   4.270
 3884SOL    HW212552   0.811   5.585   4.406
 3885SOL     OW12553   6.046   1.306   4.618
 3885SOL    HW112554   6.050   1.352   4.529
 3885SOL    HW212555   6.128   1.250   4.630
 3886SOL     OW12556   6.465   6.946   5.037
 3886SOL    HW112557   6.418   6.858   5.038
 3886SOL    HW212558   6.459   6.986   4.946
 3887SOL     OW12559   5.203   1.745   5.587
 3887SOL    HW112560   5.295   1.767   5.555
 3887SOL    HW212561   5.209   1.697   5.674
 3888SOL     OW12562   0.462   0.382   6.266
 3888SOL    HW112563   0.512   0.385   6.180
 3888SOL    HW212564   0.367   0.358   6.249
 3889SOL     OW12565   6.943   3.458   6.702
 3889SOL    HW112566   6.912   3.551   6.723
 3889SOL    HW212567   6.869   3.408   6.656
 3890SOL     OW12568   6.753   6.421   3.176
 3890SOL    HW112569   6.723   6.463   3.090
 3890SOL    HW212570   6.836   6.368   3.160
 3891SOL     OW12571   5.404   4.555   4.660
 3891SOL    HW112572   5.315   4.538   4.616
 3891SOL    HW212573   5.477   4.543   4.592
 3892SOL     OW12574   0.809   0.385   2.075
 3892SOL    HW112575   0.774   0.382   1.982
 3892SOL    HW212576   0.786   0.300   2.122
 3893SOL     OW12577   3.340   5.713   2.250
 3893SOL    HW112578   3.284   5.639   2.212
 3893SOL    HW212579   3.437   5.689   2.241
 3894SOL     OW12580   3.534   2.159   1.102
 3894SOL    HW112581   3.587   2.075   1.099
 3894SOL    HW212582   3.567   2.216   1.177
 3895SOL     OW12583   0.899   1.040   5.868
 3895SOL    HW112584   0.992   1.003   5.878
 3895SOL    HW212585   0.833   0.977   5.907
 3896SOL     OW12586   0.355   2.589   5.694
 3896SOL    HW112587   0.388   2.642   5.617
 3896SOL    HW212588   0.268   2.546   5.671
 3897SOL     OW12589   3.020   6.617   2.269
 3897SOL    HW112590   2.944   6.566   2.229
 3897SOL    HW212591   3.046   6.576   2.356
 3898SOL     OW12592   3.336   2.887   3.582
 3898SOL    HW112593   3.286   2.843   3.508
 3898SOL    HW212594   3.284   2.965   3.616
 3899SOL     OW12595   4.647   1.123   4.759
 3899SOL    HW112596   4.651   1.158   4.853
 3899SOL    HW212597   4.733   1.142   4.712
 3900SOL     OW12598   5.556   3.119   3.465
 3900SOL    HW112599   5.505   3.034   3.449
 3900SOL    HW212600   5.590   3.121   3.559
 3901SOL     OW12601   2.151   6.071   6.096
 3901SOL    HW112602   2.141   6.165   6.129
 3901SOL    HW212603   2.248   6.049   6.087
 3902SOL     OW12604   4.581   4.401   2.254
 3902SOL    HW112605   4.575   4.360   2.163
 3902SOL    HW212606   4.675   4.395   2.287
 3903SOL     OW12607   4.195   4.108   6.595
 3903SOL    HW112608   4.109   4.093   6.643
 3903SOL    HW212609   4.191   4.061   6.506
 3904SOL     OW12610   0.687   0.139   0.011
 3904SOL    HW112611   0.742   0.070   0.059
 3904SOL    HW212612   0.591   0.130   0.039
 3905SOL     OW12613   5.882   6.611   6.457
 3905SOL    HW112614   5.946   6.596   6.533
 3905SOL    HW212615   5.896   6.702   6.420
 3906SOL     OW12616   2.072   4.968   4.810
 3906SOL    HW112617   2.080   5.054   4.860
 3906SOL    HW212618   2.082   4.891   4.873
 3907SOL     OW12619   0.638   1.295   4.891
 3907SOL    HW112620   0.710   1.264   4.953
 3907SOL    HW212621   0.595   1.216   4.847
 3908SOL     OW12622   0.435   0.641   6.589
 3908SOL    HW112623   0.508   0.700   6.622
 3908SOL    HW212624   0.441   0.551   6.633
 3909SOL     OW12625   5.386   4.054   6.262
 3909SOL    HW112626   5.423   4.138   6.222
 3909SOL    HW212627   5.453   3.980   6.253
 3910SOL     OW12628   3.581   4.230   1.905
 3910SOL    HW112629   3.607   4.152   1.849
 3910SOL    HW212630   3.582   4.203   2.001
 3911SOL     OW12631   5.694   1.031   0.752
 3911SOL    HW112632   5.620   0.981   0.797
 3911SOL    HW212633   5.656   1.105   0.697
 3912SOL     OW12634   3.255   1.498   6.193
 3912SOL    HW112635   3.329   1.493   6.126
 3912SOL    HW212636   3.197   1.577   6.172
 3913SOL     OW12637   3.718   5.986   6.931
 3913SOL    HW112638   3.703   6.045   6.852
 3913SOL    HW212639   3.631   5.967   6.976
 3914SOL     OW12640   5.059   1.340   1.955
 3914SOL    HW112641   5.000   1.343   1.874
 3914SOL    HW212642   5.030   1.264   2.014
 3915SOL     OW12643   3.659   6.511   6.690
 3915SOL    HW112644   3.729   6.543   6.626
 3915SOL    HW212645   3.686   6.534   6.784
 3916SOL     OW12646   2.642   0.030   2.800
 3916SOL    HW112647   2.667   0.085   2.880
 3916SOL    HW212648   2.618   6.954   2.829
 3917SOL     OW12649   2.865   5.135   6.977
 3917SOL    HW112650   2.940   5.200   6.968
 3917SOL    HW212651   2.894   5.045   6.944
 3918SOL     OW12652   4.418   0.861   0.543
 3918SOL    HW112653   4.473   0.850   0.460
 3918SOL    HW212654   4.388   0.956   0.550
 3919SOL     OW12655   4.245   0.728   0.716
 3919SOL    HW112656   4.307   0.773   0.652
 3919SOL    HW212657   4.154   0.770   0.710
 3920SOL     OW12658   2.145   1.237   6.416
 3920SOL    HW112659   2.081   1.169   6.451
 3920SOL    HW212660   2.095   1.317   6.384
 3921SOL     OW12661   6.760   2.933   6.984
 3921SOL    HW112662   6.833   3.000   6.971
 3921SOL    HW212663   6.800   2.842   6.992
 3922SOL     OW12664   4.838   5.193   1.840
 3922SOL    HW112665   4.744   5.203   1.808
 3922SOL    HW212666   4.900   5.242   1.778
 3923SOL     OW12667   5.814   1.455   1.136
 3923SOL    HW112668   5.846   1.423   1.225
 3923SOL    HW212669   5.718   1.480   1.142
 3924SOL     OW12670   0.746   4.414   3.220
 3924SOL    HW112671   0.674   4.477   3.252
 3924SOL    HW212672   0.822   4.416   3.285
 3925SOL     OW12673   4.655   4.310   1.102
 3925SOL    HW112674   4.625   4.332   1.195
 3925SOL    HW212675   4.722   4.377   1.072
 3926SOL     OW12676   0.673   0.233   5.837
 3926SOL    HW112677   0.613   0.275   5.905
 3926SOL    HW212678   0.617   0.194   5.763
 3927SOL     OW12679   0.873   3.218   3.826
 3927SOL    HW112680   0.956   3.273   3.840
 3927SOL    HW212681   0.882   3.165   3.742
 3928SOL     OW12682   2.835   6.814   2.633
 3928SOL    HW112683   2.843   6.870   2.715
 3928SOL    HW212684   2.804   6.871   2.557
 3929SOL     OW12685   6.842   1.348   6.916
 3929SOL    HW112686   6.855   1.354   7.015
 3929SOL    HW212687   6.822   1.253   6.891
 3930SOL     OW12688   1.153   1.920   4.043
 3930SOL    HW112689   1.219   1.995   4.046
 3930SOL    HW212690   1.174   1.854   4.115
 3931SOL     OW12691   1.834   2.158   1.703
 3931SOL    HW112692   1.758   2.162   1.768
 3931SOL    HW212693   1.892   2.239   1.715
 3932SOL     OW12694   2.286   5.489   3.984
 3932SOL    HW112695   2.370   5.436   4.001
 3932SOL    HW212696   2.293   5.534   3.895
 3933SOL     OW12697   0.957   6.110   0.214
 3933SOL    HW112698   1.033   6.173   0.230
 3933SOL    HW212699   0.982   6.019   0.246
 3934SOL     OW12700   0.426   1.958   3.117
 3934SOL    HW112701   0.475   1.872   3.101
 3934SOL    HW212702   0.367   1.949   3.197
 3935SOL     OW12703   6.301   2.554   6.243
 3935SOL    HW112704   6.364   2.495   6.193
 3935SOL    HW212705   6.225   2.578   6.183
 3936SOL     OW12706   6.629   5.792   5.551
 3936SOL    HW112707   6.631   5.693   5.557
 3936SOL    HW212708   6.664   5.832   5.635
 3937SOL     OW12709   0.376   5.807   2.564
 3937SOL    HW112710   0.378   5.718   2.519
 3937SOL    HW212711   0.287   5.850   2.549
 3938SOL     OW12712   6.760   3.591   4.705
 3938SOL    HW112713   6.745   3.689   4.717
 3938SOL    HW212714   6.683   3.551   4.655
 3939SOL     OW12715   1.827   0.582   3.018
 3939SOL    HW112716   1.888   0.662   3.016
 3939SOL    HW212717   1.737   0.609   3.051
 3940SOL     OW12718   3.157   4.826   1.934
 3940SOL    HW112719   3.085   4.793   1.996
 3940SOL    HW212720   3.238   4.850   1.987
 3941SOL     OW12721   5.868   0.049   4.591
 3941SOL    HW112722   5.959   0.016   4.566
 3941SOL    HW212723   5.800   6.998   4.562
 3942SOL     OW12724   1.455   6.212   5.902
 3942SOL    HW112725   1.359   6.240   5.891
 3942SOL    HW212726   1.461   6.141   5.972
 3943SOL     OW12727   1.173   3.586   1.870
 3943SOL    HW112728   1.237   3.514   1.843
 3943SOL    HW212729   1.220   3.652   1.929
 3944SOL     OW12730   5.356   2.606   5.604
 3944SOL    HW112731   5.443   2.566   5.630
 3944SOL    HW212732   5.372   2.696   5.562
 3945SOL     OW12733   0.993   2.341   3.092
 3945SOL    HW112734   0.910   2.372   3.137
 3945SOL    HW212735   1.041   2.419   3.053
 3946SOL     OW12736   6.932   3.153   6.946
 3946SOL    HW112737   6.900   3.197   0.014
 3946SOL    HW212738   0.010   3.182   6.928
 3947SOL     OW12739   6.058   5.348   0.398
 3947SOL    HW112740   6.155   5.367   0.408
 3947SOL    HW212741   6.006   5.405   0.463
 3948SOL     OW12742   1.773   3.688   0.041
 3948SOL    HW112743   1.797   3.773   7.010
 3948SOL    HW212744   1.746   3.708   0.135
 3949SOL     OW12745   6.653   0.149   3.059
 3949SOL    HW112746   6.617   0.238   3.087
 3949SOL    HW212747   6.604   0.116   2.978
 3950SOL     OW12748   4.207   4.136   1.684
 3950SOL    HW112749   4.143   4.061   1.702
 3950SOL    HW212750   4.287   4.128   1.743
 3951SOL     OW12751   0.775   2.665   6.281
 3951SOL    HW112752   0.824   2.737   6.329
 3951SOL    HW212753   0.816   2.652   6.190
 3952SOL     OW12754   5.796   2.573   3.910
 3952SOL    HW112755   5.727   2.530   3.968
 3952SOL    HW212756   5.847   2.501   3.861
 3953SOL     OW12757   3.027   4.432   5.716
 3953SOL    HW112758   3.107   4.387   5.676
 3953SOL    HW212759   3.033   4.530   5.699
 3954SOL     OW12760   6.256   3.653   5.681
 3954SOL    HW112761   6.189   3.626   5.611
 3954SOL    HW212762   6.215   3.644   5.771
 3955SOL     OW12763   4.831   6.507   0.513
 3955SOL    HW112764   4.844   6.467   0.422
 3955SOL    HW212765   4.734   6.528   0.526
 3956SOL     OW12766   1.199   2.893   5.559
 3956SOL    HW112767   1.214   2.795   5.572
 3956SOL    HW212768   1.284   2.937   5.530
 3957SOL     OW12769   3.390   6.468   4.082
 3957SOL    HW112770   3.383   6.545   4.146
 3957SOL    HW212771   3.309   6.410   4.089
 3958SOL     OW12772   6.005   6.958   0.101
 3958SOL    HW112773   6.037   6.898   0.027
 3958SOL    HW212774   6.037   6.922   0.189
 3959SOL     OW12775   3.421   5.830   1.166
 3959SOL    HW112776   3.340   5.884   1.143
 3959SOL    HW212777   3.503   5.875   1.130
 3960SOL     OW12778   4.752   2.750   6.646
 3960SOL    HW112779   4.847   2.775   6.660
 3960SOL    HW212780   4.695   2.832   6.646
 3961SOL     OW12781   5.254   1.999   1.886
 3961SOL    HW112782   5.242   2.090   1.845
 3961SOL    HW212783   5.351   1.984   1.905
 3962SOL     OW12784   0.802   5.713   0.264
 3962SOL    HW112785   0.784   5.625   0.220
 3962SOL    HW212786   0.803   5.701   0.363
 3963SOL     OW12787   5.563   5.198   3.067
 3963SOL    HW112788   5.480   5.238   3.026
 3963SOL    HW212789   5.588   5.115   3.017
 3964SOL     OW12790   4.632   6.119   4.858
 3964SOL    HW112791   4.691   6.167   4.923
 3964SOL    HW212792   4.601   6.183   4.788
 3965SOL     OW12793   3.596   4.452   6.528
 3965SOL    HW112794   3.514   4.399   6.546
 3965SOL    HW212795   3.659   4.398   6.472
 3966SOL     OW12796   6.620   4.650   6.432
 3966SOL    HW112797   6.683   4.723   6.409
 3966SOL    HW212798   6.649   4.565   6.389
 3967SOL     OW12799   1.011   5.145   3.951
 3967SOL    HW112800   0.949   5.134   4.029
 3967SOL    HW212801   1.036   5.054   3.916
 3968SOL     OW12802   5.352   0.228   2.708
 3968SOL    HW112803   5.404   0.298   2.757
 3968SOL    HW212804   5.335   0.150   2.770
 3969SOL     OW12805   0.916   4.909   3.020
 3969SOL    HW112806   0.901   4.834   2.956
 3969SOL    HW212807   0.828   4.953   3.041
 3970SOL     OW12808   4.696   4.865   3.806
 3970SOL    HW112809   4.791   4.845   3.784
 3970SOL    HW212810   4.639   4.788   3.777
 3971SOL     OW12811   2.539   5.724   2.914
 3971SOL    HW112812   2.479   5.796   2.950
 3971SOL    HW212813   2.569   5.750   2.822
 3972SOL     OW12814   0.340   5.974   0.562
 3972SOL    HW112815   0.437   5.967   0.538
 3972SOL    HW212816   0.293   6.030   0.494
 3973SOL     OW12817   3.195   3.269   5.386
 3973SOL    HW112818   3.238   3.237   5.470
 3973SOL    HW212819   3.102   3.231   5.380
 3974SOL     OW12820   0.765   1.408   6.324
 3974SOL    HW112821   0.807   1.495   6.297
 3974SOL    HW212822   0.778   1.394   6.423
 3975SOL     OW12823   6.618   0.579   5.451
 3975SOL    HW112824   6.563   0.620   5.524
 3975SOL    HW212825   6.658   0.493   5.484
 3976SOL     OW12826   1.157   4.773   1.052
 3976SOL    HW112827   1.254   4.763   1.074
 3976SOL    HW212828   1.102   4.750   1.132
 3977SOL     OW12829   2.924   5.876   6.265
 3977SOL    HW112830   3.009   5.905   6.221
 3977SOL    HW212831   2.912   5.778   6.252
 3978SOL     OW12832   5.334   1.110   5.268
 3978SOL    HW112833   5.340   1.057   5.352
 3978SOL    HW212834   5.411   1.174   5.264
 3979SOL     OW12835   1.913   6.954   1.611
 3979SOL    HW112836   1.941   0.031   1.591
 3979SOL    HW212837   1.813   6.947   1.605
 3980SOL     OW12838   5.775   3.751   4.758
 3980SOL    HW112839   5.678   3.741   4.734
 3980SOL    HW212840   5.789   3.722   4.853
 3981SOL     OW12841   0.037   2.077   6.079
 3981SOL    HW112842   0.134   2.084   6.055
 3981SOL    HW212843   0.017   2.136   6.158
 3982SOL     OW12844   2.476   1.069   4.678
 3982SOL    HW112845   2.498   1.116   4.763
 3982SOL    HW212846   2.557   1.064   4.620
 3983SOL     OW12847   3.412   6.246   4.333
 3983SOL    HW112848   3.323   6.220   4.294
 3983SOL    HW212849   3.484   6.194   4.289
 3984SOL     OW12850   1.892   0.174   1.908
 3984SOL    HW112851   1.874   0.264   1.868
 3984SOL    HW212852   1.825   0.108   1.873
 3985SOL     OW12853   1.979   4.311   0.095
 3985SOL    HW112854   2.063   4.358   0.066
 3985SOL    HW212855   1.998   4.256   0.176
 3986SOL     OW12856   0.142   1.948   2.289
 3986SOL    HW112857   0.128   1.878   2.359
 3986SOL    HW212858   0.105   2.035   2.322
 3987SOL     OW12859   1.518   5.651   5.039
 3987SOL    HW112860   1.610   5.687   5.053
 3987SOL    HW212861   1.521   5.575   4.974
 3988SOL     OW12862   3.266   2.191   5.928
 3988SOL    HW112863   3.197   2.144   5.982
 3988SOL    HW212864   3.247   2.176   5.831
 3989SOL     OW12865   5.884   0.090   6.201
 3989SOL    HW112866   5.961   0.092   6.137
 3989SOL    HW212867   5.798   0.089   6.151
 3990SOL     OW12868   5.813   2.592   4.963
 3990SOL    HW112869   5.728   2.572   5.012
 3990SOL    HW212870   5.868   2.509   4.956
 3991SOL     OW12871   6.934   2.495   3.534
 3991SOL    HW112872   0.011   2.519   3.562
 3991SOL    HW212873   6.929   2.489   3.435
 3992SOL     OW12874   4.016   3.202   6.579
 3992SOL    HW112875   4.109   3.228   6.554
 3992SOL    HW212876   3.991   3.245   6.665
 3993SOL     OW12877   2.786   2.064   2.861
 3993SOL    HW112878   2.815   1.978   2.904
 3993SOL    HW212879   2.688   2.060   2.841
 3994SOL     OW12880   2.248   2.589   5.220
 3994SOL    HW112881   2.184   2.625   5.288
 3994SOL    HW212882   2.220   2.618   5.129
 3995SOL     OW12883   2.286   4.373   3.327
 3995SOL    HW112884   2.266   4.334   3.236
 3995SOL    HW212885   2.369   4.428   3.322
 3996SOL     OW12886   1.879   1.269   4.894
 3996SOL    HW112887   1.796   1.255   4.948
 3996SOL    HW212888   1.900   1.185   4.844
 3997SOL     OW12889   4.870   3.765   3.021
 3997SOL    HW112890   4.896   3.721   2.936
 3997SOL    HW212891   4.828   3.697   3.082
 3998SOL     OW12892   5.997   1.891   2.247
 3998SOL    HW112893   6.094   1.867   2.239
 3998SOL    HW212894   5.958   1.904   2.155
 3999SOL     OW12895   6.385   3.863   3.474
 3999SOL    HW112896   6.366   3.853   3.572
 3999SOL    HW212897   6.356   3.780   3.426
 4000SOL     OW12898   3.108   5.484   2.762
 4000SOL    HW112899   3.181   5.446   2.819
 4000SOL    HW212900   3.039   5.527   2.820
 4001SOL     OW12901   2.530   3.889   5.652
 4001SOL    HW112902   2.614   3.933   5.682
 4001SOL    HW212903   2.543   3.852   5.560
 4002SOL     OW12904   3.494   2.918   4.269
 4002SOL    HW112905   3.476   2.904   4.366
 4002SOL    HW212906   3.583   2.879   4.246
 4003SOL     OW12907   1.680   0.841   6.419
 4003SOL    HW112908   1.707   0.920   6.475
 4003SOL    HW212909   1.709   0.757   6.464
 4004SOL     OW12910   0.060   3.521   4.314
 4004SOL    HW112911   0.036   3.517   4.217
 4004SOL    HW212912   0.068   3.616   4.343
 4005SOL     OW12913   4.547   4.783   1.172
 4005SOL    HW112914   4.618   4.847   1.202
 4005SOL    HW212915   4.530   4.797   1.074
 4006SOL     OW12916   5.509   4.866   2.336
 4006SOL    HW112917   5.541   4.926   2.262
 4006SOL    HW212918   5.484   4.777   2.299
 4007SOL     OW12919   0.468   2.479   2.843
 4007SOL    HW112920   0.505   2.572   2.834
 4007SOL    HW212921   0.499   2.423   2.767
 4008SOL     OW12922   3.051   0.847   6.118
 4008SOL    HW112923   3.105   0.766   6.098
 4008SOL    HW212924   2.955   0.828   6.100
 4009SOL     OW12925   5.070   1.898   1.550
 4009SOL    HW112926   5.033   1.990   1.565
 4009SOL    HW212927   5.072   1.848   1.636
 4010SOL     OW12928   3.131   3.679   1.628
 4010SOL    HW112929   3.064   3.613   1.663
 4010SOL    HW212930   3.178   3.640   1.548
 4011SOL     OW12931   6.890   6.358   1.946
 4011SOL    HW112932   6.855   6.433   1.890
 4011SOL    HW212933   6.954   6.395   2.014
 4012SOL     OW12934   4.594   6.548   2.775
 4012SOL    HW112935   4.591   6.546   2.875
 4012SOL    HW212936   4.528   6.482   2.738
 4013SOL     OW12937   2.289   0.783   1.311
 4013SOL    HW112938   2.226   0.762   1.386
 4013SOL    HW212939   2.324   0.698   1.272
 4014SOL     OW12940   3.074   5.494   3.754
 4014SOL    HW112941   3.017   5.550   3.814
 4014SOL    HW212942   3.032   5.404   3.743
 4015SOL     OW12943   5.222   4.698   6.653
 4015SOL    HW112944   5.136   4.745   6.633
 4015SOL    HW212945   5.249   4.716   6.748
 4016SOL     OW12946   3.223   5.928   0.190
 4016SOL    HW112947   3.301   5.968   0.236
 4016SOL    HW212948   3.142   5.984   0.205
 4017SOL     OW12949   0.023   5.759   5.814
 4017SOL    HW112950   6.983   5.776   5.895
 4017SOL    HW212951   0.091   5.689   5.835
 4018SOL     OW12952   4.502   6.638   1.668
 4018SOL    HW112953   4.415   6.665   1.711
 4018SOL    HW212954   4.488   6.629   1.570
 4019SOL     OW12955   5.750   4.113   2.198
 4019SOL    HW112956   5.799   4.046   2.253
 4019SOL    HW212957   5.788   4.204   2.215
 4020SOL     OW12958   6.595   3.241   5.402
 4020SOL    HW112959   6.683   3.279   5.373
 4020SOL    HW212960   6.590   3.145   5.376
 4021SOL     OW12961   3.720   4.290   5.268
 4021SOL    HW112962   3.653   4.262   5.199
 4021SOL    HW212963   3.765   4.374   5.238
 4022SOL     OW12964   3.623   6.707   6.430
 4022SOL    HW112965   3.654   6.747   6.344
 4022SOL    HW212966   3.699   6.660   6.474
 4023SOL     OW12967   0.209   0.351   5.448
 4023SOL    HW112968   0.218   0.279   5.516
 4023SOL    HW212969   0.185   0.311   5.359
 4024SOL     OW12970   2.468   4.767   4.247
 4024SOL    HW112971   2.507   4.716   4.171
 4024SOL    HW212972   2.386   4.721   4.281
 4025SOL     OW12973   0.848   6.402   4.221
 4025SOL    HW112974   0.813   6.349   4.145
 4025SOL    HW212975   0.795   6.487   4.230
 4026SOL     OW12976   5.807   7.004   3.928
 4026SOL    HW112977   5.810   0.087   3.934
 4026SOL    HW212978   5.713   6.972   3.946
 4027SOL     OW12979   2.427   2.568   0.445
 4027SOL    HW112980   2.525   2.583   0.428
 4027SOL    HW212981   2.392   2.638   0.506
 4028SOL     OW12982   4.331   1.746   3.818
 4028SOL    HW112983   4.426   1.738   3.786
 4028SOL    HW212984   4.269   1.710   3.748
 4029SOL     OW12985   2.912   4.208   5.581
 4029SOL    HW112986   2.908   4.298   5.539
 4029SOL    HW212987   2.995   4.199   5.636
 4030SOL     OW12988   6.913   0.860   2.191
 4030SOL    HW112989   6.884   0.890   2.100
 4030SOL    HW212990   6.840   0.878   2.257
 4031SOL     OW12991   5.513   5.809   3.718
 4031SOL    HW112992   5.465   5.879   3.770
 4031SOL    HW212993   5.464   5.791   3.633
 4032SOL     OW12994   6.972   6.892   1.712
 4032SOL    HW112995   0.015   6.946   1.772
 4032SOL    HW212996   6.914   6.953   1.658
 4033SOL     OW12997   2.165   3.143   1.255
 4033SOL    HW112998   2.182   3.233   1.214
 4033SOL    HW212999   2.113   3.155   1.339
 4034SOL     OW13000   5.770   1.496   5.108
 4034SOL    HW113001   5.835   1.427   5.140
 4034SOL    HW213002   5.820   1.569   5.061
 4035SOL     OW13003   6.531   1.937   1.300
 4035SOL    HW113004   6.545   1.943   1.202
 4035SOL    HW213005   6.433   1.933   1.320
 4036SOL     OW13006   3.902   5.207   2.390
 4036SOL    HW113007   3.974   5.256   2.341
 4036SOL    HW213008   3.829   5.271   2.414
 4037SOL     OW13009   2.287   1.606   7.000
 4037SOL    HW113010   2.282   1.684   6.938
 4037SOL    HW213011   2.276   1.637   0.078
 4038SOL     OW13012   4.387   2.698   1.588
 4038SOL    HW113013   4.458   2.757   1.627
 4038SOL    HW213014   4.309   2.753   1.560
 4039SOL     OW13015   5.825   5.594   1.479
 4039SOL    HW113016   5.825   5.512   1.536
 4039SOL    HW213017   5.780   5.669   1.529
 4040SOL     OW13018   3.254   6.586   5.034
 4040SOL    HW113019   3.276   6.515   5.101
 4040SOL    HW213020   3.317   6.664   5.046
 4041SOL     OW13021   0.567   5.388   1.033
 4041SOL    HW113022   0.479   5.350   1.061
 4041SOL    HW213023   0.641   5.333   1.070
 4042SOL     OW13024   5.667   5.905   4.332
 4042SOL    HW113025   5.754   5.897   4.380
 4042SOL    HW213026   5.663   5.837   4.258
 4043SOL     OW13027   6.757   2.450   5.306
 4043SOL    HW113028   6.658   2.455   5.295
 4043SOL    HW213029   6.801   2.450   5.216
 4044SOL     OW13030   4.294   6.736   3.575
 4044SOL    HW113031   4.262   6.781   3.491
 4044SOL    HW213032   4.310   6.805   3.646
 4045SOL     OW13033   4.313   5.947   5.451
 4045SOL    HW113034   4.261   5.956   5.366
 4045SOL    HW213035   4.250   5.955   5.529
 4046SOL     OW13036   1.618   1.761   3.841
 4046SOL    HW113037   1.630   1.731   3.747
 4046SOL    HW213038   1.592   1.858   3.842
 4047SOL     OW13039   2.054   2.510   0.519
 4047SOL    HW113040   2.069   2.502   0.421
 4047SOL    HW213041   1.987   2.582   0.537
 4048SOL     OW13042   5.228   1.531   1.797
 4048SOL    HW113043   5.244   1.483   1.711
 4048SOL    HW213044   5.175   1.474   1.858
 4049SOL     OW13045   5.482   4.992   6.772
 4049SOL    HW113046   5.495   4.905   6.820
 4049SOL    HW213047   5.539   4.993   6.689
 4050SOL     OW13048   0.893   6.773   1.629
 4050SOL    HW113049   0.934   6.708   1.693
 4050SOL    HW213050   0.965   6.825   1.583
 4051SOL     OW13051   3.703   1.775   6.630
 4051SOL    HW113052   3.744   1.774   6.721
 4051SOL    HW213053   3.691   1.681   6.597
 4052SOL     OW13054   6.782   1.334   2.156
 4052SOL    HW113055   6.767   1.425   2.196
 4052SOL    HW213056   6.820   1.344   2.064
 4053SOL     OW13057   3.165   5.755   3.629
 4053SOL    HW113058   3.210   5.772   3.541
 4053SOL    HW213059   3.154   5.657   3.642
 4054SOL     OW13060   5.671   3.828   1.302
 4054SOL    HW113061   5.726   3.759   1.349
 4054SOL    HW213062   5.663   3.804   1.205
 4055SOL     OW13063   2.708   3.135   0.043
 4055SOL    HW113064   2.687   3.037   0.052
 4055SOL    HW213065   2.747   3.152   6.969
 4056SOL     OW13066   5.014   3.916   0.731
 4056SOL    HW113067   5.096   3.872   0.694
 4056SOL    HW213068   5.013   4.013   0.705
 4057SOL     OW13069   6.854   2.625   1.237
 4057SOL    HW113070   6.870   2.555   1.306
 4057SOL    HW213071   6.939   2.646   1.190
 4058SOL     OW13072   1.971   0.035   4.742
 4058SOL    HW113073   1.980   0.131   4.716
 4058SOL    HW213074   2.005   6.993   4.668
 4059SOL     OW13075   0.620   1.627   2.848
 4059SOL    HW113076   0.696   1.562   2.857
 4059SOL    HW213077   0.571   1.609   2.763
 4060SOL     OW13078   5.414   5.631   4.948
 4060SOL    HW113079   5.352   5.705   4.923
 4060SOL    HW213080   5.433   5.634   5.046
 4061SOL     OW13081   2.442   4.408   2.188
 4061SOL    HW113082   2.392   4.325   2.162
 4061SOL    HW213083   2.417   4.434   2.282
 4062SOL     OW13084   2.341   1.512   1.806
 4062SOL    HW113085   2.320   1.513   1.904
 4062SOL    HW213086   2.350   1.417   1.775
 4063SOL     OW13087   5.966   6.394   0.144
 4063SOL    HW113088   5.978   6.439   0.232
 4063SOL    HW213089   5.874   6.354   0.139
 4064SOL     OW13090   2.407   0.210   3.988
 4064SOL    HW113091   2.426   0.135   3.924
 4064SOL    HW213092   2.493   0.255   4.013
 4065SOL     OW13093   1.554   6.632   1.490
 4065SOL    HW113094   1.505   6.546   1.508
 4065SOL    HW213095   1.496   6.691   1.433
 4066SOL     OW13096   5.751   4.896   3.707
 4066SOL    HW113097   5.694   4.947   3.772
 4066SOL    HW213098   5.840   4.941   3.699
 4067SOL     OW13099   6.728   3.345   2.818
 4067SOL    HW113100   6.695   3.263   2.864
 4067SOL    HW213101   6.688   3.426   2.862
 4068SOL     OW13102   1.502   1.565   4.505
 4068SOL    HW113103   1.536   1.507   4.578
 4068SOL    HW213104   1.430   1.517   4.454
 4069SOL     OW13105   2.812   5.391   6.547
 4069SOL    HW113106   2.777   5.414   6.638
 4069SOL    HW213107   2.912   5.398   6.548
 4070SOL     OW13108   0.959   3.491   2.048
 4070SOL    HW113109   0.894   3.424   2.012
 4070SOL    HW213110   0.997   3.545   1.972
 4071SOL     OW13111   1.252   0.959   5.406
 4071SOL    HW113112   1.335   0.975   5.459
 4071SOL    HW213113   1.173   0.957   5.467
 4072SOL     OW13114   0.361   5.730   4.529
 4072SOL    HW113115   0.409   5.807   4.486
 4072SOL    HW213116   0.371   5.736   4.628
 4073SOL     OW13117   2.815   6.070   6.141
 4073SOL    HW113118   2.838   5.984   6.188
 4073SOL    HW213119   2.875   6.081   6.061
 4074SOL     OW13120   0.223   3.832   2.300
 4074SOL    HW113121   0.294   3.902   2.297
 4074SOL    HW213122   0.200   3.812   2.396
 4075SOL     OW13123   4.073   2.148   1.799
 4075SOL    HW113124   4.054   2.051   1.818
 4075SOL    HW213125   4.091   2.195   1.886
 4076SOL     OW13126   2.818   2.425   5.701
 4076SOL    HW113127   2.737   2.448   5.646
 4076SOL    HW213128   2.885   2.499   5.695
 4077SOL     OW13129   3.218   1.328   6.971
 4077SOL    HW113130   3.233   1.336   6.873
 4077SOL    HW213131   3.255   1.240   7.003
 4078SOL     OW13132   0.492   5.684   1.286
 4078SOL    HW113133   0.482   5.752   1.213
 4078SOL    HW213134   0.440   5.713   1.366
 4079SOL     OW13135   1.567   0.751   3.682
 4079SOL    HW113136   1.496   0.757   3.753
 4079SOL    HW213137   1.525   0.766   3.592
 4080SOL     OW13138   3.982   4.507   6.126
 4080SOL    HW113139   3.921   4.581   6.154
 4080SOL    HW213140   3.981   4.499   6.026
 4081SOL     OW13141   1.994   2.748   4.907
 4081SOL    HW113142   2.071   2.801   4.945
 4081SOL    HW213143   1.955   2.691   4.979
 4082SOL     OW13144   1.086   3.528   0.616
 4082SOL    HW113145   0.998   3.513   0.571
 4082SOL    HW213146   1.129   3.611   0.579
 4083SOL     OW13147   0.059   4.425   2.200
 4083SOL    HW113148   0.061   4.518   2.163
 4083SOL    HW213149   0.097   4.425   2.292
 4084SOL     OW13150   5.197   2.280   3.484
 4084SOL    HW113151   5.216   2.282   3.386
 4084SOL    HW213152   5.160   2.368   3.513
 4085SOL     OW13153   2.675   5.615   1.514
 4085SOL    HW113154   2.637   5.603   1.422
 4085SOL    HW213155   2.618   5.567   1.580
 4086SOL     OW13156   0.912   5.388   1.728
 4086SOL    HW113157   0.853   5.450   1.676
 4086SOL    HW213158   0.920   5.301   1.678
 4087SOL     OW13159   1.525   1.605   3.106
 4087SOL    HW113160   1.451   1.601   3.173
 4087SOL    HW213161   1.613   1.614   3.154
 4088SOL     OW13162   6.607   0.973   6.474
 4088SOL    HW113163   6.514   0.967   6.439
 4088SOL    HW213164   6.656   0.888   6.454
 4089SOL     OW13165   6.076   5.590   4.255
 4089SOL    HW113166   6.136   5.513   4.274
 4089SOL    HW213167   6.126   5.675   4.269
 4090SOL     OW13168   1.771   5.394   5.179
 4090SOL    HW113169   1.800   5.348   5.095
 4090SOL    HW213170   1.839   5.379   5.250
 4091SOL     OW13171   6.609   6.353   6.934
 4091SOL    HW113172   6.560   6.277   6.890
 4091SOL    HW213173   6.542   6.420   6.968
 4092SOL     OW13174   6.523   2.562   5.163
 4092SOL    HW113175   6.442   2.585   5.217
 4092SOL    HW213176   6.590   2.636   5.169
 4093SOL     OW13177   4.838   6.306   2.276
 4093SOL    HW113178   4.759   6.253   2.244
 4093SOL    HW213179   4.813   6.403   2.282
 4094SOL     OW13180   2.024   5.715   5.244
 4094SOL    HW113181   2.002   5.646   5.312
 4094SOL    HW213182   2.117   5.748   5.259
 4095SOL     OW13183   0.634   3.707   0.168
 4095SOL    HW113184   0.720   3.665   0.139
 4095SOL    HW213185   0.650   3.802   0.193
 4096SOL     OW13186   4.565   6.223   5.836
 4096SOL    HW113187   4.485   6.283   5.841
 4096SOL    HW213188   4.551   6.154   5.765
 4097SOL     OW13189   4.087   4.649   5.235
 4097SOL    HW113190   4.142   4.567   5.216
 4097SOL    HW213191   4.052   4.644   5.329
 4098SOL     OW13192   6.890   2.453   2.195
 4098SOL    HW113193   6.971   2.406   2.230
 4098SOL    HW213194   6.885   2.545   2.233
 4099SOL     OW13195   3.192   5.233   1.706
 4099SOL    HW113196   3.104   5.274   1.684
 4099SOL    HW213197   3.200   5.145   1.658
 4100SOL     OW13198   6.745   6.772   4.828
 4100SOL    HW113199   6.796   6.729   4.754
 4100SOL    HW213200   6.795   6.761   4.914
 4101SOL     OW13201   5.940   0.985   0.145
 4101SOL    HW113202   5.968   1.007   0.051
 4101SOL    HW213203   6.010   0.930   0.189
 4102SOL     OW13204   6.819   1.163   0.897
 4102SOL    HW113205   6.787   1.245   0.944
 4102SOL    HW213206   6.803   1.083   0.953
 4103SOL     OW13207   7.008   0.254   0.339
 4103SOL    HW113208   0.043   0.247   0.253
 4103SOL    HW213209   6.910   0.264   0.319
 4104SOL     OW13210   0.607   4.818   3.063
 4104SOL    HW113211   0.638   4.891   3.124
 4104SOL    HW213212   0.602   4.732   3.114
 4105SOL     OW13213   4.906   6.986   1.552
 4105SOL    HW113214   4.919   0.014   1.463
 4105SOL    HW213215   4.965   6.906   1.559
 4106SOL     OW13216   6.447   2.971   2.846
 4106SOL    HW113217   6.347   2.969   2.855
 4106SOL    HW213218   6.472   2.957   2.750
 4107SOL     OW13219   1.237   5.735   1.100
 4107SOL    HW113220   1.190   5.684   1.172
 4107SOL    HW213221   1.335   5.735   1.119
 4108SOL     OW13222   6.626   3.943   5.817
 4108SOL    HW113223   6.587   3.867   5.765
 4108SOL    HW213224   6.597   3.936   5.913
 4109SOL     OW13225   6.196   0.173   4.902
 4109SOL    HW113226   6.272   0.201   4.961
 4109SOL    HW213227   6.232   0.146   4.812
 4110SOL     OW13228   3.918   3.386   5.908
 4110SOL    HW113229   4.011   3.353   5.891
 4110SOL    HW213230   3.865   3.380   5.824
 4111SOL     OW13231   4.731   3.239   6.865
 4111SOL    HW113232   4.689   3.177   6.931
 4111SOL    HW213233   4.689   3.329   6.873
 4112SOL     OW13234   5.014   6.166   4.187
 4112SOL    HW113235   5.098   6.142   4.138
 4112SOL    HW213236   5.034   6.237   4.254
 4113SOL     OW13237   4.949   6.043   4.667
 4113SOL    HW113238   4.874   5.980   4.688
 4113SOL    HW213239   4.980   6.087   4.751
 4114SOL     OW13240   3.399   1.994   3.959
 4114SOL    HW113241   3.483   2.008   3.906
 4114SOL    HW213242   3.320   2.019   3.902
 4115SOL     OW13243   3.433   4.997   1.819
 4115SOL    HW113244   3.512   4.943   1.790
 4115SOL    HW213245   3.412   4.977   1.914
 4116SOL     OW13246   3.143   1.363   2.392
 4116SOL    HW113247   3.170   1.425   2.465
 4116SOL    HW213248   3.173   1.270   2.415
 4117SOL     OW13249   1.631   4.369   2.544
 4117SOL    HW113250   1.666   4.463   2.541
 4117SOL    HW213251   1.680   4.318   2.615
 4118SOL     OW13252   3.582   6.814   7.008
 4118SOL    HW113253   3.634   6.739   6.965
 4118SOL    HW213254   3.596   6.898   6.956
 4119SOL     OW13255   2.936   2.106   3.769
 4119SOL    HW113256   2.959   2.139   3.678
 4119SOL    HW213257   2.870   2.031   3.762
 4120SOL     OW13258   3.520   0.533   6.823
 4120SOL    HW113259   3.589   0.465   6.799
 4120SOL    HW213260   3.433   0.510   6.778
 4121SOL     OW13261   5.882   0.919   4.270
 4121SOL    HW113262   5.942   0.859   4.324
 4121SOL    HW213263   5.797   0.936   4.321
 4122SOL     OW13264   1.016   5.732   4.824
 4122SOL    HW113265   0.949   5.720   4.898
 4122SOL    HW213266   1.105   5.697   4.854
 4123SOL     OW13267   4.374   4.920   5.505
 4123SOL    HW113268   4.329   4.927   5.594
 4123SOL    HW213269   4.387   5.011   5.467
 4124SOL     OW13270   5.977   5.606   6.883
 4124SOL    HW113271   5.879   5.628   6.883
 4124SOL    HW213272   6.012   5.610   6.976
 4125SOL     OW13273   4.946   1.423   2.355
 4125SOL    HW113274   5.009   1.484   2.403
 4125SOL    HW213275   4.894   1.476   2.288
 4126SOL     OW13276   1.057   3.806   4.376
 4126SOL    HW113277   1.000   3.876   4.420
 4126SOL    HW213278   1.020   3.787   4.285
 4127SOL     OW13279   4.813   4.979   4.936
 4127SOL    HW113280   4.896   4.969   4.881
 4127SOL    HW213281   4.735   4.946   4.883
 4128SOL     OW13282   1.337   2.659   1.637
 4128SOL    HW113283   1.314   2.572   1.680
 4128SOL    HW213284   1.437   2.669   1.634
 4129SOL     OW13285   3.585   1.040   6.721
 4129SOL    HW113286   3.586   1.137   6.745
 4129SOL    HW213287   3.670   0.997   6.752
 4130SOL     OW13288   6.741   2.825   6.569
 4130SOL    HW113289   6.822   2.823   6.511
 4130SOL    HW213290   6.740   2.909   6.623
 4131SOL     OW13291   1.220   0.431   3.649
 4131SOL    HW113292   1.238   0.372   3.727
 4131SOL    HW213293   1.266   0.394   3.568
 4132SOL     OW13294   4.947   4.602   3.645
 4132SOL    HW113295   4.963   4.508   3.617
 4132SOL    HW213296   4.849   4.618   3.654
 4133SOL     OW13297   2.857   6.000   0.877
 4133SOL    HW113298   2.809   6.066   0.934
 4133SOL    HW213299   2.800   5.978   0.797
 4134SOL     OW13300   2.643   3.579   0.945
 4134SOL    HW113301   2.673   3.564   1.039
 4134SOL    HW213302   2.596   3.497   0.912
 4135SOL     OW13303   0.831   1.405   2.631
 4135SOL    HW113304   0.877   1.316   2.636
 4135SOL    HW213305   0.734   1.393   2.653
 4136SOL     OW13306   1.339   1.970   3.221
 4136SOL    HW113307   1.261   2.016   3.179
 4136SOL    HW213308   1.420   2.029   3.214
 4137SOL     OW13309   0.776   4.361   0.780
 4137SOL    HW113310   0.818   4.284   0.827
 4137SOL    HW213311   0.847   4.423   0.746
 4138SOL     OW13312   4.772   5.504   3.077
 4138SOL    HW113313   4.739   5.425   3.128
 4138SOL    HW213314   4.732   5.504   2.986
 4139SOL     OW13315   1.970   1.727   5.522
 4139SOL    HW113316   1.890   1.782   5.548
 4139SOL    HW213317   2.025   1.707   5.603
 4140SOL     OW13318   2.940   0.243   5.175
 4140SOL    HW113319   3.022   0.191   5.199
 4140SOL    HW213320   2.945   0.271   5.080
 4141SOL     OW13321   6.338   6.052   1.089
 4141SOL    HW113322   6.338   6.024   1.185
 4141SOL    HW213323   6.250   6.094   1.067
 4142SOL     OW13324   6.787   5.296   1.253
 4142SOL    HW113325   6.723   5.372   1.260
 4142SOL    HW213326   6.762   5.238   1.176
 4143SOL     OW13327   5.966   1.665   1.056
 4143SOL    HW113328   5.927   1.757   1.066
 4143SOL    HW213329   5.898   1.597   1.084
 4144SOL     OW13330   5.045   3.392   6.767
 4144SOL    HW113331   4.980   3.458   6.804
 4144SOL    HW213332   5.005   3.347   6.687
 4145SOL     OW13333   6.341   6.527   1.178
 4145SOL    HW113334   6.373   6.435   1.156
 4145SOL    HW213335   6.377   6.591   1.110
 4146SOL     OW13336   6.483   0.460   4.649
 4146SOL    HW113337   6.529   0.391   4.594
 4146SOL    HW213338   6.534   0.546   4.645
 4147SOL     OW13339   4.894   4.147   5.843
 4147SOL    HW113340   4.915   4.233   5.796
 4147SOL    HW213341   4.891   4.073   5.777
 4148SOL     OW13342   1.221   0.709   5.100
 4148SOL    HW113343   1.285   0.705   5.176
 4148SOL    HW213344   1.159   0.787   5.112
 4149SOL     OW13345   0.225   3.151   0.835
 4149SOL    HW113346   0.217   3.144   0.736
 4149SOL    HW213347   0.306   3.205   0.858
 4150SOL     OW13348   0.908   0.871   6.316
 4150SOL    HW113349   0.876   0.777   6.332
 4150SOL    HW213350   0.844   0.918   6.255
 4151SOL     OW13351   2.619   6.078   5.918
 4151SOL    HW113352   2.615   5.979   5.901
 4151SOL    HW213353   2.686   6.097   5.989
 4152SOL     OW13354   4.503   5.769   1.894
 4152SOL    HW113355   4.519   5.672   1.880
 4152SOL    HW213356   4.432   5.802   1.832
 4153SOL     OW13357   4.582   5.482   6.747
 4153SOL    HW113358   4.595   5.443   6.839
 4153SOL    HW213359   4.605   5.414   6.678
 4154SOL     OW13360   0.070   5.431   3.851
 4154SOL    HW113361   6.991   5.412   3.874
 4154SOL    HW213362   0.074   5.467   3.757
 4155SOL     OW13363   0.211   0.983   2.267
 4155SOL    HW113364   0.173   1.036   2.342
 4155SOL    HW213365   0.137   0.951   2.207
 4156SOL     OW13366   5.228   5.930   5.119
 4156SOL    HW113367   5.270   5.977   5.042
 4156SOL    HW213368   5.274   5.958   5.204
 4157SOL     OW13369   5.201   4.991   4.579
 4157SOL    HW113370   5.296   4.987   4.608
 4157SOL    HW213371   5.191   4.948   4.490
 4158SOL     OW13372   1.327   4.779   2.563
 4158SOL    HW113373   1.319   4.738   2.654
 4158SOL    HW213374   1.395   4.730   2.509
 4159SOL     OW13375   2.102   3.758   4.288
 4159SOL    HW113376   2.116   3.662   4.267
 4159SOL    HW213377   2.066   3.805   4.208
 4160SOL     OW13378   6.355   1.199   0.799
 4160SOL    HW113379   6.386   1.146   0.878
 4160SOL    HW213380   6.432   1.247   0.758
 4161SOL     OW13381   0.789   1.032   0.737
 4161SOL    HW113382   0.848   0.997   0.810
 4161SOL    HW213383   0.719   0.964   0.714
 4162SOL     OW13384   6.081   6.513   6.628
 4162SOL    HW113385   6.106   6.426   6.586
 4162SOL    HW213386   6.146   6.535   6.702
 4163SOL     OW13387   5.766   6.394   3.598
 4163SOL    HW113388   5.818   6.342   3.666
 4163SOL    HW213389   5.829   6.450   3.544
 4164SOL     OW13390   1.853   6.537   6.407
 4164SOL    HW113391   1.914   6.494   6.473
 4164SOL    HW213392   1.774   6.577   6.455
 4165SOL     OW13393   4.139   6.813   6.996
 4165SOL    HW113394   4.117   6.789   0.074
 4165SOL    HW213395   4.055   6.820   6.943
 4166SOL     OW13396   6.541   4.132   1.513
 4166SOL    HW113397   6.493   4.092   1.591
 4166SOL    HW213398   6.573   4.058   1.453
 4167SOL     OW13399   1.245   3.989   0.819
 4167SOL    HW113400   1.217   4.034   0.734
 4167SOL    HW213401   1.164   3.959   0.869
 4168SOL     OW13402   6.627   4.935   0.835
 4168SOL    HW113403   6.713   4.939   0.886
 4168SOL    HW213404   6.583   5.025   0.837
 4169SOL     OW13405   5.747   4.028   3.812
 4169SOL    HW113406   5.663   4.051   3.861
 4169SOL    HW213407   5.738   3.936   3.773
 4170SOL     OW13408   4.490   4.172   5.389
 4170SOL    HW113409   4.468   4.245   5.324
 4170SOL    HW213410   4.589   4.158   5.390
 4171SOL     OW13411   6.555   5.640   0.992
 4171SOL    HW113412   6.502   5.604   0.915
 4171SOL    HW213413   6.557   5.739   0.987
 4172SOL     OW13414   0.238   2.439   5.975
 4172SOL    HW113415   0.278   2.426   6.066
 4172SOL    HW213416   0.143   2.468   5.984
 4173SOL     OW13417   5.232   3.665   5.782
 4173SOL    HW113418   5.187   3.630   5.699
 4173SOL    HW213419   5.163   3.688   5.850
 4174SOL     OW13420   5.626   0.717   3.132
 4174SOL    HW113421   5.628   0.815   3.151
 4174SOL    HW213422   5.672   0.700   3.044
 4175SOL     OW13423   2.082   6.313   4.292
 4175SOL    HW113424   2.060   6.339   4.198
 4175SOL    HW213425   2.113   6.394   4.343
 4176SOL     OW13426   2.961   6.695   1.844
 4176SOL    HW113427   2.981   6.691   1.942
 4176SOL    HW213428   2.866   6.720   1.830
 4177SOL     OW13429   6.159   4.452   4.704
 4177SOL    HW113430   6.199   4.376   4.755
 4177SOL    HW213431   6.060   4.455   4.720
 4178SOL     OW13432   4.550   0.425   4.621
 4178SOL    HW113433   4.504   0.409   4.534
 4178SOL    HW213434   4.621   0.493   4.608
 4179SOL     OW13435   5.137   2.532   3.546
 4179SOL    HW113436   5.079   2.575   3.476
 4179SOL    HW213437   5.232   2.557   3.530
 4180SOL     OW13438   4.897   4.181   1.682
 4180SOL    HW113439   4.970   4.113   1.685
 4180SOL    HW213440   4.879   4.215   1.774
 4181SOL     OW13441   2.377   1.478   0.728
 4181SOL    HW113442   2.412   1.467   0.821
 4181SOL    HW213443   2.288   1.433   0.720
 4182SOL     OW13444   0.230   6.917   3.231
 4182SOL    HW113445   0.165   6.901   3.157
 4182SOL    HW213446   0.212   7.007   3.273
 4183SOL     OW13447   4.420   0.875   0.014
 4183SOL    HW113448   4.428   0.927   6.946
 4183SOL    HW213449   4.468   0.788   0.005
 4184SOL     OW13450   4.760   4.926   1.573
 4184SOL    HW113451   4.684   4.863   1.585
 4184SOL    HW213452   4.841   4.891   1.621
 4185SOL     OW13453   0.020   5.580   2.290
 4185SOL    HW113454   0.074   5.651   2.244
 4185SOL    HW213455   6.998   5.618   2.375
 4186SOL     OW13456   2.181   5.496   0.963
 4186SOL    HW113457   2.262   5.453   1.003
 4186SOL    HW213458   2.108   5.499   1.031
 4187SOL     OW13459   3.647   4.127   5.773
 4187SOL    HW113460   3.675   4.115   5.678
 4187SOL    HW213461   3.620   4.038   5.811
 4188SOL     OW13462   4.459   6.856   4.544
 4188SOL    HW113463   4.386   6.818   4.600
 4188SOL    HW213464   4.473   6.798   4.464
 4189SOL     OW13465   3.769   0.545   5.502
 4189SOL    HW113466   3.828   0.609   5.553
 4189SOL    HW213467   3.676   0.550   5.539
 4190SOL     OW13468   0.617   0.469   0.495
 4190SOL    HW113469   0.594   0.443   0.401
 4190SOL    HW213470   0.716   0.464   0.507
 4191SOL     OW13471   5.353   3.483   3.048
 4191SOL    HW113472   5.402   3.433   2.977
 4191SOL    HW213473   5.405   3.480   3.134
 4192SOL     OW13474   0.615   1.143   4.188
 4192SOL    HW113475   0.649   1.083   4.115
 4192SOL    HW213476   0.647   1.108   4.276
 4193SOL     OW13477   1.435   0.058   2.842
 4193SOL    HW113478   1.377   6.993   2.837
 4193SOL    HW213479   1.463   0.084   2.749
 4194SOL     OW13480   5.859   0.337   5.046
 4194SOL    HW113481   5.854   0.254   4.992
 4194SOL    HW213482   5.829   0.318   5.140
 4195SOL     OW13483   3.973   0.031   2.576
 4195SOL    HW113484   3.972   6.996   2.661
 4195SOL    HW213485   4.045   7.012   2.516
 4196SOL     OW13486   5.708   2.323   3.565
 4196SOL    HW113487   5.670   2.310   3.657
 4196SOL    HW213488   5.807   2.330   3.570
 4197SOL     OW13489   4.916   5.793   5.225
 4197SOL    HW113490   4.981   5.768   5.153
 4197SOL    HW213491   4.946   5.753   5.312
 4198SOL     OW13492   5.446   2.987   6.527
 4198SOL    HW113493   5.460   2.908   6.587
 4198SOL    HW213494   5.383   2.962   6.453
 4199SOL     OW13495   2.270   3.223   6.584
 4199SOL    HW113496   2.282   3.240   6.486
 4199SOL    HW213497   2.172   3.212   6.603
 4200SOL     OW13498   2.852   6.033   5.347
 4200SOL    HW113499   2.881   5.962   5.282
 4200SOL    HW213500   2.872   6.003   5.440
 4201SOL     OW13501   6.246   6.217   3.686
 4201SOL    HW113502   6.332   6.261   3.713
 4201SOL    HW213503   6.253   6.187   3.591
 4202SOL     OW13504   4.298   5.548   5.548
 4202SOL    HW113505   4.349   5.499   5.477
 4202SOL    HW213506   4.224   5.600   5.505
 4203SOL     OW13507   5.014   5.374   0.451
 4203SOL    HW113508   4.942   5.305   0.457
 4203SOL    HW213509   4.973   5.463   0.428
 4204SOL     OW13510   3.881   3.082   2.365
 4204SOL    HW113511   3.950   3.132   2.417
 4204SOL    HW213512   3.794   3.085   2.414
 4205SOL     OW13513   3.436   4.882   3.488
 4205SOL    HW113514   3.512   4.857   3.428
 4205SOL    HW213515   3.353   4.892   3.433
 4206SOL     OW13516   6.108   0.692   5.380
 4206SOL    HW113517   6.141   0.768   5.324
 4206SOL    HW213518   6.048   0.633   5.325
 4207SOL     OW13519   2.003   1.514   1.857
 4207SOL    HW113520   2.065   1.465   1.797
 4207SOL    HW213521   1.914   1.468   1.859
 4208SOL     OW13522   0.948   3.395   6.838
 4208SOL    HW113523   0.936   3.313   6.782
 4208SOL    HW213524   0.859   3.440   6.851
 4209SOL     OW13525   0.618   1.271   5.536
 4209SOL    HW113526   0.675   1.200   5.578
 4209SOL    HW213527   0.583   1.332   5.607
 4210SOL     OW13528   3.134   3.332   2.236
 4210SOL    HW113529   3.087   3.244   2.248
 4210SOL    HW213530   3.146   3.376   2.324
 4211SOL     OW13531   3.653   5.176   5.303
 4211SOL    HW113532   3.668   5.118   5.223
 4211SOL    HW213533   3.679   5.127   5.386
 4212SOL     OW13534   6.192   2.797   2.399
 4212SOL    HW113535   6.159   2.708   2.429
 4212SOL    HW213536   6.216   2.793   2.302
 4213SOL     OW13537   2.683   0.808   2.135
 4213SOL    HW113538   2.698   0.906   2.124
 4213SOL    HW213539   2.761   0.758   2.097
 4214SOL     OW13540   1.387   4.005   5.494
 4214SOL    HW113541   1.378   4.066   5.416
 4214SOL    HW213542   1.440   4.050   5.566
 4215SOL     OW13543   6.755   6.052   4.570
 4215SOL    HW113544   6.853   6.040   4.584
 4215SOL    HW213545   6.734   6.040   4.473
 4216SOL     OW13546   1.044   1.268   2.863
 4216SOL    HW113547   1.055   1.357   2.820
 4216SOL    HW213548   1.119   1.251   2.927
 4217SOL     OW13549   6.803   0.275   2.678
 4217SOL    HW113550   6.760   0.215   2.610
 4217SOL    HW213551   6.818   0.224   2.763
 4218SOL     OW13552   5.046   0.664   1.915
 4218SOL    HW113553   5.022   0.691   1.822
 4218SOL    HW213554   5.098   0.579   1.913
 4219SOL     OW13555   2.775   5.037   3.502
 4219SOL    HW113556   2.765   4.943   3.536
 4219SOL    HW213557   2.862   5.046   3.453
 4220SOL     OW13558   5.301   2.782   3.627
 4220SOL    HW113559   5.348   2.723   3.562
 4220SOL    HW213560   5.354   2.786   3.712
 4221SOL     OW13561   6.073   5.802   6.714
 4221SOL    HW113562   6.069   5.723   6.776
 4221SOL    HW213563   5.989   5.806   6.660
 4222SOL     OW13564   6.265   2.588   3.133
 4222SOL    HW113565   6.357   2.551   3.121
 4222SOL    HW213566   6.238   2.638   3.051
 4223SOL     OW13567   3.253   3.289   5.101
 4223SOL    HW113568   3.299   3.309   5.187
 4223SOL    HW213569   3.267   3.364   5.037
 4224SOL     OW13570   4.818   3.033   3.383
 4224SOL    HW113571   4.739   2.972   3.394
 4224SOL    HW213572   4.828   3.089   3.466
 4225SOL     OW13573   4.773   0.578   5.649
 4225SOL    HW113574   4.751   0.508   5.580
 4225SOL    HW213575   4.863   0.616   5.630
 4226SOL     OW13576   0.506   0.206   3.130
 4226SOL    HW113577   0.455   0.170   3.052
 4226SOL    HW213578   0.502   0.306   3.130
 4227SOL     OW13579   3.718   5.215   6.474
 4227SOL    HW113580   3.653   5.226   6.399
 4227SOL    HW213581   3.795   5.158   6.444
 4228SOL     OW13582   0.417   3.777   3.526
 4228SOL    HW113583   0.349   3.715   3.487
 4228SOL    HW213584   0.495   3.785   3.464
 4229SOL     OW13585   4.847   5.305   5.825
 4229SOL    HW113586   4.750   5.288   5.837
 4229SOL    HW213587   4.876   5.276   5.734
 4230SOL     OW13588   2.526   0.517   4.287
 4230SOL    HW113589   2.465   0.573   4.341
 4230SOL    HW213590   2.485   0.499   4.197
 4231SOL     OW13591   5.306   5.876   4.813
 4231SOL    HW113592   5.393   5.924   4.802
 4231SOL    HW213593   5.231   5.942   4.811
 4232SOL     OW13594   0.325   4.328   1.413
 4232SOL    HW113595   0.407   4.327   1.356
 4232SOL    HW213596   0.296   4.233   1.430
 4233SOL     OW13597   6.595   0.774   0.016
 4233SOL    HW113598   6.589   0.681   0.052
 4233SOL    HW213599   6.504   0.817   0.019
 4234SOL     OW13600   1.483   6.973   5.769
 4234SOL    HW113601   1.511   6.890   5.720
 4234SOL    HW213602   1.458   0.028   5.704
 4235SOL     OW13603   5.306   3.840   5.467
 4235SOL    HW113604   5.249   3.893   5.403
 4235SOL    HW213605   5.357   3.771   5.416
 4236SOL     OW13606   0.397   3.531   2.835
 4236SOL    HW113607   0.494   3.555   2.840
 4236SOL    HW213608   0.371   3.477   2.915
 4237SOL     OW13609   6.581   5.352   3.724
 4237SOL    HW113610   6.504   5.294   3.752
 4237SOL    HW213611   6.546   5.434   3.678
 4238SOL     OW13612   3.631   4.942   2.806
 4238SOL    HW113613   3.571   4.903   2.876
 4238SOL    HW213614   3.727   4.929   2.833
 4239SOL     OW13615   5.724   1.297   3.933
 4239SOL    HW113616   5.782   1.351   3.994
 4239SOL    HW213617   5.662   1.240   3.986
 4240SOL     OW13618   2.204   6.996   0.004
 4240SOL    HW113619   2.255   0.016   6.943
 4240SOL    HW213620   2.156   6.913   6.993
 4241SOL     OW13621   5.978   1.187   1.169
 4241SOL    HW113622   6.077   1.178   1.178
 4241SOL    HW213623   5.956   1.215   1.075
 4242SOL     OW13624   1.947   0.444   3.473
 4242SOL    HW113625   2.021   0.437   3.540
 4242SOL    HW213626   1.987   0.465   3.383
 4243SOL     OW13627   0.762   3.671   3.877
 4243SOL    HW113628   0.746   3.573   3.885
 4243SOL    HW213629   0.675   3.718   3.864
 4244SOL     OW13630   5.293   5.038   1.001
 4244SOL    HW113631   5.222   5.100   1.033
 4244SOL    HW213632   5.290   5.031   0.902
 4245SOL     OW13633   6.306   1.330   6.091
 4245SOL    HW113634   6.215   1.369   6.109
 4245SOL    HW213635   6.362   1.396   6.043
 4246SOL     OW13636   5.684   2.789   3.788
 4246SOL    HW113637   5.753   2.719   3.807
 4246SOL    HW213638   5.603   2.772   3.844
 4247SOL     OW13639   2.044   5.000   3.447
 4247SOL    HW113640   1.958   4.959   3.417
 4247SOL    HW213641   2.059   5.086   3.400
 4248SOL     OW13642   1.398   0.975   3.557
 4248SOL    HW113643   1.325   0.956   3.623
 4248SOL    HW213644   1.464   1.039   3.596
 4249SOL     OW13645   5.214   1.870   3.236
 4249SOL    HW113646   5.170   1.950   3.275
 4249SOL    HW213647   5.152   1.792   3.239
 4250SOL     OW13648   6.182   5.985   4.449
 4250SOL    HW113649   6.173   5.931   4.532
 4250SOL    HW213650   6.262   5.955   4.398
 4251SOL     OW13651   6.604   3.181   1.160
 4251SOL    HW113652   6.621   3.176   1.259
 4251SOL    HW213653   6.546   3.105   1.133
 4252SOL     OW13654   4.957   6.001   6.250
 4252SOL    HW113655   5.040   6.048   6.219
 4252SOL    HW213656   4.925   6.042   6.335
 4253SOL     OW13657   3.327   6.713   1.506
 4253SOL    HW113658   3.253   6.712   1.573
 4253SOL    HW213659   3.402   6.654   1.537
 4254SOL     OW13660   2.270   4.013   1.807
 4254SOL    HW113661   2.268   4.112   1.795
 4254SOL    HW213662   2.196   3.986   1.869
 4255SOL     OW13663   0.253   4.221   3.958
 4255SOL    HW113664   0.181   4.152   3.965
 4255SOL    HW213665   0.311   4.202   3.879
 4256SOL     OW13666   0.856   5.970   0.967
 4256SOL    HW113667   0.921   6.029   0.919
 4256SOL    HW213668   0.778   5.951   0.908
 4257SOL     OW13669   4.411   1.319   4.332
 4257SOL    HW113670   4.366   1.402   4.300
 4257SOL    HW213671   4.423   1.323   4.431
 4258SOL     OW13672   3.166   5.943   1.150
 4258SOL    HW113673   3.136   6.032   1.185
 4258SOL    HW213674   3.104   5.914   1.076
 4259SOL     OW13675   1.651   6.030   0.746
 4259SOL    HW113676   1.595   6.086   0.685
 4259SOL    HW213677   1.747   6.037   0.718
 4260SOL     OW13678   5.908   0.865   3.454
 4260SOL    HW113679   5.866   0.777   3.478
 4260SOL    HW213680   5.837   0.935   3.449
 4261SOL     OW13681   1.699   0.341   2.917
 4261SOL    HW113682   1.687   0.408   2.843
 4261SOL    HW213683   1.759   0.380   2.987
 4262SOL     OW13684   0.907   4.017   6.199
 4262SOL    HW113685   0.842   4.089   6.174
 4262SOL    HW213686   0.959   3.990   6.118
 4263SOL     OW13687   2.453   0.747   3.441
 4263SOL    HW113688   2.470   0.673   3.506
 4263SOL    HW213689   2.540   0.779   3.403
 4264SOL     OW13690   6.318   1.757   4.717
 4264SOL    HW113691   6.362   1.799   4.638
 4264SOL    HW213692   6.266   1.826   4.768
 4265SOL     OW13693   3.866   0.821   1.032
 4265SOL    HW113694   3.802   0.886   0.991
 4265SOL    HW213695   3.868   0.738   0.977
 4266SOL     OW13696   2.144   6.267   6.393
 4266SOL    HW113697   2.074   6.250   6.324
 4266SOL    HW213698   2.189   6.181   6.416
 4267SOL     OW13699   2.149   4.210   4.193
 4267SOL    HW113700   2.193   4.142   4.135
 4267SOL    HW213701   2.080   4.165   4.250
 4268SOL     OW13702   1.724   5.523   6.715
 4268SOL    HW113703   1.771   5.610   6.701
 4268SOL    HW213704   1.783   5.460   6.764
 4269SOL     OW13705   2.865   0.429   3.461
 4269SOL    HW113706   2.817   0.460   3.542
 4269SOL    HW213707   2.801   0.419   3.385
 4270SOL     OW13708   3.570   2.816   2.376
 4270SOL    HW113709   3.478   2.830   2.414
 4270SOL    HW213710   3.638   2.843   2.444
 4271SOL     OW13711   0.085   0.956   0.334
 4271SOL    HW113712   0.058   0.861   0.321
 4271SOL    HW213713   0.010   1.006   0.378
 4272SOL     OW13714   0.018   2.813   4.942
 4272SOL    HW113715   0.083   2.783   5.011
 4272SOL    HW213716   6.952   2.848   4.986
 4273SOL     OW13717   4.934   6.424   4.633
 4273SOL    HW113718   4.907   6.344   4.579
 4273SOL    HW213719   5.031   6.443   4.618
 4274SOL     OW13720   1.180   0.032   1.944
 4274SOL    HW113721   1.221   0.023   1.853
 4274SOL    HW213722   1.187   0.127   1.975
 4275SOL     OW13723   6.724   1.834   3.970
 4275SOL    HW113724   6.691   1.739   3.974
 4275SOL    HW213725   6.665   1.887   3.909
 4276SOL     OW13726   3.004   5.088   3.952
 4276SOL    HW113727   2.968   5.180   3.940
 4276SOL    HW213728   3.068   5.087   4.029
 4277SOL     OW13729   0.168   4.283   2.805
 4277SOL    HW113730   0.172   4.307   2.708
 4277SOL    HW213731   0.215   4.352   2.860
 4278SOL     OW13732   0.730   6.759   4.427
 4278SOL    HW113733   0.686   6.727   4.512
 4278SOL    HW213734   0.823   6.722   4.422
 4279SOL     OW13735   2.067   1.106   2.933
 4279SOL    HW113736   2.023   1.133   3.018
 4279SOL    HW213737   2.165   1.094   2.948
 4280SOL     OW13738   6.269   6.960   5.663
 4280SOL    HW113739   6.189   6.972   5.721
 4280SOL    HW213740   6.301   0.034   5.633
 4281SOL     OW13741   5.486   5.144   3.336
 4281SOL    HW113742   5.520   5.056   3.370
 4281SOL    HW213743   5.529   5.164   3.248
 4282SOL     OW13744   3.241   4.271   0.373
 4282SOL    HW113745   3.258   4.172   0.374
 4282SOL    HW213746   3.315   4.317   0.324
 4283SOL     OW13747   3.076   1.451   3.771
 4283SOL    HW113748   3.075   1.501   3.684
 4283SOL    HW213749   3.164   1.466   3.817
 4284SOL     OW13750   4.663   5.199   0.796
 4284SOL    HW113751   4.672   5.295   0.771
 4284SOL    HW213752   4.596   5.155   0.736
 4285SOL     OW13753   2.412   1.216   5.679
 4285SOL    HW113754   2.322   1.173   5.669
 4285SOL    HW213755   2.465   1.167   5.748
 4286SOL     OW13756   5.678   6.864   5.796
 4286SOL    HW113757   5.604   6.911   5.748
 4286SOL    HW213758   5.754   6.928   5.808
 4287SOL     OW13759   4.648   1.038   5.899
 4287SOL    HW113760   4.646   1.086   5.812
 4287SOL    HW213761   4.674   0.943   5.884
 4288SOL     OW13762   1.167   5.359   3.420
 4288SOL    HW113763   1.191   5.377   3.324
 4288SOL    HW213764   1.099   5.424   3.450
 4289SOL     OW13765   0.371   2.251   5.723
 4289SOL    HW113766   0.343   2.265   5.628
 4289SOL    HW213767   0.441   2.180   5.727
 4290SOL     OW13768   0.910   6.383   4.849
 4290SOL    HW113769   0.855   6.449   4.902
 4290SOL    HW213770   0.885   6.388   4.753
 4291SOL     OW13771   5.076   3.860   6.640
 4291SOL    HW113772   5.100   3.946   6.595
 4291SOL    HW213773   4.988   3.828   6.607
 4292SOL     OW13774   6.405   2.734   0.605
 4292SOL    HW113775   6.410   2.735   0.505
 4292SOL    HW213776   6.399   2.829   0.638
 4293SOL     OW13777   3.727   4.796   0.070
 4293SOL    HW113778   3.686   4.709   0.045
 4293SOL    HW213779   3.702   4.819   0.164
 4294SOL     OW13780   1.986   0.953   6.290
 4294SOL    HW113781   2.041   0.900   6.226
 4294SOL    HW213782   1.971   1.045   6.253
 4295SOL     OW13783   5.329   5.692   3.995
 4295SOL    HW113784   5.372   5.609   3.957
 4295SOL    HW213785   5.265   5.729   3.928
 4296SOL     OW13786   3.279   6.777   0.012
 4296SOL    HW113787   3.369   6.752   6.992
 4296SOL    HW213788   3.272   6.747   0.108
 4297SOL     OW13789   6.312   0.062   2.224
 4297SOL    HW113790   6.307   0.031   2.130
 4297SOL    HW213791   6.343   7.003   2.283
 4298SOL     OW13792   3.452   6.222   1.551
 4298SOL    HW113793   3.480   6.158   1.479
 4298SOL    HW213794   3.402   6.173   1.622
 4299SOL     OW13795   1.424   2.677   0.008
 4299SOL    HW113796   1.435   2.687   6.925
 4299SOL    HW213797   1.328   2.656   0.029
 4300SOL     OW13798   2.846   6.815   0.370
 4300SOL    HW113799   2.830   6.737   0.431
 4300SOL    HW213800   2.813   6.792   0.279
 4301SOL     OW13801   4.501   0.155   1.750
 4301SOL    HW113802   4.464   0.124   1.838
 4301SOL    HW213803   4.598   0.128   1.745
 4302SOL     OW13804   6.545   0.557   6.155
 4302SOL    HW113805   6.465   0.562   6.214
 4302SOL    HW213806   6.565   0.648   6.117
 4303SOL     OW13807   0.159   4.520   4.240
 4303SOL    HW113808   0.202   4.610   4.234
 4303SOL    HW213809   0.077   4.519   4.183
 4304SOL     OW13810   3.371   3.752   2.236
 4304SOL    HW113811   3.360   3.849   2.216
 4304SOL    HW213812   3.292   3.701   2.199
 4305SOL     OW13813   0.689   6.783   5.965
 4305SOL    HW113814   0.682   6.689   5.932
 4305SOL    HW213815   0.780   6.797   6.006
 4306SOL     OW13816   4.739   4.871   4.631
 4306SOL    HW113817   4.772   4.816   4.555
 4306SOL    HW213818   4.691   4.813   4.696
 4307SOL     OW13819   5.878   3.435   5.151
 4307SOL    HW113820   5.889   3.376   5.231
 4307SOL    HW213821   5.917   3.390   5.070
 4308SOL     OW13822   5.951   5.590   1.150
 4308SOL    HW113823   6.007   5.508   1.156
 4308SOL    HW213824   5.962   5.632   1.059
 4309SOL     OW13825   1.129   1.157   1.015
 4309SOL    HW113826   1.225   1.180   1.033
 4309SOL    HW213827   1.071   1.209   1.077
 4310SOL     OW13828   1.824   2.450   1.426
 4310SOL    HW113829   1.911   2.430   1.472
 4310SOL    HW213830   1.840   2.510   1.348
 4311SOL     OW13831   0.261   6.154   2.683
 4311SOL    HW113832   0.346   6.166   2.632
 4311SOL    HW213833   0.207   6.081   2.640
 4312SOL     OW13834   1.659   5.655   2.778
 4312SOL    HW113835   1.602   5.579   2.745
 4312SOL    HW213836   1.747   5.653   2.730
 4313SOL     OW13837   4.322   1.921   0.189
 4313SOL    HW113838   4.300   1.823   0.197
 4313SOL    HW213839   4.370   1.951   0.272
 4314SOL     OW13840   5.988   1.700   5.240
 4314SOL    HW113841   5.923   1.639   5.285
 4314SOL    HW213842   6.058   1.645   5.193
 4315SOL     OW13843   2.391   0.127   3.735
 4315SOL    HW113844   2.473   0.122   3.678
 4315SOL    HW213845   2.366   0.222   3.750
 4316SOL     OW13846   4.442   0.296   2.512
 4316SOL    HW113847   4.354   0.326   2.476
 4316SOL    HW213848   4.500   0.375   2.528
 4317SOL     OW13849   5.169   1.390   5.772
 4317SOL    HW113850   5.249   1.357   5.821
 4317SOL    HW213851   5.098   1.320   5.772
 4318SOL     OW13852   1.057   1.771   4.931
 4318SOL    HW113853   0.960   1.795   4.919
 4318SOL    HW213854   1.114   1.844   4.894
 4319SOL     OW13855   1.645   1.907   1.263
 4319SOL    HW113856   1.741   1.934   1.261
 4319SOL    HW213857   1.588   1.988   1.269
 4320SOL     OW13858   3.827   5.417   0.907
 4320SOL    HW113859   3.892   5.407   0.832
 4320SOL    HW213860   3.812   5.329   0.951
 4321SOL     OW13861   6.780   4.632   4.372
 4321SOL    HW113862   6.874   4.599   4.377
 4321SOL    HW213863   6.717   4.556   4.387
 4322SOL     OW13864   6.547   2.956   6.368
 4322SOL    HW113865   6.629   2.997   6.327
 4322SOL    HW213866   6.573   2.903   6.448
 4323SOL     OW13867   5.097   4.564   0.209
 4323SOL    HW113868   5.184   4.610   0.228
 4323SOL    HW213869   5.026   4.633   0.192
 4324SOL     OW13870   6.379   4.367   6.294
 4324SOL    HW113871   6.463   4.314   6.304
 4324SOL    HW213872   6.305   4.307   6.263
 4325SOL     OW13873   2.950   1.889   2.119
 4325SOL    HW113874   3.016   1.818   2.142
 4325SOL    HW213875   2.993   1.954   2.055
 4326SOL     OW13876   5.202   4.550   2.208
 4326SOL    HW113877   5.120   4.567   2.263
 4326SOL    HW213878   5.176   4.543   2.112
 4327SOL     OW13879   5.103   6.234   2.329
 4327SOL    HW113880   5.010   6.264   2.351
 4327SOL    HW213881   5.167   6.274   2.396
 4328SOL     OW13882   5.716   4.741   5.677
 4328SOL    HW113883   5.815   4.728   5.670
 4328SOL    HW213884   5.686   4.807   5.607
 4329SOL     OW13885   5.518   2.744   5.314
 4329SOL    HW113886   5.523   2.740   5.214
 4329SOL    HW213887   5.579   2.674   5.353
 4330SOL     OW13888   2.184   6.490   4.485
 4330SOL    HW113889   2.200   6.552   4.562
 4330SOL    HW213890   2.271   6.452   4.455
 4331SOL     OW13891   5.851   0.817   1.708
 4331SOL    HW113892   5.892   0.840   1.796
 4331SOL    HW213893   5.921   0.822   1.636
 4332SOL     OW13894   6.140   2.941   2.876
 4332SOL    HW113895   6.171   2.935   2.971
 4332SOL    HW213896   6.115   2.850   2.843
 4333SOL     OW13897   4.364   1.616   4.746
 4333SOL    HW113898   4.354   1.705   4.701
 4333SOL    HW213899   4.273   1.574   4.756
 4334SOL     OW13900   1.801   2.808   2.081
 4334SOL    HW113901   1.878   2.744   2.087
 4334SOL    HW213902   1.833   2.900   2.105
 4335SOL     OW13903   3.798   2.916   2.171
 4335SOL    HW113904   3.834   2.991   2.225
 4335SOL    HW213905   3.780   2.837   2.230
 4336SOL     OW13906   2.549   5.673   5.573
 4336SOL    HW113907   2.489   5.614   5.518
 4336SOL    HW213908   2.507   5.763   5.585
 4337SOL     OW13909   2.402   4.895   1.844
 4337SOL    HW113910   2.438   4.987   1.830
 4337SOL    HW213911   2.476   4.828   1.829
 4338SOL     OW13912   6.287   6.901   5.969
 4338SOL    HW113913   6.353   6.957   5.920
 4338SOL    HW213914   6.278   6.812   5.923
 4339SOL     OW13915   4.156   2.880   6.423
 4339SOL    HW113916   4.220   2.956   6.428
 4339SOL    HW213917   4.107   2.872   6.510
 4340SOL     OW13918   6.161   3.829   1.257
 4340SOL    HW113919   6.196   3.881   1.179
 4340SOL    HW213920   6.122   3.891   1.324
 4341SOL     OW13921   1.601   5.564   0.956
 4341SOL    HW113922   1.619   5.637   0.890
 4341SOL    HW213923   1.560   5.603   1.038
 4342SOL     OW13924   5.304   3.711   3.166
 4342SOL    HW113925   5.257   3.775   3.104
 4342SOL    HW213926   5.311   3.621   3.123
 4343SOL     OW13927   3.196   5.752   4.388
 4343SOL    HW113928   3.280   5.700   4.372
 4343SOL    HW213929   3.208   5.810   4.468
 4344SOL     OW13930   1.226   3.639   2.929
 4344SOL    HW113931   1.149   3.579   2.954
 4344SOL    HW213932   1.237   3.638   2.829
 4345SOL     OW13933   3.310   3.842   5.049
 4345SOL    HW113934   3.240   3.809   4.987
 4345SOL    HW213935   3.267   3.874   5.134
 4346SOL     OW13936   1.735   2.713   2.720
 4346SOL    HW113937   1.761   2.633   2.665
 4346SOL    HW213938   1.816   2.769   2.736
 4347SOL     OW13939   5.578   6.393   3.036
 4347SOL    HW113940   5.482   6.363   3.040
 4347SOL    HW213941   5.583   6.479   2.985
 4348SOL     OW13942   0.234   6.045   4.434
 4348SOL    HW113943   0.185   5.968   4.477
 4348SOL    HW213944   0.243   6.027   4.336
 4349SOL     OW13945   6.283   2.397   3.728
 4349SOL    HW113946   6.278   2.311   3.779
 4349SOL    HW213947   6.323   2.380   3.638
 4350SOL     OW13948   4.212   1.649   4.064
 4350SOL    HW113949   4.221   1.680   3.969
 4350SOL    HW213950   4.243   1.721   4.126
 4351SOL     OW13951   1.441   6.255   1.306
 4351SOL    HW113952   1.390   6.172   1.328
 4351SOL    HW213953   1.477   6.295   1.391
 4352SOL     OW13954   6.356   4.039   1.741
 4352SOL    HW113955   6.324   3.944   1.744
 4352SOL    HW213956   6.293   4.093   1.686
 4353SOL     OW13957   3.602   3.515   0.171
 4353SOL    HW113958   3.697   3.535   0.151
 4353SOL    HW213959   3.565   3.452   0.103
 4354SOL     OW13960   1.988   1.201   6.140
 4354SOL    HW113961   1.960   1.249   6.222
 4354SOL    HW213962   2.028   1.266   6.075
 4355SOL     OW13963   1.938   0.290   2.537
 4355SOL    HW113964   1.864   0.240   2.583
 4355SOL    HW213965   1.980   0.353   2.601
 4356SOL     OW13966   4.792   3.469   5.929
 4356SOL    HW113967   4.758   3.451   6.021
 4356SOL    HW213968   4.823   3.564   5.923
 4357SOL     OW13969   7.013   1.227   1.448
 4357SOL    HW113970   6.995   1.292   1.375
 4357SOL    HW213971   0.091   1.193   1.440
 4358SOL     OW13972   6.929   0.903   0.737
 4358SOL    HW113973   6.886   0.816   0.761
 4358SOL    HW213974   7.008   0.919   0.797
 4359SOL     OW13975   1.014   1.126   6.972
 4359SOL    HW113976   0.939   1.070   7.008
 4359SOL    HW213977   1.018   1.213   0.006
 4360SOL     OW13978   0.575   3.164   4.428
 4360SOL    HW113979   0.480   3.178   4.398
 4360SOL    HW213980   0.637   3.198   4.357
 4361SOL     OW13981   1.965   3.910   0.960
 4361SOL    HW113982   2.053   3.930   1.002
 4361SOL    HW213983   1.905   3.990   0.969
 4362SOL     OW13984   6.893   5.953   4.321
 4362SOL    HW113985   6.933   5.939   4.231
 4362SOL    HW213986   6.795   5.973   4.312
 4363SOL     OW13987   4.691   1.179   1.447
 4363SOL    HW113988   4.683   1.173   1.546
 4363SOL    HW213989   4.781   1.215   1.422
 4364SOL     OW13990   3.144   3.923   3.344
 4364SOL    HW113991   3.162   3.941   3.441
 4364SOL    HW213992   3.220   3.957   3.289
 4365SOL     OW13993   2.972   0.605   2.664
 4365SOL    HW113994   3.014   0.529   2.614
 4365SOL    HW213995   2.915   0.659   2.601
 4366SOL     OW13996   5.843   6.342   6.657
 4366SOL    HW113997   5.926   6.393   6.680
 4366SOL    HW213998   5.782   6.341   6.736
 4367SOL     OW13999   2.479   4.939   3.550
 4367SOL    HW114000   2.415   4.893   3.612
 4367SOL    HW214001   2.531   5.007   3.601
 4368SOL     OW14002   3.774   5.697   1.885
 4368SOL    HW114003   3.786   5.737   1.976
 4368SOL    HW214004   3.723   5.761   1.827
 4369SOL     OW14005   4.626   5.293   3.227
 4369SOL    HW114006   4.713   5.248   3.246
 4369SOL    HW214007   4.606   5.289   3.129
 4370SOL     OW14008   3.682   4.394   1.467
 4370SOL    HW114009   3.727   4.340   1.539
 4370SOL    HW214010   3.666   4.486   1.501
 4371SOL     OW14011   2.066   2.000   2.815
 4371SOL    HW114012   2.028   2.003   2.907
 4371SOL    HW214013   2.010   2.056   2.754
 4372SOL     OW14014   2.343   2.688   4.609
 4372SOL    HW114015   2.385   2.718   4.523
 4372SOL    HW214016   2.269   2.751   4.633
 4373SOL     OW14017   4.543   1.058   6.809
 4373SOL    HW114018   4.503   1.006   6.734
 4373SOL    HW214019   4.526   1.155   6.795
 4374SOL     OW14020   1.615   1.474   1.577
 4374SOL    HW114021   1.591   1.553   1.521
 4374SOL    HW214022   1.679   1.502   1.648
 4375SOL     OW14023   3.928   5.829   2.889
 4375SOL    HW114024   3.926   5.907   2.952
 4375SOL    HW214025   3.895   5.747   2.936
 4376SOL     OW14026   6.322   0.585   2.314
 4376SOL    HW114027   6.286   0.511   2.258
 4376SOL    HW214028   6.250   0.619   2.375
 4377SOL     OW14029   5.696   5.728   0.273
 4377SOL    HW114030   5.729   5.779   0.194
 4377SOL    HW214031   5.770   5.715   0.338
 4378SOL     OW14032   1.737   3.843   2.881
 4378SOL    HW114033   1.815   3.866   2.822
 4378SOL    HW214034   1.747   3.749   2.915
 4379SOL     OW14035   2.268   1.580   2.093
 4379SOL    HW114036   2.254   1.652   2.161
 4379SOL    HW214037   2.234   1.493   2.129
 4380SOL     OW14038   1.748   6.243   4.049
 4380SOL    HW114039   1.718   6.244   3.954
 4380SOL    HW214040   1.763   6.337   4.080
 4381SOL     OW14041   2.177   3.999   4.779
 4381SOL    HW114042   2.232   3.938   4.723
 4381SOL    HW214043   2.208   3.995   4.874
 4382SOL     OW14044   6.013   3.087   6.065
 4382SOL    HW114045   5.977   3.162   6.120
 4382SOL    HW214046   5.951   3.008   6.073
 4383SOL     OW14047   0.251   2.891   5.542
 4383SOL    HW114048   0.257   2.791   5.532
 4383SOL    HW214049   0.196   2.913   5.622
 4384SOL     OW14050   5.655   1.043   6.343
 4384SOL    HW114051   5.673   1.128   6.393
 4384SOL    HW214052   5.614   1.065   6.254
 4385SOL     OW14053   0.009   2.448   4.588
 4385SOL    HW114054   0.071   2.473   4.662
 4385SOL    HW214055   0.061   2.409   4.512
 4386SOL     OW14056   1.456   3.747   6.515
 4386SOL    HW114057   1.444   3.834   6.468
 4386SOL    HW214058   1.409   3.675   6.463
 4387SOL     OW14059   1.060   1.349   1.482
 4387SOL    HW114060   1.017   1.423   1.431
 4387SOL    HW214061   1.139   1.315   1.430
 4388SOL     OW14062   4.739   0.965   6.219
 4388SOL    HW114063   4.722   0.872   6.183
 4388SOL    HW214064   4.692   1.031   6.160
 4389SOL     OW14065   5.668   1.726   0.344
 4389SOL    HW114066   5.570   1.722   0.360
 4389SOL    HW214067   5.694   1.657   0.276
 4390SOL     OW14068   4.462   1.596   2.200
 4390SOL    HW114069   4.541   1.604   2.261
 4390SOL    HW214070   4.385   1.646   2.239
 4391SOL     OW14071   1.758   5.613   5.963
 4391SOL    HW114072   1.688   5.605   5.892
 4391SOL    HW214073   1.759   5.529   6.018
 4392SOL     OW14074   6.306   3.615   5.296
 4392SOL    HW114075   6.305   3.711   5.270
 4392SOL    HW214076   6.225   3.593   5.350
 4393SOL     OW14077   5.434   6.577   3.414
 4393SOL    HW114078   5.401   6.596   3.506
 4393SOL    HW214079   5.530   6.605   3.407
 4394SOL     OW14080   6.500   5.501   3.016
 4394SOL    HW114081   6.522   5.588   2.972
 4394SOL    HW214082   6.425   5.457   2.967
 4395SOL     OW14083   3.804   1.201   1.802
 4395SOL    HW114084   3.784   1.250   1.717
 4395SOL    HW214085   3.830   1.107   1.781
 4396SOL     OW14086   2.453   2.284   4.237
 4396SOL    HW114087   2.535   2.339   4.251
 4396SOL    HW214088   2.393   2.330   4.171
 4397SOL     OW14089   0.730   1.910   5.261
 4397SOL    HW114090   0.814   1.902   5.315
 4397SOL    HW214091   0.735   1.846   5.184
 4398SOL     OW14092   1.242   4.699   4.791
 4398SOL    HW114093   1.324   4.722   4.738
 4398SOL    HW214094   1.221   4.602   4.779
 4399SOL     OW14095   1.512   0.426   2.296
 4399SOL    HW114096   1.414   0.433   2.278
 4399SOL    HW214097   1.563   0.473   2.225
 4400SOL     OW14098   2.185   0.199   5.100
 4400SOL    HW114099   2.137   0.250   5.028
 4400SOL    HW214100   2.132   0.202   5.184
 4401SOL     OW14101   5.490   6.684   6.963
 4401SOL    HW114102   5.561   6.734   6.914
 4401SOL    HW214103   5.423   6.749   7.000
 4402SOL     OW14104   1.765   6.501   1.976
 4402SOL    HW114105   1.753   6.535   1.882
 4402SOL    HW214106   1.768   6.402   1.975
 4403SOL     OW14107   0.177   0.316   3.642
 4403SOL    HW114108   0.132   0.324   3.731
 4403SOL    HW214109   0.138   0.240   3.591
 4404SOL     OW14110   0.842   4.344   5.534
 4404SOL    HW114111   0.909   4.287   5.487
 4404SOL    HW214112   0.751   4.304   5.522
 4405SOL     OW14113   2.814   4.018   0.475
 4405SOL    HW114114   2.838   4.112   0.451
 4405SOL    HW214115   2.724   3.996   0.438
 4406SOL     OW14116   6.229   4.678   1.438
 4406SOL    HW114117   6.238   4.775   1.413
 4406SOL    HW214118   6.145   4.665   1.489
 4407SOL     OW14119   0.061   4.141   0.434
 4407SOL    HW114120   0.143   4.135   0.377
 4407SOL    HW214121   0.063   4.070   0.504
 4408SOL     OW14122   4.293   1.306   0.955
 4408SOL    HW114123   4.319   1.220   0.998
 4408SOL    HW214124   4.322   1.383   1.013
 4409SOL     OW14125   4.265   0.431   2.031
 4409SOL    HW114126   4.174   0.403   2.062
 4409SOL    HW214127   4.335   0.381   2.081
 4410SOL     OW14128   1.744   5.443   0.479
 4410SOL    HW114129   1.840   5.462   0.460
 4410SOL    HW214130   1.734   5.348   0.509
 4411SOL     OW14131   3.763   3.054   3.967
 4411SOL    HW114132   3.830   3.125   3.990
 4411SOL    HW214133   3.670   3.091   3.977
 4412SOL     OW14134   3.436   0.847   4.877
 4412SOL    HW114135   3.430   0.755   4.840
 4412SOL    HW214136   3.522   0.890   4.847
 4413SOL     OW14137   4.909   5.416   4.662
 4413SOL    HW114138   4.999   5.380   4.639
 4413SOL    HW214139   4.838   5.351   4.633
 4414SOL     OW14140   3.957   5.036   1.920
 4414SOL    HW114141   3.925   5.105   1.985
 4414SOL    HW214142   3.994   5.081   1.839
 4415SOL     OW14143   4.212   3.887   6.152
 4415SOL    HW114144   4.291   3.946   6.135
 4415SOL    HW214145   4.148   3.895   6.076
 4416SOL     OW14146   2.908   0.640   4.011
 4416SOL    HW114147   2.813   0.663   4.032
 4416SOL    HW214148   2.924   0.651   3.913
 4417SOL     OW14149   6.073   4.198   3.343
 4417SOL    HW114150   6.169   4.173   3.331
 4417SOL    HW214151   6.018   4.115   3.357
 4418SOL     OW14152   5.079   0.552   3.485
 4418SOL    HW114153   5.037   0.522   3.571
 4418SOL    HW214154   5.150   0.487   3.458
 4419SOL     OW14155   5.335   6.370   0.586
 4419SOL    HW114156   5.290   6.332   0.666
 4419SOL    HW214157   5.393   6.447   0.614
 4420SOL     OW14158   5.359   1.576   1.363
 4420SOL    HW114159   5.453   1.560   1.334
 4420SOL    HW214160   5.346   1.674   1.382
 4421SOL     OW14161   2.131   0.987   3.566
 4421SOL    HW114162   2.073   1.004   3.486
 4421SOL    HW214163   2.108   1.053   3.638
 4422SOL     OW14164   2.273   3.743   5.891
 4422SOL    HW114165   2.317   3.832   5.901
 4422SOL    HW214166   2.335   3.680   5.844
 4423SOL     OW14167   1.259   2.642   5.630
 4423SOL    HW114168   1.210   2.594   5.703
 4423SOL    HW214169   1.308   2.576   5.574
 4424SOL     OW14170   4.821   6.998   4.215
 4424SOL    HW114171   4.754   0.052   4.193
 4424SOL    HW214172   4.867   0.005   4.301
 4425SOL     OW14173   3.416   5.653   5.941
 4425SOL    HW114174   3.493   5.704   5.903
 4425SOL    HW214175   3.370   5.708   6.011
 4426SOL     OW14176   0.103   1.999   4.550
 4426SOL    HW114177   0.062   2.060   4.618
 4426SOL    HW214178   0.191   1.966   4.583
 4427SOL     OW14179   6.658   6.882   3.080
 4427SOL    HW114180   6.642   6.975   3.112
 4427SOL    HW214181   6.571   6.839   3.057
 4428SOL     OW14182   3.551   5.564   1.968
 4428SOL    HW114183   3.612   5.581   1.890
 4428SOL    HW214184   3.514   5.471   1.961
 4429SOL     OW14185   2.807   0.620   3.141
 4429SOL    HW114186   2.881   0.570   3.096
 4429SOL    HW214187   2.750   0.664   3.072
 4430SOL     OW14188   5.379   3.278   5.106
 4430SOL    HW114189   5.319   3.332   5.165
 4430SOL    HW214190   5.347   3.283   5.011
 4431SOL     OW14191   1.411   0.712   2.474
 4431SOL    HW114192   1.431   0.624   2.517
 4431SOL    HW214193   1.312   0.723   2.464
 4432SOL     OW14194   3.576   4.168   3.898
 4432SOL    HW114195   3.585   4.236   3.826
 4432SOL    HW214196   3.664   4.122   3.912
 4433SOL     OW14197   5.710   0.243   4.667
 4433SOL    HW114198   5.769   0.162   4.667
 4433SOL    HW214199   5.764   0.323   4.693
 4434SOL     OW14200   3.464   1.974   3.350
 4434SOL    HW114201   3.380   2.015   3.314
 4434SOL    HW214202   3.488   2.018   3.436
 4435SOL     OW14203   3.911   3.907   0.948
 4435SOL    HW114204   3.853   3.876   1.024
 4435SOL    HW214205   4.007   3.908   0.978
 4436SOL     OW14206   3.981   1.883   0.496
 4436SOL    HW114207   3.919   1.962   0.492
 4436SOL    HW214208   3.954   1.824   0.572
 4437SOL     OW14209   5.450   1.229   3.992
 4437SOL    HW114210   5.381   1.301   4.003
 4437SOL    HW214211   5.465   1.212   3.894
 4438SOL     OW14212   4.554   1.231   0.095
 4438SOL    HW114213   4.484   1.251   0.162
 4438SOL    HW214214   4.514   1.177   0.020
 4439SOL     OW14215   0.729   6.358   1.350
 4439SOL    HW114216   0.690   6.316   1.432
 4439SOL    HW214217   0.702   6.304   1.270
 4440SOL     OW14218   1.834   4.963   0.964
 4440SOL    HW114219   1.879   4.988   0.878
 4440SOL    HW214220   1.837   5.041   1.027
 4441SOL     OW14221   6.565   1.631   2.745
 4441SOL    HW114222   6.469   1.641   2.717
 4441SOL    HW214223   6.577   1.668   2.837
 4442SOL     OW14224   2.712   5.788   4.961
 4442SOL    HW114225   2.769   5.724   4.909
 4442SOL    HW214226   2.747   5.881   4.949
 4443SOL     OW14227   6.881   3.003   0.991
 4443SOL    HW114228   6.810   2.933   0.987
 4443SOL    HW214229   6.901   3.025   1.087
 4444SOL     OW14230   4.068   5.537   6.053
 4444SOL    HW114231   3.992   5.566   5.994
 4444SOL    HW214232   4.122   5.616   6.080
 4445SOL     OW14233   6.982   0.657   1.139
 4445SOL    HW114234   0.011   0.718   1.074
 4445SOL    HW214235   0.004   0.673   1.230
 4446SOL     OW14236   6.478   1.748   1.815
 4446SOL    HW114237   6.424   1.817   1.864
 4446SOL    HW214238   6.421   1.667   1.801
 4447SOL     OW14239   5.953   3.293   6.292
 4447SOL    HW114240   5.920   3.202   6.317
 4447SOL    HW214241   5.877   3.348   6.256
 4448SOL     OW14242   3.388   4.177   0.705
 4448SOL    HW114243   3.326   4.101   0.723
 4448SOL    HW214244   3.440   4.158   0.622
 4449SOL     OW14245   4.693   0.696   6.214
 4449SOL    HW114246   4.725   0.685   6.308
 4449SOL    HW214247   4.598   0.665   6.208
 4450SOL     OW14248   4.109   3.638   4.429
 4450SOL    HW114249   4.068   3.728   4.438
 4450SOL    HW214250   4.088   3.583   4.510
 4451SOL     OW14251   5.827   3.998   3.396
 4451SOL    HW114252   5.842   4.075   3.457
 4451SOL    HW214253   5.744   3.949   3.424
 4452SOL     OW14254   5.307   6.681   4.486
 4452SOL    HW114255   5.361   6.616   4.433
 4452SOL    HW214256   5.353   6.698   4.574
 4453SOL     OW14257   7.002   2.822   1.483
 4453SOL    HW114258   6.971   2.843   1.576
 4453SOL    HW214259   6.932   2.848   1.417
 4454SOL     OW14260   6.075   2.297   6.968
 4454SOL    HW114261   6.069   2.240   0.033
 4454SOL    HW214262   6.019   2.379   6.980
 4455SOL     OW14263   4.069   0.470   6.593
 4455SOL    HW114264   4.042   0.436   6.503
 4455SOL    HW214265   4.101   0.394   6.649
 4456SOL     OW14266   2.615   5.286   2.327
 4456SOL    HW114267   2.573   5.371   2.294
 4456SOL    HW214268   2.566   5.208   2.289
 4457SOL     OW14269   4.697   2.593   0.268
 4457SOL    HW114270   4.664   2.617   0.176
 4457SOL    HW214271   4.646   2.514   0.302
 4458SOL     OW14272   1.155   3.883   6.846
 4458SOL    HW114273   1.216   3.941   6.791
 4458SOL    HW214274   1.157   3.790   6.811
 4459SOL     OW14275   4.516   0.467   3.921
 4459SOL    HW114276   4.571   0.511   3.850
 4459SOL    HW214277   4.565   0.387   3.956
 4460SOL     OW14278   2.785   3.025   5.302
 4460SOL    HW114279   2.702   3.030   5.248
 4460SOL    HW214280   2.797   2.933   5.339
 4461SOL     OW14281   1.202   0.410   2.679
 4461SOL    HW114282   1.297   0.428   2.655
 4461SOL    HW214283   1.146   0.405   2.596
 4462SOL     OW14284   6.877   3.565   2.112
 4462SOL    HW114285   6.853   3.486   2.168
 4462SOL    HW214286   6.843   3.648   2.155
 4463SOL     OW14287   4.229   3.191   0.093
 4463SOL    HW114288   4.154   3.225   0.150
 4463SOL    HW214289   4.238   3.248   0.012
 4464SOL     OW14290   6.423   4.589   6.838
 4464SOL    HW114291   6.402   4.495   6.811
 4464SOL    HW214292   6.420   4.649   6.758
 4465SOL     OW14293   2.435   5.499   2.686
 4465SOL    HW114294   2.385   5.585   2.687
 4465SOL    HW214295   2.524   5.512   2.643
 4466SOL     OW14296   1.521   0.961   3.120
 4466SOL    HW114297   1.484   0.900   3.050
 4466SOL    HW214298   1.446   0.999   3.174
 4467SOL     OW14299   1.283   0.042   3.178
 4467SOL    HW114300   1.275   0.074   3.272
 4467SOL    HW214301   1.207   0.078   3.124
 4468SOL     OW14302   1.487   2.607   0.732
 4468SOL    HW114303   1.489   2.562   0.643
 4468SOL    HW214304   1.553   2.565   0.793
 4469SOL     OW14305   3.860   0.404   1.684
 4469SOL    HW114306   3.765   0.380   1.667
 4469SOL    HW214307   3.912   0.323   1.709
 4470SOL     OW14308   5.968   3.025   2.093
 4470SOL    HW114309   6.014   3.105   2.053
 4470SOL    HW214310   5.873   3.050   2.115
 4471SOL     OW14311   0.263   2.038   0.324
 4471SOL    HW114312   0.243   2.039   0.422
 4471SOL    HW214313   0.178   2.028   0.272
 4472SOL     OW14314   1.889   3.102   3.507
 4472SOL    HW114315   1.836   3.147   3.579
 4472SOL    HW214316   1.985   3.097   3.535
 4473SOL     OW14317   0.088   2.698   3.877
 4473SOL    HW114318   7.010   2.705   3.844
 4473SOL    HW214319   0.148   2.751   3.818
 4474SOL     OW14320   3.945   0.518   1.924
 4474SOL    HW114321   3.935   0.523   1.825
 4474SOL    HW214322   3.895   0.438   1.958
 4475SOL     OW14323   1.768   3.883   2.066
 4475SOL    HW114324   1.754   3.838   2.154
 4475SOL    HW214325   1.680   3.892   2.019
 4476SOL     OW14326   4.767   6.463   4.305
 4476SOL    HW114327   4.857   6.419   4.308
 4476SOL    HW214328   4.763   6.535   4.374
 4477SOL     OW14329   1.258   0.267   5.810
 4477SOL    HW114330   1.223   0.268   5.904
 4477SOL    HW214331   1.209   0.198   5.757
 4478SOL     OW14332   3.456   5.944   2.355
 4478SOL    HW114333   3.407   5.889   2.288
 4478SOL    HW214334   3.504   5.884   2.419
 4479SOL     OW14335   0.441   0.779   1.142
 4479SOL    HW114336   0.532   0.799   1.106
 4479SOL    HW214337   0.393   0.717   1.080
 4480SOL     OW14338   1.812   3.654   5.413
 4480SOL    HW114339   1.765   3.711   5.480
 4480SOL    HW214340   1.766   3.662   5.325
 4481SOL     OW14341   2.363   6.664   5.160
 4481SOL    HW114342   2.430   6.735   5.180
 4481SOL    HW214343   2.386   6.581   5.210
 4482SOL     OW14344   0.328   4.306   4.206
 4482SOL    HW114345   0.268   4.376   4.246
 4482SOL    HW214346   0.303   4.293   4.110
 4483SOL     OW14347   4.974   3.486   2.180
 4483SOL    HW114348   4.941   3.484   2.086
 4483SOL    HW214349   4.933   3.564   2.228
 4484SOL     OW14350   3.400   2.932   5.576
 4484SOL    HW114351   3.493   2.895   5.580
 4484SOL    HW214352   3.375   2.951   5.481
 4485SOL     OW14353   5.237   1.560   5.316
 4485SOL    HW114354   5.184   1.645   5.323
 4485SOL    HW214355   5.208   1.497   5.388
 4486SOL     OW14356   5.236   3.902   4.481
 4486SOL    HW114357   5.311   3.869   4.425
 4486SOL    HW214358   5.222   3.839   4.557
 4487SOL     OW14359   2.550   2.931   6.561
 4487SOL    HW114360   2.486   2.996   6.601
 4487SOL    HW214361   2.628   2.918   6.623
 4488SOL     OW14362   6.105   3.538   5.470
 4488SOL    HW114363   6.017   3.583   5.484
 4488SOL    HW214364   6.095   3.440   5.490
 4489SOL     OW14365   6.012   5.208   4.397
 4489SOL    HW114366   6.109   5.232   4.385
 4489SOL    HW214367   5.956   5.270   4.342
 4490SOL     OW14368   6.400   2.295   2.987
 4490SOL    HW114369   6.429   2.341   3.071
 4490SOL    HW214370   6.450   2.208   2.978
 4491SOL     OW14371   0.186   2.813   4.713
 4491SOL    HW114372   0.200   2.895   4.658
 4491SOL    HW214373   0.115   2.829   4.781
 4492SOL     OW14374   5.203   3.679   1.255
 4492SOL    HW114375   5.156   3.642   1.335
 4492SOL    HW214376   5.161   3.765   1.227
 4493SOL     OW14377   4.592   6.087   5.273
 4493SOL    HW114378   4.511   6.064   5.327
 4493SOL    HW214379   4.605   6.018   5.203
 4494SOL     OW14380   0.020   1.346   5.820
 4494SOL    HW114381   0.070   1.338   5.733
 4494SOL    HW214382   6.991   1.259   5.840
 4495SOL     OW14383   5.086   5.498   4.382
 4495SOL    HW114384   5.114   5.413   4.426
 4495SOL    HW214385   5.031   5.552   4.445
 4496SOL     OW14386   4.932   5.582   1.023
 4496SOL    HW114387   4.835   5.567   1.004
 4496SOL    HW214388   4.942   5.667   1.075
 4497SOL     OW14389   4.766   0.715   6.472
 4497SOL    HW114390   4.769   0.655   6.552
 4497SOL    HW214391   4.695   0.785   6.486
 4498SOL     OW14392   6.726   3.330   6.557
 4498SOL    HW114393   6.700   3.395   6.486
 4498SOL    HW214394   6.645   3.303   6.609
 4499SOL     OW14395   0.206   3.704   3.937
 4499SOL    HW114396   0.267   3.625   3.948
 4499SOL    HW214397   0.220   3.768   4.012
 4500SOL     OW14398   3.264   3.426   4.034
 4500SOL    HW114399   3.350   3.385   4.064
 4500SOL    HW214400   3.216   3.363   3.974
 4501SOL     OW14401   6.892   3.291   5.311
 4501SOL    HW114402   6.915   3.381   5.275
 4501SOL    HW214403   6.926   3.221   5.249
 4502SOL     OW14404   1.617   2.061   6.929
 4502SOL    HW114405   1.712   2.069   6.957
 4502SOL    HW214406   1.606   2.093   6.835
 4503SOL     OW14407   3.579   6.743   2.668
 4503SOL    HW114408   3.579   6.793   2.754
 4503SOL    HW214409   3.619   6.652   2.682
 4504SOL     OW14410   6.213   1.305   4.998
 4504SOL    HW114411   6.243   1.397   4.972
 4504SOL    HW214412   6.157   1.266   4.925
 4505SOL     OW14413   6.323   5.717   3.377
 4505SOL    HW114414   6.268   5.755   3.302
 4505SOL    HW214415   6.357   5.791   3.434
 4506SOL     OW14416   4.486   2.247   4.027
 4506SOL    HW114417   4.438   2.275   3.944
 4506SOL    HW214418   4.480   2.148   4.038
 4507SOL     OW14419   5.257   4.827   2.555
 4507SOL    HW114420   5.256   4.874   2.467
 4507SOL    HW214421   5.310   4.743   2.548
 4508SOL     OW14422   1.174   4.484   6.184
 4508SOL    HW114423   1.136   4.545   6.114
 4508SOL    HW214424   1.216   4.404   6.140
 4509SOL     OW14425   5.153   2.648   2.960
 4509SOL    HW114426   5.083   2.577   2.952
 4509SOL    HW214427   5.110   2.735   2.984
 4510SOL     OW14428   4.790   0.184   5.114
 4510SOL    HW114429   4.809   0.134   5.198
 4510SOL    HW214430   4.748   0.272   5.137
 4511SOL     OW14431   6.775   3.096   6.314
 4511SOL    HW114432   6.786   3.188   6.277
 4511SOL    HW214433   6.844   3.080   6.385
 4512SOL     OW14434   2.658   6.945   5.643
 4512SOL    HW114435   2.649   6.961   5.741
 4512SOL    HW214436   2.706   6.859   5.627
 4513SOL     OW14437   4.601   6.631   0.629
 4513SOL    HW114438   4.562   6.697   0.564
 4513SOL    HW214439   4.671   6.676   0.685
 4514SOL     OW14440   4.492   1.195   5.139
 4514SOL    HW114441   4.571   1.210   5.198
 4514SOL    HW214442   4.504   1.109   5.089
 4515SOL     OW14443   0.443   3.362   5.923
 4515SOL    HW114444   0.431   3.454   5.886
 4515SOL    HW214445   0.523   3.319   5.882
 4516SOL     OW14446   1.617   0.272   6.620
 4516SOL    HW114447   1.546   0.203   6.632
 4516SOL    HW214448   1.698   0.247   6.672
 4517SOL     OW14449   2.315   0.888   6.375
 4517SOL    HW114450   2.262   0.912   6.456
 4517SOL    HW214451   2.254   0.874   6.298
 4518SOL     OW14452   6.714   1.065   3.419
 4518SOL    HW114453   6.809   1.089   3.398
 4518SOL    HW214454   6.661   1.061   3.335
 4519SOL     OW14455   5.659   0.339   2.200
 4519SOL    HW114456   5.696   0.363   2.290
 4519SOL    HW214457   5.689   0.407   2.133
 4520SOL     OW14458   5.190   5.914   3.460
 4520SOL    HW114459   5.204   6.009   3.432
 4520SOL    HW214460   5.094   5.889   3.444
 4521SOL     OW14461   5.691   1.898   3.972
 4521SOL    HW114462   5.722   1.855   3.887
 4521SOL    HW214463   5.593   1.881   3.985
 4522SOL     OW14464   5.519   0.213   3.847
 4522SOL    HW114465   5.450   0.208   3.919
 4522SOL    HW214466   5.512   0.302   3.801
 4523SOL     OW14467   1.567   4.555   0.218
 4523SOL    HW114468   1.537   4.625   0.153
 4523SOL    HW214469   1.667   4.548   0.216
 4524SOL     OW14470   5.358   2.305   4.445
 4524SOL    HW114471   5.276   2.261   4.481
 4524SOL    HW214472   5.431   2.300   4.513
 4525SOL     OW14473   5.375   1.044   3.096
 4525SOL    HW114474   5.353   1.142   3.101
 4525SOL    HW214475   5.365   1.012   3.002
 4526SOL     OW14476   5.065   0.550   1.154
 4526SOL    HW114477   5.144   0.592   1.198
 4526SOL    HW214478   4.993   0.619   1.141
 4527SOL     OW14479   4.173   1.444   3.501
 4527SOL    HW114480   4.256   1.388   3.509
 4527SOL    HW214481   4.141   1.442   3.406
 4528SOL     OW14482   4.418   6.453   6.663
 4528SOL    HW114483   4.513   6.456   6.630
 4528SOL    HW214484   4.364   6.521   6.614
 4529SOL     OW14485   3.198   1.862   4.637
 4529SOL    HW114486   3.143   1.778   4.644
 4529SOL    HW214487   3.137   1.941   4.637
 4530SOL     OW14488   0.367   3.594   5.778
 4530SOL    HW114489   0.279   3.611   5.822
 4530SOL    HW214490   0.408   3.681   5.751
 4531SOL     OW14491   0.443   3.323   3.992
 4531SOL    HW114492   0.348   3.353   3.997
 4531SOL    HW214493   0.454   3.240   4.047
 4532SOL     OW14494   6.227   1.522   3.440
 4532SOL    HW114495   6.312   1.511   3.389
 4532SOL    HW214496   6.194   1.616   3.431
 4533SOL     OW14497   1.805   0.516   2.391
 4533SOL    HW114498   1.867   0.438   2.401
 4533SOL    HW214499   1.715   0.483   2.362
 4534SOL     OW14500   5.432   4.443   4.935
 4534SOL    HW114501   5.403   4.347   4.931
 4534SOL    HW214502   5.396   4.492   4.856
 4535SOL     OW14503   4.853   1.784   2.574
 4535SOL    HW114504   4.884   1.803   2.481
 4535SOL    HW214505   4.931   1.775   2.635
 4536SOL     OW14506   3.990   1.945   4.166
 4536SOL    HW114507   4.032   1.985   4.247
 4536SOL    HW214508   3.891   1.941   4.178
 4537SOL     OW14509   4.050   2.997   5.945
 4537SOL    HW114510   4.024   3.034   5.856
 4537SOL    HW214511   4.000   3.046   6.017
 4538SOL     OW14512   2.816   0.732   4.349
 4538SOL    HW114513   2.792   0.635   4.346
 4538SOL    HW214514   2.868   0.755   4.267
 4539SOL     OW14515   2.198   1.274   4.221
 4539SOL    HW114516   2.257   1.234   4.291
 4539SOL    HW214517   2.134   1.337   4.263
 4540SOL     OW14518   3.017   3.214   4.573
 4540SOL    HW114519   2.995   3.150   4.646
 4540SOL    HW214520   3.058   3.296   4.612
 4541SOL     OW14521   5.496   1.547   0.730
 4541SOL    HW114522   5.426   1.568   0.663
 4541SOL    HW214523   5.582   1.592   0.704
 4542SOL     OW14524   6.339   0.415   2.610
 4542SOL    HW114525   6.368   0.389   2.518
 4542SOL    HW214526   6.394   0.366   2.678
 4543SOL     OW14527   5.272   1.817   1.155
 4543SOL    HW114528   5.182   1.774   1.156
 4543SOL    HW214529   5.340   1.752   1.120
 4544SOL     OW14530   3.265   6.056   6.355
 4544SOL    HW114531   3.270   6.153   6.379
 4544SOL    HW214532   3.350   6.011   6.383
 4545SOL     OW14533   5.573   2.579   4.533
 4545SOL    HW114534   5.642   2.598   4.463
 4545SOL    HW214535   5.488   2.628   4.510
 4546SOL     OW14536   2.025   1.453   6.329
 4546SOL    HW114537   2.060   1.483   6.240
 4546SOL    HW214538   1.998   1.533   6.382
 4547SOL     OW14539   6.175   2.677   3.379
 4547SOL    HW114540   6.253   2.685   3.441
 4547SOL    HW214541   6.208   2.653   3.288
 4548SOL     OW14542   0.973   4.569   4.608
 4548SOL    HW114543   0.939   4.552   4.515
 4548SOL    HW214544   1.059   4.519   4.621
 4549SOL     OW14545   5.829   3.911   2.373
 4549SOL    HW114546   5.818   3.963   2.458
 4549SOL    HW214547   5.918   3.864   2.375
 4550SOL     OW14548   0.853   6.096   2.855
 4550SOL    HW114549   0.832   6.183   2.810
 4550SOL    HW214550   0.941   6.063   2.823
 4551SOL     OW14551   6.383   1.706   6.299
 4551SOL    HW114552   6.382   1.793   6.249
 4551SOL    HW214553   6.474   1.665   6.292
 4552SOL     OW14554   6.355   2.529   1.050
 4552SOL    HW114555   6.317   2.505   1.140
 4552SOL    HW214556   6.284   2.568   0.992
 4553SOL     OW14557   4.098   4.639   6.716
 4553SOL    HW114558   4.124   4.563   6.774
 4553SOL    HW214559   4.008   4.622   6.676
 4554SOL     OW14560   4.588   0.425   1.674
 4554SOL    HW114561   4.546   0.350   1.725
 4554SOL    HW214562   4.569   0.512   1.721
 4555SOL     OW14563   3.312   1.912   5.744
 4555SOL    HW114564   3.318   1.898   5.843
 4555SOL    HW214565   3.280   2.005   5.725
 4556SOL     OW14566   4.543   2.491   3.720
 4556SOL    HW114567   4.500   2.518   3.806
 4556SOL    HW214568   4.631   2.446   3.740
 4557SOL     OW14569   4.877   6.762   4.903
 4557SOL    HW114570   4.876   6.708   4.819
 4557SOL    HW214571   4.792   6.814   4.910
 4558SOL     OW14572   0.426   3.423   5.557
 4558SOL    HW114573   0.442   3.340   5.611
 4558SOL    HW214574   0.396   3.497   5.617
 4559SOL     OW14575   0.588   4.457   1.753
 4559SOL    HW114576   0.511   4.399   1.728
 4559SOL    HW214577   0.665   4.437   1.692
 4560SOL     OW14578   4.947   4.797   3.132
 4560SOL    HW114579   4.861   4.779   3.180
 4560SOL    HW214580   4.985   4.884   3.163
 4561SOL     OW14581   2.749   0.773   1.156
 4561SOL    HW114582   2.820   0.796   1.090
 4561SOL    HW214583   2.680   0.715   1.112
 4562SOL     OW14584   3.344   6.432   5.239
 4562SOL    HW114585   3.331   6.358   5.304
 4562SOL    HW214586   3.442   6.446   5.224
 4563SOL     OW14587   1.096   4.055   0.543
 4563SOL    HW114588   1.022   3.989   0.559
 4563SOL    HW214589   1.108   4.068   0.445
 4564SOL     OW14590   0.746   6.547   0.919
 4564SOL    HW114591   0.836   6.517   0.949
 4564SOL    HW214592   0.704   6.602   0.991
 4565SOL     OW14593   6.977   0.969   5.880
 4565SOL    HW114594   0.019   0.987   5.959
 4565SOL    HW214595   6.908   1.042   5.873
 4566SOL     OW14596   6.899   1.818   0.407
 4566SOL    HW114597   6.963   1.875   0.356
 4566SOL    HW214598   6.940   1.795   0.496
 4567SOL     OW14599   0.114   0.968   0.028
 4567SOL    HW114600   0.053   0.892   0.008
 4567SOL    HW214601   0.119   0.983   0.127
 4568SOL     OW14602   0.917   4.624   5.309
 4568SOL    HW114603   1.001   4.571   5.320
 4568SOL    HW214604   0.857   4.610   5.389
 4569SOL     OW14605   1.693   1.268   3.220
 4569SOL    HW114606   1.784   1.304   3.241
 4569SOL    HW214607   1.677   1.274   3.122
 4570SOL     OW14608   0.755   6.031   3.147
 4570SOL    HW114609   0.787   6.063   3.057
 4570SOL    HW214610   0.667   6.074   3.168
 4571SOL     OW14611   2.961   3.171   6.212
 4571SOL    HW114612   2.861   3.163   6.218
 4571SOL    HW214613   2.985   3.250   6.157
 4572SOL     OW14614   1.065   6.982   6.645
 4572SOL    HW114615   1.103   7.003   6.555
 4572SOL    HW214616   1.135   6.937   6.701
 4573SOL     OW14617   6.175   6.182   0.235
 4573SOL    HW114618   6.164   6.155   0.331
 4573SOL    HW214619   6.105   6.249   0.211
 4574SOL     OW14620   6.590   3.895   1.370
 4574SOL    HW114621   6.578   3.824   1.301
 4574SOL    HW214622   6.580   3.855   1.461
 4575SOL     OW14623   5.900   2.099   5.887
 4575SOL    HW114624   5.834   2.133   5.821
 4575SOL    HW214625   5.983   2.069   5.839
 4576SOL     OW14626   2.299   6.061   6.482
 4576SOL    HW114627   2.370   6.131   6.486
 4576SOL    HW214628   2.266   6.042   6.575
 4577SOL     OW14629   0.840   1.935   3.760
 4577SOL    HW114630   0.932   1.896   3.761
 4577SOL    HW214631   0.819   1.973   3.850
 4578SOL     OW14632   1.116   3.329   3.802
 4578SOL    HW114633   1.151   3.254   3.745
 4578SOL    HW214634   1.192   3.384   3.834
 4579SOL     OW14635   5.199   2.110   2.587
 4579SOL    HW114636   5.280   2.164   2.608
 4579SOL    HW214637   5.151   2.088   2.671
 4580SOL     OW14638   4.876   5.263   6.730
 4580SOL    HW114639   4.873   5.359   6.706
 4580SOL    HW214640   4.795   5.239   6.784
 4581SOL     OW14641   3.000   5.335   3.203
 4581SOL    HW114642   3.055   5.417   3.187
 4581SOL    HW214643   3.043   5.257   3.158
 4582SOL     OW14644   5.455   6.455   4.818
 4582SOL    HW114645   5.442   6.552   4.797
 4582SOL    HW214646   5.366   6.409   4.816
 4583SOL     OW14647   2.965   1.055   5.392
 4583SOL    HW114648   3.063   1.071   5.408
 4583SOL    HW214649   2.924   1.136   5.351
 4584SOL     OW14650   0.186   4.989   5.517
 4584SOL    HW114651   0.110   4.965   5.578
 4584SOL    HW214652   0.167   4.956   5.425
 4585SOL     OW14653   2.602   6.429   2.850
 4585SOL    HW114654   2.625   6.406   2.755
 4585SOL    HW214655   2.645   6.516   2.875
 4586SOL     OW14656   4.282   4.964   0.348
 4586SOL    HW114657   4.203   5.017   0.316
 4586SOL    HW214658   4.340   5.022   0.405
 4587SOL     OW14659   3.954   3.930   2.089
 4587SOL    HW114660   3.922   3.944   2.182
 4587SOL    HW214661   4.024   3.859   2.088
 4588SOL     OW14662   4.209   4.370   5.517
 4588SOL    HW114663   4.185   4.328   5.429
 4588SOL    HW214664   4.263   4.306   5.571
 4589SOL     OW14665   5.615   1.441   2.430
 4589SOL    HW114666   5.655   1.451   2.521
 4589SOL    HW214667   5.614   1.530   2.384
 4590SOL     OW14668   4.911   5.630   0.678
 4590SOL    HW114669   4.849   5.560   0.713
 4590SOL    HW214670   4.914   5.708   0.742
 4591SOL     OW14671   0.470   6.227   5.028
 4591SOL    HW114672   0.388   6.226   5.086
 4591SOL    HW214673   0.508   6.319   5.025
 4592SOL     OW14674   4.162   1.969   2.071
 4592SOL    HW114675   4.071   1.950   2.034
 4592SOL    HW214676   4.157   2.050   2.129
 4593SOL     OW14677   4.043   5.835   3.787
 4593SOL    HW114678   4.044   5.780   3.703
 4593SOL    HW214679   3.948   5.858   3.810
 4594SOL     OW14680   3.367   1.039   1.749
 4594SOL    HW114681   3.384   1.089   1.663
 4594SOL    HW214682   3.291   1.084   1.798
 4595SOL     OW14683   3.499   2.528   6.126
 4595SOL    HW114684   3.471   2.437   6.157
 4595SOL    HW214685   3.561   2.569   6.192
 4596SOL     OW14686   5.817   6.397   3.185
 4596SOL    HW114687   5.731   6.388   3.135
 4596SOL    HW214688   5.817   6.334   3.262
 4597SOL     OW14689   4.885   4.401   6.840
 4597SOL    HW114690   4.922   4.396   6.747
 4597SOL    HW214691   4.814   4.331   6.852
 4598SOL     OW14692   2.318   5.170   0.467
 4598SOL    HW114693   2.364   5.100   0.412
 4598SOL    HW214694   2.286   5.130   0.553
 4599SOL     OW14695   1.881   5.142   0.239
 4599SOL    HW114696   1.976   5.173   0.241
 4599SOL    HW214697   1.838   5.159   0.327
 4600SOL     OW14698   1.250   5.146   5.148
 4600SOL    HW114699   1.220   5.059   5.107
 4600SOL    HW214700   1.349   5.152   5.145
 4601SOL     OW14701   1.680   6.964   5.347
 4601SOL    HW114702   1.612   6.918   5.404
 4601SOL    HW214703   1.664   6.942   5.251
 4602SOL     OW14704   1.043   5.652   1.315
 4602SOL    HW114705   1.024   5.646   1.413
 4602SOL    HW214706   0.957   5.663   1.265
 4603SOL     OW14707   3.759   6.547   1.423
 4603SOL    HW114708   3.664   6.521   1.434
 4603SOL    HW214709   3.789   6.529   1.330
 4604SOL     OW14710   4.367   0.661   2.236
 4604SOL    HW114711   4.312   0.587   2.196
 4604SOL    HW214712   4.458   0.627   2.257
 4605SOL     OW14713   3.558   0.984   3.509
 4605SOL    HW114714   3.536   1.056   3.573
 4605SOL    HW214715   3.484   0.917   3.506
 4606SOL     OW14716   1.360   6.769   1.325
 4606SOL    HW114717   1.409   6.725   1.250
 4606SOL    HW214718   1.262   6.750   1.317
 4607SOL     OW14719   2.344   2.263   0.971
 4607SOL    HW114720   2.396   2.348   0.981
 4607SOL    HW214721   2.406   2.188   0.947
 4608SOL     OW14722   0.631   5.825   3.460
 4608SOL    HW114723   0.724   5.798   3.436
 4608SOL    HW214724   0.622   5.834   3.559
 4609SOL     OW14725   4.179   5.120   6.012
 4609SOL    HW114726   4.262   5.176   6.003
 4609SOL    HW214727   4.101   5.179   6.030
 4610SOL     OW14728   5.084   2.319   0.641
 4610SOL    HW114729   5.066   2.417   0.641
 4610SOL    HW214730   5.176   2.302   0.676
 4611SOL     OW14731   6.520   6.250   6.086
 4611SOL    HW114732   6.523   6.162   6.133
 4611SOL    HW214733   6.579   6.316   6.133
 4612SOL     OW14734   0.906   5.947   7.001
 4612SOL    HW114735   0.930   5.852   0.002
 4612SOL    HW214736   0.934   6.003   0.063
 4613SOL     OW14737   2.426   6.210   2.293
 4613SOL    HW114738   2.337   6.186   2.254
 4613SOL    HW214739   2.497   6.151   2.255
 4614SOL     OW14740   0.921   4.640   4.879
 4614SOL    HW114741   0.947   4.606   4.789
 4614SOL    HW214742   0.825   4.668   4.877
 4615SOL     OW14743   1.912   0.872   6.877
 4615SOL    HW114744   1.895   0.968   6.901
 4615SOL    HW214745   1.867   0.851   6.790
 4616SOL     OW14746   5.754   0.222   5.282
 4616SOL    HW114747   5.672   0.166   5.273
 4616SOL    HW214748   5.804   0.195   5.364
 4617SOL     OW14749   1.261   2.436   2.384
 4617SOL    HW114750   1.230   2.379   2.308
 4617SOL    HW214751   1.192   2.505   2.405
 4618SOL     OW14752   2.281   2.695   5.564
 4618SOL    HW114753   2.281   2.600   5.595
 4618SOL    HW214754   2.218   2.705   5.487
 4619SOL     OW14755   3.366   5.947   2.931
 4619SOL    HW114756   3.276   5.905   2.932
 4619SOL    HW214757   3.359   6.042   2.962
 4620SOL     OW14758   3.768   4.198   0.252
 4620SOL    HW114759   3.738   4.213   0.346
 4620SOL    HW214760   3.862   4.233   0.242
 4621SOL     OW14761   4.667   1.489   3.038
 4621SOL    HW114762   4.588   1.433   3.012
 4621SOL    HW214763   4.637   1.581   3.063
 4622SOL     OW14764   2.296   4.260   0.429
 4622SOL    HW114765   2.361   4.232   0.359
 4622SOL    HW214766   2.329   4.343   0.474
 4623SOL     OW14767   6.688   6.206   0.687
 4623SOL    HW114768   6.647   6.267   0.755
 4623SOL    HW214769   6.733   6.130   0.733
 4624SOL     OW14770   5.321   0.125   3.411
 4624SOL    HW114771   5.300   0.117   3.508
 4624SOL    HW214772   5.408   0.175   3.400
 4625SOL     OW14773   2.133   4.702   0.334
 4625SOL    HW114774   2.042   4.709   0.294
 4625SOL    HW214775   2.198   4.754   0.278
 4626SOL     OW14776   5.792   5.063   2.677
 4626SOL    HW114777   5.728   4.997   2.715
 4626SOL    HW214778   5.829   5.119   2.751
 4627SOL     OW14779   3.312   5.190   3.812
 4627SOL    HW114780   3.394   5.195   3.870
 4627SOL    HW214781   3.231   5.212   3.866
 4628SOL     OW14782   5.432   3.658   3.763
 4628SOL    HW114783   5.513   3.620   3.808
 4628SOL    HW214784   5.402   3.596   3.690
 4629SOL     OW14785   2.479   5.100   4.890
 4629SOL    HW114786   2.502   5.194   4.917
 4629SOL    HW214787   2.438   5.052   4.967
 4630SOL     OW14788   3.916   5.715   2.133
 4630SOL    HW114789   3.994   5.752   2.083
 4630SOL    HW214790   3.925   5.736   2.230
 4631SOL     OW14791   2.247   6.369   3.577
 4631SOL    HW114792   2.318   6.371   3.647
 4631SOL    HW214793   2.201   6.458   3.575
 4632SOL     OW14794   4.020   5.209   2.634
 4632SOL    HW114795   4.041   5.113   2.653
 4632SOL    HW214796   3.954   5.214   2.560
 4633SOL     OW14797   5.638   1.407   3.690
 4633SOL    HW114798   5.655   1.366   3.780
 4633SOL    HW214799   5.544   1.389   3.662
 4634SOL     OW14800   2.638   4.611   6.321
 4634SOL    HW114801   2.672   4.585   6.231
 4634SOL    HW214802   2.703   4.675   6.363
 4635SOL     OW14803   5.505   3.700   2.183
 4635SOL    HW114804   5.511   3.779   2.244
 4635SOL    HW214805   5.461   3.728   2.097
 4636SOL     OW14806   2.357   4.703   0.009
 4636SOL    HW114807   2.451   4.721   6.997
 4636SOL    HW214808   2.318   4.785   0.051
 4637SOL     OW14809   0.848   0.510   0.140
 4637SOL    HW114810   0.864   0.605   0.167
 4637SOL    HW214811   0.908   0.487   0.063
 4638SOL     OW14812   4.515   2.861   6.986
 4638SOL    HW114813   4.536   2.765   6.967
 4638SOL    HW214814   4.508   2.874   0.069
 4639SOL     OW14815   2.320   4.473   4.837
 4639SOL    HW114816   2.356   4.412   4.767
 4639SOL    HW214817   2.389   4.488   4.908
 4640SOL     OW14818   5.019   4.910   4.025
 4640SOL    HW114819   4.975   4.995   3.995
 4640SOL    HW214820   4.974   4.876   4.107
 4641SOL     OW14821   3.160   6.187   4.262
 4641SOL    HW114822   3.096   6.141   4.323
 4641SOL    HW214823   3.149   6.152   4.169
 4642SOL     OW14824   0.501   5.968   4.421
 4642SOL    HW114825   0.560   6.028   4.476
 4642SOL    HW214826   0.405   5.991   4.437
 4643SOL     OW14827   5.894   2.975   1.308
 4643SOL    HW114828   5.968   2.920   1.270
 4643SOL    HW214829   5.916   3.072   1.299
 4644SOL     OW14830   0.508   4.729   4.983
 4644SOL    HW114831   0.456   4.800   5.031
 4644SOL    HW214832   0.532   4.656   5.048
 4645SOL     OW14833   0.964   0.953   4.988
 4645SOL    HW114834   0.868   0.938   5.009
 4645SOL    HW214835   1.012   0.982   5.071
 4646SOL     OW14836   2.517   5.904   3.260
 4646SOL    HW114837   2.477   5.919   3.170
 4646SOL    HW214838   2.521   5.805   3.279
 4647SOL     OW14839   1.299   0.289   3.875
 4647SOL    HW114840   1.244   0.206   3.866
 4647SOL    HW214841   1.394   0.269   3.852
 4648SOL     OW14842   4.015   0.669   2.137
 4648SOL    HW114843   3.974   0.605   2.072
 4648SOL    HW214844   4.061   0.743   2.087
 4649SOL     OW14845   5.189   0.071   5.976
 4649SOL    HW114846   5.096   0.059   5.941
 4649SOL    HW214847   5.187   0.083   6.075
 4650SOL     OW14848   4.666   5.621   3.919
 4650SOL    HW114849   4.637   5.699   3.974
 4650SOL    HW214850   4.688   5.544   3.978
 4651SOL     OW14851   6.744   1.629   1.161
 4651SOL    HW114852   6.806   1.693   1.116
 4651SOL    HW214853   6.649   1.649   1.134
 4652SOL     OW14854   0.766   0.407   4.767
 4652SOL    HW114855   0.849   0.426   4.819
 4652SOL    HW214856   0.756   0.309   4.753
 4653SOL     OW14857   6.173   5.006   6.990
 4653SOL    HW114858   6.188   4.989   6.893
 4653SOL    HW214859   6.261   5.000   0.022
 4654SOL     OW14860   0.388   6.215   0.349
 4654SOL    HW114861   0.454   6.236   0.422
 4654SOL    HW214862   0.420   6.255   0.263
 4655SOL     OW14863   6.625   5.502   1.658
 4655SOL    HW114864   6.712   5.454   1.644
 4655SOL    HW214865   6.616   5.527   1.754
 4656SOL     OW14866   0.926   0.427   3.634
 4656SOL    HW114867   0.925   0.423   3.734
 4656SOL    HW214868   1.015   0.460   3.603
 4657SOL     OW14869   4.760   6.417   1.388
 4657SOL    HW114870   4.670   6.437   1.350
 4657SOL    HW214871   4.829   6.420   1.315
 4658SOL     OW14872   4.779   1.317   2.844
 4658SOL    HW114873   4.862   1.363   2.813
 4658SOL    HW214874   4.739   1.369   2.919
 4659SOL     OW14875   2.554   4.159   5.370
 4659SOL    HW114876   2.524   4.253   5.353
 4659SOL    HW214877   2.514   4.098   5.302
 4660SOL     OW14878   1.422   3.270   5.686
 4660SOL    HW114879   1.336   3.295   5.641
 4660SOL    HW214880   1.419   3.173   5.712
 4661SOL     OW14881   3.591   3.838   5.773
 4661SOL    HW114882   3.524   3.879   5.711
 4661SOL    HW214883   3.548   3.766   5.826
 4662SOL     OW14884   3.731   0.115   4.942
 4662SOL    HW114885   3.792   0.186   4.906
 4662SOL    HW214886   3.639   0.152   4.953
 4663SOL     OW14887   0.401   2.023   2.817
 4663SOL    HW114888   0.367   2.116   2.801
 4663SOL    HW214889   0.410   2.008   2.916
 4664SOL     OW14890   1.989   1.308   0.994
 4664SOL    HW114891   1.951   1.376   1.057
 4664SOL    HW214892   1.921   1.285   0.924
 4665SOL     OW14893   3.776   0.073   0.428
 4665SOL    HW114894   3.727   0.078   0.515
 4665SOL    HW214895   3.722   0.020   0.362
 4666SOL     OW14896   1.506   2.134   1.071
 4666SOL    HW114897   1.528   2.047   1.028
 4666SOL    HW214898   1.590   2.178   1.102
 4667SOL     OW14899   6.166   4.401   1.506
 4667SOL    HW114900   6.176   4.368   1.412
 4667SOL    HW214901   6.243   4.462   1.528
 4668SOL     OW14902   5.480   2.320   2.826
 4668SOL    HW114903   5.394   2.358   2.792
 4668SOL    HW214904   5.528   2.388   2.880
 4669SOL     OW14905   4.139   6.460   6.727
 4669SOL    HW114906   4.214   6.420   6.675
 4669SOL    HW214907   4.056   6.405   6.713
 4670SOL     OW14908   3.046   2.496   5.342
 4670SOL    HW114909   3.122   2.459   5.290
 4670SOL    HW214910   3.022   2.433   5.416
 4671SOL     OW14911   6.745   2.482   2.518
 4671SOL    HW114912   6.694   2.428   2.452
 4671SOL    HW214913   6.741   2.438   2.608
 4672SOL     OW14914   2.623   4.482   5.842
 4672SOL    HW114915   2.649   4.532   5.759
 4672SOL    HW214916   2.523   4.480   5.850
 4673SOL     OW14917   4.656   6.908   1.142
 4673SOL    HW114918   4.670   6.919   1.240
 4673SOL    HW214919   4.721   6.966   1.092
 4674SOL     OW14920   4.723   6.988   6.715
 4674SOL    HW114921   4.647   7.015   6.776
 4674SOL    HW214922   4.688   6.928   6.643
 4675SOL     OW14923   0.319   2.485   6.252
 4675SOL    HW114924   0.354   2.578   6.253
 4675SOL    HW214925   0.229   2.483   6.296
 4676SOL     OW14926   0.125   6.037   3.485
 4676SOL    HW114927   0.158   6.127   3.458
 4676SOL    HW214928   0.107   5.981   3.404
 4677SOL     OW14929   2.570   1.136   0.201
 4677SOL    HW114930   2.561   1.082   0.285
 4677SOL    HW214931   2.480   1.148   0.159
 4678SOL     OW14932   1.909   4.405   2.770
 4678SOL    HW114933   1.846   4.327   2.773
 4678SOL    HW214934   1.859   4.490   2.784
 4679SOL     OW14935   4.168   0.029   1.374
 4679SOL    HW114936   4.157   7.003   1.284
 4679SOL    HW214937   4.196   0.124   1.363
 4680SOL     OW14938   3.831   1.188   6.391
 4680SOL    HW114939   3.765   1.116   6.414
 4680SOL    HW214940   3.803   1.230   6.304
 4681SOL     OW14941   5.594   4.692   6.985
 4681SOL    HW114942   5.616   4.687   6.888
 4681SOL    HW214943   5.564   4.602   0.001
 4682SOL     OW14944   4.570   4.734   5.584
 4682SOL    HW114945   4.633   4.703   5.514
 4682SOL    HW214946   4.516   4.811   5.549
 4683SOL     OW14947   4.990   5.330   2.855
 4683SOL    HW114948   5.026   5.354   2.945
 4683SOL    HW214949   5.016   5.236   2.833
 4684SOL     OW14950   5.488   0.153   5.239
 4684SOL    HW114951   5.471   0.236   5.292
 4684SOL    HW214952   5.431   0.153   5.157
 4685SOL     OW14953   2.202   4.787   6.446
 4685SOL    HW114954   2.112   4.830   6.443
 4685SOL    HW214955   2.192   4.691   6.472
 4686SOL     OW14956   4.616   5.314   6.554
 4686SOL    HW114957   4.549   5.246   6.524
 4686SOL    HW214958   4.672   5.341   6.476
 4687SOL     OW14959   4.821   3.097   4.078
 4687SOL    HW114960   4.779   3.176   4.123
 4687SOL    HW214961   4.810   3.104   3.979
 4688SOL     OW14962   5.783   3.943   5.020
 4688SOL    HW114963   5.816   3.857   4.983
 4688SOL    HW214964   5.734   3.927   5.105
 4689SOL     OW14965   4.967   0.573   0.268
 4689SOL    HW114966   4.913   0.656   0.254
 4689SOL    HW214967   4.924   0.497   0.220
 4690SOL     OW14968   1.226   0.218   0.460
 4690SOL    HW114969   1.154   0.212   0.391
 4690SOL    HW214970   1.279   0.301   0.444
 4691SOL     OW14971   2.923   3.478   0.636
 4691SOL    HW114972   3.020   3.490   0.615
 4691SOL    HW214973   2.893   3.550   0.699
 4692SOL     OW14974   5.585   5.382   2.694
 4692SOL    HW114975   5.557   5.287   2.686
 4692SOL    HW214976   5.505   5.442   2.693
 4693SOL     OW14977   1.063   1.523   2.757
 4693SOL    HW114978   0.997   1.524   2.682
 4693SOL    HW214979   1.051   1.605   2.814
 4694SOL     OW14980   2.283   1.164   0.147
 4694SOL    HW114981   2.217   1.125   0.212
 4694SOL    HW214982   2.304   1.258   0.173
 4695SOL     OW14983   1.419   4.838   1.494
 4695SOL    HW114984   1.383   4.792   1.575
 4695SOL    HW214985   1.519   4.830   1.493
 4696SOL     OW14986   0.230   4.310   6.850
 4696SOL    HW114987   0.304   4.266   6.901
 4696SOL    HW214988   0.160   4.342   6.914
 4697SOL     OW14989   1.367   4.176   1.600
 4697SOL    HW114990   1.376   4.258   1.657
 4697SOL    HW214991   1.449   4.164   1.545
 4698SOL     OW14992   4.470   6.041   2.852
 4698SOL    HW114993   4.561   6.056   2.813
 4698SOL    HW214994   4.464   5.946   2.885
 4699SOL     OW14995   1.100   6.358   2.418
 4699SOL    HW114996   1.095   6.447   2.372
 4699SOL    HW214997   1.167   6.362   2.492
 4700SOL     OW14998   6.665   1.409   2.832
 4700SOL    HW114999   6.645   1.483   2.768
 4700SOL    HW215000   6.644   1.439   2.925
 4701SOL     OW15001   3.387   2.437   0.551
 4701SOL    HW115002   3.380   2.346   0.593
 4701SOL    HW215003   3.481   2.454   0.524
 4702SOL     OW15004   4.923   5.039   0.499
 4702SOL    HW115005   4.945   5.074   0.591
 4702SOL    HW215006   4.872   4.954   0.507
 4703SOL     OW15007   0.318   0.054   2.309
 4703SOL    HW115008   0.236   0.105   2.280
 4703SOL    HW215009   0.354   0.096   2.393
 4704SOL     OW15010   6.363   6.574   6.548
 4704SOL    HW115011   6.399   6.522   6.471
 4704SOL    HW215012   6.332   6.512   6.620
 4705SOL     OW15013   4.163   2.393   1.206
 4705SOL    HW115014   4.124   2.471   1.156
 4705SOL    HW215015   4.239   2.424   1.263
 4706SOL     OW15016   2.835   0.094   0.051
 4706SOL    HW115017   2.919   0.057   0.012
 4706SOL    HW215018   2.832   0.193   0.037
 4707SOL     OW15019   1.286   6.971   0.606
 4707SOL    HW115020   1.321   0.042   0.572
 4707SOL    HW215021   1.297   6.900   0.537
 4708SOL     OW15022   0.929   2.332   5.816
 4708SOL    HW115023   0.948   2.236   5.795
 4708SOL    HW215024   0.990   2.391   5.762
 4709SOL     OW15025   4.565   5.687   5.004
 4709SOL    HW115026   4.613   5.770   5.031
 4709SOL    HW215027   4.632   5.617   4.977
 4710SOL     OW15028   4.939   0.035   5.886
 4710SOL    HW115029   4.907   6.968   5.840
 4710SOL    HW215030   4.873   0.109   5.869
 4711SOL     OW15031   6.256   1.727   1.584
 4711SOL    HW115032   6.338   1.678   1.612
 4711SOL    HW215033   6.182   1.707   1.648
 4712SOL     OW15034   2.845   5.011   6.212
 4712SOL    HW115035   2.883   5.093   6.170
 4712SOL    HW215036   2.841   4.937   6.144
 4713SOL     OW15037   3.696   4.379   0.710
 4713SOL    HW115038   3.790   4.346   0.717
 4713SOL    HW215039   3.640   4.336   0.782
 4714SOL     OW15040   1.332   1.312   6.346
 4714SOL    HW115041   1.363   1.407   6.338
 4714SOL    HW215042   1.249   1.309   6.402
 4715SOL     OW15043   5.764   3.264   2.328
 4715SOL    HW115044   5.722   3.344   2.284
 4715SOL    HW215045   5.753   3.184   2.269
 4716SOL     OW15046   3.972   6.788   5.861
 4716SOL    HW115047   3.944   6.785   5.956
 4716SOL    HW215048   3.955   6.879   5.823
 4717SOL     OW15049   0.428   6.346   3.958
 4717SOL    HW115050   0.486   6.396   3.893
 4717SOL    HW215051   0.481   6.328   4.041
 4718SOL     OW15052   6.145   2.190   1.103
 4718SOL    HW115053   6.194   2.183   1.191
 4718SOL    HW215054   6.047   2.181   1.119
 4719SOL     OW15055   4.853   3.111   1.723
 4719SOL    HW115056   4.797   3.084   1.802
 4719SOL    HW215057   4.795   3.117   1.642
 4720SOL     OW15058   2.330   5.253   5.864
 4720SOL    HW115059   2.365   5.336   5.907
 4720SOL    HW215060   2.334   5.263   5.764
 4721SOL     OW15061   6.681   1.594   2.489
 4721SOL    HW115062   6.602   1.643   2.524
 4721SOL    HW215063   6.656   1.499   2.470
 4722SOL     OW15064   1.221   6.204   6.906
 4722SOL    HW115065   1.184   6.268   6.973
 4722SOL    HW215066   1.315   6.231   6.882
 4723SOL     OW15067   2.192   3.059   5.635
 4723SOL    HW115068   2.234   2.973   5.607
 4723SOL    HW215069   2.187   3.121   5.557
 4724SOL     OW15070   6.189   0.164   4.175
 4724SOL    HW115071   6.089   0.158   4.187
 4724SOL    HW215072   6.233   0.169   4.265
 4725SOL     OW15073   6.519   5.226   0.746
 4725SOL    HW115074   6.449   5.210   0.676
 4725SOL    HW215075   6.609   5.230   0.702
 4726SOL     OW15076   1.316   3.197   6.528
 4726SOL    HW115077   1.353   3.240   6.610
 4726SOL    HW215078   1.370   3.225   6.449
 4727SOL     OW15079   1.024   6.506   1.498
 4727SOL    HW115080   1.054   6.587   1.449
 4727SOL    HW215081   0.925   6.497   1.492
 4728SOL     OW15082   5.683   1.381   1.857
 4728SOL    HW115083   5.726   1.458   1.810
 4728SOL    HW215084   5.750   1.307   1.867
 4729SOL     OW15085   4.554   0.699   0.743
 4729SOL    HW115086   4.507   0.754   0.674
 4729SOL    HW215087   4.488   0.671   0.813
 4730SOL     OW15088   3.169   5.943   4.933
 4730SOL    HW115089   3.251   5.924   4.879
 4730SOL    HW215090   3.165   6.040   4.956
 4731SOL     OW15091   3.084   0.298   0.409
 4731SOL    HW115092   3.176   0.306   0.449
 4731SOL    HW215093   3.018   0.282   0.482
 4732SOL     OW15094   1.005   3.890   5.169
 4732SOL    HW115095   0.909   3.917   5.176
 4732SOL    HW215096   1.055   3.959   5.118
 4733SOL     OW15097   2.035   3.933   3.693
 4733SOL    HW115098   1.981   3.958   3.613
 4733SOL    HW215099   2.111   3.997   3.704
 4734SOL     OW15100   4.584   3.485   6.863
 4734SOL    HW115101   4.537   3.531   6.788
 4734SOL    HW215102   4.674   3.526   6.876
 4735SOL     OW15103   0.485   5.283   4.831
 4735SOL    HW115104   0.400   5.335   4.838
 4735SOL    HW215105   0.465   5.185   4.833
 4736SOL     OW15106   6.115   1.549   5.804
 4736SOL    HW115107   6.204   1.530   5.845
 4736SOL    HW215108   6.061   1.606   5.867
 4737SOL     OW15109   3.219   4.366   1.495
 4737SOL    HW115110   3.188   4.461   1.486
 4737SOL    HW215111   3.180   4.325   1.577
 4738SOL     OW15112   1.617   6.538   3.034
 4738SOL    HW115113   1.656   6.580   3.116
 4738SOL    HW215114   1.614   6.606   2.960
 4739SOL     OW15115   4.603   2.242   2.929
 4739SOL    HW115116   4.555   2.250   2.841
 4739SOL    HW215117   4.673   2.171   2.923
 4740SOL     OW15118   0.283   1.755   0.724
 4740SOL    HW115119   0.291   1.798   0.634
 4740SOL    HW215120   0.240   1.819   0.787
 4741SOL     OW15121   5.342   3.301   1.093
 4741SOL    HW115122   5.283   3.227   1.061
 4741SOL    HW215123   5.332   3.379   1.031
 4742SOL     OW15124   3.066   6.961   6.983
 4742SOL    HW115125   3.130   6.889   7.010
 4742SOL    HW215126   3.064   6.967   6.883
 4743SOL     OW15127   1.913   3.497   5.194
 4743SOL    HW115128   1.895   3.523   5.289
 4743SOL    HW215129   2.011   3.496   5.178
 4744SOL     OW15130   2.550   3.586   6.121
 4744SOL    HW115131   2.543   3.654   6.048
 4744SOL    HW215132   2.460   3.575   6.165
 4745SOL     OW15133   2.907   5.600   6.247
 4745SOL    HW115134   2.983   5.535   6.245
 4745SOL    HW215135   2.820   5.549   6.253
 4746SOL     OW15136   5.759   6.620   2.569
 4746SOL    HW115137   5.726   6.685   2.500
 4746SOL    HW215138   5.859   6.617   2.566
 4747SOL     OW15139   1.835   3.877   6.425
 4747SOL    HW115140   1.920   3.917   6.459
 4747SOL    HW215141   1.815   3.913   6.334
 4748SOL     OW15142   0.723   4.755   0.697
 4748SOL    HW115143   0.712   4.720   0.790
 4748SOL    HW215144   0.820   4.754   0.672
 4749SOL     OW15145   2.972   6.277   5.361
 4749SOL    HW115146   3.050   6.264   5.422
 4749SOL    HW215147   2.927   6.189   5.345
 4750SOL     OW15148   0.103   3.797   3.705
 4750SOL    HW115149   0.142   3.758   3.789
 4750SOL    HW215150   0.024   3.853   3.729
 4751SOL     OW15151   2.887   2.716   0.941
 4751SOL    HW115152   2.791   2.707   0.914
 4751SOL    HW215153   2.898   2.797   0.998
 4752SOL     OW15154   3.077   0.291   6.726
 4752SOL    HW115155   3.038   0.363   6.783
 4752SOL    HW215156   3.071   0.317   6.630
 4753SOL     OW15157   5.101   0.824   3.906
 4753SOL    HW115158   5.093   0.915   3.945
 4753SOL    HW215159   5.165   0.825   3.830
 4754SOL     OW15160   6.338   0.105   4.649
 4754SOL    HW115161   6.344   0.006   4.634
 4754SOL    HW215162   6.430   0.142   4.660
 4755SOL     OW15163   2.286   0.470   0.958
 4755SOL    HW115164   2.199   0.511   0.930
 4755SOL    HW215165   2.269   0.394   1.021
 4756SOL     OW15166   6.143   3.452   1.410
 4756SOL    HW115167   6.187   3.398   1.339
 4756SOL    HW215168   6.103   3.534   1.369
 4757SOL     OW15169   2.428   2.039   0.747
 4757SOL    HW115170   2.431   1.968   0.818
 4757SOL    HW215171   2.382   2.002   0.666
 4758SOL     OW15172   1.849   5.812   4.263
 4758SOL    HW115173   1.762   5.769   4.239
 4758SOL    HW215174   1.836   5.911   4.270
 4759SOL     OW15175   5.590   5.123   4.540
 4759SOL    HW115176   5.520   5.191   4.559
 4759SOL    HW215177   5.563   5.035   4.579
 4760SOL     OW15178   3.296   1.902   0.329
 4760SOL    HW115179   3.263   1.834   0.265
 4760SOL    HW215180   3.238   1.983   0.325
 4761SOL     OW15181   0.468   6.133   6.999
 4761SOL    HW115182   0.376   6.108   6.967
 4761SOL    HW215183   0.532   6.060   6.975
 4762SOL     OW15184   1.650   5.929   2.889
 4762SOL    HW115185   1.560   5.953   2.925
 4762SOL    HW215186   1.644   5.842   2.840
 4763SOL     OW15187   6.306   6.190   3.297
 4763SOL    HW115188   6.228   6.136   3.330
 4763SOL    HW215189   6.281   6.287   3.297
 4764SOL     OW15190   4.943   3.840   5.039
 4764SOL    HW115191   4.915   3.908   4.971
 4764SOL    HW215192   4.910   3.749   5.011
 4765SOL     OW15193   4.520   0.929   4.601
 4765SOL    HW115194   4.561   0.993   4.667
 4765SOL    HW215195   4.557   0.948   4.510
 4766SOL     OW15196   5.034   5.774   4.091
 4766SOL    HW115197   4.977   5.692   4.085
 4766SOL    HW215198   5.020   5.831   4.011
 4767SOL     OW15199   3.852   5.133   5.670
 4767SOL    HW115200   3.803   5.047   5.681
 4767SOL    HW215201   3.850   5.184   5.756
 4768SOL     OW15202   4.596   1.492   5.548
 4768SOL    HW115203   4.612   1.587   5.572
 4768SOL    HW215204   4.567   1.486   5.452
 4769SOL     OW15205   5.311   4.738   0.167
 4769SOL    HW115206   5.303   4.832   0.199
 4769SOL    HW215207   5.307   4.736   0.067
 4770SOL     OW15208   1.022   0.888   4.566
 4770SOL    HW115209   0.981   0.824   4.502
 4770SOL    HW215210   1.040   0.841   4.653
 4771SOL     OW15211   3.089   5.474   5.638
 4771SOL    HW115212   3.049   5.521   5.717
 4771SOL    HW215213   3.188   5.479   5.644
 4772SOL     OW15214   3.130   4.450   1.018
 4772SOL    HW115215   3.048   4.407   1.056
 4772SOL    HW215216   3.134   4.431   0.920
 4773SOL     OW15217   6.829   5.772   5.025
 4773SOL    HW115218   6.760   5.749   5.094
 4773SOL    HW215219   6.842   5.694   4.964
 4774SOL     OW15220   1.141   2.275   2.186
 4774SOL    HW115221   1.178   2.213   2.116
 4774SOL    HW215222   1.046   2.296   2.165
 4775SOL     OW15223   5.342   6.764   2.584
 4775SOL    HW115224   5.423   6.822   2.596
 4775SOL    HW215225   5.346   6.720   2.494
 4776SOL     OW15226   1.161   6.152   5.430
 4776SOL    HW115227   1.083   6.160   5.491
 4776SOL    HW215228   1.156   6.224   5.360
 4777SOL     OW15229   2.659   4.970   1.336
 4777SOL    HW115230   2.621   4.993   1.425
 4777SOL    HW215231   2.686   5.054   1.289
 4778SOL     OW15232   6.542   2.582   3.137
 4778SOL    HW115233   6.497   2.671   3.142
 4778SOL    HW215234   6.633   2.593   3.096
 4779SOL     OW15235   6.144   6.457   2.431
 4779SOL    HW115236   6.143   6.366   2.391
 4779SOL    HW215237   6.168   6.524   2.361
 4780SOL     OW15238   6.551   0.611   0.363
 4780SOL    HW115239   6.559   0.653   0.453
 4780SOL    HW215240   6.640   0.606   0.319
 4781SOL     OW15241   1.953   5.970   2.106
 4781SOL    HW115242   1.863   5.969   2.063
 4781SOL    HW215243   2.022   5.992   2.037
 4782SOL     OW15244   4.121   6.065   6.681
 4782SOL    HW115245   4.083   6.039   6.769
 4782SOL    HW215246   4.181   5.993   6.648
 4783SOL     OW15247   4.971   4.816   0.167
 4783SOL    HW115248   4.998   4.823   0.070
 4783SOL    HW215249   4.954   4.907   0.203
 4784SOL     OW15250   5.829   4.169   6.934
 4784SOL    HW115251   5.874   4.184   0.006
 4784SOL    HW215252   5.832   4.071   6.912
 4785SOL     OW15253   6.623   6.090   1.942
 4785SOL    HW115254   6.665   6.008   1.980
 4785SOL    HW215255   6.529   6.070   1.914
 4786SOL     OW15256   2.632   1.496   0.358
 4786SOL    HW115257   2.677   1.413   0.324
 4786SOL    HW215258   2.700   1.555   0.402
 4787SOL     OW15259   4.523   1.340   2.470
 4787SOL    HW115260   4.550   1.434   2.446
 4787SOL    HW215261   4.443   1.314   2.416
 4788SOL     OW15262   0.934   5.321   5.941
 4788SOL    HW115263   1.003   5.372   5.992
 4788SOL    HW215264   0.910   5.370   5.858
 4789SOL     OW15265   5.345   1.341   1.013
 4789SOL    HW115266   5.368   1.420   1.071
 4789SOL    HW215267   5.419   1.274   1.018
 4790SOL     OW15268   6.409   2.594   4.601
 4790SOL    HW115269   6.453   2.664   4.546
 4790SOL    HW215270   6.391   2.629   4.693
 4791SOL     OW15271   6.254   2.523   1.314
 4791SOL    HW115272   6.269   2.429   1.345
 4791SOL    HW215273   6.159   2.549   1.332
 4792SOL     OW15274   2.112   3.641   3.120
 4792SOL    HW115275   2.119   3.736   3.088
 4792SOL    HW215276   2.082   3.583   3.044
 4793SOL     OW15277   2.132   2.575   5.914
 4793SOL    HW115278   2.060   2.509   5.889
 4793SOL    HW215279   2.110   2.665   5.876
 4794SOL     OW15280   4.142   0.574   3.551
 4794SOL    HW115281   4.111   0.481   3.573
 4794SOL    HW215282   4.070   0.622   3.500
 4795SOL     OW15283   6.374   2.116   4.325
 4795SOL    HW115284   6.371   2.123   4.225
 4795SOL    HW215285   6.331   2.197   4.365
 4796SOL     OW15286   4.907   1.698   5.617
 4796SOL    HW115287   4.891   1.690   5.715
 4796SOL    HW215288   5.005   1.704   5.599
 4797SOL     OW15289   1.744   6.358   6.242
 4797SOL    HW115290   1.773   6.438   6.295
 4797SOL    HW215291   1.677   6.386   6.173
 4798SOL     OW15292   6.954   3.112   4.748
 4798SOL    HW115293   0.024   3.109   4.698
 4798SOL    HW215294   6.888   3.051   4.705
 4799SOL     OW15295   5.222   2.498   6.710
 4799SOL    HW115296   5.251   2.402   6.716
 4799SOL    HW215297   5.141   2.505   6.652
 4800SOL     OW15298   3.229   3.418   6.256
 4800SOL    HW115299   3.180   3.369   6.184
 4800SOL    HW215300   3.186   3.399   6.344
 4801SOL     OW15301   2.781   2.088   0.353
 4801SOL    HW115302   2.807   1.992   0.345
 4801SOL    HW215303   2.861   2.141   0.382
 4802SOL     OW15304   1.067   6.166   2.010
 4802SOL    HW115305   1.077   6.129   2.103
 4802SOL    HW215306   0.972   6.195   1.996
 4803SOL     OW15307   0.817   5.341   1.176
 4803SOL    HW115308   0.845   5.408   1.107
 4803SOL    HW215309   0.891   5.275   1.188
 4804SOL     OW15310   5.352   5.564   6.760
 4804SOL    HW115311   5.417   5.637   6.737
 4804SOL    HW215312   5.260   5.602   6.766
 4805SOL     OW15313   5.998   0.908   1.954
 4805SOL    HW115314   5.927   0.919   2.023
 4805SOL    HW215315   6.063   0.838   1.983
 4806SOL     OW15316   0.518   4.586   3.256
 4806SOL    HW115317   0.533   4.666   3.313
 4806SOL    HW215318   0.421   4.580   3.231
 4807SOL     OW15319   0.924   4.537   0.436
 4807SOL    HW115320   0.837   4.572   0.403
 4807SOL    HW215321   0.953   4.588   0.517
 4808SOL     OW15322   5.620   3.515   6.422
 4808SOL    HW115323   5.621   3.418   6.447
 4808SOL    HW215324   5.703   3.559   6.458
 4809SOL     OW15325   3.691   4.322   0.013
 4809SOL    HW115326   3.683   4.246   6.964
 4809SOL    HW215327   3.699   4.285   0.105
 4810SOL     OW15328   1.229   5.199   2.415
 4810SOL    HW115329   1.262   5.281   2.368
 4810SOL    HW215330   1.253   5.204   2.512
 4811SOL     OW15331   2.578   4.290   1.629
 4811SOL    HW115332   2.663   4.291   1.681
 4811SOL    HW215333   2.544   4.383   1.617
 4812SOL     OW15334   6.529   5.406   4.432
 4812SOL    HW115335   6.551   5.349   4.511
 4812SOL    HW215336   6.600   5.396   4.363
 4813SOL     OW15337   5.052   1.925   0.957
 4813SOL    HW115338   4.992   1.852   0.993
 4813SOL    HW215339   5.109   1.887   0.884
 4814SOL     OW15340   6.429   3.706   0.560
 4814SOL    HW115341   6.503   3.758   0.517
 4814SOL    HW215342   6.350   3.703   0.499
 4815SOL     OW15343   5.533   4.784   2.757
 4815SOL    HW115344   5.498   4.690   2.760
 4815SOL    HW215345   5.599   4.792   2.682
 4816SOL     OW15346   1.450   5.365   1.077
 4816SOL    HW115347   1.506   5.308   1.137
 4816SOL    HW215348   1.508   5.432   1.031
 4817SOL     OW15349   0.540   2.192   6.665
 4817SOL    HW115350   0.464   2.206   6.601
 4817SOL    HW215351   0.625   2.222   6.623
 4818SOL     OW15352   1.016   0.130   4.905
 4818SOL    HW115353   1.059   0.186   4.976
 4818SOL    HW215354   0.933   0.176   4.872
 4819SOL     OW15355   1.567   2.115   0.527
 4819SOL    HW115356   1.522   2.181   0.467
 4819SOL    HW215357   1.533   2.127   0.621
 4820SOL     OW15358   5.909   3.018   1.695
 4820SOL    HW115359   5.897   2.935   1.641
 4820SOL    HW215360   5.995   3.062   1.671
 4821SOL     OW15361   0.508   5.764   3.028
 4821SOL    HW115362   0.583   5.785   2.964
 4821SOL    HW215363   0.546   5.723   3.111
 4822SOL     OW15364   2.809   1.801   4.764
 4822SOL    HW115365   2.886   1.808   4.827
 4822SOL    HW215366   2.825   1.859   4.684
 4823SOL     OW15367   2.135   0.902   4.421
 4823SOL    HW115368   2.090   0.813   4.418
 4823SOL    HW215369   2.071   0.973   4.390
 4824SOL     OW15370   4.822   2.651   5.113
 4824SOL    HW115371   4.897   2.585   5.120
 4824SOL    HW215372   4.738   2.610   5.147
 4825SOL     OW15373   1.793   2.940   4.837
 4825SOL    HW115374   1.863   2.888   4.888
 4825SOL    HW215375   1.829   3.030   4.814
 4826SOL     OW15376   5.474   1.328   0.221
 4826SOL    HW115377   5.559   1.296   0.263
 4826SOL    HW215378   5.461   1.425   0.243
 4827SOL     OW15379   6.336   1.640   0.556
 4827SOL    HW115380   6.372   1.733   0.569
 4827SOL    HW215381   6.262   1.624   0.620
 4828SOL     OW15382   5.246   2.097   1.067
 4828SOL    HW115383   5.165   2.059   1.020
 4828SOL    HW215384   5.299   2.022   1.107
 4829SOL     OW15385   3.798   6.879   4.865
 4829SOL    HW115386   3.791   6.977   4.850
 4829SOL    HW215387   3.814   6.833   4.778
 4830SOL     OW15388   4.095   5.670   4.618
 4830SOL    HW115389   4.180   5.655   4.667
 4830SOL    HW215390   4.113   5.724   4.535
 4831SOL     OW15391   1.321   4.314   6.034
 4831SOL    HW115392   1.413   4.330   5.998
 4831SOL    HW215393   1.263   4.279   5.960
 4832SOL     OW15394   3.709   3.984   3.643
 4832SOL    HW115395   3.714   3.999   3.741
 4832SOL    HW215396   3.617   4.003   3.610
 4833SOL     OW15397   5.660   1.097   2.808
 4833SOL    HW115398   5.665   1.068   2.712
 4833SOL    HW215399   5.721   1.175   2.822
 4834SOL     OW15400   2.827   6.253   1.593
 4834SOL    HW115401   2.915   6.300   1.604
 4834SOL    HW215402   2.839   6.156   1.614
 4835SOL     OW15403   5.658   1.782   6.271
 4835SOL    HW115404   5.647   1.831   6.184
 4835SOL    HW215405   5.584   1.806   6.333
 4836SOL     OW15406   4.994   2.028   4.676
 4836SOL    HW115407   5.017   1.932   4.692
 4836SOL    HW215408   4.901   2.034   4.639
 4837SOL     OW15409   0.253   3.796   2.892
 4837SOL    HW115410   0.229   3.721   2.830
 4837SOL    HW215411   0.240   3.767   2.987
 4838SOL     OW15412   1.200   5.564   0.228
 4838SOL    HW115413   1.170   5.552   0.322
 4838SOL    HW215414   1.270   5.496   0.206
 4839SOL     OW15415   1.337   3.912   0.086
 4839SOL    HW115416   1.322   3.912   7.003
 4839SOL    HW215417   1.253   3.943   0.132
 4840SOL     OW15418   6.812   4.835   6.374
 4840SOL    HW115419   6.895   4.786   6.404
 4840SOL    HW215420   6.827   4.874   6.283
 4841SOL     OW15421   2.559   5.232   2.737
 4841SOL    HW115422   2.507   5.307   2.697
 4841SOL    HW215423   2.648   5.226   2.691
 4842SOL     OW15424   3.553   5.089   2.316
 4842SOL    HW115425   3.499   5.107   2.234
 4842SOL    HW215426   3.609   5.007   2.302
 4843SOL     OW15427   6.148   3.112   1.580
 4843SOL    HW115428   6.239   3.140   1.612
 4843SOL    HW215429   6.159   3.041   1.510
 4844SOL     OW15430   0.127   3.124   6.281
 4844SOL    HW115431   0.086   3.129   6.372
 4844SOL    HW215432   0.134   3.215   6.242
 4845SOL     OW15433   5.578   4.677   6.389
 4845SOL    HW115434   5.514   4.723   6.327
 4845SOL    HW215435   5.529   4.613   6.447
 4846SOL     OW15436   6.810   2.244   3.567
 4846SOL    HW115437   6.859   2.331   3.563
 4846SOL    HW215438   6.872   2.172   3.599
 4847SOL     OW15439   2.458   1.263   6.179
 4847SOL    HW115440   2.431   1.305   6.266
 4847SOL    HW215441   2.519   1.325   6.130
 4848SOL     OW15442   1.938   1.014   4.787
 4848SOL    HW115443   2.028   1.033   4.746
 4848SOL    HW215444   1.944   0.933   4.845
 4849SOL     OW15445   1.770   5.593   0.229
 4849SOL    HW115446   1.739   5.556   0.317
 4849SOL    HW215447   1.692   5.636   0.182
 4850SOL     OW15448   4.316   1.198   1.535
 4850SOL    HW115449   4.371   1.119   1.508
 4850SOL    HW215450   4.220   1.170   1.543
 4851SOL     OW15451   3.307   6.683   5.857
 4851SOL    HW115452   3.272   6.704   5.948
 4851SOL    HW215453   3.355   6.763   5.820
 4852SOL     OW15454   2.181   5.998   4.773
 4852SOL    HW115455   2.167   6.044   4.685
 4852SOL    HW215456   2.274   6.015   4.805
 4853SOL     OW15457   3.553   1.449   3.697
 4853SOL    HW115458   3.598   1.474   3.612
 4853SOL    HW215459   3.606   1.482   3.775
 4854SOL     OW15460   4.346   6.423   2.326
 4854SOL    HW115461   4.307   6.515   2.320
 4854SOL    HW215462   4.304   6.364   2.257
 4855SOL     OW15463   5.992   2.579   4.599
 4855SOL    HW115464   5.925   2.605   4.529
 4855SOL    HW215465   5.975   2.485   4.628
 4856SOL     OW15466   1.728   3.483   3.074
 4856SOL    HW115467   1.785   3.460   3.152
 4856SOL    HW215468   1.639   3.514   3.106
 4857SOL     OW15469   2.595   2.374   3.527
 4857SOL    HW115470   2.578   2.461   3.574
 4857SOL    HW215471   2.547   2.300   3.575
 4858SOL     OW15472   6.874   6.792   5.095
 4858SOL    HW115473   6.968   6.825   5.087
 4858SOL    HW215474   6.814   6.867   5.120
 4859SOL     OW15475   0.625   5.446   2.747
 4859SOL    HW115476   0.559   5.519   2.731
 4859SOL    HW215477   0.586   5.380   2.811
 4860SOL     OW15478   4.577   4.233   0.457
 4860SOL    HW115479   4.543   4.325   0.434
 4860SOL    HW215480   4.648   4.207   0.392
 4861SOL     OW15481   6.083   4.867   6.701
 4861SOL    HW115482   6.026   4.940   6.738
 4861SOL    HW215483   6.166   4.906   6.661
 4862SOL     OW15484   2.067   4.477   4.791
 4862SOL    HW115485   2.037   4.393   4.745
 4862SOL    HW215486   2.158   4.463   4.831
 4863SOL     OW15487   5.196   3.315   2.177
 4863SOL    HW115488   5.197   3.275   2.269
 4863SOL    HW215489   5.103   3.346   2.155
 4864SOL     OW15490   3.526   1.255   2.124
 4864SOL    HW115491   3.446   1.309   2.097
 4864SOL    HW215492   3.609   1.302   2.096
 4865SOL     OW15493   1.744   6.198   4.522
 4865SOL    HW115494   1.653   6.195   4.563
 4865SOL    HW215495   1.749   6.276   4.459
 4866SOL     OW15496   6.160   4.937   1.563
 4866SOL    HW115497   6.157   4.939   1.463
 4866SOL    HW215498   6.080   4.888   1.598
 4867SOL     OW15499   5.187   5.541   2.996
 4867SOL    HW115500   5.220   5.632   2.971
 4867SOL    HW215501   5.102   5.549   3.046
 4868SOL     OW15502   0.157   5.230   2.088
 4868SOL    HW115503   0.249   5.263   2.069
 4868SOL    HW215504   0.121   5.183   2.007
 4869SOL     OW15505   0.587   1.983   1.956
 4869SOL    HW115506   0.518   2.054   1.962
 4869SOL    HW215507   0.622   1.962   2.048
 4870SOL     OW15508   6.066   5.791   1.918
 4870SOL    HW115509   6.114   5.862   1.867
 4870SOL    HW215510   6.043   5.825   2.009
 4871SOL     OW15511   0.544   1.382   4.597
 4871SOL    HW115512   0.612   1.375   4.524
 4871SOL    HW215513   0.590   1.392   4.685
 4872SOL     OW15514   0.107   6.305   4.437
 4872SOL    HW115515   0.129   6.374   4.506
 4872SOL    HW215516   0.179   6.236   4.435
 4873SOL     OW15517   6.938   4.761   3.748
 4873SOL    HW115518   6.957   4.795   3.656
 4873SOL    HW215519   0.007   4.752   3.799
 4874SOL     OW15520   5.908   3.669   3.127
 4874SOL    HW115521   5.858   3.584   3.148
 4874SOL    HW215522   5.942   3.709   3.212
 4875SOL     OW15523   5.087   2.708   1.203
 4875SOL    HW115524   4.997   2.731   1.241
 4875SOL    HW215525   5.080   2.701   1.103
 4876SOL     OW15526   5.665   0.995   4.443
 4876SOL    HW115527   5.601   0.925   4.477
 4876SOL    HW215528   5.701   1.047   4.520
 4877SOL     OW15529   6.700   1.780   6.965
 4877SOL    HW115530   6.635   1.850   6.994
 4877SOL    HW215531   6.742   1.739   0.030
 4878SOL     OW15532   6.338   1.207   3.246
 4878SOL    HW115533   6.299   1.192   3.336
 4878SOL    HW215534   6.338   1.305   3.225
 4879SOL     OW15535   4.496   5.012   3.470
 4879SOL    HW115536   4.513   4.981   3.563
 4879SOL    HW215537   4.469   5.108   3.471
 4880SOL     OW15538   6.041   3.363   6.650
 4880SOL    HW115539   5.965   3.426   6.666
 4880SOL    HW215540   6.096   3.396   6.573
 4881SOL     OW15541   2.290   6.959   6.633
 4881SOL    HW115542   2.242   6.874   6.653
 4881SOL    HW215543   2.294   7.015   6.716
 4882SOL     OW15544   5.714   1.572   4.207
 4882SOL    HW115545   5.732   1.574   4.305
 4882SOL    HW215546   5.644   1.641   4.185
 4883SOL     OW15547   4.919   4.981   2.383
 4883SOL    HW115548   4.986   5.056   2.375
 4883SOL    HW215549   4.938   4.929   2.466
 4884SOL     OW15550   4.493   0.193   1.207
 4884SOL    HW115551   4.455   0.284   1.190
 4884SOL    HW215552   4.459   0.159   1.295
 4885SOL     OW15553   2.865   6.182   2.070
 4885SOL    HW115554   2.816   6.177   1.983
 4885SOL    HW215555   2.949   6.236   2.058
 4886SOL     OW15556   6.426   5.372   6.159
 4886SOL    HW115557   6.351   5.336   6.215
 4886SOL    HW215558   6.513   5.343   6.199
 4887SOL     OW15559   0.172   0.316   2.845
 4887SOL    HW115560   0.232   0.391   2.871
 4887SOL    HW215561   0.167   0.249   2.919
 4888SOL     OW15562   2.023   6.621   4.278
 4888SOL    HW115563   1.955   6.642   4.349
 4888SOL    HW215564   2.115   6.627   4.317
 4889SOL     OW15565   6.293   0.765   6.325
 4889SOL    HW115566   6.344   0.808   6.251
 4889SOL    HW215567   6.239   0.834   6.373
 4890SOL     OW15568   0.860   1.990   5.543
 4890SOL    HW115569   0.784   1.927   5.557
 4890SOL    HW215570   0.924   1.951   5.476
 4891SOL     OW15571   1.159   5.837   0.703
 4891SOL    HW115572   1.211   5.918   0.731
 4891SOL    HW215573   1.220   5.758   0.697
 4892SOL     OW15574   2.210   6.612   2.057
 4892SOL    HW115575   2.125   6.624   2.108
 4892SOL    HW215576   2.197   6.540   1.988
 4893SOL     OW15577   6.579   4.128   0.302
 4893SOL    HW115578   6.647   4.070   0.347
 4893SOL    HW215579   6.491   4.120   0.350
 4894SOL     OW15580   2.245   1.833   2.229
 4894SOL    HW115581   2.234   1.904   2.299
 4894SOL    HW215582   2.186   1.854   2.151
 4895SOL     OW15583   0.170   4.724   2.492
 4895SOL    HW115584   0.196   4.807   2.442
 4895SOL    HW215585   0.161   4.648   2.427
 4896SOL     OW15586   2.374   5.255   1.940
 4896SOL    HW115587   2.369   5.353   1.918
 4896SOL    HW215588   2.468   5.231   1.966
 4897SOL     OW15589   2.420   4.918   5.605
 4897SOL    HW115590   2.431   4.962   5.694
 4897SOL    HW215591   2.377   4.828   5.618
 4898SOL     OW15592   5.069   0.968   4.607
 4898SOL    HW115593   4.995   0.930   4.661
 4898SOL    HW215594   5.133   1.017   4.667
 4899SOL     OW15595   6.134   4.778   3.535
 4899SOL    HW115596   6.067   4.760   3.607
 4899SOL    HW215597   6.131   4.705   3.467
 4900SOL     OW15598   1.659   5.668   5.411
 4900SOL    HW115599   1.750   5.628   5.414
 4900SOL    HW215600   1.646   5.716   5.324
 4901SOL     OW15601   2.738   6.680   5.416
 4901SOL    HW115602   2.688   6.746   5.360
 4901SOL    HW215603   2.746   6.594   5.366
 4902SOL     OW15604   2.848   2.218   5.059
 4902SOL    HW115605   2.945   2.239   5.069
 4902SOL    HW215606   2.834   2.119   5.062
 4903SOL     OW15607   3.051   6.601   6.477
 4903SOL    HW115608   3.097   6.669   6.421
 4903SOL    HW215609   3.058   6.626   6.574
 4904SOL     OW15610   0.873   0.401   3.892
 4904SOL    HW115611   0.810   0.330   3.862
 4904SOL    HW215612   0.913   0.375   3.980
 4905SOL     OW15613   4.399   1.327   2.075
 4905SOL    HW115614   4.436   1.416   2.104
 4905SOL    HW215615   4.404   1.319   1.976
 4906SOL     OW15616   3.910   1.549   6.558
 4906SOL    HW115617   3.812   1.529   6.565
 4906SOL    HW215618   3.943   1.584   6.646
 4907SOL     OW15619   4.976   6.412   1.195
 4907SOL    HW115620   4.995   6.472   1.117
 4907SOL    HW215621   4.967   6.318   1.163
 4908SOL     OW15622   4.999   4.858   6.591
 4908SOL    HW115623   5.044   4.893   6.509
 4908SOL    HW215624   4.931   4.924   6.622
 4909SOL     OW15625   6.661   0.329   5.183
 4909SOL    HW115626   6.725   0.322   5.259
 4909SOL    HW215627   6.703   0.292   5.100
 4910SOL     OW15628   5.705   6.862   4.498
 4910SOL    HW115629   5.700   6.782   4.558
 4910SOL    HW215630   5.616   6.907   4.494
 4911SOL     OW15631   6.737   2.792   5.546
 4911SOL    HW115632   6.638   2.776   5.546
 4911SOL    HW215633   6.776   2.759   5.460
 4912SOL     OW15634   5.396   2.343   1.467
 4912SOL    HW115635   5.343   2.424   1.495
 4912SOL    HW215636   5.342   2.289   1.402
 4913SOL     OW15637   3.896   3.596   3.524
 4913SOL    HW115638   3.849   3.523   3.572
 4913SOL    HW215639   3.878   3.590   3.426
 4914SOL     OW15640   3.008   6.672   4.996
 4914SOL    HW115641   3.095   6.635   5.030
 4914SOL    HW215642   3.018   6.770   4.980
 4915SOL     OW15643   4.270   0.362   4.810
 4915SOL    HW115644   4.280   0.451   4.766
 4915SOL    HW215645   4.308   0.291   4.751
 4916SOL     OW15646   2.147   1.627   3.554
 4916SOL    HW115647   2.224   1.640   3.617
 4916SOL    HW215648   2.078   1.568   3.597
 4917SOL     OW15649   1.660   4.926   0.646
 4917SOL    HW115650   1.714   4.885   0.573
 4917SOL    HW215651   1.572   4.879   0.653
 4918SOL     OW15652   2.769   6.644   2.927
 4918SOL    HW115653   2.691   6.624   2.986
 4918SOL    HW215654   2.801   6.737   2.945
 4919SOL     OW15655   1.973   1.716   0.498
 4919SOL    HW115656   2.028   1.697   0.579
 4919SOL    HW215657   1.956   1.814   0.491
 4920SOL     OW15658   4.842   0.336   6.147
 4920SOL    HW115659   4.832   0.378   6.056
 4920SOL    HW215660   4.917   0.380   6.196
 4921SOL     OW15661   1.832   4.539   1.132
 4921SOL    HW115662   1.742   4.496   1.133
 4921SOL    HW215663   1.886   4.505   1.209
 4922SOL     OW15664   1.833   3.206   4.783
 4922SOL    HW115665   1.754   3.208   4.721
 4922SOL    HW215666   1.847   3.297   4.823
 4923SOL     OW15667   3.345   1.164   0.946
 4923SOL    HW115668   3.412   1.228   0.909
 4923SOL    HW215669   3.280   1.139   0.874
 4924SOL     OW15670   1.882   2.654   6.104
 4924SOL    HW115671   1.914   2.748   6.109
 4924SOL    HW215672   1.915   2.612   6.020
 4925SOL     OW15673   5.679   6.464   0.634
 4925SOL    HW115674   5.592   6.495   0.674
 4925SOL    HW215675   5.663   6.431   0.541
 4926SOL     OW15676   4.841   2.178   1.260
 4926SOL    HW115677   4.781   2.180   1.340
 4926SOL    HW215678   4.800   2.121   1.189
 4927SOL     OW15679   3.932   4.011   4.126
 4927SOL    HW115680   3.980   4.041   4.209
 4927SOL    HW215681   3.840   3.980   4.149
 4928SOL     OW15682   0.032   0.247   6.870
 4928SOL    HW115683   0.072   0.176   6.812
 4928SOL    HW215684   0.102   0.313   6.895
 4929SOL     OW15685   1.229   4.427   4.662
 4929SOL    HW115686   1.225   4.390   4.569
 4929SOL    HW215687   1.265   4.357   4.724
 4930SOL     OW15688   6.566   0.386   2.091
 4930SOL    HW115689   6.608   0.477   2.091
 4930SOL    HW215690   6.473   0.392   2.127
 4931SOL     OW15691   0.052   7.003   1.126
 4931SOL    HW115692   0.082   6.962   1.212
 4931SOL    HW215693   0.096   6.954   1.050
 4932SOL     OW15694   2.511   3.072   1.628
 4932SOL    HW115695   2.602   3.031   1.627
 4932SOL    HW215696   2.508   3.145   1.696
 4933SOL     OW15697   2.929   6.647   4.223
 4933SOL    HW115698   3.014   6.603   4.194
 4933SOL    HW215699   2.941   6.746   4.221
 4934SOL     OW15700   1.536   5.154   2.612
 4934SOL    HW115701   1.484   5.106   2.683
 4934SOL    HW215702   1.526   5.105   2.526
 4935SOL     OW15703   1.090   1.516   6.869
 4935SOL    HW115704   1.093   1.614   6.890
 4935SOL    HW215705   1.169   1.493   6.811
 4936SOL     OW15706   2.267   5.443   2.301
 4936SOL    HW115707   2.264   5.514   2.371
 4936SOL    HW215708   2.357   5.442   2.258
 4937SOL     OW15709   6.680   3.174   5.922
 4937SOL    HW115710   6.713   3.086   5.956
 4937SOL    HW215711   6.622   3.160   5.842
 4938SOL     OW15712   2.998   5.577   0.811
 4938SOL    HW115713   2.995   5.477   0.812
 4938SOL    HW215714   2.921   5.614   0.863
 4939SOL     OW15715   1.158   1.514   4.033
 4939SOL    HW115716   1.234   1.503   3.968
 4939SOL    HW215717   1.165   1.603   4.077
 4940SOL     OW15718   0.774   1.415   5.976
 4940SOL    HW115719   0.860   1.372   5.950
 4940SOL    HW215720   0.787   1.468   6.060
 4941SOL     OW15721   4.362   2.590   5.339
 4941SOL    HW115722   4.375   2.510   5.397
 4941SOL    HW215723   4.274   2.584   5.292
 4942SOL     OW15724   5.412   3.711   5.025
 4942SOL    HW115725   5.479   3.738   5.094
 4942SOL    HW215726   5.327   3.684   5.070
 4943SOL     OW15727   5.025   4.196   5.328
 4943SOL    HW115728   5.067   4.212   5.417
 4943SOL    HW215729   5.094   4.201   5.256
 4944SOL     OW15730   2.480   4.571   1.769
 4944SOL    HW115731   2.470   4.542   1.674
 4944SOL    HW215732   2.559   4.632   1.777
 4945SOL     OW15733   1.134   6.750   5.368
 4945SOL    HW115734   1.161   6.825   5.308
 4945SOL    HW215735   1.041   6.721   5.344
 4946SOL     OW15736   0.774   5.467   0.171
 4946SOL    HW115737   0.746   5.405   0.244
 4946SOL    HW215738   0.826   5.416   0.102
 4947SOL     OW15739   2.495   0.463   0.802
 4947SOL    HW115740   2.409   0.476   0.851
 4947SOL    HW215741   2.495   0.519   0.719
 4948SOL     OW15742   2.357   2.629   2.403
 4948SOL    HW115743   2.383   2.570   2.326
 4948SOL    HW215744   2.317   2.714   2.367
 4949SOL     OW15745   6.553   4.127   5.619
 4949SOL    HW115746   6.632   4.159   5.566
 4949SOL    HW215747   6.583   4.057   5.684
 4950SOL     OW15748   1.684   4.365   5.490
 4950SOL    HW115749   1.635   4.353   5.576
 4950SOL    HW215750   1.727   4.279   5.464
 4951SOL     OW15751   6.299   0.999   4.143
 4951SOL    HW115752   6.222   0.943   4.112
 4951SOL    HW215753   6.342   1.043   4.064
 4952SOL     OW15754   0.032   6.888   6.221
 4952SOL    HW115755   0.124   6.913   6.252
 4952SOL    HW215756   7.007   6.825   6.287
 4953SOL     OW15757   1.071   6.843   3.637
 4953SOL    HW115758   0.974   6.855   3.658
 4953SOL    HW215759   1.087   6.873   3.543
 4954SOL     OW15760   3.158   3.327   7.016
 4954SOL    HW115761   3.075   3.310   0.053
 4954SOL    HW215762   3.201   3.412   0.032
 4955SOL     OW15763   2.667   6.730   6.965
 4955SOL    HW115764   2.627   6.818   6.938
 4955SOL    HW215765   2.611   6.689   0.021
 4956SOL     OW15766   2.921   0.026   5.527
 4956SOL    HW115767   2.879   0.013   5.437
 4956SOL    HW215768   2.889   0.113   5.566
 4957SOL     OW15769   5.799   2.825   1.514
 4957SOL    HW115770   5.699   2.830   1.515
 4957SOL    HW215771   5.834   2.879   1.438
 4958SOL     OW15772   0.898   5.098   6.273
 4958SOL    HW115773   0.830   5.104   6.200
 4958SOL    HW215774   0.855   5.121   6.361
 4959SOL     OW15775   6.014   1.685   0.327
 4959SOL    HW115776   5.942   1.734   0.279
 4959SOL    HW215777   6.020   1.591   0.294
 4960SOL     OW15778   4.065   4.731   3.891
 4960SOL    HW115779   4.037   4.823   3.917
 4960SOL    HW215780   3.994   4.688   3.836
 4961SOL     OW15781   3.244   0.647   5.928
 4961SOL    HW115782   3.217   0.719   5.864
 4961SOL    HW215783   3.298   0.686   6.002
 4962SOL     OW15784   5.927   2.803   0.601
 4962SOL    HW115785   5.925   2.703   0.597
 4962SOL    HW215786   5.853   2.836   0.660
 4963SOL     OW15787   0.543   5.807   0.256
 4963SOL    HW115788   0.473   5.806   0.184
 4963SOL    HW215789   0.632   5.788   0.217
 4964SOL     OW15790   2.492   0.025   4.795
 4964SOL    HW115791   2.436   0.103   4.823
 4964SOL    HW215792   2.435   6.973   4.750
 4965SOL     OW15793   0.725   6.940   1.847
 4965SOL    HW115794   0.762   6.885   1.772
 4965SOL    HW215795   0.736   6.891   1.933
 4966SOL     OW15796   2.761   6.440   5.291
 4966SOL    HW115797   2.746   6.463   5.195
 4966SOL    HW215798   2.847   6.391   5.300
 4967SOL     OW15799   3.606   4.848   5.286
 4967SOL    HW115800   3.649   4.908   5.219
 4967SOL    HW215801   3.669   4.774   5.311
 4968SOL     OW15802   0.188   1.043   3.428
 4968SOL    HW115803   0.179   1.098   3.510
 4968SOL    HW215804   0.238   0.958   3.449
 4969SOL     OW15805   2.086   6.131   2.520
 4969SOL    HW115806   2.020   6.174   2.459
 4969SOL    HW215807   2.060   6.149   2.615
 4970SOL     OW15808   2.804   1.856   1.429
 4970SOL    HW115809   2.860   1.774   1.438
 4970SOL    HW215810   2.718   1.843   1.480
 4971SOL     OW15811   6.020   5.565   3.324
 4971SOL    HW115812   6.107   5.533   3.361
 4971SOL    HW215813   6.023   5.563   3.224
 4972SOL     OW15814   0.972   3.896   1.278
 4972SOL    HW115815   0.875   3.900   1.253
 4972SOL    HW215816   0.991   3.810   1.326
 4973SOL     OW15817   1.600   0.038   2.071
 4973SOL    HW115818   1.685   0.017   2.024
 4973SOL    HW215819   1.555   6.969   2.098
 4974SOL     OW15820   6.472   4.577   0.606
 4974SOL    HW115821   6.470   4.562   0.507
 4974SOL    HW215822   6.380   4.564   0.643
 4975SOL     OW15823   5.715   3.845   6.008
 4975SOL    HW115824   5.687   3.782   5.936
 4975SOL    HW215825   5.814   3.856   6.006
 4976SOL     OW15826   2.145   1.953   3.877
 4976SOL    HW115827   2.215   2.024   3.866
 4976SOL    HW215828   2.179   1.881   3.937
 4977SOL     OW15829   4.662   5.091   0.183
 4977SOL    HW115830   4.615   5.011   0.146
 4977SOL    HW215831   4.594   5.161   0.208
 4978SOL     OW15832   6.333   4.512   5.054
 4978SOL    HW115833   6.385   4.570   5.117
 4978SOL    HW215834   6.394   4.472   4.986
 4979SOL     OW15835   6.668   6.597   6.135
 4979SOL    HW115836   6.663   6.653   6.218
 4979SOL    HW215837   6.697   6.653   6.058
 4980SOL     OW15838   5.515   5.384   3.520
 4980SOL    HW115839   5.533   5.328   3.439
 4980SOL    HW215840   5.581   5.458   3.524
 4981SOL     OW15841   4.365   5.269   0.739
 4981SOL    HW115842   4.343   5.204   0.811
 4981SOL    HW215843   4.296   5.341   0.737
 4982SOL     OW15844   3.311   1.839   6.005
 4982SOL    HW115845   3.348   1.757   5.962
 4982SOL    HW215846   3.223   1.817   6.047
 4983SOL     OW15847   6.369   3.382   5.644
 4983SOL    HW115848   6.295   3.325   5.610
 4983SOL    HW215849   6.335   3.474   5.663
 4984SOL     OW15850   5.824   4.303   3.223
 4984SOL    HW115851   5.787   4.273   3.311
 4984SOL    HW215852   5.923   4.296   3.224
 4985SOL     OW15853   5.998   6.881   3.175
 4985SOL    HW115854   5.930   6.807   3.172
 4985SOL    HW215855   5.961   6.961   3.128
 4986SOL     OW15856   0.069   4.779   0.925
 4986SOL    HW115857   0.034   4.712   0.859
 4986SOL    HW215858   0.152   4.743   0.968
 4987SOL     OW15859   0.120   6.416   2.405
 4987SOL    HW115860   0.210   6.404   2.448
 4987SOL    HW215861   0.053   6.438   2.476
 4988SOL     OW15862   5.409   1.040   2.406
 4988SOL    HW115863   5.373   0.951   2.436
 4988SOL    HW215864   5.366   1.066   2.320
 4989SOL     OW15865   5.389   6.587   1.031
 4989SOL    HW115866   5.304   6.613   0.984
 4989SOL    HW215867   5.397   6.487   1.033
 4990SOL     OW15868   2.668   2.111   5.861
 4990SOL    HW115869   2.758   2.111   5.905
 4990SOL    HW215870   2.603   2.160   5.918
 4991SOL     OW15871   6.583   5.536   4.164
 4991SOL    HW115872   6.521   5.481   4.108
 4991SOL    HW215873   6.675   5.498   4.160
 4992SOL     OW15874   4.797   0.614   2.018
 4992SOL    HW115875   4.787   0.515   2.023
 4992SOL    HW215876   4.891   0.637   1.994
 4993SOL     OW15877   3.630   5.996   4.956
 4993SOL    HW115878   3.675   5.935   5.022
 4993SOL    HW215879   3.653   5.967   4.863
 4994SOL     OW15880   1.973   0.225   4.470
 4994SOL    HW115881   1.987   0.149   4.407
 4994SOL    HW215882   2.047   0.291   4.459
 4995SOL     OW15883   1.017   1.922   5.303
 4995SOL    HW115884   1.083   1.847   5.304
 4995SOL    HW215885   1.040   1.985   5.229
 4996SOL     OW15886   0.309   1.643   3.191
 4996SOL    HW115887   0.402   1.658   3.157
 4996SOL    HW215888   0.284   1.718   3.252
 4997SOL     OW15889   4.391   2.431   2.358
 4997SOL    HW115890   4.376   2.340   2.398
 4997SOL    HW215891   4.303   2.479   2.351
 4998SOL     OW15892   2.124   3.209   5.044
 4998SOL    HW115893   2.149   3.149   5.120
 4998SOL    HW215894   2.025   3.225   5.045
 4999SOL     OW15895   6.820   3.539   5.782
 4999SOL    HW115896   6.740   3.492   5.820
 4999SOL    HW215897   6.903   3.486   5.801
 5000SOL     OW15898   3.785   6.834   3.286
 5000SOL    HW115899   3.710   6.769   3.275
 5000SOL    HW215900   3.859   6.790   3.336
 5001SOL     OW15901   0.842   4.660   2.227
 5001SOL    HW115902   0.850   4.573   2.276
 5001SOL    HW215903   0.825   4.642   2.130
 5002SOL     OW15904   0.930   3.565   2.312
 5002SOL    HW115905   0.949   3.579   2.215
 5002SOL    HW215906   0.852   3.621   2.339
 5003SOL     OW15907   3.349   5.168   2.933
 5003SOL    HW115908   3.251   5.156   2.946
 5003SOL    HW215909   3.399   5.102   2.989
 5004SOL     OW15910   2.460   4.526   5.064
 5004SOL    HW115911   2.514   4.484   5.137
 5004SOL    HW215912   2.516   4.594   5.016
 5005SOL     OW15913   3.511   2.960   0.760
 5005SOL    HW115914   3.487   2.977   0.664
 5005SOL    HW215915   3.427   2.946   0.813
 5006SOL     OW15916   4.983   0.734   1.642
 5006SOL    HW115917   5.074   0.763   1.612
 5006SOL    HW215918   4.914   0.782   1.587
 5007SOL     OW15919   1.159   6.342   0.780
 5007SOL    HW115920   1.090   6.321   0.710
 5007SOL    HW215921   1.160   6.440   0.797
 5008SOL     OW15922   5.318   6.427   1.305
 5008SOL    HW115923   5.403   6.467   1.337
 5008SOL    HW215924   5.314   6.429   1.206
 5009SOL     OW15925   0.044   1.368   0.459
 5009SOL    HW115926   0.090   1.418   0.532
 5009SOL    HW215927   6.973   1.412   0.438
 5010SOL     OW15928   4.114   3.256   1.768
 5010SOL    HW115929   4.106   3.295   1.860
 5010SOL    HW215930   4.104   3.157   1.772
 5011SOL     OW15931   1.440   4.247   2.029
 5011SOL    HW115932   1.488   4.249   2.117
 5011SOL    HW215933   1.476   4.173   1.972
 5012SOL     OW15934   5.639   3.657   5.636
 5012SOL    HW115935   5.626   3.747   5.595
 5012SOL    HW215936   5.611   3.659   5.732
 5013SOL     OW15937   5.273   1.464   6.693
 5013SOL    HW115938   5.357   1.516   6.678
 5013SOL    HW215939   5.205   1.522   6.737
 5014SOL     OW15940   6.222   4.697   0.957
 5014SOL    HW115941   6.179   4.779   0.919
 5014SOL    HW215942   6.244   4.712   1.053
 5015SOL     OW15943   4.808   1.665   4.845
 5015SOL    HW115944   4.778   1.592   4.907
 5015SOL    HW215945   4.765   1.751   4.872
 5016SOL     OW15946   1.662   3.057   6.744
 5016SOL    HW115947   1.685   3.088   6.652
 5016SOL    HW215948   1.609   3.129   6.791
 5017SOL     OW15949   2.711   2.656   1.315
 5017SOL    HW115950   2.620   2.698   1.319
 5017SOL    HW215951   2.761   2.692   1.235
 5018SOL     OW15952   1.011   4.431   2.710
 5018SOL    HW115953   0.940   4.369   2.744
 5018SOL    HW215954   0.975   4.484   2.633
 5019SOL     OW15955   1.166   5.100   5.880
 5019SOL    HW115956   1.266   5.095   5.883
 5019SOL    HW215957   1.138   5.190   5.846
 5020SOL     OW15958   5.592   0.240   0.039
 5020SOL    HW115959   5.670   0.298   0.062
 5020SOL    HW215960   5.532   0.232   0.118
 5021SOL     OW15961   0.438   1.394   0.255
 5021SOL    HW115962   0.521   1.353   0.219
 5021SOL    HW215963   0.403   1.337   0.330
 5022SOL     OW15964   1.413   1.134   0.980
 5022SOL    HW115965   1.502   1.176   0.997
 5022SOL    HW215966   1.398   1.127   0.881
 5023SOL     OW15967   0.176   3.544   1.980
 5023SOL    HW115968   0.178   3.630   1.929
 5023SOL    HW215969   0.082   3.523   2.007
 5024SOL     OW15970   6.217   5.434   1.670
 5024SOL    HW115971   6.168   5.348   1.688
 5024SOL    HW215972   6.226   5.486   1.755
 5025SOL     OW15973   4.132   1.471   2.622
 5025SOL    HW115974   4.103   1.498   2.714
 5025SOL    HW215975   4.222   1.510   2.602
 5026SOL     OW15976   6.256   6.064   5.245
 5026SOL    HW115977   6.270   6.022   5.155
 5026SOL    HW215978   6.181   6.130   5.240
 5027SOL     OW15979   0.240   6.019   1.583
 5027SOL    HW115980   0.192   6.004   1.496
 5027SOL    HW215981   0.269   6.115   1.589
 5028SOL     OW15982   0.418   1.963   2.340
 5028SOL    HW115983   0.429   1.921   2.430
 5028SOL    HW215984   0.324   1.950   2.309
 5029SOL     OW15985   6.427   2.106   2.252
 5029SOL    HW115986   6.452   2.021   2.298
 5029SOL    HW215987   6.492   2.178   2.278
 5030SOL     OW15988   6.685   6.706   6.964
 5030SOL    HW115989   6.665   6.781   6.900
 5030SOL    HW215990   6.751   6.643   6.923
 5031SOL     OW15991   6.259   0.479   5.758
 5031SOL    HW115992   6.232   0.570   5.789
 5031SOL    HW215993   6.319   0.487   5.678
 5032SOL     OW15994   1.873   2.182   0.289
 5032SOL    HW115995   1.824   2.220   0.211
 5032SOL    HW215996   1.918   2.097   0.262
 5033SOL     OW15997   2.271   6.549   5.747
 5033SOL    HW115998   2.349   6.552   5.684
 5033SOL    HW215999   2.201   6.489   5.710
 5034SOL     OW16000   5.791   0.620   3.542
 5034SOL    HW116001   5.855   0.554   3.503
 5034SOL    HW216002   5.800   0.620   3.642
 5035SOL     OW16003   0.620   3.436   6.887
 5035SOL    HW116004   0.628   3.414   6.984
 5035SOL    HW216005   0.566   3.366   6.840
 5036SOL     OW16006   0.901   5.017   6.811
 5036SOL    HW116007   0.961   5.042   6.887
 5036SOL    HW216008   0.806   5.036   6.836
 5037SOL     OW16009   5.724   3.883   2.023
 5037SOL    HW116010   5.627   3.897   2.003
 5037SOL    HW216011   5.762   3.965   2.065
 5038SOL     OW16012   3.557   3.902   6.163
 5038SOL    HW116013   3.638   3.852   6.133
 5038SOL    HW216014   3.487   3.898   6.092
 5039SOL     OW16015   2.915   4.115   5.960
 5039SOL    HW116016   2.909   4.045   6.031
 5039SOL    HW216017   2.851   4.094   5.886
 5040SOL     OW16018   1.542   6.177   5.610
 5040SOL    HW116019   1.505   6.190   5.702
 5040SOL    HW216020   1.538   6.081   5.585
 5041SOL     OW16021   2.028   1.700   2.643
 5041SOL    HW116022   2.122   1.666   2.641
 5041SOL    HW216023   2.026   1.789   2.690
 5042SOL     OW16024   6.524   3.158   0.317
 5042SOL    HW116025   6.470   3.147   0.234
 5042SOL    HW216026   6.507   3.248   0.356
 5043SOL     OW16027   3.151   0.182   6.086
 5043SOL    HW116028   3.130   0.125   6.165
 5043SOL    HW216029   3.218   0.252   6.111
 5044SOL     OW16030   0.578   6.526   6.781
 5044SOL    HW116031   0.677   6.512   6.779
 5044SOL    HW216032   0.532   6.440   6.758
 5045SOL     OW16033   5.060   0.431   6.324
 5045SOL    HW116034   5.058   0.388   6.415
 5045SOL    HW216035   5.041   0.529   6.334
 5046SOL     OW16036   3.285   4.054   2.425
 5046SOL    HW116037   3.207   4.018   2.476
 5046SOL    HW216038   3.370   4.033   2.474
 5047SOL     OW16039   1.195   4.527   2.432
 5047SOL    HW116040   1.167   4.513   2.337
 5047SOL    HW216041   1.163   4.616   2.464
 5048SOL     OW16042   0.834   1.672   2.538
 5048SOL    HW116043   0.746   1.627   2.524
 5048SOL    HW216044   0.866   1.710   2.451
 5049SOL     OW16045   5.574   2.120   6.289
 5049SOL    HW116046   5.627   2.088   6.211
 5049SOL    HW216047   5.633   2.169   6.353
 5050SOL     OW16048   1.606   1.346   1.332
 5050SOL    HW116049   1.622   1.401   1.415
 5050SOL    HW216050   1.549   1.267   1.355
 5051SOL     OW16051   4.699   4.581   0.817
 5051SOL    HW116052   4.658   4.514   0.878
 5051SOL    HW216053   4.678   4.557   0.722
 5052SOL     OW16054   2.247   1.188   5.980
 5052SOL    HW116055   2.184   1.265   5.976
 5052SOL    HW216056   2.275   1.173   6.075
 5053SOL     OW16057   2.204   3.961   3.424
 5053SOL    HW116058   2.230   3.996   3.514
 5053SOL    HW216059   2.245   3.871   3.410
 5054SOL     OW16060   3.557   5.540   5.177
 5054SOL    HW116061   3.572   5.494   5.089
 5054SOL    HW216062   3.617   5.499   5.246
 5055SOL     OW16063   2.238   2.110   5.724
 5055SOL    HW116064   2.245   2.164   5.640
 5055SOL    HW216065   2.260   2.167   5.802
 5056SOL     OW16066   6.389   3.983   6.709
 5056SOL    HW116067   6.387   4.042   6.789
 5056SOL    HW216068   6.473   4.000   6.657
 5057SOL     OW16069   6.900   5.897   4.037
 5057SOL    HW116070   6.978   5.835   4.026
 5057SOL    HW216071   6.921   5.986   3.997
 5058SOL     OW16072   2.687   3.189   5.604
 5058SOL    HW116073   2.673   3.238   5.519
 5058SOL    HW216074   2.640   3.100   5.600
 5059SOL     OW16075   5.843   1.128   3.729
 5059SOL    HW116076   5.838   1.171   3.638
 5059SOL    HW216077   5.793   1.183   3.795
 5060SOL     OW16078   0.740   2.251   5.523
 5060SOL    HW116079   0.768   2.297   5.439
 5060SOL    HW216080   0.746   2.152   5.511
 5061SOL     OW16081   4.226   2.500   1.727
 5061SOL    HW116082   4.286   2.576   1.703
 5061SOL    HW216083   4.158   2.487   1.656
 5062SOL     OW16084   5.259   0.732   2.981
 5062SOL    HW116085   5.329   0.696   3.041
 5062SOL    HW216086   5.285   0.824   2.950
 5063SOL     OW16087   1.031   6.780   1.938
 5063SOL    HW116088   1.078   6.866   1.959
 5063SOL    HW216089   0.935   6.787   1.963
 5064SOL     OW16090   5.077   4.039   1.394
 5064SOL    HW116091   5.165   4.060   1.436
 5064SOL    HW216092   5.092   4.001   1.302
 5065SOL     OW16093   2.118   0.311   3.647
 5065SOL    HW116094   2.104   0.224   3.694
 5065SOL    HW216095   2.128   0.294   3.549
 5066SOL     OW16096   4.886   5.155   2.105
 5066SOL    HW116097   4.888   5.176   2.007
 5066SOL    HW216098   4.947   5.217   2.153
 5067SOL     OW16099   4.707   0.848   1.299
 5067SOL    HW116100   4.751   0.856   1.389
 5067SOL    HW216101   4.678   0.938   1.268
 5068SOL     OW16102   3.655   4.626   0.601
 5068SOL    HW116103   3.668   4.532   0.634
 5068SOL    HW216104   3.712   4.688   0.653
 5069SOL     OW16105   2.020   3.553   5.576
 5069SOL    HW116106   1.950   3.594   5.517
 5069SOL    HW216107   2.110   3.586   5.547
 5070SOL     OW16108   4.698   4.818   4.084
 5070SOL    HW116109   4.678   4.824   3.987
 5070SOL    HW216110   4.736   4.727   4.105
 5071SOL     OW16111   4.005   2.110   3.245
 5071SOL    HW116112   4.006   2.188   3.307
 5071SOL    HW216113   3.917   2.104   3.198
 5072SOL     OW16114   1.155   0.424   1.109
 5072SOL    HW116115   1.080   0.480   1.074
 5072SOL    HW216116   1.150   0.332   1.069
 5073SOL     OW16117   0.170   5.787   2.133
 5073SOL    HW116118   0.235   5.716   2.106
 5073SOL    HW216119   0.198   5.874   2.095
 5074SOL     OW16120   3.347   2.945   1.436
 5074SOL    HW116121   3.445   2.927   1.430
 5074SOL    HW216122   3.301   2.867   1.478
 5075SOL     OW16123   1.083   2.070   6.793
 5075SOL    HW116124   1.030   2.113   6.866
 5075SOL    HW216125   1.069   2.119   6.707
 5076SOL     OW16126   4.067   1.219   0.828
 5076SOL    HW116127   4.054   1.133   0.780
 5076SOL    HW216128   4.164   1.230   0.851
 5077SOL     OW16129   1.458   4.753   5.617
 5077SOL    HW116130   1.536   4.702   5.652
 5077SOL    HW216131   1.484   4.849   5.603
 5078SOL     OW16132   1.474   0.381   4.158
 5078SOL    HW116133   1.425   0.391   4.071
 5078SOL    HW216134   1.437   0.302   4.207
 5079SOL     OW16135   2.357   3.228   6.315
 5079SOL    HW116136   2.384   3.184   6.230
 5079SOL    HW216137   2.438   3.264   6.361
 5080SOL     OW16138   6.165   6.610   6.190
 5080SOL    HW116139   6.195   6.662   6.270
 5080SOL    HW216140   6.218   6.637   6.110
 5081SOL     OW16141   3.221   3.118   4.393
 5081SOL    HW116142   3.279   3.194   4.362
 5081SOL    HW216143   3.169   3.147   4.473
 5082SOL     OW16144   4.687   6.009   0.155
 5082SOL    HW116145   4.771   5.986   0.107
 5082SOL    HW216146   4.692   6.103   0.188
 5083SOL     OW16147   2.420   6.843   2.595
 5083SOL    HW116148   2.376   6.909   2.534
 5083SOL    HW216149   2.419   6.878   2.689
 5084SOL     OW16150   0.278   5.037   4.654
 5084SOL    HW116151   0.209   4.984   4.606
 5084SOL    HW216152   0.350   5.063   4.590
 5085SOL     OW16153   4.994   3.088   6.826
 5085SOL    HW116154   5.030   3.108   6.735
 5085SOL    HW216155   4.929   3.159   6.853
 5086SOL     OW16156   0.391   5.492   3.287
 5086SOL    HW116157   0.364   5.420   3.351
 5086SOL    HW216158   0.348   5.476   3.199
 5087SOL     OW16159   1.277   4.955   2.117
 5087SOL    HW116160   1.228   4.951   2.203
 5087SOL    HW216161   1.213   4.978   2.043
 5088SOL     OW16162   6.791   1.149   5.210
 5088SOL    HW116163   6.744   1.230   5.175
 5088SOL    HW216164   6.802   1.083   5.135
 5089SOL     OW16165   5.038   3.739   4.394
 5089SOL    HW116166   5.120   3.787   4.425
 5089SOL    HW216167   5.054   3.698   4.305
 5090SOL     OW16168   2.173   3.776   2.758
 5090SOL    HW116169   2.177   3.681   2.791
 5090SOL    HW216170   2.123   3.778   2.671
 5091SOL     OW16171   0.572   6.974   2.291
 5091SOL    HW116172   0.476   6.985   2.315
 5091SOL    HW216173   0.605   6.886   2.327
 5092SOL     OW16174   3.864   3.219   1.624
 5092SOL    HW116175   3.851   3.120   1.613
 5092SOL    HW216176   3.955   3.237   1.660
 5093SOL     OW16177   3.039   1.409   1.752
 5093SOL    HW116178   3.032   1.508   1.734
 5093SOL    HW216179   2.950   1.375   1.783
 5094SOL     OW16180   2.175   5.696   5.634
 5094SOL    HW116181   2.235   5.641   5.574
 5094SOL    HW216182   2.140   5.775   5.582
 5095SOL     OW16183   6.115   2.498   4.856
 5095SOL    HW116184   6.212   2.476   4.857
 5095SOL    HW216185   6.085   2.514   4.762
 5096SOL     OW16186   4.408   4.080   0.591
 5096SOL    HW116187   4.474   4.125   0.531
 5096SOL    HW216188   4.454   4.010   0.644
 5097SOL     OW16189   1.228   0.783   6.726
 5097SOL    HW116190   1.140   0.821   6.699
 5097SOL    HW216191   1.243   0.696   6.678
 5098SOL     OW16192   1.305   0.603   1.701
 5098SOL    HW116193   1.295   0.640   1.794
 5098SOL    HW216194   1.329   0.677   1.639
 5099SOL     OW16195   0.414   6.313   6.731
 5099SOL    HW116196   0.378   6.220   6.739
 5099SOL    HW216197   0.351   6.378   6.773
 5100SOL     OW16198   3.990   5.469   5.561
 5100SOL    HW116199   4.037   5.390   5.600
 5100SOL    HW216200   3.960   5.448   5.468
 5101SOL     OW16201   4.873   6.412   0.239
 5101SOL    HW116202   4.784   6.372   0.219
 5101SOL    HW216203   4.873   6.509   0.213
 5102SOL     OW16204   5.182   0.786   3.553
 5102SOL    HW116205   5.279   0.783   3.579
 5102SOL    HW216206   5.158   0.703   3.504
 5103SOL     OW16207   0.170   1.676   4.045
 5103SOL    HW116208   0.105   1.751   4.036
 5103SOL    HW216209   0.211   1.677   4.136
 5104SOL     OW16210   1.320   6.792   2.917
 5104SOL    HW116211   1.356   6.810   3.008
 5104SOL    HW216212   1.392   6.754   2.859
 5105SOL     OW16213   3.666   2.597   0.400
 5105SOL    HW116214   3.658   2.658   0.322
 5105SOL    HW216215   3.682   2.504   0.368
 5106SOL     OW16216   3.192   0.857   0.412
 5106SOL    HW116217   3.159   0.781   0.469
 5106SOL    HW216218   3.266   0.824   0.353
 5107SOL     OW16219   3.570   0.666   0.434
 5107SOL    HW116220   3.642   0.727   0.401
 5107SOL    HW216221   3.516   0.633   0.357
 5108SOL     OW16222   2.950   3.889   4.762
 5108SOL    HW116223   2.879   3.893   4.832
 5108SOL    HW216224   2.908   3.891   4.671
 5109SOL     OW16225   1.313   0.698   0.688
 5109SOL    HW116226   1.371   0.772   0.722
 5109SOL    HW216227   1.344   0.670   0.597
 5110SOL     OW16228   0.718   0.349   6.862
 5110SOL    HW116229   0.712   0.278   6.932
 5110SOL    HW216230   0.787   0.416   6.889
 5111SOL     OW16231   2.755   1.267   5.334
 5111SOL    HW116232   2.666   1.258   5.378
 5111SOL    HW216233   2.749   1.332   5.259
 5112SOL     OW16234   0.739   6.585   2.625
 5112SOL    HW116235   0.756   6.527   2.545
 5112SOL    HW216236   0.822   6.589   2.681
 5113SOL     OW16237   2.269   6.644   1.738
 5113SOL    HW116238   2.320   6.558   1.731
 5113SOL    HW216239   2.197   6.646   1.669
 5114SOL     OW16240   3.157   2.081   0.708
 5114SOL    HW116241   3.112   1.992   0.698
 5114SOL    HW216242   3.227   2.075   0.780
 5115SOL     OW16243   2.093   5.425   4.664
 5115SOL    HW116244   2.121   5.356   4.730
 5115SOL    HW216245   2.055   5.504   4.712
 5116SOL     OW16246   5.645   6.624   6.619
 5116SOL    HW116247   5.560   6.638   6.569
 5116SOL    HW216248   5.722   6.625   6.555
 5117SOL     OW16249   2.949   4.833   4.841
 5117SOL    HW116250   2.960   4.748   4.893
 5117SOL    HW216251   2.960   4.814   4.744
 5118SOL     OW16252   4.993   0.503   0.538
 5118SOL    HW116253   4.991   0.535   0.443
 5118SOL    HW216254   5.052   0.563   0.592
 5119SOL     OW16255   5.315   1.051   1.892
 5119SOL    HW116256   5.303   0.962   1.936
 5119SOL    HW216257   5.293   1.124   1.957
 5120SOL     OW16258   4.006   1.460   4.018
 5120SOL    HW116259   4.041   1.465   3.925
 5120SOL    HW216260   4.051   1.529   4.075
 5121SOL     OW16261   2.555   1.703   0.179
 5121SOL    HW116262   2.593   1.641   0.249
 5121SOL    HW216263   2.587   1.674   0.089
 5122SOL     OW16264   2.949   6.944   3.307
 5122SOL    HW116265   2.952   0.013   3.358
 5122SOL    HW216266   2.934   6.868   3.370
 5123SOL     OW16267   5.492   1.749   5.100
 5123SOL    HW116268   5.523   1.665   5.144
 5123SOL    HW216269   5.570   1.797   5.061
 5124SOL     OW16270   3.065   5.258   4.814
 5124SOL    HW116271   2.984   5.282   4.868
 5124SOL    HW216272   3.063   5.307   4.727
 5125SOL     OW16273   6.410   3.173   3.963
 5125SOL    HW116274   6.458   3.110   4.023
 5125SOL    HW216275   6.335   3.216   4.013
 5126SOL     OW16276   6.263   5.437   5.887
 5126SOL    HW116277   6.223   5.478   5.968
 5126SOL    HW216278   6.256   5.338   5.892
 5127SOL     OW16279   0.264   3.931   0.170
 5127SOL    HW116280   0.277   3.933   0.071
 5127SOL    HW216281   0.234   3.839   0.197
 5128SOL     OW16282   7.012   0.618   6.830
 5128SOL    HW116283   0.082   0.570   6.844
 5128SOL    HW216284   6.967   0.583   6.748
 5129SOL     OW16285   4.622   0.026   2.890
 5129SOL    HW116286   4.708   7.009   2.852
 5129SOL    HW216287   4.591   0.106   2.840
 5130SOL     OW16288   1.362   5.672   4.143
 5130SOL    HW116289   1.332   5.726   4.221
 5130SOL    HW216290   1.283   5.642   4.090
 5131SOL     OW16291   2.787   4.895   3.954
 5131SOL    HW116292   2.697   4.933   3.976
 5131SOL    HW216293   2.855   4.968   3.952
 5132SOL     OW16294   3.460   1.815   6.271
 5132SOL    HW116295   3.409   1.884   6.220
 5132SOL    HW216296   3.547   1.797   6.223
 5133SOL     OW16297   2.449   5.256   6.629
 5133SOL    HW116298   2.520   5.225   6.691
 5133SOL    HW216299   2.400   5.177   6.593
 5134SOL     OW16300   6.468   0.867   2.064
 5134SOL    HW116301   6.520   0.790   2.102
 5134SOL    HW216302   6.460   0.939   2.133
 5135SOL     OW16303   5.007   3.419   4.176
 5135SOL    HW116304   5.017   3.517   4.158
 5135SOL    HW216305   4.964   3.375   4.097
 5136SOL     OW16306   5.281   0.636   6.525
 5136SOL    HW116307   5.194   0.661   6.483
 5136SOL    HW216308   5.265   0.583   6.608
 5137SOL     OW16309   5.221   3.440   5.264
 5137SOL    HW116310   5.122   3.442   5.275
 5137SOL    HW216311   5.250   3.514   5.203
 5138SOL     OW16312   3.753   4.126   4.441
 5138SOL    HW116313   3.705   4.039   4.429
 5138SOL    HW216314   3.746   4.180   4.357
 5139SOL     OW16315   0.740   0.031   4.536
 5139SOL    HW116316   0.675   0.101   4.506
 5139SOL    HW216317   0.714   6.958   4.498
 5140SOL     OW16318   3.751   1.634   5.800
 5140SOL    HW116319   3.780   1.674   5.713
 5140SOL    HW216320   3.828   1.633   5.864
 5141SOL     OW16321   6.640   3.538   1.645
 5141SOL    HW116322   6.638   3.499   1.738
 5141SOL    HW216323   6.571   3.493   1.589
 5142SOL     OW16324   5.569   6.626   4.269
 5142SOL    HW116325   5.575   6.569   4.188
 5142SOL    HW216326   5.660   6.661   4.292
 5143SOL     OW16327   0.370   4.193   4.460
 5143SOL    HW116328   0.355   4.223   4.366
 5143SOL    HW216329   0.468   4.198   4.481
 5144SOL     OW16330   1.505   5.020   5.569
 5144SOL    HW116331   1.432   5.057   5.512
 5144SOL    HW216332   1.592   5.062   5.544
 5145SOL     OW16333   3.458   5.948   6.082
 5145SOL    HW116334   3.493   5.908   6.167
 5145SOL    HW216335   3.435   6.044   6.097
 5146SOL     OW16336   3.262   3.710   5.399
 5146SOL    HW116337   3.217   3.790   5.361
 5146SOL    HW216338   3.224   3.627   5.358
 5147SOL     OW16339   6.366   5.766   4.061
 5147SOL    HW116340   6.465   5.765   4.074
 5147SOL    HW216341   6.333   5.671   4.056
 5148SOL     OW16342   6.800   1.144   2.371
 5148SOL    HW116343   6.887   1.147   2.419
 5148SOL    HW216344   6.809   1.188   2.282
 5149SOL     OW16345   6.042   5.571   4.625
 5149SOL    HW116346   6.085   5.481   4.626
 5149SOL    HW216347   5.968   5.573   4.692
 5150SOL     OW16348   2.183   4.868   4.000
 5150SOL    HW116349   2.096   4.904   3.967
 5150SOL    HW216350   2.169   4.779   4.043
 5151SOL     OW16351   0.413   3.954   1.944
 5151SOL    HW116352   0.467   3.907   2.014
 5151SOL    HW216353   0.472   4.017   1.893
 5152SOL     OW16354   1.899   5.124   6.939
 5152SOL    HW116355   1.885   5.133   0.021
 5152SOL    HW216356   1.877   5.211   6.894
 5153SOL     OW16357   0.553   2.049   1.033
 5153SOL    HW116358   0.567   1.959   1.073
 5153SOL    HW216359   0.598   2.119   1.090
 5154SOL     OW16360   1.214   2.827   6.042
 5154SOL    HW116361   1.171   2.844   5.954
 5154SOL    HW216362   1.272   2.905   6.067
 5155SOL     OW16363   3.923   0.059   2.173
 5155SOL    HW116364   4.014   0.095   2.195
 5155SOL    HW216365   3.883   0.017   2.254
 5156SOL     OW16366   5.629   4.675   5.400
 5156SOL    HW116367   5.635   4.626   5.487
 5156SOL    HW216368   5.686   4.756   5.403
 5157SOL     OW16369   3.131   1.770   2.910
 5157SOL    HW116370   3.185   1.853   2.896
 5157SOL    HW216371   3.104   1.733   2.821
 5158SOL     OW16372   4.151   2.189   1.028
 5158SOL    HW116373   4.168   2.263   1.093
 5158SOL    HW216374   4.121   2.107   1.077
 5159SOL     OW16375   5.876   3.281   5.368
 5159SOL    HW116376   5.806   3.345   5.399
 5159SOL    HW216377   5.833   3.198   5.331
 5160SOL     OW16378   6.993   4.371   3.000
 5160SOL    HW116379   6.903   4.330   2.987
 5160SOL    HW216380   0.042   4.331   2.935
 5161SOL     OW16381   2.067   3.743   0.327
 5161SOL    HW116382   2.155   3.710   0.361
 5161SOL    HW216383   1.999   3.669   0.333
 5162SOL     OW16384   0.900   5.493   2.732
 5162SOL    HW116385   0.804   5.467   2.740
 5162SOL    HW216386   0.938   5.455   2.647
 5163SOL     OW16387   2.983   6.639   0.724
 5163SOL    HW116388   2.954   6.735   0.726
 5163SOL    HW216389   3.057   6.628   0.658
 5164SOL     OW16390   3.735   2.938   0.324
 5164SOL    HW116391   3.675   2.871   0.281
 5164SOL    HW216392   3.720   3.028   0.284
 5165SOL     OW16393   0.869   3.758   6.286
 5165SOL    HW116394   0.937   3.758   6.360
 5165SOL    HW216395   0.867   3.849   6.243
 5166SOL     OW16396   2.187   5.142   2.414
 5166SOL    HW116397   2.191   5.229   2.463
 5166SOL    HW216398   2.196   5.158   2.316
 5167SOL     OW16399   6.319   4.125   5.745
 5167SOL    HW116400   6.389   4.116   5.674
 5167SOL    HW216401   6.243   4.064   5.725
 5168SOL     OW16402   5.239   3.502   2.599
 5168SOL    HW116403   5.211   3.526   2.506
 5168SOL    HW216404   5.160   3.469   2.650
 5169SOL     OW16405   3.792   2.009   3.086
 5169SOL    HW116406   3.730   2.076   3.045
 5169SOL    HW216407   3.738   1.942   3.138
 5170SOL     OW16408   1.193   3.690   4.846
 5170SOL    HW116409   1.112   3.747   4.827
 5170SOL    HW216410   1.267   3.748   4.880
 5171SOL     OW16411   0.400   3.760   6.140
 5171SOL    HW116412   0.399   3.781   6.043
 5171SOL    HW216413   0.478   3.804   6.184
 5172SOL     OW16414   1.808   3.576   2.824
 5172SOL    HW116415   1.759   3.539   2.746
 5172SOL    HW216416   1.781   3.526   2.907
 5173SOL     OW16417   3.990   5.359   5.309
 5173SOL    HW116418   3.960   5.444   5.265
 5173SOL    HW216419   3.958   5.281   5.255
 5174SOL     OW16420   2.301   4.907   3.322
 5174SOL    HW116421   2.220   4.912   3.380
 5174SOL    HW216422   2.383   4.922   3.378
 5175SOL     OW16423   2.740   3.914   6.361
 5175SOL    HW116424   2.718   3.817   6.364
 5175SOL    HW216425   2.755   3.947   6.454
 5176SOL     OW16426   5.093   3.790   6.907
 5176SOL    HW116427   5.095   3.774   6.809
 5176SOL    HW216428   5.085   3.888   6.925
 5177SOL     OW16429   5.226   6.983   0.773
 5177SOL    HW116430   5.128   6.965   0.768
 5177SOL    HW216431   5.242   0.061   0.802
 5178SOL     OW16432   1.343   4.090   2.344
 5178SOL    HW116433   1.266   4.152   2.357
 5178SOL    HW216434   1.335   4.013   2.407
 5179SOL     OW16435   4.609   4.419   3.934
 5179SOL    HW116436   4.552   4.337   3.925
 5179SOL    HW216437   4.647   4.444   3.845
 5180SOL     OW16438   3.403   1.642   1.200
 5180SOL    HW116439   3.401   1.741   1.185
 5180SOL    HW216440   3.350   1.619   1.281
 5181SOL     OW16441   5.751   0.502   1.992
 5181SOL    HW116442   5.690   0.577   1.963
 5181SOL    HW216443   5.830   0.499   1.931
 5182SOL     OW16444   4.467   4.682   2.193
 5182SOL    HW116445   4.428   4.675   2.102
 5182SOL    HW216446   4.500   4.593   2.223
 5183SOL     OW16447   3.312   1.742   3.111
 5183SOL    HW116448   3.241   1.721   3.044
 5183SOL    HW216449   3.382   1.799   3.069
 5184SOL     OW16450   1.366   2.719   3.641
 5184SOL    HW116451   1.421   2.770   3.574
 5184SOL    HW216452   1.269   2.734   3.622
 5185SOL     OW16453   5.177   1.221   2.825
 5185SOL    HW116454   5.130   1.252   2.742
 5185SOL    HW216455   5.241   1.148   2.802
 5186SOL     OW16456   6.234   1.453   6.353
 5186SOL    HW116457   6.269   1.532   6.302
 5186SOL    HW216458   6.137   1.467   6.373
 5187SOL     OW16459   1.305   5.927   5.340
 5187SOL    HW116460   1.245   5.870   5.284
 5187SOL    HW216461   1.256   6.010   5.367
 5188SOL     OW16462   6.441   6.089   1.703
 5188SOL    HW116463   6.529   6.042   1.695
 5188SOL    HW216464   6.448   6.180   1.664
 5189SOL     OW16465   4.839   6.066   0.415
 5189SOL    HW116466   4.905   6.029   0.350
 5189SOL    HW216467   4.759   6.006   0.421
 5190SOL     OW16468   0.673   3.523   4.233
 5190SOL    HW116469   0.610   3.563   4.168
 5190SOL    HW216470   0.689   3.427   4.210
 5191SOL     OW16471   3.230   6.344   2.324
 5191SOL    HW116472   3.261   6.250   2.339
 5191SOL    HW216473   3.179   6.375   2.404
 5192SOL     OW16474   1.477   5.948   1.414
 5192SOL    HW116475   1.419   5.884   1.465
 5192SOL    HW216476   1.544   5.990   1.476
 5193SOL     OW16477   5.474   5.636   5.792
 5193SOL    HW116478   5.387   5.682   5.777
 5193SOL    HW216479   5.519   5.620   5.704
 5194SOL     OW16480   3.901   2.833   0.076
 5194SOL    HW116481   3.855   2.791   7.015
 5194SOL    HW216482   3.836   2.890   0.127
 5195SOL     OW16483   0.197   0.638   4.099
 5195SOL    HW116484   0.201   0.738   4.098
 5195SOL    HW216485   0.289   0.601   4.086
 5196SOL     OW16486   4.869   0.097   1.963
 5196SOL    HW116487   4.809   0.088   1.884
 5196SOL    HW216488   4.890   0.007   2.000
 5197SOL     OW16489   2.411   3.715   6.494
 5197SOL    HW116490   2.332   3.671   6.536
 5197SOL    HW216491   2.388   3.811   6.475
 5198SOL     OW16492   4.707   5.907   3.050
 5198SOL    HW116493   4.806   5.919   3.041
 5198SOL    HW216494   4.688   5.832   3.113
 5199SOL     OW16495   1.131   6.001   0.463
 5199SOL    HW116496   1.085   5.942   0.396
 5199SOL    HW216497   1.151   5.948   0.545
 5200SOL     OW16498   0.008   4.018   5.152
 5200SOL    HW116499   7.002   3.975   5.239
 5200SOL    HW216500   0.101   3.994   5.126
 5201SOL     OW16501   0.351   6.483   2.764
 5201SOL    HW116502   0.355   6.568   2.817
 5201SOL    HW216503   0.436   6.431   2.778
 5202SOL     OW16504   4.900   2.854   6.236
 5202SOL    HW116505   4.829   2.788   6.260
 5202SOL    HW216506   4.967   2.811   6.175
 5203SOL     OW16507   2.092   2.088   6.596
 5203SOL    HW116508   1.996   2.115   6.587
 5203SOL    HW216509   2.105   2.039   6.682
 5204SOL     OW16510   3.542   5.125   6.657
 5204SOL    HW116511   3.615   5.149   6.593
 5204SOL    HW216512   3.464   5.088   6.606
 5205SOL     OW16513   0.759   6.580   0.446
 5205SOL    HW116514   0.852   6.542   0.444
 5205SOL    HW216515   0.724   6.576   0.539
 5206SOL     OW16516   6.949   4.401   5.207
 5206SOL    HW116517   7.015   4.416   5.133
 5206SOL    HW216518   6.978   4.323   5.262
 5207SOL     OW16519   1.044   6.069   3.715
 5207SOL    HW116520   1.100   6.152   3.722
 5207SOL    HW216521   1.030   6.030   3.807
 5208SOL     OW16522   3.119   1.782   6.460
 5208SOL    HW116523   3.133   1.879   6.481
 5208SOL    HW216524   3.186   1.728   6.510
 5209SOL     OW16525   5.558   6.150   3.586
 5209SOL    HW116526   5.589   6.243   3.605
 5209SOL    HW216527   5.526   6.143   3.491
 5210SOL     OW16528   5.430   2.122   5.296
 5210SOL    HW116529   5.397   2.211   5.263
 5210SOL    HW216530   5.374   2.049   5.256
 5211SOL     OW16531   3.401   2.898   4.523
 5211SOL    HW116532   3.413   2.879   4.621
 5211SOL    HW216533   3.330   2.966   4.511
 5212SOL     OW16534   6.021   1.823   0.552
 5212SOL    HW116535   6.032   1.766   0.470
 5212SOL    HW216536   6.017   1.765   0.633
 5213SOL     OW16537   4.509   3.765   6.901
 5213SOL    HW116538   4.576   3.774   6.975
 5213SOL    HW216539   4.539   3.816   6.821
 5214SOL     OW16540   4.766   1.654   5.861
 5214SOL    HW116541   4.747   1.680   5.956
 5214SOL    HW216542   4.737   1.559   5.846
 5215SOL     OW16543   5.958   5.142   3.198
 5215SOL    HW116544   6.043   5.191   3.218
 5215SOL    HW216545   5.979   5.050   3.164
 5216SOL     OW16546   4.577   5.230   1.752
 5216SOL    HW116547   4.526   5.275   1.825
 5216SOL    HW216548   4.568   5.283   1.668
 5217SOL     OW16549   3.202   5.168   4.129
 5217SOL    HW116550   3.198   5.268   4.116
 5217SOL    HW216551   3.263   5.147   4.205
 5218SOL     OW16552   0.942   0.695   3.947
 5218SOL    HW116553   1.000   0.744   3.881
 5218SOL    HW216554   0.908   0.611   3.905
 5219SOL     OW16555   4.445   0.768   5.907
 5219SOL    HW116556   4.422   0.788   5.812
 5219SOL    HW216557   4.544   0.782   5.921
 5220SOL     OW16558   1.251   5.806   2.424
 5220SOL    HW116559   1.347   5.778   2.416
 5220SOL    HW216560   1.210   5.810   2.334
 5221SOL     OW16561   5.422   1.967   3.715
 5221SOL    HW116562   5.410   2.060   3.751
 5221SOL    HW216563   5.458   1.972   3.622
 5222SOL     OW16564   3.333   5.903   3.416
 5222SOL    HW116565   3.316   5.809   3.388
 5222SOL    HW216566   3.281   5.965   3.357
 5223SOL     OW16567   5.410   1.679   0.982
 5223SOL    HW116568   5.336   1.708   0.921
 5223SOL    HW216569   5.461   1.604   0.940
 5224SOL     OW16570   0.105   2.464   4.019
 5224SOL    HW116571   0.135   2.538   3.958
 5224SOL    HW216572   0.159   2.467   4.103
 5225SOL     OW16573   0.374   0.099   2.913
 5225SOL    HW116574   0.292   0.110   2.856
 5225SOL    HW216575   0.433   0.028   2.873
 5226SOL     OW16576   0.169   5.637   4.952
 5226SOL    HW116577   0.071   5.631   4.935
 5226SOL    HW216578   0.189   5.719   5.005
 5227SOL     OW16579   1.407   3.891   4.084
 5227SOL    HW116580   1.422   3.989   4.078
 5227SOL    HW216581   1.340   3.863   4.016
 5228SOL     OW16582   6.770   1.941   1.415
 5228SOL    HW116583   6.697   1.904   1.358
 5228SOL    HW216584   6.803   2.026   1.375
 5229SOL     OW16585   2.245   4.897   0.174
 5229SOL    HW116586   2.327   4.916   0.227
 5229SOL    HW216587   2.225   4.975   0.114
 5230SOL     OW16588   0.556   6.150   0.875
 5230SOL    HW116589   0.598   6.061   0.858
 5230SOL    HW216590   0.457   6.140   0.879
 5231SOL     OW16591   4.136   3.358   5.100
 5231SOL    HW116592   4.083   3.442   5.104
 5231SOL    HW216593   4.119   3.304   5.182
 5232SOL     OW16594   3.182   2.131   5.655
 5232SOL    HW116595   3.135   2.058   5.606
 5232SOL    HW216596   3.137   2.218   5.638
 5233SOL     OW16597   5.922   0.346   1.795
 5233SOL    HW116598   5.960   0.256   1.820
 5233SOL    HW216599   5.830   0.334   1.760
 5234SOL     OW16600   2.634   0.632   0.079
 5234SOL    HW116601   2.568   0.563   0.048
 5234SOL    HW216602   2.643   0.704   0.010
 5235SOL     OW16603   1.853   2.920   1.186
 5235SOL    HW116604   1.838   3.013   1.220
 5235SOL    HW216605   1.864   2.858   1.263
 5236SOL     OW16606   5.921   4.205   2.660
 5236SOL    HW116607   5.914   4.105   2.650
 5236SOL    HW216608   5.862   4.249   2.592
 5237SOL     OW16609   1.906   0.532   5.267
 5237SOL    HW116610   1.853   0.605   5.224
 5237SOL    HW216611   2.001   0.561   5.277
 5238SOL     OW16612   1.485   4.708   0.806
 5238SOL    HW116613   1.500   4.708   0.905
 5238SOL    HW216614   1.570   4.683   0.759
 5239SOL     OW16615   4.028   3.481   4.651
 5239SOL    HW116616   4.074   3.430   4.723
 5239SOL    HW216617   3.929   3.481   4.667
 5240SOL     OW16618   3.130   2.035   6.537
 5240SOL    HW116619   3.217   2.083   6.528
 5240SOL    HW216620   3.064   2.075   6.474
 5241SOL     OW16621   0.481   5.566   5.709
 5241SOL    HW116622   0.417   5.536   5.638
 5241SOL    HW216623   0.569   5.589   5.668
 5242SOL     OW16624   6.457   6.468   6.318
 5242SOL    HW116625   6.539   6.489   6.265
 5242SOL    HW216626   6.378   6.462   6.257
 5243SOL     OW16627   1.217   5.556   1.766
 5243SOL    HW116628   1.202   5.460   1.788
 5243SOL    HW216629   1.130   5.599   1.740
 5244SOL     OW16630   3.183   4.052   5.930
 5244SOL    HW116631   3.230   4.031   6.015
 5244SOL    HW216632   3.086   4.067   5.948
 5245SOL     OW16633   4.958   4.394   0.378
 5245SOL    HW116634   4.972   4.444   0.463
 5245SOL    HW216635   5.013   4.436   0.305
 5246SOL     OW16636   5.733   4.329   2.506
 5246SOL    HW116637   5.658   4.263   2.514
 5246SOL    HW216638   5.749   4.350   2.409
 5247SOL     OW16639   1.114   6.698   0.309
 5247SOL    HW116640   1.206   6.695   0.349
 5247SOL    HW216641   1.054   6.635   0.358
 5248SOL     OW16642   5.644   0.634   4.381
 5248SOL    HW116643   5.652   0.663   4.476
 5248SOL    HW216644   5.733   0.599   4.350
 5249SOL     OW16645   6.793   4.801   4.592
 5249SOL    HW116646   6.845   4.880   4.559
 5249SOL    HW216647   6.765   4.745   4.515
 5250SOL     OW16648   0.754   1.069   5.641
 5250SOL    HW116649   0.787   1.047   5.733
 5250SOL    HW216650   0.696   0.995   5.608
 5251SOL     OW16651   0.719   3.303   0.320
 5251SOL    HW116652   0.677   3.327   0.408
 5251SOL    HW216653   0.769   3.382   0.284
 5252SOL     OW16654   2.219   5.805   0.888
 5252SOL    HW116655   2.214   5.730   0.823
 5252SOL    HW216656   2.160   5.880   0.857
 5253SOL     OW16657   5.520   3.708   4.708
 5253SOL    HW116658   5.486   3.707   4.803
 5253SOL    HW216659   5.475   3.782   4.658
 5254SOL     OW16660   4.811   1.108   3.226
 5254SOL    HW116661   4.874   1.061   3.164
 5254SOL    HW216662   4.836   1.205   3.232
 5255SOL     OW16663   4.398   0.456   6.018
 5255SOL    HW116664   4.390   0.544   5.971
 5255SOL    HW216665   4.450   0.468   6.102
 5256SOL     OW16666   4.526   0.793   3.600
 5256SOL    HW116667   4.569   0.853   3.532
 5256SOL    HW216668   4.559   0.700   3.587
 5257SOL     OW16669   4.640   6.737   2.110
 5257SOL    HW116670   4.694   6.660   2.147
 5257SOL    HW216671   4.546   6.729   2.141
 5258SOL     OW16672   5.036   3.312   1.247
 5258SOL    HW116673   5.112   3.348   1.302
 5258SOL    HW216674   5.020   3.374   1.170
 5259SOL     OW16675   4.713   5.984   0.954
 5259SOL    HW116676   4.662   5.958   0.872
 5259SOL    HW216677   4.666   5.950   1.035
 5260SOL     OW16678   5.500   3.550   0.833
 5260SOL    HW116679   5.527   3.617   0.763
 5260SOL    HW216680   5.582   3.506   0.870
 5261SOL     OW16681   1.900   3.238   6.658
 5261SOL    HW116682   1.865   3.332   6.658
 5261SOL    HW216683   1.913   3.207   6.752
 5262SOL     OW16684   2.509   0.422   2.542
 5262SOL    HW116685   2.588   0.366   2.566
 5262SOL    HW216686   2.529   0.473   2.458
 5263SOL     OW16687   1.013   0.972   5.570
 5263SOL    HW116688   0.984   0.997   5.662
 5263SOL    HW216689   0.934   0.941   5.517
 5264SOL     OW16690   5.972   0.899   2.608
 5264SOL    HW116691   5.978   0.808   2.649
 5264SOL    HW216692   5.976   0.969   2.679
 5265SOL     OW16693   5.166   4.484   3.334
 5265SOL    HW116694   5.196   4.517   3.245
 5265SOL    HW216695   5.167   4.384   3.335
 5266SOL     OW16696   2.937   0.128   1.978
 5266SOL    HW116697   2.878   0.140   1.898
 5266SOL    HW216698   2.952   0.030   1.994
 5267SOL     OW16699   4.938   4.659   5.835
 5267SOL    HW116700   5.001   4.675   5.911
 5267SOL    HW216701   4.955   4.725   5.762
 5268SOL     OW16702   5.968   6.848   6.332
 5268SOL    HW116703   6.063   6.822   6.351
 5268SOL    HW216704   5.966   6.938   6.290
 5269SOL     OW16705   2.075   6.982   4.279
 5269SOL    HW116706   2.026   0.029   4.218
 5269SOL    HW216707   2.114   6.908   4.225
 5270SOL     OW16708   5.154   1.716   2.196
 5270SOL    HW116709   5.109   1.670   2.119
 5270SOL    HW216710   5.149   1.815   2.184
 5271SOL     OW16711   5.407   4.925   4.999
 5271SOL    HW116712   5.494   4.955   5.038
 5271SOL    HW216713   5.362   5.002   4.953
 5272SOL     OW16714   1.869   6.310   2.481
 5272SOL    HW116715   1.950   6.356   2.445
 5272SOL    HW216716   1.848   6.231   2.423
 5273SOL     OW16717   6.802   2.834   3.374
 5273SOL    HW116718   6.871   2.815   3.304
 5273SOL    HW216719   6.715   2.857   3.331
 5274SOL     OW16720   6.133   6.192   2.330
 5274SOL    HW116721   6.059   6.181   2.263
 5274SOL    HW216722   6.220   6.165   2.288
 5275SOL     OW16723   3.392   2.158   6.542
 5275SOL    HW116724   3.462   2.098   6.502
 5275SOL    HW216725   3.415   2.176   6.638
 5276SOL     OW16726   1.224   0.761   1.264
 5276SOL    HW116727   1.264   0.753   1.173
 5276SOL    HW216728   1.254   0.684   1.320
 5277SOL     OW16729   1.453   2.662   3.278
 5277SOL    HW116730   1.502   2.720   3.343
 5277SOL    HW216731   1.499   2.665   3.189
 5278SOL     OW16732   4.619   0.181   4.371
 5278SOL    HW116733   4.632   0.106   4.436
 5278SOL    HW216734   4.687   0.252   4.388
 5279SOL     OW16735   1.634   5.229   6.860
 5279SOL    HW116736   1.639   5.185   6.771
 5279SOL    HW216737   1.573   5.308   6.856
 5280SOL     OW16738   3.213   6.238   5.475
 5280SOL    HW116739   3.265   6.227   5.559
 5280SOL    HW216740   3.243   6.170   5.408
 5281SOL     OW16741   0.852   1.418   3.004
 5281SOL    HW116742   0.907   1.385   2.927
 5281SOL    HW216743   0.900   1.494   3.049
 5282SOL     OW16744   2.033   1.497   3.340
 5282SOL    HW116745   2.087   1.559   3.398
 5282SOL    HW216746   2.081   1.410   3.331
 5283SOL     OW16747   3.273   6.951   1.924
 5283SOL    HW116748   3.230   6.924   2.010
 5283SOL    HW216749   3.360   6.903   1.913
 5284SOL     OW16750   5.063   2.937   3.000
 5284SOL    HW116751   4.972   2.976   3.013
 5284SOL    HW216752   5.119   2.999   2.946
 5285SOL     OW16753   1.505   4.141   4.442
 5285SOL    HW116754   1.499   4.148   4.342
 5285SOL    HW216755   1.499   4.232   4.482
 5286SOL     OW16756   0.203   4.032   1.210
 5286SOL    HW116757   0.141   3.955   1.224
 5286SOL    HW216758   0.156   4.103   1.158
 5287SOL     OW16759   1.624   6.048   1.626
 5287SOL    HW116760   1.678   5.992   1.689
 5287SOL    HW216761   1.664   6.139   1.620
 5288SOL     OW16762   3.904   0.740   2.530
 5288SOL    HW116763   3.872   0.815   2.472
 5288SOL    HW216764   3.997   0.759   2.562
 5289SOL     OW16765   1.630   5.459   6.393
 5289SOL    HW116766   1.646   5.399   6.315
 5289SOL    HW216767   1.671   5.549   6.376
 5290SOL     OW16768   1.429   4.414   5.382
 5290SOL    HW116769   1.397   4.509   5.381
 5290SOL    HW216770   1.514   4.408   5.433
 5291SOL     OW16771   3.101   5.188   5.640
 5291SOL    HW116772   3.014   5.165   5.683
 5291SOL    HW216773   3.108   5.287   5.630
 5292SOL     OW16774   6.269   5.086   6.723
 5292SOL    HW116775   6.213   5.140   6.660
 5292SOL    HW216776   6.320   5.146   6.783
 5293SOL     OW16777   1.278   0.200   4.279
 5293SOL    HW116778   1.192   0.215   4.231
 5293SOL    HW216779   1.261   0.155   4.367
 5294SOL     OW16780   6.042   3.069   4.234
 5294SOL    HW116781   6.138   3.041   4.240
 5294SOL    HW216782   5.995   3.012   4.166
 5295SOL     OW16783   4.083   0.947   2.579
 5295SOL    HW116784   4.089   1.046   2.564
 5295SOL    HW216785   4.170   0.905   2.555
 5296SOL     OW16786   2.510   5.196   0.687
 5296SOL    HW116787   2.543   5.177   0.595
 5296SOL    HW216788   2.432   5.259   0.682
 5297SOL     OW16789   2.957   2.429   0.903
 5297SOL    HW116790   2.915   2.520   0.903
 5297SOL    HW216791   3.008   2.416   0.818
 5298SOL     OW16792   1.052   5.663   0.015
 5298SOL    HW116793   0.978   5.608   0.053
 5298SOL    HW216794   1.140   5.632   0.052
 5299SOL     OW16795   2.350   2.669   0.942
 5299SOL    HW116796   2.302   2.652   0.856
 5299SOL    HW216797   2.415   2.595   0.960
 5300SOL     OW16798   1.000   6.277   1.301
 5300SOL    HW116799   0.911   6.322   1.311
 5300SOL    HW216800   0.994   6.184   1.336
 5301SOL     OW16801   3.633   2.560   6.354
 5301SOL    HW116802   3.637   2.647   6.403
 5301SOL    HW216803   3.676   2.488   6.410
 5302SOL     OW16804   5.617   5.503   4.134
 5302SOL    HW116805   5.606   5.496   4.034
 5302SOL    HW216806   5.678   5.579   4.155
 5303SOL     OW16807   6.493   5.813   3.158
 5303SOL    HW116808   6.520   5.900   3.197
 5303SOL    HW216809   6.457   5.754   3.230
 5304SOL     OW16810   5.442   1.311   6.295
 5304SOL    HW116811   5.358   1.326   6.346
 5304SOL    HW216812   5.509   1.264   6.353
 5305SOL     OW16813   1.039   5.426   2.989
 5305SOL    HW116814   0.981   5.425   3.070
 5305SOL    HW216815   0.982   5.439   2.908
 5306SOL     OW16816   0.548   4.361   4.791
 5306SOL    HW116817   0.622   4.428   4.780
 5306SOL    HW216818   0.576   4.274   4.750
 5307SOL     OW16819   4.453   0.381   0.832
 5307SOL    HW116820   4.450   0.441   0.912
 5307SOL    HW216821   4.383   0.311   0.840
 5308SOL     OW16822   0.811   6.082   3.587
 5308SOL    HW116823   0.756   6.074   3.670
 5308SOL    HW216824   0.907   6.096   3.612
 5309SOL     OW16825   4.198   4.567   1.458
 5309SOL    HW116826   4.111   4.573   1.410
 5309SOL    HW216827   4.188   4.604   1.550
 5310SOL     OW16828   6.267   3.715   2.243
 5310SOL    HW116829   6.237   3.800   2.287
 5310SOL    HW216830   6.311   3.737   2.155
 5311SOL     OW16831   6.380   5.799   0.497
 5311SOL    HW116832   6.385   5.744   0.581
 5311SOL    HW216833   6.463   5.854   0.489
 5312SOL     OW16834   0.425   5.209   1.975
 5312SOL    HW116835   0.380   5.179   1.891
 5312SOL    HW216836   0.520   5.234   1.955
 5313SOL     OW16837   1.732   4.300   6.277
 5313SOL    HW116838   1.779   4.382   6.244
 5313SOL    HW216839   1.729   4.303   6.377
 5314SOL     OW16840   3.258   6.467   6.945
 5314SOL    HW116841   3.220   6.520   0.004
 5314SOL    HW216842   3.284   6.375   6.977
 5315SOL     OW16843   4.914   3.391   1.521
 5315SOL    HW116844   4.905   3.292   1.537
 5315SOL    HW216845   4.864   3.416   1.438
 5316SOL     OW16846   0.304   4.710   4.797
 5316SOL    HW116847   0.221   4.762   4.817
 5316SOL    HW216848   0.368   4.719   4.873
 5317SOL     OW16849   6.731   7.008   5.125
 5317SOL    HW116850   6.635   6.989   5.145
 5317SOL    HW216851   6.738   0.064   5.056
 5318SOL     OW16852   6.773   2.515   6.189
 5318SOL    HW116853   6.694   2.508   6.128
 5318SOL    HW216854   6.822   2.600   6.170
 5319SOL     OW16855   4.082   6.742   6.665
 5319SOL    HW116856   4.102   6.658   6.715
 5319SOL    HW216857   4.021   6.799   6.719
 5320SOL     OW16858   6.360   5.206   0.165
 5320SOL    HW116859   6.319   5.296   0.182
 5320SOL    HW216860   6.363   5.189   0.067
 5321SOL     OW16861   0.881   4.081   3.431
 5321SOL    HW116862   0.952   4.015   3.405
 5321SOL    HW216863   0.912   4.173   3.410
 5322SOL     OW16864   4.522   6.074   6.512
 5322SOL    HW116865   4.450   6.006   6.500
 5322SOL    HW216866   4.533   6.127   6.428
 5323SOL     OW16867   3.466   2.454   6.952
 5323SOL    HW116868   3.431   2.489   0.022
 5323SOL    HW216869   3.483   2.530   6.889
 5324SOL     OW16870   4.398   2.214   0.887
 5324SOL    HW116871   4.337   2.186   0.961
 5324SOL    HW216872   4.345   2.255   0.813
 5325SOL     OW16873   4.271   0.570   4.619
 5325SOL    HW116874   4.318   0.559   4.532
 5325SOL    HW216875   4.292   0.659   4.658
 5326SOL     OW16876   0.308   5.457   4.036
 5326SOL    HW116877   0.294   5.406   4.121
 5326SOL    HW216878   0.232   5.438   3.973
 5327SOL     OW16879   5.623   3.499   5.146
 5327SOL    HW116880   5.571   3.423   5.108
 5327SOL    HW216881   5.719   3.472   5.158
 5328SOL     OW16882   4.321   2.761   5.560
 5328SOL    HW116883   4.329   2.711   5.474
 5328SOL    HW216884   4.259   2.839   5.547
 5329SOL     OW16885   6.974   4.433   6.627
 5329SOL    HW116886   6.932   4.519   6.656
 5329SOL    HW216887   0.046   4.452   6.585
 5330SOL     OW16888   3.659   4.091   5.485
 5330SOL    HW116889   3.583   4.026   5.491
 5330SOL    HW216890   3.663   4.128   5.393
 5331SOL     OW16891   4.831   1.218   0.686
 5331SOL    HW116892   4.761   1.282   0.719
 5331SOL    HW216893   4.857   1.156   0.760
 5332SOL     OW16894   0.480   3.900   1.109
 5332SOL    HW116895   0.453   3.838   1.035
 5332SOL    HW216896   0.397   3.935   1.154
 5333SOL     OW16897   1.304   1.017   3.242
 5333SOL    HW116898   1.348   1.026   3.331
 5333SOL    HW216899   1.273   0.923   3.229
 5334SOL     OW16900   3.989   6.637   4.178
 5334SOL    HW116901   4.001   6.726   4.221
 5334SOL    HW216902   3.897   6.630   4.140
 5335SOL     OW16903   6.208   5.741   2.343
 5335SOL    HW116904   6.143   5.693   2.403
 5335SOL    HW216905   6.264   5.804   2.396
 5336SOL     OW16906   1.939   2.292   3.286
 5336SOL    HW116907   1.978   2.231   3.355
 5336SOL    HW216908   2.005   2.364   3.264
 5337SOL     OW16909   5.403   4.394   2.341
 5337SOL    HW116910   5.333   4.434   2.281
 5337SOL    HW216911   5.436   4.309   2.300
 5338SOL     OW16912   5.802   0.715   5.514
 5338SOL    HW116913   5.819   0.629   5.562
 5338SOL    HW216914   5.878   0.778   5.530
 5339SOL     OW16915   6.547   2.282   3.668
 5339SOL    HW116916   6.472   2.250   3.610
 5339SOL    HW216917   6.634   2.267   3.621
 5340SOL     OW16918   5.249   3.002   1.032
 5340SOL    HW116919   5.149   3.005   1.039
 5340SOL    HW216920   5.289   3.007   1.123
 5341SOL     OW16921   3.283   4.630   5.921
 5341SOL    HW116922   3.296   4.586   5.832
 5341SOL    HW216923   3.289   4.562   5.993
 5342SOL     OW16924   4.603   6.330   4.129
 5342SOL    HW116925   4.675   6.307   4.064
 5342SOL    HW216926   4.642   6.381   4.205
 5343SOL     OW16927   3.446   3.487   4.699
 5343SOL    HW116928   3.534   3.516   4.739
 5343SOL    HW216929   3.448   3.389   4.682
 5344SOL     OW16930   1.895   1.962   1.338
 5344SOL    HW116931   1.857   1.958   1.430
 5344SOL    HW216932   1.995   1.957   1.342
 5345SOL     OW16933   3.426   6.672   0.551
 5345SOL    HW116934   3.449   6.651   0.646
 5345SOL    HW216935   3.409   6.770   0.542
 5346SOL     OW16936   3.414   5.664   4.033
 5346SOL    HW116937   3.464   5.750   4.034
 5346SOL    HW216938   3.419   5.622   3.942
 5347SOL     OW16939   0.113   2.845   1.904
 5347SOL    HW116940   0.061   2.929   1.920
 5347SOL    HW216941   0.054   2.776   1.862
 5348SOL     OW16942   6.586   1.958   1.029
 5348SOL    HW116943   6.682   1.945   1.004
 5348SOL    HW216944   6.544   2.024   0.967
 5349SOL     OW16945   2.516   2.944   0.707
 5349SOL    HW116946   2.504   3.033   0.664
 5349SOL    HW216947   2.471   2.874   0.651
 5350SOL     OW16948   1.594   6.957   5.079
 5350SOL    HW116949   1.505   6.986   5.045
 5350SOL    HW216950   1.625   6.878   5.026
 5351SOL     OW16951   6.396   4.999   2.245
 5351SOL    HW116952   6.487   4.967   2.270
 5351SOL    HW216953   6.401   5.096   2.221
 5352SOL     OW16954   1.803   5.412   3.204
 5352SOL    HW116955   1.752   5.485   3.157
 5352SOL    HW216956   1.775   5.323   3.167
 5353SOL     OW16957   3.728   5.190   4.322
 5353SOL    HW116958   3.785   5.173   4.402
 5353SOL    HW216959   3.732   5.111   4.261
 5354SOL     OW16960   2.328   5.029   1.368
 5354SOL    HW116961   2.371   4.943   1.395
 5354SOL    HW216962   2.358   5.103   1.429
 5355SOL     OW16963   6.376   4.571   4.604
 5355SOL    HW116964   6.430   4.590   4.686
 5355SOL    HW216965   6.291   4.525   4.630
 5356SOL     OW16966   6.418   4.313   2.766
 5356SOL    HW116967   6.448   4.221   2.790
 5356SOL    HW216968   6.322   4.310   2.738
 5357SOL     OW16969   3.136   6.317   0.196
 5357SOL    HW116970   3.044   6.278   0.190
 5357SOL    HW216971   3.131   6.415   0.176
 5358SOL     OW16972   4.991   1.096   0.174
 5358SOL    HW116973   4.901   1.134   0.197
 5358SOL    HW216974   5.008   1.015   0.229
 5359SOL     OW16975   1.614   0.786   5.681
 5359SOL    HW116976   1.635   0.810   5.775
 5359SOL    HW216977   1.698   0.781   5.627
 5360SOL     OW16978   3.380   5.986   3.690
 5360SOL    HW116979   3.448   5.913   3.690
 5360SOL    HW216980   3.342   5.997   3.598
 5361SOL     OW16981   3.052   1.223   4.849
 5361SOL    HW116982   2.970   1.281   4.847
 5361SOL    HW216983   3.079   1.200   4.756
 5362SOL     OW16984   6.274   6.208   2.762
 5362SOL    HW116985   6.301   6.302   2.740
 5362SOL    HW216986   6.276   6.152   2.680
 5363SOL     OW16987   6.633   6.907   5.495
 5363SOL    HW116988   6.719   6.904   5.445
 5363SOL    HW216989   6.651   6.913   5.593
 5364SOL     OW16990   6.945   6.834   2.285
 5364SOL    HW116991   6.908   6.909   2.231
 5364SOL    HW216992   6.870   6.778   2.321
 5365SOL     OW16993   4.163   3.129   1.083
 5365SOL    HW116994   4.118   3.134   1.172
 5365SOL    HW216995   4.134   3.046   1.036
 5366SOL     OW16996   5.830   5.943   1.352
 5366SOL    HW116997   5.882   5.953   1.437
 5366SOL    HW216998   5.892   5.956   1.274
 5367SOL     OW16999   0.630   6.679   0.695
 5367SOL    HW117000   0.671   6.633   0.774
 5367SOL    HW217001   0.647   6.777   0.700
 5368SOL     OW17002   5.469   0.187   2.460
 5368SOL    HW117003   5.390   0.220   2.512
 5368SOL    HW217004   5.438   0.141   2.377
 5369SOL     OW17005   2.723   6.615   1.018
 5369SOL    HW117006   2.743   6.603   1.115
 5369SOL    HW217007   2.742   6.710   0.992
 5370SOL     OW17008   4.685   2.220   1.490
 5370SOL    HW117009   4.673   2.241   1.587
 5370SOL    HW217010   4.602   2.245   1.440
 5371SOL     OW17011   0.562   3.799   5.357
 5371SOL    HW117012   0.484   3.783   5.417
 5371SOL    HW217013   0.640   3.745   5.387
 5372SOL     OW17014   1.707   6.152   3.285
 5372SOL    HW117015   1.691   6.063   3.328
 5372SOL    HW217016   1.779   6.143   3.216
 5373SOL     OW17017   3.613   6.529   4.402
 5373SOL    HW117018   3.670   6.460   4.359
 5373SOL    HW217019   3.661   6.617   4.404
 5374SOL     OW17020   2.182   4.593   0.796
 5374SOL    HW117021   2.177   4.495   0.812
 5374SOL    HW217022   2.115   4.640   0.853
 5375SOL     OW17023   0.323   5.445   4.504
 5375SOL    HW117024   0.311   5.544   4.510
 5375SOL    HW217025   0.414   5.420   4.536
 5376SOL     OW17026   1.523   2.788   1.226
 5376SOL    HW117027   1.567   2.845   1.157
 5376SOL    HW217028   1.570   2.799   1.313
 5377SOL     OW17029   0.099   6.717   2.094
 5377SOL    HW117030   0.127   6.774   2.017
 5377SOL    HW217031   0.036   6.770   2.152
 5378SOL     OW17032   7.014   0.457   2.639
 5378SOL    HW117033   0.069   0.472   2.708
 5378SOL    HW217034   6.958   0.378   2.665
 5379SOL     OW17035   0.878   4.951   4.880
 5379SOL    HW117036   0.906   4.903   4.797
 5379SOL    HW217037   0.906   4.898   4.960
 5380SOL     OW17038   2.862   1.103   2.997
 5380SOL    HW117039   2.887   1.008   2.978
 5380SOL    HW217040   2.794   1.105   3.070
 5381SOL     OW17041   6.303   4.751   2.393
 5381SOL    HW117042   6.261   4.761   2.484
 5381SOL    HW217043   6.299   4.839   2.345
 5382SOL     OW17044   2.847   1.292   2.132
 5382SOL    HW117045   2.779   1.351   2.087
 5382SOL    HW217046   2.938   1.333   2.123
 5383SOL     OW17047   2.027   2.015   5.285
 5383SOL    HW117048   2.056   1.941   5.224
 5383SOL    HW217049   2.087   2.094   5.273
 5384SOL     OW17050   5.861   6.929   5.197
 5384SOL    HW117051   5.921   6.927   5.117
 5384SOL    HW217052   5.915   6.918   5.280
 5385SOL     OW17053   3.626   3.436   3.955
 5385SOL    HW117054   3.706   3.481   3.995
 5385SOL    HW217055   3.580   3.382   4.025
 5386SOL     OW17056   4.802   1.235   3.969
 5386SOL    HW117057   4.752   1.242   4.056
 5386SOL    HW217058   4.821   1.327   3.935
 5387SOL     OW17059   2.001   6.802   3.284
 5387SOL    HW117060   2.056   6.730   3.327
 5387SOL    HW217061   1.983   6.874   3.351
 5388SOL     OW17062   0.256   1.867   3.363
 5388SOL    HW117063   0.329   1.836   3.424
 5388SOL    HW217064   0.170   1.824   3.390
 5389SOL     OW17065   3.770   1.519   3.265
 5389SOL    HW117066   3.703   1.452   3.233
 5389SOL    HW217067   3.724   1.606   3.283
 5390SOL     OW17068   4.753   4.161   3.219
 5390SOL    HW117069   4.700   4.186   3.300
 5390SOL    HW217070   4.803   4.077   3.238
 5391SOL     OW17071   2.693   1.287   1.042
 5391SOL    HW117072   2.655   1.368   0.996
 5391SOL    HW217073   2.625   1.214   1.043
 5392SOL     OW17074   5.445   3.579   1.221
 5392SOL    HW117075   5.362   3.634   1.216
 5392SOL    HW217076   5.466   3.540   1.131
 5393SOL     OW17077   4.974   0.266   5.603
 5393SOL    HW117078   4.944   0.345   5.551
 5393SOL    HW217079   4.907   0.247   5.676
 5394SOL     OW17080   0.508   5.610   0.878
 5394SOL    HW117081   0.539   5.526   0.923
 5394SOL    HW217082   0.409   5.621   0.893
 5395SOL     OW17083   4.676   1.093   1.191
 5395SOL    HW117084   4.680   1.121   1.287
 5395SOL    HW217085   4.758   1.123   1.143
 5396SOL     OW17086   5.270   4.307   1.782
 5396SOL    HW117087   5.235   4.397   1.809
 5396SOL    HW217088   5.352   4.286   1.835
 5397SOL     OW17089   0.792   2.763   1.427
 5397SOL    HW117090   0.785   2.723   1.519
 5397SOL    HW217091   0.871   2.725   1.380
 5398SOL     OW17092   2.883   2.318   3.968
 5398SOL    HW117093   2.967   2.370   3.972
 5398SOL    HW217094   2.879   2.266   3.883
 5399SOL     OW17095   2.443   6.440   1.030
 5399SOL    HW117096   2.492   6.527   1.025
 5399SOL    HW217097   2.349   6.457   1.062
 5400SOL     OW17098   3.504   3.731   6.862
 5400SOL    HW117099   3.458   3.644   6.848
 5400SOL    HW217100   3.435   3.803   6.874
 5401SOL     OW17101   6.177   4.463   2.485
 5401SOL    HW117102   6.231   4.544   2.507
 5401SOL    HW217103   6.095   4.490   2.433
 5402SOL     OW17104   2.098   6.040   1.878
 5402SOL    HW117105   2.116   5.949   1.842
 5402SOL    HW217106   2.184   6.089   1.890
 5403SOL     OW17107   5.960   2.813   5.430
 5403SOL    HW117108   5.969   2.883   5.359
 5403SOL    HW217109   5.919   2.731   5.390
 5404SOL     OW17110   0.809   0.302   3.011
 5404SOL    HW117111   0.711   0.283   3.008
 5404SOL    HW217112   0.825   0.399   2.995
 5405SOL     OW17113   5.549   6.045   0.352
 5405SOL    HW117114   5.502   5.981   0.292
 5405SOL    HW217115   5.646   6.051   0.325
 5406SOL     OW17116   1.873   6.912   5.540
 5406SOL    HW117117   1.815   6.946   5.466
 5406SOL    HW217118   1.898   6.816   5.522
 5407SOL     OW17119   3.885   1.630   1.813
 5407SOL    HW117120   3.967   1.576   1.794
 5407SOL    HW217121   3.838   1.652   1.727
 5408SOL     OW17122   3.115   0.729   5.609
 5408SOL    HW117123   3.130   0.821   5.644
 5408SOL    HW217124   3.016   0.713   5.600
 5409SOL     OW17125   0.092   2.006   3.105
 5409SOL    HW117126   0.112   2.101   3.128
 5409SOL    HW217127   0.094   1.950   3.188
 5410SOL     OW17128   1.636   2.507   6.828
 5410SOL    HW117129   1.681   2.471   6.747
 5410SOL    HW217130   1.556   2.560   6.802
 5411SOL     OW17131   6.142   4.894   5.570
 5411SOL    HW117132   6.212   4.840   5.525
 5411SOL    HW217133   6.171   4.913   5.664
 5412SOL     OW17134   3.880   1.264   6.656
 5412SOL    HW117135   3.882   1.313   6.569
 5412SOL    HW217136   3.861   1.167   6.639
 5413SOL     OW17137   0.424   0.266   1.042
 5413SOL    HW117138   0.458   0.345   0.990
 5413SOL    HW217139   0.474   0.184   1.013
 5414SOL     OW17140   6.244   3.359   5.159
 5414SOL    HW117141   6.208   3.385   5.070
 5414SOL    HW217142   6.283   3.439   5.205
 5415SOL     OW17143   1.060   6.053   1.457
 5415SOL    HW117144   1.091   6.074   1.550
 5415SOL    HW217145   1.138   6.024   1.402
 5416SOL     OW17146   3.269   4.883   6.046
 5416SOL    HW117147   3.289   4.804   5.988
 5416SOL    HW217148   3.170   4.894   6.055
 5417SOL     OW17149   4.314   6.408   4.574
 5417SOL    HW117150   4.308   6.388   4.672
 5417SOL    HW217151   4.322   6.322   4.524
 5418SOL     OW17152   4.832   0.958   4.216
 5418SOL    HW117153   4.772   1.039   4.221
 5418SOL    HW217154   4.851   0.937   4.120
 5419SOL     OW17155   3.958   5.280   6.848
 5419SOL    HW117156   3.946   5.340   6.769
 5419SOL    HW217157   3.984   5.189   6.817
 5420SOL     OW17158   2.049   3.366   1.594
 5420SOL    HW117159   2.044   3.455   1.550
 5420SOL    HW217160   2.017   3.295   1.531
 5421SOL     OW17161   2.725   4.700   3.291
 5421SOL    HW117162   2.779   4.619   3.265
 5421SOL    HW217163   2.757   4.779   3.238
 5422SOL     OW17164   0.875   5.738   5.079
 5422SOL    HW117165   0.817   5.661   5.053
 5422SOL    HW217166   0.831   5.788   5.153
 5423SOL     OW17167   6.279   3.729   0.087
 5423SOL    HW117168   6.353   3.780   0.133
 5423SOL    HW217169   6.301   3.720   7.006
 5424SOL     OW17170   5.965   3.721   4.148
 5424SOL    HW117171   5.903   3.769   4.210
 5424SOL    HW217172   5.913   3.659   4.089
 5425SOL     OW17173   5.215   2.037   4.095
 5425SOL    HW117174   5.188   2.133   4.087
 5425SOL    HW217175   5.175   1.999   4.178
 5426SOL     OW17176   6.360   5.173   3.787
 5426SOL    HW117177   6.337   5.079   3.764
 5426SOL    HW217178   6.390   5.178   3.883
 5427SOL     OW17179   5.521   4.752   0.695
 5427SOL    HW117180   5.464   4.810   0.636
 5427SOL    HW217181   5.560   4.678   0.641
 5428SOL     OW17182   6.297   7.015   1.945
 5428SOL    HW117183   6.330   0.091   1.929
 5428SOL    HW217184   6.361   6.949   1.907
 5429SOL     OW17185   1.045   0.830   5.278
 5429SOL    HW117186   1.055   0.736   5.311
 5429SOL    HW217187   1.126   0.883   5.302
 5430SOL     OW17188   2.538   2.258   6.539
 5430SOL    HW117189   2.451   2.246   6.586
 5430SOL    HW217190   2.527   2.237   6.442
 5431SOL     OW17191   3.244   4.469   6.119
 5431SOL    HW117192   3.282   4.400   6.181
 5431SOL    HW217193   3.162   4.432   6.075
 5432SOL     OW17194   3.206   5.589   6.243
 5432SOL    HW117195   3.251   5.571   6.330
 5432SOL    HW217196   3.182   5.686   6.237
 5433SOL     OW17197   0.349   1.151   2.966
 5433SOL    HW117198   0.415   1.096   3.018
 5433SOL    HW217199   0.333   1.237   3.015
 5434SOL     OW17200   4.281   1.249   4.874
 5434SOL    HW117201   4.371   1.276   4.908
 5434SOL    HW217202   4.217   1.325   4.884
 5435SOL     OW17203   6.346   2.240   1.322
 5435SOL    HW117204   6.436   2.256   1.281
 5435SOL    HW217205   6.355   2.176   1.399
 5436SOL     OW17206   5.559   4.571   4.434
 5436SOL    HW117207   5.638   4.629   4.416
 5436SOL    HW217208   5.554   4.499   4.364
 5437SOL     OW17209   2.861   5.108   5.732
 5437SOL    HW117210   2.816   5.183   5.781
 5437SOL    HW217211   2.811   5.023   5.749
 5438SOL     OW17212   6.602   3.995   2.315
 5438SOL    HW117213   6.519   3.994   2.258
 5438SOL    HW217214   6.637   4.088   2.321
 5439SOL     OW17215   6.993   2.571   6.902
 5439SOL    HW117216   6.993   2.473   6.924
 5439SOL    HW217217   6.921   2.589   6.835
 5440SOL     OW17218   6.803   0.135   3.377
 5440SOL    HW117219   6.792   0.174   3.285
 5440SOL    HW217220   6.792   0.207   3.445
 5441SOL     OW17221   4.664   2.784   3.325
 5441SOL    HW117222   4.638   2.697   3.366
 5441SOL    HW217223   4.598   2.809   3.254
 5442SOL     OW17224   2.890   6.780   3.523
 5442SOL    HW117225   2.967   6.777   3.586
 5442SOL    HW217226   2.805   6.760   3.573
 5443SOL     OW17227   3.008   5.899   4.267
 5443SOL    HW117228   3.066   5.918   4.188
 5443SOL    HW217229   3.054   5.832   4.326
 5444SOL     OW17230   0.049   0.643   3.230
 5444SOL    HW117231   0.107   0.567   3.259
 5444SOL    HW217232   0.083   0.679   3.143
 5445SOL     OW17233   6.401   4.260   4.114
 5445SOL    HW117234   6.308   4.296   4.107
 5445SOL    HW217235   6.466   4.336   4.124
 5446SOL     OW17236   5.811   5.139   5.043
 5446SOL    HW117237   5.884   5.152   5.110
 5446SOL    HW217238   5.785   5.227   5.004
 5447SOL     OW17239   1.209   1.901   0.754
 5447SOL    HW117240   1.166   1.992   0.750
 5447SOL    HW217241   1.156   1.837   0.698
 5448SOL     OW17242   5.588   4.361   4.277
 5448SOL    HW117243   5.560   4.267   4.293
 5448SOL    HW217244   5.677   4.362   4.231
 5449SOL     OW17245   1.893   1.473   0.744
 5449SOL    HW117246   1.860   1.448   0.653
 5449SOL    HW217247   1.919   1.570   0.745
 5450SOL     OW17248   3.314   0.301   0.858
 5450SOL    HW117249   3.268   0.318   0.945
 5450SOL    HW217250   3.295   0.208   0.828
 5451SOL     OW17251   2.208   6.054   3.835
 5451SOL    HW117252   2.176   6.006   3.917
 5451SOL    HW217253   2.308   6.049   3.830
 5452SOL     OW17254   3.009   4.033   6.861
 5452SOL    HW117255   2.963   3.957   6.907
 5452SOL    HW217256   3.083   3.998   6.804
 5453SOL     OW17257   5.517   4.167   1.819
 5453SOL    HW117258   5.496   4.074   1.849
 5453SOL    HW217259   5.515   4.171   1.719
 5454SOL     OW17260   5.426   5.284   6.009
 5454SOL    HW117261   5.337   5.270   5.964
 5454SOL    HW217262   5.444   5.382   6.017
 5455SOL     OW17263   0.022   2.246   2.990
 5455SOL    HW117264   7.009   2.184   2.917
 5455SOL    HW217265   6.978   2.236   3.069
 5456SOL     OW17266   2.752   0.053   0.319
 5456SOL    HW117267   2.805   0.063   0.234
 5456SOL    HW217268   2.782   6.988   0.368
 5457SOL     OW17269   0.396   2.227   1.964
 5457SOL    HW117270   0.378   2.325   1.967
 5457SOL    HW217271   0.329   2.182   1.905
 5458SOL     OW17272   0.671   5.007   0.531
 5458SOL    HW117273   0.670   4.917   0.575
 5458SOL    HW217274   0.616   5.071   0.585
 5459SOL     OW17275   3.470   3.604   6.523
 5459SOL    HW117276   3.464   3.578   6.426
 5459SOL    HW217277   3.547   3.666   6.536
 5460SOL     OW17278   3.543   6.388   2.839
 5460SOL    HW117279   3.569   6.345   2.926
 5460SOL    HW217280   3.621   6.441   2.804
 5461SOL     OW17281   0.454   0.940   5.526
 5461SOL    HW117282   0.447   1.016   5.461
 5461SOL    HW217283   0.362   0.909   5.550
 5462SOL     OW17284   5.889   0.022   0.882
 5462SOL    HW117285   5.865   0.085   0.808
 5462SOL    HW217286   5.824   0.033   0.958
 5463SOL     OW17287   0.119   1.139   6.826
 5463SOL    HW117288   0.124   1.235   6.854
 5463SOL    HW217289   0.109   1.081   6.907
 5464SOL     OW17290   6.611   0.264   4.497
 5464SOL    HW117291   6.600   0.177   4.450
 5464SOL    HW217292   6.661   0.328   4.439
 5465SOL     OW17293   4.740   0.630   4.614
 5465SOL    HW117294   4.725   0.694   4.538
 5465SOL    HW217295   4.833   0.594   4.609
 5466SOL     OW17296   5.164   3.046   4.995
 5466SOL    HW117297   5.212   3.046   5.083
 5466SOL    HW217298   5.073   3.086   5.006
 5467SOL     OW17299   5.247   3.970   3.326
 5467SOL    HW117300   5.270   3.890   3.382
 5467SOL    HW217301   5.248   3.945   3.229
 5468SOL     OW17302   6.795   2.702   3.873
 5468SOL    HW117303   6.705   2.730   3.905
 5468SOL    HW217304   6.793   2.691   3.773
 5469SOL     OW17305   2.927   6.332   5.823
 5469SOL    HW117306   2.996   6.306   5.891
 5469SOL    HW217307   2.955   6.416   5.777
 5470SOL     OW17308   3.715   5.398   3.236
 5470SOL    HW117309   3.700   5.487   3.279
 5470SOL    HW217310   3.635   5.340   3.253
 5471SOL     OW17311   5.934   0.145   3.363
 5471SOL    HW117312   5.990   0.071   3.400
 5471SOL    HW217313   5.891   0.195   3.437
 5472SOL     OW17314   2.652   3.753   6.656
 5472SOL    HW117315   2.600   3.731   6.738
 5472SOL    HW217316   2.591   3.758   6.578
 5473SOL     OW17317   1.378   3.398   1.760
 5473SOL    HW117318   1.427   3.337   1.822
 5473SOL    HW217319   1.438   3.425   1.685
 5474SOL     OW17320   1.236   4.399   3.987
 5474SOL    HW117321   1.175   4.323   3.964
 5474SOL    HW217322   1.257   4.397   4.084
 5475SOL     OW17323   1.913   2.593   0.881
 5475SOL    HW117324   1.992   2.544   0.847
 5475SOL    HW217325   1.939   2.688   0.901
 5476SOL     OW17326   2.085   4.198   5.047
 5476SOL    HW117327   2.160   4.134   5.027
 5476SOL    HW217328   2.123   4.286   5.074
 5477SOL     OW17329   2.138   4.421   2.356
 5477SOL    HW117330   2.129   4.457   2.449
 5477SOL    HW217331   2.076   4.344   2.344
 5478SOL     OW17332   3.119   6.383   4.468
 5478SOL    HW117333   3.124   6.317   4.392
 5478SOL    HW217334   3.200   6.441   4.466
 5479SOL     OW17335   5.333   1.223   6.019
 5479SOL    HW117336   5.282   1.226   6.105
 5479SOL    HW217337   5.310   1.139   5.969
 5480SOL     OW17338   5.882   5.398   4.208
 5480SOL    HW117339   5.942   5.477   4.210
 5480SOL    HW217340   5.787   5.429   4.203
 5481SOL     OW17341   4.587   1.524   4.562
 5481SOL    HW117342   4.517   1.458   4.590
 5481SOL    HW217343   4.582   1.605   4.620
 5482SOL     OW17344   3.705   4.628   1.586
 5482SOL    HW117345   3.644   4.628   1.665
 5482SOL    HW217346   3.797   4.653   1.615
 5483SOL     OW17347   0.065   2.289   5.062
 5483SOL    HW117348   6.984   2.278   5.043
 5483SOL    HW217349   0.112   2.202   5.046
 5484SOL     OW17350   3.879   1.343   3.761
 5484SOL    HW117351   3.961   1.305   3.804
 5484SOL    HW217352   3.891   1.344   3.661
 5485SOL     OW17353   3.946   0.194   4.025
 5485SOL    HW117354   3.903   0.111   4.061
 5485SOL    HW217355   4.025   0.217   4.081
 5486SOL     OW17356   2.083   6.273   5.165
 5486SOL    HW117357   2.029   6.228   5.095
 5486SOL    HW217358   2.144   6.340   5.122
 5487SOL     OW17359   5.847   2.889   6.620
 5487SOL    HW117360   5.889   2.872   6.710
 5487SOL    HW217361   5.758   2.845   6.617
 5488SOL     OW17362   6.112   0.202   1.320
 5488SOL    HW117363   6.027   0.253   1.312
 5488SOL    HW217364   6.153   0.191   1.229
 5489SOL     OW17365   0.368   4.266   1.703
 5489SOL    HW117366   0.311   4.217   1.769
 5489SOL    HW217367   0.364   4.219   1.615
 5490SOL     OW17368   3.125   0.015   1.350
 5490SOL    HW117369   3.108   6.963   1.280
 5490SOL    HW217370   3.213   7.014   1.393
 5491SOL     OW17371   1.409   4.309   0.918
 5491SOL    HW117372   1.398   4.362   1.002
 5491SOL    HW217373   1.382   4.214   0.935
 5492SOL     OW17374   0.221   3.180   5.855
 5492SOL    HW117375   0.293   3.241   5.887
 5492SOL    HW217376   0.214   3.101   5.916
 5493SOL     OW17377   2.987   3.813   4.458
 5493SOL    HW117378   2.948   3.786   4.369
 5493SOL    HW217379   3.077   3.855   4.443
 5494SOL     OW17380   0.227   2.990   6.078
 5494SOL    HW117381   0.319   2.956   6.100
 5494SOL    HW217382   0.203   3.063   6.141
 5495SOL     OW17383   3.813   1.306   1.329
 5495SOL    HW117384   3.875   1.310   1.250
 5495SOL    HW217385   3.753   1.386   1.328
 5496SOL     OW17386   3.522   1.161   3.702
 5496SOL    HW117387   3.515   1.260   3.716
 5496SOL    HW217388   3.433   1.119   3.720
 5497SOL     OW17389   0.241   1.690   4.860
 5497SOL    HW117390   0.149   1.730   4.857
 5497SOL    HW217391   0.240   1.608   4.917
 5498SOL     OW17392   6.587   5.921   0.961
 5498SOL    HW117393   6.510   5.980   0.935
 5498SOL    HW217394   6.667   5.978   0.978
 5499SOL     OW17395   0.443   0.644   4.904
 5499SOL    HW117396   0.401   0.693   4.980
 5499SOL    HW217397   0.489   0.562   4.938
 5500SOL     OW17398   1.034   0.698   0.656
 5500SOL    HW117399   1.129   0.705   0.687
 5500SOL    HW217400   0.973   0.715   0.733
 5501SOL     OW17401   3.545   1.268   0.474
 5501SOL    HW117402   3.541   1.349   0.415
 5501SOL    HW217403   3.600   1.197   0.429
 5502SOL     OW17404   5.323   3.650   6.968
 5502SOL    HW117405   5.226   3.660   6.945
 5502SOL    HW217406   5.354   3.559   6.943
 5503SOL     OW17407   0.161   4.696   2.075
 5503SOL    HW117408   0.116   4.765   2.018
 5503SOL    HW217409   0.243   4.663   2.028
 5504SOL     OW17410   4.664   1.385   5.802
 5504SOL    HW117411   4.624   1.403   5.713
 5504SOL    HW217412   4.727   1.307   5.795
 5505SOL     OW17413   2.211   5.432   4.423
 5505SOL    HW117414   2.180   5.444   4.517
 5505SOL    HW217415   2.197   5.337   4.394
 5506SOL     OW17416   0.952   3.093   0.283
 5506SOL    HW117417   0.957   3.144   0.369
 5506SOL    HW217418   0.942   3.157   0.207
 5507SOL     OW17419   3.744   1.184   4.642
 5507SOL    HW117420   3.725   1.240   4.722
 5507SOL    HW217421   3.763   1.243   4.564
 5508SOL     OW17422   1.580   1.239   0.367
 5508SOL    HW117423   1.581   1.315   0.301
 5508SOL    HW217424   1.526   1.265   0.447
 5509SOL     OW17425   0.289   6.517   6.876
 5509SOL    HW117426   0.368   6.542   6.932
 5509SOL    HW217427   0.243   6.599   6.844
 5510SOL     OW17428   4.962   5.526   0.132
 5510SOL    HW117429   4.984   5.585   0.210
 5510SOL    HW217430   5.024   5.448   0.131
 5511SOL     OW17431   1.780   0.775   3.409
 5511SOL    HW117432   1.703   0.754   3.348
 5511SOL    HW217433   1.796   0.697   3.471
 5512SOL     OW17434   5.092   2.532   0.956
 5512SOL    HW117435   5.026   2.457   0.947
 5512SOL    HW217436   5.185   2.495   0.952
 5513SOL     OW17437   4.049   4.743   5.716
 5513SOL    HW117438   4.072   4.672   5.783
 5513SOL    HW217439   4.106   4.824   5.732
 5514SOL     OW17440   3.885   6.939   4.088
 5514SOL    HW117441   3.939   6.929   4.172
 5514SOL    HW217442   3.812   6.871   4.086
 5515SOL     OW17443   0.791   5.926   2.102
 5515SOL    HW117444   0.732   5.890   2.030
 5515SOL    HW217445   0.887   5.914   2.076
 5516SOL     OW17446   1.729   4.017   6.248
 5516SOL    HW117447   1.650   4.017   6.310
 5516SOL    HW217448   1.753   4.112   6.226
 5517SOL     OW17449   2.041   3.287   1.906
 5517SOL    HW117450   2.020   3.323   1.815
 5517SOL    HW217451   2.121   3.335   1.943
 5518SOL     OW17452   5.694   6.241   6.459
 5518SOL    HW117453   5.748   6.282   6.533
 5518SOL    HW217454   5.706   6.295   6.375
 5519SOL     OW17455   5.521   3.811   3.294
 5519SOL    HW117456   5.441   3.761   3.260
 5519SOL    HW217457   5.492   3.896   3.338
 5520SOL     OW17458   6.525   0.114   2.621
 5520SOL    HW117459   6.514   0.193   2.561
 5520SOL    HW217460   6.530   0.031   2.565
 5521SOL     OW17461   5.417   6.256   1.904
 5521SOL    HW117462   5.442   6.238   1.809
 5521SOL    HW217463   5.478   6.326   1.942
 5522SOL     OW17464   6.141   5.104   1.013
 5522SOL    HW117465   6.226   5.059   1.043
 5522SOL    HW217466   6.089   5.042   0.955
 5523SOL     OW17467   3.608   0.956   1.875
 5523SOL    HW117468   3.697   0.958   1.829
 5523SOL    HW217469   3.548   1.024   1.835
 5524SOL     OW17470   4.985   0.624   4.312
 5524SOL    HW117471   5.008   0.719   4.330
 5524SOL    HW217472   4.973   0.610   4.214
 5525SOL     OW17473   0.415   2.340   1.177
 5525SOL    HW117474   0.396   2.353   1.080
 5525SOL    HW217475   0.494   2.279   1.187
 5526SOL     OW17476   4.915   5.923   3.408
 5526SOL    HW117477   4.831   5.902   3.458
 5526SOL    HW217478   4.906   6.014   3.366
 5527SOL     OW17479   5.308   3.419   3.968
 5527SOL    HW117480   5.395   3.414   4.017
 5527SOL    HW217481   5.233   3.412   4.034
 5528SOL     OW17482   1.196   0.779   0.134
 5528SOL    HW117483   1.223   0.785   0.230
 5528SOL    HW217484   1.100   0.754   0.127
 5529SOL     OW17485   3.161   6.762   3.636
 5529SOL    HW117486   3.145   6.692   3.707
 5529SOL    HW217487   3.226   6.726   3.569
 5530SOL     OW17488   5.860   2.228   1.124
 5530SOL    HW117489   5.839   2.130   1.121
 5530SOL    HW217490   5.833   2.270   1.038
 5531SOL     OW17491   3.382   3.485   1.920
 5531SOL    HW117492   3.439   3.556   1.880
 5531SOL    HW217493   3.403   3.477   2.018
 5532SOL     OW17494   1.415   3.668   1.177
 5532SOL    HW117495   1.487   3.650   1.110
 5532SOL    HW217496   1.456   3.675   1.268
 5533SOL     OW17497   3.483   1.917   2.768
 5533SOL    HW117498   3.547   1.884   2.698
 5533SOL    HW217499   3.404   1.959   2.723
 5534SOL     OW17500   0.313   1.774   6.674
 5534SOL    HW117501   0.242   1.739   6.737
 5534SOL    HW217502   0.340   1.701   6.612
 5535SOL     OW17503   0.558   2.975   3.028
 5535SOL    HW117504   0.581   3.007   3.120
 5535SOL    HW217505   0.465   2.937   3.029
 5536SOL     OW17506   3.245   0.955   4.288
 5536SOL    HW117507   3.305   1.005   4.350
 5536SOL    HW217508   3.230   1.009   4.205
 5537SOL     OW17509   2.843   1.040   2.715
 5537SOL    HW117510   2.826   1.043   2.814
 5537SOL    HW217511   2.790   0.966   2.675
 5538SOL     OW17512   2.410   5.924   5.546
 5538SOL    HW117513   2.435   6.020   5.554
 5538SOL    HW217514   2.400   5.900   5.450
 5539SOL     OW17515   1.237   3.595   1.548
 5539SOL    HW117516   1.137   3.605   1.545
 5539SOL    HW217517   1.260   3.498   1.556
 5540SOL     OW17518   4.584   4.636   3.691
 5540SOL    HW117519   4.487   4.655   3.706
 5540SOL    HW217520   4.596   4.598   3.599
 5541SOL     OW17521   5.362   6.757   6.435
 5541SOL    HW117522   5.333   6.736   6.528
 5541SOL    HW217523   5.379   6.855   6.426
 5542SOL     OW17524   4.698   3.780   6.145
 5542SOL    HW117525   4.742   3.725   6.215
 5542SOL    HW217526   4.764   3.847   6.109
 5543SOL     OW17527   3.358   5.143   5.727
 5543SOL    HW117528   3.386   5.105   5.638
 5543SOL    HW217529   3.264   5.176   5.721
 5544SOL     OW17530   4.871   5.722   6.360
 5544SOL    HW117531   4.794   5.731   6.423
 5544SOL    HW217532   4.862   5.636   6.310
 5545SOL     OW17533   4.697   1.108   2.386
 5545SOL    HW117534   4.791   1.143   2.385
 5545SOL    HW217535   4.638   1.174   2.432
 5546SOL     OW17536   0.434   5.142   4.462
 5546SOL    HW117537   0.432   5.196   4.377
 5546SOL    HW217538   0.528   5.140   4.497
 5547SOL     OW17539   2.474   6.413   5.230
 5547SOL    HW117540   2.572   6.402   5.249
 5547SOL    HW217541   2.428   6.324   5.237
 5548SOL     OW17542   6.693   2.076   4.867
 5548SOL    HW117543   6.679   2.161   4.816
 5548SOL    HW217544   6.628   2.007   4.836
 5549SOL     OW17545   4.981   4.372   6.566
 5549SOL    HW117546   5.007   4.299   6.503
 5549SOL    HW217547   4.909   4.428   6.524
 5550SOL     OW17548   2.592   5.785   2.207
 5550SOL    HW117549   2.507   5.760   2.254
 5550SOL    HW217550   2.600   5.732   2.123
 5551SOL     OW17551   2.493   0.521   3.150
 5551SOL    HW117552   2.553   0.558   3.079
 5551SOL    HW217553   2.426   0.591   3.176
 5552SOL     OW17554   6.570   0.690   6.720
 5552SOL    HW117555   6.607   0.735   6.802
 5552SOL    HW217556   6.597   0.742   6.639
 5553SOL     OW17557   3.935   6.294   6.812
 5553SOL    HW117558   3.954   6.196   6.820
 5553SOL    HW217559   3.932   6.336   6.903
 5554SOL     OW17560   3.274   1.700   5.567
 5554SOL    HW117561   3.362   1.662   5.597
 5554SOL    HW217562   3.252   1.780   5.622
 5555SOL     OW17563   0.209   4.733   3.960
 5555SOL    HW117564   0.245   4.683   4.038
 5555SOL    HW217565   0.236   4.829   3.966
 5556SOL     OW17566   0.457   2.587   4.149
 5556SOL    HW117567   0.473   2.513   4.085
 5556SOL    HW217568   0.379   2.565   4.208
 5557SOL     OW17569   3.477   5.602   2.835
 5557SOL    HW117570   3.558   5.563   2.791
 5557SOL    HW217571   3.419   5.644   2.766
 5558SOL     OW17572   5.080   3.479   6.319
 5558SOL    HW117573   5.002   3.417   6.333
 5558SOL    HW217574   5.090   3.538   6.399
 5559SOL     OW17575   2.701   6.896   2.157
 5559SOL    HW117576   2.607   6.889   2.191
 5559SOL    HW217577   2.701   6.946   2.071
 5560SOL     OW17578   0.537   6.909   3.522
 5560SOL    HW117579   0.535   6.947   3.429
 5560SOL    HW217580   0.446   6.879   3.548
 5561SOL     OW17581   2.371   2.075   3.922
 5561SOL    HW117582   2.447   2.027   3.877
 5561SOL    HW217583   2.376   2.060   4.021
 5562SOL     OW17584   2.436   2.743   0.158
 5562SOL    HW117585   2.442   2.842   0.173
 5562SOL    HW217586   2.369   2.704   0.221
 5563SOL     OW17587   4.738   6.335   2.555
 5563SOL    HW117588   4.810   6.341   2.625
 5563SOL    HW217589   4.778   6.303   2.469
 5564SOL     OW17590   4.677   1.952   1.549
 5564SOL    HW117591   4.760   1.895   1.548
 5564SOL    HW217592   4.702   2.048   1.537
 5565SOL     OW17593   4.924   1.224   6.752
 5565SOL    HW117594   4.987   1.156   6.716
 5565SOL    HW217595   4.962   1.264   6.835
 5566SOL     OW17596   1.792   5.381   0.895
 5566SOL    HW117597   1.743   5.306   0.850
 5566SOL    HW217598   1.727   5.454   0.918
 5567SOL     OW17599   0.926   4.561   1.715
 5567SOL    HW117600   0.989   4.638   1.711
 5567SOL    HW217601   0.861   4.576   1.790
 5568SOL     OW17602   5.029   2.638   2.618
 5568SOL    HW117603   4.954   2.704   2.620
 5568SOL    HW217604   5.008   2.566   2.552
 5569SOL     OW17605   3.571   1.796   1.639
 5569SOL    HW117606   3.493   1.840   1.685
 5569SOL    HW217607   3.573   1.699   1.663
 5570SOL     OW17608   5.882   4.186   4.479
 5570SOL    HW117609   5.901   4.283   4.466
 5570SOL    HW217610   5.856   4.170   4.574
 5571SOL     OW17611   0.386   6.973   6.755
 5571SOL    HW117612   0.434   0.044   6.763
 5571SOL    HW217613   0.445   6.907   6.709
 5572SOL     OW17614   2.123   2.997   6.239
 5572SOL    HW117615   2.147   3.089   6.266
 5572SOL    HW217616   2.033   2.973   6.276
 5573SOL     OW17617   1.825   3.155   0.019
 5573SOL    HW117618   1.907   3.109   7.001
 5573SOL    HW217619   1.748   3.091   0.018
 5574SOL     OW17620   6.941   1.009   3.986
 5574SOL    HW117621   6.876   1.048   4.051
 5574SOL    HW217622   6.917   1.040   3.894
 5575SOL     OW17623   0.917   1.127   2.009
 5575SOL    HW117624   0.832   1.079   1.988
 5575SOL    HW217625   0.983   1.112   1.935
 5576SOL     OW17626   6.208   5.984   1.809
 5576SOL    HW117627   6.150   6.059   1.779
 5576SOL    HW217628   6.304   6.007   1.793
 5577SOL     OW17629   2.877   2.789   6.339
 5577SOL    HW117630   2.864   2.698   6.298
 5577SOL    HW217631   2.934   2.844   6.278
 5578SOL     OW17632   4.263   3.228   0.552
 5578SOL    HW117633   4.363   3.233   0.549
 5578SOL    HW217634   4.234   3.185   0.637
 5579SOL     OW17635   6.221   3.609   6.449
 5579SOL    HW117636   6.296   3.589   6.385
 5579SOL    HW217637   6.210   3.708   6.456
 5580SOL     OW17638   4.716   1.739   6.778
 5580SOL    HW117639   4.683   1.654   6.817
 5580SOL    HW217640   4.777   1.719   6.701
 5581SOL     OW17641   2.547   6.991   0.974
 5581SOL    HW117642   2.531   7.007   0.876
 5581SOL    HW217643   2.556   0.063   1.021
 5582SOL     OW17644   3.301   3.300   3.580
 5582SOL    HW117645   3.391   3.292   3.537
 5582SOL    HW217646   3.261   3.209   3.588
 5583SOL     OW17647   3.750   6.513   2.691
 5583SOL    HW117648   3.826   6.462   2.652
 5583SOL    HW217649   3.783   6.597   2.734
 5584SOL     OW17650   5.609   3.797   4.126
 5584SOL    HW117651   5.523   3.764   4.089
 5584SOL    HW217652   5.601   3.895   4.147
 5585SOL     OW17653   4.920   0.879   3.548
 5585SOL    HW117654   4.908   0.949   3.619
 5585SOL    HW217655   5.011   0.839   3.557
 5586SOL     OW17656   1.139   2.645   0.067
 5586SOL    HW117657   1.113   2.549   0.058
 5586SOL    HW217658   1.101   2.683   0.152
 5587SOL     OW17659   4.404   6.748   2.258
 5587SOL    HW117660   4.418   6.753   2.357
 5587SOL    HW217661   4.316   6.705   2.240
 5588SOL     OW17662   0.971   6.656   4.498
 5588SOL    HW117663   1.049   6.681   4.556
 5588SOL    HW217664   0.938   6.565   4.525
 5589SOL     OW17665   5.042   3.178   6.551
 5589SOL    HW117666   4.990   3.147   6.471
 5589SOL    HW217667   5.131   3.214   6.520
 5590SOL     OW17668   6.850   5.405   2.937
 5590SOL    HW117669   6.873   5.484   2.994
 5590SOL    HW217670   6.774   5.429   2.877
 5591SOL     OW17671   5.519   0.568   6.428
 5591SOL    HW117672   5.428   0.594   6.461
 5591SOL    HW217673   5.540   0.619   6.345
 5592SOL     OW17674   2.718   4.741   2.780
 5592SOL    HW117675   2.656   4.713   2.706
 5592SOL    HW217676   2.665   4.780   2.855
 5593SOL     OW17677   6.908   2.890   5.347
 5593SOL    HW117678   6.987   2.897   5.286
 5593SOL    HW217679   6.922   2.949   5.426
 5594SOL     OW17680   2.530   1.072   6.876
 5594SOL    HW117681   2.582   1.123   6.945
 5594SOL    HW217682   2.456   1.022   6.921
 5595SOL     OW17683   6.164   0.906   5.003
 5595SOL    HW117684   6.129   0.815   4.981
 5595SOL    HW217685   6.198   0.906   5.097
 5596SOL     OW17686   5.062   0.280   3.033
 5596SOL    HW117687   5.142   0.242   3.080
 5596SOL    HW217688   5.091   0.333   2.954
 5597SOL     OW17689   5.020   2.468   5.168
 5597SOL    HW117690   5.085   2.506   5.234
 5597SOL    HW217691   5.041   2.372   5.151
 5598SOL     OW17692   5.026   2.318   3.864
 5598SOL    HW117693   5.049   2.241   3.805
 5598SOL    HW217694   5.079   2.313   3.948
 5599SOL     OW17695   6.082   4.201   2.216
 5599SOL    HW117696   6.128   4.193   2.127
 5599SOL    HW217697   6.150   4.211   2.288
 5600SOL     OW17698   2.725   0.357   2.171
 5600SOL    HW117699   2.699   0.452   2.186
 5600SOL    HW217700   2.681   0.322   2.088
 5601SOL     OW17701   4.588   2.310   5.691
 5601SOL    HW117702   4.683   2.288   5.713
 5601SOL    HW217703   4.570   2.405   5.712
 5602SOL     OW17704   6.825   1.207   3.146
 5602SOL    HW117705   6.884   1.181   3.223
 5602SOL    HW217706   6.733   1.173   3.162
 5603SOL     OW17707   4.608   2.474   5.206
 5603SOL    HW117708   4.665   2.443   5.282
 5603SOL    HW217709   4.528   2.521   5.241
 5604SOL     OW17710   1.125   1.908   4.441
 5604SOL    HW117711   1.136   1.844   4.517
 5604SOL    HW217712   1.139   1.859   4.355
 5605SOL     OW17713   1.084   6.961   5.153
 5605SOL    HW117714   1.084   0.039   5.118
 5605SOL    HW217715   1.147   6.906   5.099
 5606SOL     OW17716   4.403   1.157   0.584
 5606SOL    HW117717   4.453   1.127   0.665
 5606SOL    HW217718   4.364   1.248   0.601
 5607SOL     OW17719   5.966   2.259   3.539
 5607SOL    HW117720   5.955   2.192   3.466
 5607SOL    HW217721   6.054   2.245   3.585
 5608SOL     OW17722   6.080   1.093   3.099
 5608SOL    HW117723   6.100   1.090   3.197
 5608SOL    HW217724   6.111   1.180   3.061
 5609SOL     OW17725   4.641   6.300   0.184
 5609SOL    HW117726   4.566   6.337   0.239
 5609SOL    HW217727   4.619   6.310   0.087
 5610SOL     OW17728   5.466   3.830   0.884
 5610SOL    HW117729   5.458   3.790   0.793
 5610SOL    HW217730   5.404   3.908   0.893
 5611SOL     OW17731   0.860   5.046   2.037
 5611SOL    HW117732   0.881   4.986   2.115
 5611SOL    HW217733   0.924   5.122   2.035
 5612SOL     OW17734   2.906   2.713   0.652
 5612SOL    HW117735   2.904   2.729   0.750
 5612SOL    HW217736   2.970   2.777   0.609
 5613SOL     OW17737   6.666   4.194   4.947
 5613SOL    HW117738   6.711   4.282   4.958
 5613SOL    HW217739   6.729   4.128   4.906
 5614SOL     OW17740   6.382   1.966   4.541
 5614SOL    HW117741   6.398   2.010   4.452
 5614SOL    HW217742   6.374   2.036   4.612
 5615SOL     OW17743   0.122   1.352   2.663
 5615SOL    HW117744   0.035   1.338   2.708
 5615SOL    HW217745   0.195   1.359   2.732
 5616SOL     OW17746   2.542   2.017   5.170
 5616SOL    HW117747   2.457   2.007   5.222
 5616SOL    HW217748   2.525   1.996   5.074
 5617SOL     OW17749   1.488   4.408   4.532
 5617SOL    HW117750   1.424   4.467   4.581
 5617SOL    HW217751   1.556   4.464   4.485
 5618SOL     OW17752   6.357   5.126   3.168
 5618SOL    HW117753   6.402   5.046   3.127
 5618SOL    HW217754   6.308   5.098   3.250
 5619SOL     OW17755   3.723   3.075   3.685
 5619SOL    HW117756   3.788   3.034   3.622
 5619SOL    HW217757   3.751   3.057   3.779
 5620SOL     OW17758   4.833   3.941   5.632
 5620SOL    HW117759   4.784   3.985   5.557
 5620SOL    HW217760   4.768   3.894   5.692
 5621SOL     OW17761   1.118   3.030   6.539
 5621SOL    HW117762   1.194   3.094   6.527
 5621SOL    HW217763   1.110   2.972   6.458
 5622SOL     OW17764   4.289   6.307   5.463
 5622SOL    HW117765   4.231   6.386   5.482
 5622SOL    HW217766   4.248   6.253   5.389
 5623SOL     OW17767   4.608   6.634   5.123
 5623SOL    HW117768   4.597   6.732   5.143
 5623SOL    HW217769   4.553   6.581   5.187
 5624SOL     OW17770   0.914   5.168   3.396
 5624SOL    HW117771   0.895   5.262   3.425
 5624SOL    HW217772   1.011   5.160   3.374
 5625SOL     OW17773   0.614   5.021   4.869
 5625SOL    HW117774   0.588   4.991   4.961
 5625SOL    HW217775   0.711   5.005   4.855
 5626SOL     OW17776   2.229   4.679   4.376
 5626SOL    HW117777   2.241   4.740   4.454
 5626SOL    HW217778   2.133   4.677   4.350
 5627SOL     OW17779   6.733   5.944   6.255
 5627SOL    HW117780   6.748   5.966   6.351
 5627SOL    HW217781   6.640   5.970   6.229
 5628SOL     OW17782   3.017   2.971   1.362
 5628SOL    HW117783   3.081   3.048   1.355
 5628SOL    HW217784   3.067   2.885   1.350
 5629SOL     OW17785   3.980   3.184   1.293
 5629SOL    HW117786   3.895   3.132   1.300
 5629SOL    HW217787   4.030   3.178   1.379
 5630SOL     OW17788   1.699   3.781   6.064
 5630SOL    HW117789   1.753   3.761   5.982
 5630SOL    HW217790   1.718   3.875   6.095
 5631SOL     OW17791   5.167   1.173   1.680
 5631SOL    HW117792   5.229   1.122   1.739
 5631SOL    HW217793   5.191   1.270   1.682
 5632SOL     OW17794   5.153   1.684   5.864
 5632SOL    HW117795   5.190   1.674   5.956
 5632SOL    HW217796   5.082   1.615   5.849
 5633SOL     OW17797   0.034   5.166   4.999
 5633SOL    HW117798   7.000   5.115   5.069
 5633SOL    HW217799   6.991   5.183   4.921
 5634SOL     OW17800   1.907   4.741   4.018
 5634SOL    HW117801   1.832   4.800   4.048
 5634SOL    HW217802   1.926   4.673   4.089
 5635SOL     OW17803   2.828   6.653   6.783
 5635SOL    HW117804   2.787   6.685   6.868
 5635SOL    HW217805   2.906   6.594   6.804
 5636SOL     OW17806   5.777   1.000   5.269
 5636SOL    HW117807   5.823   0.979   5.356
 5636SOL    HW217808   5.754   1.097   5.266
 5637SOL     OW17809   5.028   0.315   3.896
 5637SOL    HW117810   5.082   0.234   3.875
 5637SOL    HW217811   4.930   0.292   3.891
 5638SOL     OW17812   5.648   5.558   1.005
 5638SOL    HW117813   5.647   5.613   0.921
 5638SOL    HW217814   5.579   5.486   0.997
 5639SOL     OW17815   1.026   0.890   1.585
 5639SOL    HW117816   0.942   0.927   1.626
 5639SOL    HW217817   1.017   0.791   1.575
 5640SOL     OW17818   2.976   6.845   2.105
 5640SOL    HW117819   2.876   6.853   2.096
 5640SOL    HW217820   2.997   6.784   2.181
 5641SOL     OW17821   0.620   4.507   5.992
 5641SOL    HW117822   0.694   4.445   5.968
 5641SOL    HW217823   0.550   4.458   6.044
 5642SOL     OW17824   1.429   5.082   5.851
 5642SOL    HW117825   1.421   5.061   5.754
 5642SOL    HW217826   1.469   5.003   5.899
 5643SOL     OW17827   3.395   0.936   5.153
 5643SOL    HW117828   3.408   0.920   5.055
 5643SOL    HW217829   3.303   0.973   5.169
 5644SOL     OW17830   4.255   0.407   3.858
 5644SOL    HW117831   4.350   0.437   3.861
 5644SOL    HW217832   4.194   0.486   3.864
 5645SOL     OW17833   6.848   4.241   3.224
 5645SOL    HW117834   6.923   4.306   3.213
 5645SOL    HW217835   6.772   4.269   3.165
 5646SOL     OW17836   2.065   5.244   3.337
 5646SOL    HW117837   1.968   5.260   3.318
 5646SOL    HW217838   2.111   5.215   3.253
 5647SOL     OW17839   6.047   6.759   6.897
 5647SOL    HW117840   6.147   6.757   6.902
 5647SOL    HW217841   6.011   6.669   6.922
 5648SOL     OW17842   1.684   1.210   2.938
 5648SOL    HW117843   1.729   1.203   2.849
 5648SOL    HW217844   1.686   1.121   2.983
 5649SOL     OW17845   0.877   6.399   6.168
 5649SOL    HW117846   0.793   6.346   6.158
 5649SOL    HW217847   0.868   6.485   6.119
 5650SOL     OW17848   0.386   5.771   1.517
 5650SOL    HW117849   0.377   5.869   1.536
 5650SOL    HW217850   0.377   5.720   1.603
 5651SOL     OW17851   0.010   1.143   2.094
 5651SOL    HW117852   0.023   1.242   2.097
 5651SOL    HW217853   6.942   1.121   2.046
 5652SOL     OW17854   5.714   6.389   1.597
 5652SOL    HW117855   5.743   6.475   1.640
 5652SOL    HW217856   5.725   6.314   1.662
 5653SOL     OW17857   0.297   6.705   6.433
 5653SOL    HW117858   0.282   6.802   6.414
 5653SOL    HW217859   0.371   6.695   6.499
 5654SOL     OW17860   6.648   6.178   5.831
 5654SOL    HW117861   6.617   6.183   5.926
 5654SOL    HW217862   6.637   6.267   5.788
 5655SOL     OW17863   1.301   3.311   4.348
 5655SOL    HW117864   1.282   3.409   4.345
 5655SOL    HW217865   1.250   3.265   4.275
 5656SOL     OW17866   2.080   4.777   0.618
 5656SOL    HW117867   2.123   4.723   0.690
 5656SOL    HW217868   2.100   4.734   0.529
 5657SOL     OW17869   5.636   0.505   1.092
 5657SOL    HW117870   5.602   0.411   1.103
 5657SOL    HW217871   5.612   0.558   1.174
 5658SOL     OW17872   3.292   5.936   5.852
 5658SOL    HW117873   3.328   5.933   5.759
 5658SOL    HW217874   3.368   5.936   5.917
 5659SOL     OW17875   3.206   4.099   3.014
 5659SOL    HW117876   3.232   4.067   2.923
 5659SOL    HW217877   3.107   4.094   3.024
 5660SOL     OW17878   5.670   0.114   5.711
 5660SOL    HW117879   5.583   0.130   5.758
 5660SOL    HW217880   5.741   0.171   5.752
 5661SOL     OW17881   0.197   4.503   5.994
 5661SOL    HW117882   0.098   4.518   6.001
 5661SOL    HW217883   0.218   4.454   5.909
 5662SOL     OW17884   2.552   5.099   3.811
 5662SOL    HW117885   2.506   5.038   3.876
 5662SOL    HW217886   2.589   5.178   3.860
 5663SOL     OW17887   1.872   3.917   6.953
 5663SOL    HW117888   1.924   3.883   6.874
 5663SOL    HW217889   1.807   3.987   6.924
 5664SOL     OW17890   6.897   4.293   4.323
 5664SOL    HW117891   6.797   4.296   4.316
 5664SOL    HW217892   6.924   4.308   4.419
 5665SOL     OW17893   1.888   1.790   7.002
 5665SOL    HW117894   1.907   1.706   0.038
 5665SOL    HW217895   1.817   1.843   0.032
 5666SOL     OW17896   5.552   6.172   1.008
 5666SOL    HW117897   5.597   6.086   0.984
 5666SOL    HW217898   5.621   6.238   1.038
 5667SOL     OW17899   1.375   4.064   3.842
 5667SOL    HW117900   1.307   4.110   3.784
 5667SOL    HW217901   1.463   4.062   3.795
 5668SOL     OW17902   5.751   1.997   5.541
 5668SOL    HW117903   5.763   1.921   5.605
 5668SOL    HW217904   5.729   2.080   5.592
 5669SOL     OW17905   0.509   3.078   6.504
 5669SOL    HW117906   0.525   3.060   6.601
 5669SOL    HW217907   0.484   3.174   6.492
 5670SOL     OW17908   0.204   3.088   3.824
 5670SOL    HW117909   0.139   3.154   3.786
 5670SOL    HW217910   0.210   3.008   3.764
 5671SOL     OW17911   0.716   6.681   6.397
 5671SOL    HW117912   0.738   6.601   6.452
 5671SOL    HW217913   0.780   6.687   6.320
 5672SOL     OW17914   4.497   4.587   6.796
 5672SOL    HW117915   4.459   4.496   6.778
 5672SOL    HW217916   4.506   4.637   6.709
 5673SOL     OW17917   0.894   5.905   1.749
 5673SOL    HW117918   0.925   5.995   1.781
 5673SOL    HW217919   0.799   5.890   1.778
 5674SOL     OW17920   6.977   4.165   3.636
 5674SOL    HW117921   0.039   4.224   3.621
 5674SOL    HW217922   6.910   4.212   3.693
 5675SOL     OW17923   4.505   2.150   6.243
 5675SOL    HW117924   4.478   2.154   6.147
 5675SOL    HW217925   4.484   2.237   6.287
 5676SOL     OW17926   2.028   1.819   1.979
 5676SOL    HW117927   1.961   1.889   1.953
 5676SOL    HW217928   1.982   1.730   1.983
 5677SOL     OW17929   0.679   2.662   2.756
 5677SOL    HW117930   0.698   2.741   2.698
 5677SOL    HW217931   0.663   2.582   2.699
 5678SOL     OW17932   2.358   6.459   3.059
 5678SOL    HW117933   2.408   6.457   2.973
 5678SOL    HW217934   2.403   6.522   3.123
 5679SOL     OW17935   1.001   0.421   3.234
 5679SOL    HW117936   1.062   0.456   3.162
 5679SOL    HW217937   0.966   0.332   3.207
 5680SOL     OW17938   1.343   5.664   0.642
 5680SOL    HW117939   1.375   5.573   0.668
 5680SOL    HW217940   1.417   5.713   0.596
 5681SOL     OW17941   0.179   3.494   6.631
 5681SOL    HW117942   0.088   3.461   6.658
 5681SOL    HW217943   0.231   3.518   6.713
 5682SOL     OW17944   1.936   4.769   5.133
 5682SOL    HW117945   2.023   4.784   5.086
 5682SOL    HW217946   1.897   4.682   5.103
 5683SOL     OW17947   3.905   1.340   6.927
 5683SOL    HW117948   3.960   1.273   6.976
 5683SOL    HW217949   3.893   1.311   6.832
 5684SOL     OW17950   3.708   3.030   4.611
 5684SOL    HW117951   3.803   3.031   4.642
 5684SOL    HW217952   3.698   3.093   4.534
 5685SOL     OW17953   1.534   3.575   1.965
 5685SOL    HW117954   1.534   3.565   2.064
 5685SOL    HW217955   1.501   3.490   1.923
 5686SOL     OW17956   3.045   0.024   6.283
 5686SOL    HW117957   2.963   6.993   6.250
 5686SOL    HW217958   3.117   6.973   6.300
 5687SOL     OW17959   0.104   3.688   5.118
 5687SOL    HW117960   0.013   3.686   5.075
 5687SOL    HW217961   0.096   3.668   5.215
 5688SOL     OW17962   6.562   2.034   6.979
 5688SOL    HW117963   6.478   2.050   6.928
 5688SOL    HW217964   6.546   2.052   0.060
 5689SOL     OW17965   4.363   0.536   0.150
 5689SOL    HW117966   4.355   0.450   0.101
 5689SOL    HW217967   4.322   0.609   0.096
 5690SOL     OW17968   2.602   6.629   0.445
 5690SOL    HW117969   2.564   6.654   0.534
 5690SOL    HW217970   2.692   6.588   0.458
 5691SOL     OW17971   2.704   6.227   1.848
 5691SOL    HW117972   2.649   6.306   1.874
 5691SOL    HW217973   2.741   6.242   1.756
 5692SOL     OW17974   6.866   3.324   6.056
 5692SOL    HW117975   6.812   3.259   6.002
 5692SOL    HW217976   6.948   3.350   6.005
 5693SOL     OW17977   6.197   2.616   2.876
 5693SOL    HW117978   6.263   2.647   2.808
 5693SOL    HW217979   6.171   2.521   2.858
 5694SOL     OW17980   1.049   1.590   3.320
 5694SOL    HW117981   1.054   1.491   3.317
 5694SOL    HW217982   1.023   1.620   3.412
 5695SOL     OW17983   1.250   2.813   2.917
 5695SOL    HW117984   1.264   2.715   2.903
 5695SOL    HW217985   1.171   2.844   2.864
 5696SOL     OW17986   1.041   0.168   3.054
 5696SOL    HW117987   1.107   0.222   3.002
 5696SOL    HW217988   0.949   0.203   3.038
 5697SOL     OW17989   6.333   2.267   0.921
 5697SOL    HW117990   6.267   2.229   0.985
 5697SOL    HW217991   6.361   2.358   0.952
 5698SOL     OW17992   0.451   3.228   1.998
 5698SOL    HW117993   0.549   3.211   1.991
 5698SOL    HW217994   0.412   3.170   2.069
 5699SOL     OW17995   6.146   2.389   3.238
 5699SOL    HW117996   6.047   2.384   3.223
 5699SOL    HW217997   6.182   2.471   3.193
 5700SOL     OW17998   6.586   6.668   4.537
 5700SOL    HW117999   6.588   6.643   4.441
 5700SOL    HW218000   6.669   6.718   4.561
 5701SOL     OW18001   1.139   6.048   3.183
 5701SOL    HW118002   1.088   5.968   3.154
 5701SOL    HW218003   1.147   6.049   3.282
 5702SOL     OW18004   1.329   0.396   5.389
 5702SOL    HW118005   1.396   0.341   5.339
 5702SOL    HW218006   1.374   0.475   5.429
 5703SOL     OW18007   5.305   4.168   1.219
 5703SOL    HW118008   5.352   4.112   1.287
 5703SOL    HW218009   5.372   4.201   1.152
 5704SOL     OW18010   4.442   5.523   2.232
 5704SOL    HW118011   4.379   5.546   2.158
 5704SOL    HW218012   4.526   5.577   2.222
 5705SOL     OW18013   4.891   0.956   0.438
 5705SOL    HW118014   4.838   1.041   0.432
 5705SOL    HW218015   4.986   0.977   0.458
 5706SOL     OW18016   0.974   1.953   0.417
 5706SOL    HW118017   0.930   1.874   0.459
 5706SOL    HW218018   0.906   2.024   0.401
 5707SOL     OW18019   0.683   0.194   0.483
 5707SOL    HW118020   0.641   0.263   0.425
 5707SOL    HW218021   0.664   0.103   0.447
 5708SOL     OW18022   4.981   6.564   0.959
 5708SOL    HW118023   5.036   6.647   0.947
 5708SOL    HW218024   4.884   6.588   0.952
 5709SOL     OW18025   0.875   6.982   3.482
 5709SOL    HW118026   0.808   6.910   3.500
 5709SOL    HW218027   0.835   0.033   3.420
 5710SOL     OW18028   2.694   3.166   6.232
 5710SOL    HW118029   2.647   3.077   6.241
 5710SOL    HW218030   2.667   3.225   6.307
 5711SOL     OW18031   4.385   0.708   2.939
 5711SOL    HW118032   4.424   0.717   3.031
 5711SOL    HW218033   4.437   0.764   2.875
 5712SOL     OW18034   0.796   5.428   6.174
 5712SOL    HW118035   0.894   5.409   6.179
 5712SOL    HW218036   0.770   5.441   6.078
 5713SOL     OW18037   1.100   2.328   1.508
 5713SOL    HW118038   1.061   2.256   1.450
 5713SOL    HW218039   1.195   2.343   1.481
 5714SOL     OW18040   0.688   6.086   6.598
 5714SOL    HW118041   0.768   6.028   6.608
 5714SOL    HW218042   0.671   6.136   6.683
 5715SOL     OW18043   1.096   6.349   3.432
 5715SOL    HW118044   1.020   6.407   3.462
 5715SOL    HW218045   1.077   6.317   3.339
 5716SOL     OW18046   1.520   4.389   6.700
 5716SOL    HW118047   1.543   4.292   6.697
 5716SOL    HW218048   1.550   4.433   6.615
 5717SOL     OW18049   1.831   6.302   0.620
 5717SOL    HW118050   1.848   6.344   0.709
 5717SOL    HW218051   1.860   6.206   0.623
 5718SOL     OW18052   0.961   3.574   6.084
 5718SOL    HW118053   0.869   3.564   6.047
 5718SOL    HW218054   0.961   3.644   6.156
 5719SOL     OW18055   2.048   1.421   5.986
 5719SOL    HW118056   2.067   1.462   5.896
 5719SOL    HW218057   2.021   1.493   6.050
 5720SOL     OW18058   0.803   4.975   4.405
 5720SOL    HW118059   0.855   4.930   4.478
 5720SOL    HW218060   0.736   5.037   4.445
 5721SOL     OW18061   0.124   3.444   0.796
 5721SOL    HW118062   0.111   3.533   0.840
 5721SOL    HW218063   0.089   3.372   0.855
 5722SOL     OW18064   5.860   1.717   4.971
 5722SOL    HW118065   5.937   1.683   4.917
 5722SOL    HW218066   5.780   1.727   4.912
 5723SOL     OW18067   4.126   3.780   0.265
 5723SOL    HW118068   4.185   3.702   0.244
 5723SOL    HW218069   4.068   3.758   0.343
 5724SOL     OW18070   4.030   2.621   5.400
 5724SOL    HW118071   3.951   2.678   5.377
 5724SOL    HW218072   4.075   2.590   5.317
 5725SOL     OW18073   6.335   5.506   3.985
 5725SOL    HW118074   6.350   5.411   4.011
 5725SOL    HW218075   6.301   5.509   3.891
 5726SOL     OW18076   6.365   3.754   4.172
 5726SOL    HW118077   6.313   3.738   4.256
 5726SOL    HW218078   6.303   3.789   4.102
 5727SOL     OW18079   1.128   2.338   4.100
 5727SOL    HW118080   1.073   2.298   4.026
 5727SOL    HW218081   1.068   2.378   4.169
 5728SOL     OW18082   4.865   1.384   6.536
 5728SOL    HW118083   4.894   1.320   6.607
 5728SOL    HW218084   4.809   1.336   6.468
 5729SOL     OW18085   0.705   1.625   0.267
 5729SOL    HW118086   0.658   1.589   0.347
 5729SOL    HW218087   0.714   1.724   0.275
 5730SOL     OW18088   4.191   5.347   5.714
 5730SOL    HW118089   4.166   5.279   5.645
 5730SOL    HW218090   4.228   5.428   5.669
 5731SOL     OW18091   1.836   6.523   4.118
 5731SOL    HW118092   1.881   6.567   4.196
 5731SOL    HW218093   1.864   6.568   4.033
 5732SOL     OW18094   6.739   4.629   5.773
 5732SOL    HW118095   6.758   4.652   5.678
 5732SOL    HW218096   6.659   4.569   5.778
 5733SOL     OW18097   2.995   0.437   5.655
 5733SOL    HW118098   3.062   0.429   5.729
 5733SOL    HW218099   2.950   0.349   5.641
 5734SOL     OW18100   1.452   6.053   6.129
 5734SOL    HW118101   1.533   6.078   6.182
 5734SOL    HW218102   1.401   5.982   6.176
 5735SOL     OW18103   4.087   1.484   2.346
 5735SOL    HW118104   4.115   1.459   2.438
 5735SOL    HW218105   4.121   1.576   2.325
 5736SOL     OW18106   5.837   4.152   1.031
 5736SOL    HW118107   5.893   4.069   1.030
 5736SOL    HW218108   5.792   4.163   0.942
 5737SOL     OW18109   5.327   5.963   6.643
 5737SOL    HW118110   5.401   5.905   6.607
 5737SOL    HW218111   5.360   6.057   6.648
 5738SOL     OW18112   3.400   2.498   6.622
 5738SOL    HW118113   3.377   2.540   6.534
 5738SOL    HW218114   3.322   2.446   6.656
 5739SOL     OW18115   0.953   6.179   5.612
 5739SOL    HW118116   0.877   6.239   5.586
 5739SOL    HW218117   0.917   6.087   5.632
 5740SOL     OW18118   4.178   4.289   0.940
 5740SOL    HW118119   4.211   4.305   0.847
 5740SOL    HW218120   4.199   4.194   0.966
 5741SOL     OW18121   6.740   3.991   4.492
 5741SOL    HW118122   6.660   4.026   4.541
 5741SOL    HW218123   6.808   4.064   4.484
 5742SOL     OW18124   4.623   6.146   2.261
 5742SOL    HW118125   4.572   6.158   2.347
 5742SOL    HW218126   4.609   6.054   2.226
 5743SOL     OW18127   1.883   5.872   5.757
 5743SOL    HW118128   1.895   5.775   5.779
 5743SOL    HW218129   1.896   5.886   5.659
 5744SOL     OW18130   4.846   1.352   1.323
 5744SOL    HW118131   4.857   1.440   1.370
 5744SOL    HW218132   4.932   1.328   1.277
 5745SOL     OW18133   1.804   0.968   3.081
 5745SOL    HW118134   1.874   0.997   3.146
 5745SOL    HW218135   1.713   0.982   3.121
 5746SOL     OW18136   4.754   0.353   2.079
 5746SOL    HW118137   4.788   0.316   2.166
 5746SOL    HW218138   4.781   0.291   2.005
 5747SOL     OW18139   1.496   5.231   1.788
 5747SOL    HW118140   1.553   5.311   1.771
 5747SOL    HW218141   1.516   5.160   1.721
 5748SOL     OW18142   1.078   0.278   1.391
 5748SOL    HW118143   1.041   0.336   1.319
 5748SOL    HW218144   1.003   0.227   1.435
 5749SOL     OW18145   1.395   6.294   4.919
 5749SOL    HW118146   1.436   6.263   5.005
 5749SOL    HW218147   1.295   6.288   4.925
 5750SOL     OW18148   6.069   6.102   4.733
 5750SOL    HW118149   6.012   6.021   4.742
 5750SOL    HW218150   6.165   6.074   4.728
 5751SOL     OW18151   2.421   2.686   4.921
 5751SOL    HW118152   2.430   2.706   4.823
 5751SOL    HW218153   2.432   2.770   4.973
 5752SOL     OW18154   5.314   0.479   0.503
 5752SOL    HW118155   5.306   0.423   0.421
 5752SOL    HW218156   5.228   0.527   0.519
 5753SOL     OW18157   3.700   3.899   4.241
 5753SOL    HW118158   3.615   3.886   4.190
 5753SOL    HW218159   3.695   3.849   4.327
 5754SOL     OW18160   6.994   5.460   1.911
 5754SOL    HW118161   6.897   5.485   1.899
 5754SOL    HW218162   0.015   5.509   1.990
 5755SOL     OW18163   1.811   2.183   6.541
 5755SOL    HW118164   1.805   2.159   6.444
 5755SOL    HW218165   1.809   2.282   6.551
 5756SOL     OW18166   6.870   0.132   2.889
 5756SOL    HW118167   6.961   0.143   2.928
 5756SOL    HW218168   6.801   0.136   2.961
 5757SOL     OW18169   0.074   5.219   3.112
 5757SOL    HW118170   0.073   5.119   3.111
 5757SOL    HW218171   7.001   5.252   3.143
 5758SOL     OW18172   2.392   1.322   3.545
 5758SOL    HW118173   2.454   1.363   3.611
 5758SOL    HW218174   2.303   1.367   3.549
 5759SOL     OW18175   4.782   0.510   6.647
 5759SOL    HW118176   4.851   0.445   6.613
 5759SOL    HW218177   4.784   0.511   6.747
 5760SOL     OW18178   6.880   2.510   0.931
 5760SOL    HW118179   6.800   2.541   0.983
 5760SOL    HW218180   6.961   2.560   0.961
 5761SOL     OW18181   5.901   4.850   6.038
 5761SOL    HW118182   5.831   4.876   5.972
 5761SOL    HW218183   5.859   4.801   6.114
 5762SOL     OW18184   5.099   3.939   1.116
 5762SOL    HW118185   5.047   3.886   1.050
 5762SOL    HW218186   5.174   3.985   1.070
 5763SOL     OW18187   6.635   5.605   0.655
 5763SOL    HW118188   6.585   5.536   0.602
 5763SOL    HW218189   6.688   5.559   0.726
 5764SOL     OW18190   5.305   4.783   5.204
 5764SOL    HW118191   5.366   4.704   5.215
 5764SOL    HW218192   5.344   4.845   5.136
 5765SOL     OW18193   6.564   2.883   1.006
 5765SOL    HW118194   6.570   2.801   0.949
 5765SOL    HW218195   6.528   2.959   0.952
 5766SOL     OW18196   1.751   1.687   6.014
 5766SOL    HW118197   1.745   1.773   5.964
 5766SOL    HW218198   1.723   1.701   6.109
 5767SOL     OW18199   1.970   0.277   0.706
 5767SOL    HW118200   1.889   0.231   0.741
 5767SOL    HW218201   1.980   0.366   0.752
 5768SOL     OW18202   1.122   6.361   4.261
 5768SOL    HW118203   1.180   6.373   4.181
 5768SOL    HW218204   1.031   6.398   4.242
 5769SOL     OW18205   2.182   5.628   4.236
 5769SOL    HW118206   2.179   5.568   4.316
 5769SOL    HW218207   2.222   5.579   4.159
 5770SOL     OW18208   6.482   6.055   6.554
 5770SOL    HW118209   6.412   6.065   6.483
 5770SOL    HW218210   6.476   5.963   6.593
 5771SOL     OW18211   0.995   6.953   4.468
 5771SOL    HW118212   0.916   6.989   4.517
 5771SOL    HW218213   0.984   6.855   4.452
 5772SOL     OW18214   5.491   1.227   1.729
 5772SOL    HW118215   5.433   1.167   1.784
 5772SOL    HW218216   5.507   1.312   1.779
 5773SOL     OW18217   3.915   0.625   3.393
 5773SOL    HW118218   3.887   0.721   3.394
 5773SOL    HW218219   3.926   0.594   3.298
 5774SOL     OW18220   3.045   6.394   3.992
 5774SOL    HW118221   3.002   6.346   4.069
 5774SOL    HW218222   3.032   6.340   3.908
 5775SOL     OW18223   1.469   0.455   2.592
 5775SOL    HW118224   1.563   0.474   2.620
 5775SOL    HW218225   1.453   0.357   2.594
 5776SOL     OW18226   0.350   0.850   4.229
 5776SOL    HW118227   0.354   0.892   4.139
 5776SOL    HW218228   0.442   0.819   4.255
 5777SOL     OW18229   6.708   0.639   4.792
 5777SOL    HW118230   6.638   0.620   4.861
 5777SOL    HW218231   6.764   0.557   4.778
 5778SOL     OW18232   1.475   0.362   0.509
 5778SOL    HW118233   1.530   0.384   0.590
 5778SOL    HW218234   1.532   0.369   0.427
 5779SOL     OW18235   4.259   2.651   1.068
 5779SOL    HW118236   4.337   2.603   1.027
 5779SOL    HW218237   4.279   2.748   1.075
 5780SOL     OW18238   6.420   5.872   4.329
 5780SOL    HW118239   6.379   5.836   4.245
 5780SOL    HW218240   6.453   5.797   4.385
 5781SOL     OW18241   6.503   5.376   4.706
 5781SOL    HW118242   6.508   5.279   4.726
 5781SOL    HW218243   6.561   5.427   4.770
 5782SOL     OW18244   1.239   1.598   0.777
 5782SOL    HW118245   1.191   1.648   0.705
 5782SOL    HW218246   1.195   1.510   0.792
 5783SOL     OW18247   1.005   0.595   1.848
 5783SOL    HW118248   1.095   0.627   1.879
 5783SOL    HW218249   0.943   0.674   1.841
 5784SOL     OW18250   6.966   5.663   6.369
 5784SOL    HW118251   6.881   5.641   6.416
 5784SOL    HW218252   6.976   5.762   6.362
 5785SOL     OW18253   2.356   1.680   0.533
 5785SOL    HW118254   2.385   1.631   0.615
 5785SOL    HW218255   2.360   1.778   0.550
 5786SOL     OW18256   1.209   3.769   0.584
 5786SOL    HW118257   1.208   3.868   0.594
 5786SOL    HW218258   1.232   3.745   0.490
 5787SOL     OW18259   3.532   2.040   4.959
 5787SOL    HW118260   3.440   2.052   4.923
 5787SOL    HW218261   3.535   2.071   5.055
 5788SOL     OW18262   2.965   1.271   1.363
 5788SOL    HW118263   2.992   1.178   1.387
 5788SOL    HW218264   2.951   1.277   1.264
 5789SOL     OW18265   3.365   4.607   6.630
 5789SOL    HW118266   3.435   4.630   6.562
 5789SOL    HW218267   3.370   4.671   6.707
 5790SOL     OW18268   0.912   4.836   4.601
 5790SOL    HW118269   0.934   4.740   4.613
 5790SOL    HW218270   0.996   4.890   4.592
 5791SOL     OW18271   3.432   1.409   2.947
 5791SOL    HW118272   3.499   1.387   3.017
 5791SOL    HW218273   3.357   1.461   2.987
 5792SOL     OW18274   6.039   3.313   2.303
 5792SOL    HW118275   5.944   3.286   2.316
 5792SOL    HW218276   6.080   3.258   2.231
 5793SOL     OW18277   4.902   1.100   3.727
 5793SOL    HW118278   4.867   1.157   3.653
 5793SOL    HW218279   4.856   1.124   3.812
 5794SOL     OW18280   2.309   0.682   0.091
 5794SOL    HW118281   2.346   0.767   0.052
 5794SOL    HW218282   2.211   0.677   0.074
 5795SOL     OW18283   6.385   0.096   6.622
 5795SOL    HW118284   6.289   0.090   6.648
 5795SOL    HW218285   6.443   0.067   6.698
 5796SOL     OW18286   4.941   1.536   6.139
 5796SOL    HW118287   4.911   1.590   6.218
 5796SOL    HW218288   5.034   1.561   6.114
 5797SOL     OW18289   4.975   2.405   6.422
 5797SOL    HW118290   4.911   2.332   6.397
 5797SOL    HW218291   5.065   2.385   6.382
 5798SOL     OW18292   0.922   4.869   5.143
 5798SOL    HW118293   0.922   4.778   5.185
 5798SOL    HW218294   0.873   4.933   5.201
 5799SOL     OW18295   0.440   0.579   3.385
 5799SOL    HW118296   0.532   0.565   3.421
 5799SOL    HW218297   0.376   0.517   3.431
 5800SOL     OW18298   6.175   6.350   1.981
 5800SOL    HW118299   6.135   6.265   2.013
 5800SOL    HW218300   6.273   6.337   1.967
 5801SOL     OW18301   2.089   2.686   3.578
 5801SOL    HW118302   2.186   2.709   3.585
 5801SOL    HW218303   2.080   2.588   3.559
 5802SOL     OW18304   0.541   4.113   2.233
 5802SOL    HW118305   0.544   4.177   2.156
 5802SOL    HW218306   0.533   4.020   2.198
 5803SOL     OW18307   2.507   5.478   2.137
 5803SOL    HW118308   2.452   5.527   2.069
 5803SOL    HW218309   2.597   5.458   2.099
 5804SOL     OW18310   0.188   6.157   3.850
 5804SOL    HW118311   0.105   6.109   3.823
 5804SOL    HW218312   0.168   6.255   3.861
 5805SOL     OW18313   2.140   3.344   0.176
 5805SOL    HW118314   2.160   3.325   0.079
 5805SOL    HW218315   2.041   3.354   0.187
 5806SOL     OW18316   6.785   5.179   5.112
 5806SOL    HW118317   6.697   5.186   5.159
 5806SOL    HW218318   6.770   5.158   5.015
 5807SOL     OW18319   0.733   3.660   1.628
 5807SOL    HW118320   0.824   3.639   1.664
 5807SOL    HW218321   0.730   3.756   1.600
 5808SOL     OW18322   6.088   5.824   4.869
 5808SOL    HW118323   6.134   5.857   4.952
 5808SOL    HW218324   6.027   5.748   4.893
 5809SOL     OW18325   5.474   2.143   4.716
 5809SOL    HW118326   5.419   2.073   4.670
 5809SOL    HW218327   5.458   2.138   4.814
 5810SOL     OW18328   3.805   1.438   4.817
 5810SOL    HW118329   3.833   1.475   4.729
 5810SOL    HW218330   3.731   1.494   4.855
 5811SOL     OW18331   3.146   0.963   4.929
 5811SOL    HW118332   3.119   1.058   4.915
 5811SOL    HW218333   3.221   0.940   4.867
 5812SOL     OW18334   6.254   2.424   4.147
 5812SOL    HW118335   6.294   2.414   4.239
 5812SOL    HW218336   6.284   2.346   4.091
 5813SOL     OW18337   1.723   1.798   0.884
 5813SOL    HW118338   1.738   1.850   0.800
 5813SOL    HW218339   1.754   1.851   0.963
 5814SOL     OW18340   6.346   4.495   2.176
 5814SOL    HW118341   6.429   4.440   2.176
 5814SOL    HW218342   6.293   4.476   2.092
 5815SOL     OW18343   3.888   1.739   4.424
 5815SOL    HW118344   3.893   1.748   4.325
 5815SOL    HW218345   3.916   1.826   4.466
 5816SOL     OW18346   4.497   5.328   0.291
 5816SOL    HW118347   4.573   5.391   0.272
 5816SOL    HW218348   4.422   5.348   0.228
 5817SOL     OW18349   5.493   3.617   5.894
 5817SOL    HW118350   5.502   3.629   5.993
 5817SOL    HW218351   5.396   3.624   5.869
 5818SOL     OW18352   6.618   5.593   4.835
 5818SOL    HW118353   6.713   5.571   4.861
 5818SOL    HW218354   6.617   5.679   4.783
 5819SOL     OW18355   3.849   6.596   6.533
 5819SOL    HW118356   3.930   6.639   6.572
 5819SOL    HW218357   3.876   6.517   6.478
 5820SOL     OW18358   4.641   5.258   3.669
 5820SOL    HW118359   4.578   5.300   3.604
 5820SOL    HW218360   4.594   5.185   3.718
 5821SOL     OW18361   0.007   6.441   1.319
 5821SOL    HW118362   6.952   6.497   1.361
 5821SOL    HW218363   0.010   6.352   1.363
 5822SOL     OW18364   2.093   2.411   1.483
 5822SOL    HW118365   2.143   2.435   1.400
 5822SOL    HW218366   2.156   2.370   1.549
 5823SOL     OW18367   1.688   0.397   5.389
 5823SOL    HW118368   1.756   0.444   5.333
 5823SOL    HW218369   1.618   0.356   5.331
 5824SOL     OW18370   6.920   5.838   2.160
 5824SOL    HW118371   0.002   5.821   2.151
 5824SOL    HW218372   6.907   5.924   2.210
 5825SOL     OW18373   0.645   1.808   5.553
 5825SOL    HW118374   0.565   1.770   5.506
 5825SOL    HW218375   0.708   1.734   5.575
 5826SOL     OW18376   0.112   4.929   6.065
 5826SOL    HW118377   0.116   5.023   6.029
 5826SOL    HW218378   0.107   4.865   5.989
 5827SOL     OW18379   1.874   4.225   4.877
 5827SOL    HW118380   1.915   4.196   4.791
 5827SOL    HW218381   1.940   4.213   4.951
 5828SOL     OW18382   6.638   1.738   1.551
 5828SOL    HW118383   6.689   1.812   1.507
 5828SOL    HW218384   6.621   1.762   1.646
 5829SOL     OW18385   1.292   0.718   3.292
 5829SOL    HW118386   1.338   0.684   3.374
 5829SOL    HW218387   1.281   0.643   3.227
 5830SOL     OW18388   5.139   6.406   5.604
 5830SOL    HW118389   5.148   6.470   5.528
 5830SOL    HW218390   5.042   6.395   5.627
 5831SOL     OW18391   1.206   1.470   5.739
 5831SOL    HW118392   1.255   1.510   5.815
 5831SOL    HW218393   1.136   1.407   5.773
 5832SOL     OW18394   2.756   4.672   6.719
 5832SOL    HW118395   2.696   4.630   6.651
 5832SOL    HW218396   2.843   4.624   6.722
 5833SOL     OW18397   3.515   3.649   4.979
 5833SOL    HW118398   3.440   3.700   5.022
 5833SOL    HW218399   3.577   3.616   5.050
 5834SOL     OW18400   0.024   2.920   0.300
 5834SOL    HW118401   0.078   3.001   0.276
 5834SOL    HW218402   0.025   2.855   0.224
 5835SOL     OW18403   4.898   3.222   3.570
 5835SOL    HW118404   4.991   3.195   3.545
 5835SOL    HW218405   4.895   3.322   3.583
 5836SOL     OW18406   2.594   6.456   1.978
 5836SOL    HW118407   2.541   6.505   2.048
 5836SOL    HW218408   2.689   6.449   2.008
 5837SOL     OW18409   3.801   3.806   6.102
 5837SOL    HW118410   3.814   3.707   6.096
 5837SOL    HW218411   3.861   3.851   6.036
 5838SOL     OW18412   2.699   2.140   0.703
 5838SOL    HW118413   2.745   2.179   0.624
 5838SOL    HW218414   2.600   2.137   0.685
 5839SOL     OW18415   0.718   2.059   2.583
 5839SOL    HW118416   0.800   2.095   2.626
 5839SOL    HW218417   0.723   2.076   2.484
 5840SOL     OW18418   0.301   5.542   6.220
 5840SOL    HW118419   0.268   5.589   6.302
 5840SOL    HW218420   0.397   5.519   6.233
 5841SOL     OW18421   4.902   1.837   2.270
 5841SOL    HW118422   4.956   1.875   2.195
 5841SOL    HW218423   4.880   1.741   2.251
 5842SOL     OW18424   4.724   3.065   1.258
 5842SOL    HW118425   4.726   3.142   1.193
 5842SOL    HW218426   4.818   3.041   1.284
 5843SOL     OW18427   1.484   4.165   2.928
 5843SOL    HW118428   1.392   4.169   2.886
 5843SOL    HW218429   1.480   4.111   3.012
 5844SOL     OW18430   1.965   6.090   5.894
 5844SOL    HW118431   1.921   6.011   5.851
 5844SOL    HW218432   2.032   6.058   5.962
 5845SOL     OW18433   0.417   0.231   2.502
 5845SOL    HW118434   0.504   0.189   2.528
 5845SOL    HW218435   0.435   0.321   2.461
 5846SOL     OW18436   6.756   2.920   4.659
 5846SOL    HW118437   6.678   2.944   4.601
 5846SOL    HW218438   6.736   2.835   4.709
 5847SOL     OW18439   2.605   2.281   1.406
 5847SOL    HW118440   2.697   2.293   1.445
 5847SOL    HW218441   2.550   2.225   1.468
 5848SOL     OW18442   1.920   6.420   3.114
 5848SOL    HW118443   2.005   6.381   3.149
 5848SOL    HW218444   1.874   6.472   3.186
 5849SOL     OW18445   0.792   0.594   6.126
 5849SOL    HW118446   0.859   0.596   6.200
 5849SOL    HW218447   0.708   0.640   6.156
 5850SOL     OW18448   6.940   3.327   2.411
 5850SOL    HW118449   6.957   3.300   2.506
 5850SOL    HW218450   0.002   3.379   2.377
 5851SOL     OW18451   4.881   3.611   2.751
 5851SOL    HW118452   4.896   3.591   2.654
 5851SOL    HW218453   4.947   3.561   2.806
 5852SOL     OW18454   6.155   5.827   3.192
 5852SOL    HW118455   6.058   5.832   3.216
 5852SOL    HW218456   6.188   5.918   3.168
 5853SOL     OW18457   3.525   5.904   4.035
 5853SOL    HW118458   3.490   5.980   3.979
 5853SOL    HW218459   3.613   5.874   3.997
 5854SOL     OW18460   5.017   4.382   6.138
 5854SOL    HW118461   5.082   4.444   6.096
 5854SOL    HW218462   4.924   4.418   6.130
 5855SOL     OW18463   0.765   1.768   4.665
 5855SOL    HW118464   0.686   1.826   4.683
 5855SOL    HW218465   0.759   1.685   4.719
 5856SOL     OW18466   2.330   5.642   3.765
 5856SOL    HW118467   2.236   5.670   3.748
 5856SOL    HW218468   2.388   5.672   3.689
 5857SOL     OW18469   6.438   1.782   5.975
 5857SOL    HW118470   6.459   1.847   6.048
 5857SOL    HW218471   6.524   1.743   5.940
 5858SOL     OW18472   2.811   1.870   2.331
 5858SOL    HW118473   2.839   1.886   2.237
 5858SOL    HW218474   2.730   1.926   2.352
 5859SOL     OW18475   5.824   6.319   1.358
 5859SOL    HW118476   5.892   6.247   1.352
 5859SOL    HW218477   5.782   6.318   1.449
 5860SOL     OW18478   0.953   3.503   1.708
 5860SOL    HW118479   1.037   3.465   1.671
 5860SOL    HW218480   0.918   3.444   1.780
 5861SOL     OW18481   4.401   1.769   4.450
 5861SOL    HW118482   4.355   1.680   4.440
 5861SOL    HW218483   4.344   1.829   4.507
 5862SOL     OW18484   5.835   5.109   1.341
 5862SOL    HW118485   5.811   5.095   1.437
 5862SOL    HW218486   5.871   5.024   1.302
 5863SOL     OW18487   3.720   1.957   5.221
 5863SOL    HW118488   3.666   1.918   5.296
 5863SOL    HW218489   3.702   2.055   5.214
 5864SOL     OW18490   4.005   3.679   1.843
 5864SOL    HW118491   4.033   3.708   1.934
 5864SOL    HW218492   4.085   3.643   1.793
 5865SOL     OW18493   6.232   0.427   4.797
 5865SOL    HW118494   6.200   0.349   4.850
 5865SOL    HW218495   6.322   0.408   4.760
 5866SOL     OW18496   4.333   4.695   7.000
 5866SOL    HW118497   4.390   4.653   6.930
 5866SOL    HW218498   4.259   4.746   6.957
 5867SOL     OW18499   1.863   3.628   0.691
 5867SOL    HW118500   1.837   3.618   0.595
 5867SOL    HW218501   1.789   3.672   0.741
 5868SOL     OW18502   0.980   2.051   5.798
 5868SOL    HW118503   1.060   1.996   5.820
 5868SOL    HW218504   0.942   2.021   5.710
 5869SOL     OW18505   1.495   5.977   3.578
 5869SOL    HW118506   1.589   5.962   3.547
 5869SOL    HW218507   1.438   5.899   3.550
 5870SOL     OW18508   5.127   5.642   4.768
 5870SOL    HW118509   5.209   5.697   4.783
 5870SOL    HW218510   5.088   5.663   4.679
 5871SOL     OW18511   4.047   2.764   1.388
 5871SOL    HW118512   3.961   2.811   1.369
 5871SOL    HW218513   4.030   2.690   1.453
 5872SOL     OW18514   4.046   6.342   0.998
 5872SOL    HW118515   3.966   6.397   1.019
 5872SOL    HW218516   4.020   6.246   0.987
 5873SOL     OW18517   3.090   1.900   1.520
 5873SOL    HW118518   3.037   1.952   1.452
 5873SOL    HW218519   3.057   1.923   1.612
 5874SOL     OW18520   3.077   3.942   6.563
 5874SOL    HW118521   3.133   3.859   6.571
 5874SOL    HW218522   3.097   3.988   6.477
 5875SOL     OW18523   4.369   0.944   6.632
 5875SOL    HW118524   4.423   0.948   6.548
 5875SOL    HW218525   4.373   0.851   6.669
 5876SOL     OW18526   3.482   3.687   0.689
 5876SOL    HW118527   3.417   3.681   0.765
 5876SOL    HW218528   3.548   3.760   0.708
 5877SOL     OW18529   0.253   0.470   1.184
 5877SOL    HW118530   0.211   0.532   1.250
 5877SOL    HW218531   0.331   0.424   1.225
 5878SOL     OW18532   6.248   5.015   4.159
 5878SOL    HW118533   6.255   4.916   4.150
 5878SOL    HW218534   6.285   5.043   4.248
 5879SOL     OW18535   1.996   3.871   6.710
 5879SOL    HW118536   2.091   3.886   6.684
 5879SOL    HW218537   1.976   3.773   6.714
 5880SOL     OW18538   5.473   4.281   6.697
 5880SOL    HW118539   5.442   4.192   6.730
 5880SOL    HW218540   5.394   4.337   6.673
 5881SOL     OW18541   0.846   6.429   2.440
 5881SOL    HW118542   0.799   6.413   2.353
 5881SOL    HW218543   0.945   6.419   2.427
 5882SOL     OW18544   0.084   5.253   6.574
 5882SOL    HW118545   0.029   5.222   6.496
 5882SOL    HW218546   0.050   5.342   6.606
 5883SOL     OW18547   0.556   1.924   6.659
 5883SOL    HW118548   0.465   1.889   6.637
 5883SOL    HW218549   0.554   2.024   6.664
 5884SOL     OW18550   4.767   1.545   3.855
 5884SOL    HW118551   4.739   1.611   3.924
 5884SOL    HW218552   4.711   1.556   3.773
 5885SOL     OW18553   6.798   5.681   2.483
 5885SOL    HW118554   6.829   5.775   2.469
 5885SOL    HW218555   6.804   5.658   2.580
 5886SOL     OW18556   0.319   2.130   3.722
 5886SOL    HW118557   0.389   2.166   3.660
 5886SOL    HW218558   0.361   2.104   3.809
 5887SOL     OW18559   2.504   2.481   1.563
 5887SOL    HW118560   2.552   2.442   1.485
 5887SOL    HW218561   2.538   2.573   1.582
 5888SOL     OW18562   1.677   0.409   1.047
 5888SOL    HW118563   1.760   0.384   1.096
 5888SOL    HW218564   1.698   0.480   0.979
 5889SOL     OW18565   6.925   1.184   0.152
 5889SOL    HW118566   6.842   1.182   0.209
 5889SOL    HW218567   6.928   1.101   0.096
 5890SOL     OW18568   2.001   0.921   2.740
 5890SOL    HW118569   2.009   0.977   2.657
 5890SOL    HW218570   2.029   0.974   2.820
 5891SOL     OW18571   3.436   4.263   0.052
 5891SOL    HW118572   3.529   4.298   0.040
 5891SOL    HW218573   3.438   4.163   0.053
 5892SOL     OW18574   0.979   5.308   1.965
 5892SOL    HW118575   0.960   5.340   1.872
 5892SOL    HW218576   1.077   5.312   1.982
 5893SOL     OW18577   1.945   3.951   2.684
 5893SOL    HW118578   2.027   4.008   2.694
 5893SOL    HW218579   1.968   3.870   2.630
 5894SOL     OW18580   0.568   5.506   4.655
 5894SOL    HW118581   0.580   5.413   4.688
 5894SOL    HW218582   0.514   5.558   4.721
 5895SOL     OW18583   5.113   3.577   3.794
 5895SOL    HW118584   5.174   3.512   3.841
 5895SOL    HW218585   5.162   3.619   3.718
 5896SOL     OW18586   4.143   1.673   1.295
 5896SOL    HW118587   4.169   1.701   1.387
 5896SOL    HW218588   4.044   1.659   1.291
 5897SOL     OW18589   4.154   0.810   1.749
 5897SOL    HW118590   4.163   0.813   1.649
 5897SOL    HW218591   4.202   0.730   1.784
 5898SOL     OW18592   2.615   0.690   4.787
 5898SOL    HW118593   2.640   0.746   4.708
 5898SOL    HW218594   2.689   0.691   4.854
 5899SOL     OW18595   6.133   5.456   6.705
 5899SOL    HW118596   6.068   5.522   6.744
 5899SOL    HW218597   6.222   5.468   6.748
 5900SOL     OW18598   6.712   4.538   3.346
 5900SOL    HW118599   6.678   4.486   3.268
 5900SOL    HW218600   6.736   4.475   3.420
 5901SOL     OW18601   3.512   0.505   1.137
 5901SOL    HW118602   3.544   0.573   1.203
 5901SOL    HW218603   3.429   0.539   1.092
 5902SOL     OW18604   6.098   3.231   5.529
 5902SOL    HW118605   6.023   3.231   5.463
 5902SOL    HW218606   6.186   3.231   5.481
 5903SOL     OW18607   5.002   4.382   5.765
 5903SOL    HW118608   5.089   4.387   5.813
 5903SOL    HW218609   4.950   4.466   5.779
 5904SOL     OW18610   1.415   5.094   0.967
 5904SOL    HW118611   1.451   5.172   1.017
 5904SOL    HW218612   1.318   5.081   0.990
 5905SOL     OW18613   6.243   0.418   4.055
 5905SOL    HW118614   6.293   0.454   4.134
 5905SOL    HW218615   6.212   0.325   4.075
 5906SOL     OW18616   4.188   1.966   3.747
 5906SOL    HW118617   4.247   1.891   3.775
 5906SOL    HW218618   4.103   1.964   3.800
 5907SOL     OW18619   0.841   5.673   0.529
 5907SOL    HW118620   0.856   5.717   0.617
 5907SOL    HW218621   0.823   5.575   0.543
 5908SOL     OW18622   6.677   3.249   0.768
 5908SOL    HW118623   6.731   3.229   0.687
 5908SOL    HW218624   6.718   3.327   0.817
 5909SOL     OW18625   6.464   4.757   6.643
 5909SOL    HW118626   6.510   4.827   6.697
 5909SOL    HW218627   6.524   4.725   6.570
 5910SOL     OW18628   0.336   4.397   2.155
 5910SOL    HW118629   0.313   4.331   2.084
 5910SOL    HW218630   0.277   4.383   2.235
 5911SOL     OW18631   6.595   4.255   6.493
 5911SOL    HW118632   6.584   4.159   6.518
 5911SOL    HW218633   6.531   4.311   6.547
 5912SOL     OW18634   5.823   3.047   6.399
 5912SOL    HW118635   5.860   2.981   6.334
 5912SOL    HW218636   5.808   3.001   6.487
 5913SOL     OW18637   3.953   3.625   6.724
 5913SOL    HW118638   3.982   3.668   6.809
 5913SOL    HW218639   4.018   3.646   6.651
 5914SOL     OW18640   2.284   5.467   6.511
 5914SOL    HW118641   2.323   5.379   6.482
 5914SOL    HW218642   2.352   5.539   6.500
 5915SOL     OW18643   5.559   4.520   1.662
 5915SOL    HW118644   5.532   4.543   1.756
 5915SOL    HW218645   5.537   4.424   1.643
 5916SOL     OW18646   4.278   5.775   5.005
 5916SOL    HW118647   4.339   5.696   5.001
 5916SOL    HW218648   4.332   5.859   4.996
 5917SOL     OW18649   3.567   3.762   3.593
 5917SOL    HW118650   3.500   3.729   3.659
 5917SOL    HW218651   3.619   3.838   3.632
 5918SOL     OW18652   2.021   3.020   5.263
 5918SOL    HW118653   2.087   3.080   5.308
 5918SOL    HW218654   1.941   3.073   5.236
 5919SOL     OW18655   4.443   2.996   0.781
 5919SOL    HW118656   4.460   3.007   0.879
 5919SOL    HW218657   4.347   3.019   0.761
 5920SOL     OW18658   3.600   0.378   0.185
 5920SOL    HW118659   3.529   0.442   0.214
 5920SOL    HW218660   3.626   0.396   0.091
 5921SOL     OW18661   3.838   5.312   5.859
 5921SOL    HW118662   3.877   5.297   5.950
 5921SOL    HW218663   3.870   5.400   5.823
 5922SOL     OW18664   6.519   5.340   3.232
 5922SOL    HW118665   6.522   5.407   3.157
 5922SOL    HW218666   6.470   5.258   3.201
 5923SOL     OW18667   5.502   1.132   1.118
 5923SOL    HW118668   5.472   1.058   1.057
 5923SOL    HW218669   5.588   1.106   1.161
 5924SOL     OW18670   0.116   1.507   3.625
 5924SOL    HW118671   0.135   1.515   3.723
 5924SOL    HW218672   0.053   1.431   3.609
 5925SOL     OW18673   3.996   5.400   2.097
 5925SOL    HW118674   3.917   5.341   2.081
 5925SOL    HW218675   3.964   5.489   2.129
 5926SOL     OW18676   3.868   5.489   1.715
 5926SOL    HW118677   3.846   5.572   1.766
 5926SOL    HW218678   3.796   5.470   1.649
 5927SOL     OW18679   1.508   4.423   3.031
 5927SOL    HW118680   1.552   4.386   3.113
 5927SOL    HW218681   1.502   4.351   2.962
 5928SOL     OW18682   3.591   0.270   0.793
 5928SOL    HW118683   3.616   0.334   0.721
 5928SOL    HW218684   3.492   0.272   0.806
 5929SOL     OW18685   0.580   6.212   6.190
 5929SOL    HW118686   0.578   6.221   6.289
 5929SOL    HW218687   0.520   6.138   6.161
 5930SOL     OW18688   6.755   2.675   3.610
 5930SOL    HW118689   6.757   2.739   3.532
 5930SOL    HW218690   6.814   2.597   3.591
 5931SOL     OW18691   6.979   5.432   3.584
 5931SOL    HW118692   6.984   5.341   3.545
 5931SOL    HW218693   6.884   5.465   3.579
 5932SOL     OW18694   2.092   0.035   0.422
 5932SOL    HW118695   2.096   0.125   0.379
 5932SOL    HW218696   2.101   6.981   0.353
 5933SOL     OW18697   0.148   6.389   4.007
 5933SOL    HW118698   0.238   6.349   3.992
 5933SOL    HW218699   0.142   6.424   4.100
 5934SOL     OW18700   3.955   3.864   4.471
 5934SOL    HW118701   3.861   3.839   4.446
 5934SOL    HW218702   3.955   3.952   4.518
 5935SOL     OW18703   4.400   4.013   5.865
 5935SOL    HW118704   4.424   4.013   5.962
 5935SOL    HW218705   4.366   3.922   5.839
 5936SOL     OW18706   4.119   3.523   0.868
 5936SOL    HW118707   4.164   3.519   0.779
 5936SOL    HW218708   4.022   3.503   0.858
 5937SOL     OW18709   0.664   4.795   2.766
 5937SOL    HW118710   0.761   4.795   2.790
 5937SOL    HW218711   0.609   4.795   2.849
 5938SOL     OW18712   0.920   4.887   4.163
 5938SOL    HW118713   0.998   4.834   4.195
 5938SOL    HW218714   0.871   4.925   4.242
 5939SOL     OW18715   2.880   6.867   3.032
 5939SOL    HW118716   2.837   6.957   3.025
 5939SOL    HW218717   2.931   6.862   3.118
 5940SOL     OW18718   4.651   5.611   0.983
 5940SOL    HW118719   4.561   5.623   0.941
 5940SOL    HW218720   4.673   5.691   1.038
 5941SOL     OW18721   5.782   3.462   1.775
 5941SOL    HW118722   5.792   3.560   1.792
 5941SOL    HW218723   5.775   3.414   1.863
 5942SOL     OW18724   5.517   2.930   0.089
 5942SOL    HW118725   5.435   2.924   0.032
 5942SOL    HW218726   5.579   2.998   0.051
 5943SOL     OW18727   4.081   5.447   0.005
 5943SOL    HW118728   4.028   5.368   6.991
 5943SOL    HW218729   4.081   5.516   6.949
 5944SOL     OW18730   6.491   2.628   1.363
 5944SOL    HW118731   6.400   2.599   1.333
 5944SOL    HW218732   6.517   2.713   1.316
 5945SOL     OW18733   6.362   5.045   5.086
 5945SOL    HW118734   6.404   5.003   5.167
 5945SOL    HW218735   6.364   5.144   5.095
 5946SOL     OW18736   3.213   3.484   5.822
 5946SOL    HW118737   3.311   3.505   5.827
 5946SOL    HW218738   3.170   3.543   5.754
 5947SOL     OW18739   3.730   3.786   2.084
 5947SOL    HW118740   3.816   3.836   2.073
 5947SOL    HW218741   3.662   3.845   2.126
 5948SOL     OW18742   4.205   5.449   2.867
 5948SOL    HW118743   4.230   5.435   2.771
 5948SOL    HW218744   4.111   5.481   2.873
 5949SOL     OW18745   4.518   3.520   1.687
 5949SOL    HW118746   4.594   3.537   1.750
 5949SOL    HW218747   4.545   3.546   1.594
 5950SOL     OW18748   4.698   2.650   5.550
 5950SOL    HW118749   4.725   2.732   5.499
 5950SOL    HW218750   4.604   2.660   5.581
 5951SOL     OW18751   0.385   5.696   4.813
 5951SOL    HW118752   0.314   5.667   4.877
 5951SOL    HW218753   0.465   5.728   4.863
 5952SOL     OW18754   5.487   4.739   4.040
 5952SOL    HW118755   5.428   4.662   4.062
 5952SOL    HW218756   5.444   4.824   4.070
 5953SOL     OW18757   6.095   2.609   5.102
 5953SOL    HW118758   6.022   2.580   5.164
 5953SOL    HW218759   6.083   2.564   5.014
 5954SOL     OW18760   0.579   4.465   5.664
 5954SOL    HW118761   0.580   4.373   5.626
 5954SOL    HW218762   0.584   4.461   5.764
 5955SOL     OW18763   5.357   5.526   2.715
 5955SOL    HW118764   5.326   5.509   2.621
 5955SOL    HW218765   5.281   5.512   2.778
 5956SOL     OW18766   3.852   1.109   6.045
 5956SOL    HW118767   3.931   1.147   6.094
 5956SOL    HW218768   3.789   1.183   6.022
 5957SOL     OW18769   4.115   0.916   5.606
 5957SOL    HW118770   4.144   0.839   5.550
 5957SOL    HW218771   4.112   0.889   5.702
 5958SOL     OW18772   6.191   6.033   2.544
 5958SOL    HW118773   6.153   6.089   2.470
 5958SOL    HW218774   6.125   5.962   2.569
 5959SOL     OW18775   3.923   2.103   5.498
 5959SOL    HW118776   3.842   2.104   5.556
 5959SOL    HW218777   4.004   2.121   5.554
 5960SOL     OW18778   3.882   5.330   4.074
 5960SOL    HW118779   3.806   5.314   4.137
 5960SOL    HW218780   3.858   5.294   3.983
 5961SOL     OW18781   5.124   1.074   3.377
 5961SOL    HW118782   5.045   1.015   3.396
 5961SOL    HW218783   5.163   1.049   3.288
 5962SOL     OW18784   4.920   6.176   0.976
 5962SOL    HW118785   4.877   6.241   0.913
 5962SOL    HW218786   4.858   6.100   0.993
 5963SOL     OW18787   3.387   3.097   4.967
 5963SOL    HW118788   3.324   3.152   5.022
 5963SOL    HW218789   3.348   3.007   4.951
 5964SOL     OW18790   0.174   5.314   5.621
 5964SOL    HW118791   0.144   5.260   5.700
 5964SOL    HW218792   0.273   5.304   5.610
 5965SOL     OW18793   1.151   2.067   0.112
 5965SOL    HW118794   1.068   2.046   0.062
 5965SOL    HW218795   1.127   2.107   0.201
 5966SOL     OW18796   2.304   5.773   5.251
 5966SOL    HW118797   2.308   5.712   5.172
 5966SOL    HW218798   2.281   5.866   5.221
 5967SOL     OW18799   4.097   6.296   0.174
 5967SOL    HW118800   4.141   6.209   0.148
 5967SOL    HW218801   4.126   6.368   0.111
 5968SOL     OW18802   5.057   1.005   1.126
 5968SOL    HW118803   5.013   0.917   1.107
 5968SOL    HW218804   5.097   1.003   1.217
 5969SOL     OW18805   0.218   0.435   6.934
 5969SOL    HW118806   0.196   0.468   0.010
 5969SOL    HW218807   0.306   0.472   6.905
 5970SOL     OW18808   0.642   4.428   2.912
 5970SOL    HW118809   0.566   4.365   2.894
 5970SOL    HW218810   0.634   4.463   3.005
 5971SOL     OW18811   1.080   0.886   2.388
 5971SOL    HW118812   1.069   0.965   2.329
 5971SOL    HW218813   1.009   0.887   2.459
 5972SOL     OW18814   5.103   6.074   6.504
 5972SOL    HW118815   5.040   5.997   6.509
 5972SOL    HW218816   5.195   6.043   6.527
 5973SOL     OW18817   2.137   3.179   2.411
 5973SOL    HW118818   2.127   3.094   2.359
 5973SOL    HW218819   2.152   3.255   2.348
 5974SOL     OW18820   5.750   4.446   6.283
 5974SOL    HW118821   5.800   4.450   6.197
 5974SOL    HW218822   5.672   4.509   6.279
 5975SOL     OW18823   3.361   1.636   0.712
 5975SOL    HW118824   3.389   1.569   0.780
 5975SOL    HW218825   3.436   1.652   0.648
 5976SOL     OW18826   2.980   3.190   5.154
 5976SOL    HW118827   3.077   3.174   5.136
 5976SOL    HW218828   2.930   3.104   5.146
 5977SOL     OW18829   2.837   5.720   0.327
 5977SOL    HW118830   2.817   5.648   0.260
 5977SOL    HW218831   2.829   5.683   0.419
 5978SOL     OW18832   5.419   5.601   3.252
 5978SOL    HW118833   5.406   5.687   3.203
 5978SOL    HW218834   5.332   5.571   3.292
 5979SOL     OW18835   6.265   0.241   2.881
 5979SOL    HW118836   6.282   0.336   2.906
 5979SOL    HW218837   6.182   0.208   2.927
 5980SOL     OW18838   3.659   3.339   0.352
 5980SOL    HW118839   3.620   3.416   0.301
 5980SOL    HW218840   3.623   3.339   0.445
 5981SOL     OW18841   5.987   1.402   1.674
 5981SOL    HW118842   5.916   1.331   1.669
 5981SOL    HW218843   6.027   1.415   1.584
 5982SOL     OW18844   6.644   2.837   1.547
 5982SOL    HW118845   6.655   2.831   1.448
 5982SOL    HW218846   6.701   2.910   1.583
 5983SOL     OW18847   1.749   1.043   4.575
 5983SOL    HW118848   1.823   1.068   4.512
 5983SOL    HW218849   1.785   1.040   4.669
 5984SOL     OW18850   6.360   6.068   4.801
 5984SOL    HW118851   6.405   6.053   4.713
 5984SOL    HW218852   6.412   6.135   4.854
 5985SOL     OW18853   7.002   2.870   4.099
 5985SOL    HW118854   6.992   2.830   4.190
 5985SOL    HW218855   0.017   2.801   4.035
 5986SOL     OW18856   3.305   3.368   4.468
 5986SOL    HW118857   3.388   3.423   4.467
 5986SOL    HW218858   3.253   3.387   4.551
 5987SOL     OW18859   4.031   0.232   4.842
 5987SOL    HW118860   4.106   0.298   4.835
 5987SOL    HW218861   4.068   0.140   4.851
 5988SOL     OW18862   5.333   6.688   5.148
 5988SOL    HW118863   5.272   6.691   5.069
 5988SOL    HW218864   5.280   6.670   5.231
 5989SOL     OW18865   2.861   5.955   0.155
 5989SOL    HW118866   2.838   5.886   0.224
 5989SOL    HW218867   2.830   5.924   0.065
 5990SOL     OW18868   4.099   4.540   0.596
 5990SOL    HW118869   4.067   4.544   0.501
 5990SOL    HW218870   4.091   4.447   0.630
 5991SOL     OW18871   3.423   5.453   6.365
 5991SOL    HW118872   3.486   5.375   6.357
 5991SOL    HW218873   3.446   5.504   6.448
 5992SOL     OW18874   3.426   0.451   3.107
 5992SOL    HW118875   3.497   0.468   3.176
 5992SOL    HW218876   3.371   0.373   3.136
 5993SOL     OW18877   3.058   6.031   5.840
 5993SOL    HW118878   3.140   5.975   5.848
 5993SOL    HW218879   3.081   6.126   5.861
 5994SOL     OW18880   6.455   2.499   2.349
 5994SOL    HW118881   6.467   2.592   2.315
 5994SOL    HW218882   6.358   2.481   2.363
 5995SOL     OW18883   5.817   4.709   2.922
 5995SOL    HW118884   5.745   4.774   2.896
 5995SOL    HW218885   5.906   4.748   2.901
 5996SOL     OW18886   1.182   6.236   0.329
 5996SOL    HW118887   1.252   6.285   0.381
 5996SOL    HW218888   1.183   6.139   0.355
 5997SOL     OW18889   0.612   5.728   2.681
 5997SOL    HW118890   0.533   5.737   2.620
 5997SOL    HW218891   0.607   5.799   2.752
 5998SOL     OW18892   6.218   2.390   2.427
 5998SOL    HW118893   6.210   2.302   2.381
 5998SOL    HW218894   6.129   2.416   2.464
 5999SOL     OW18895   1.644   1.698   2.396
 5999SOL    HW118896   1.654   1.598   2.394
 5999SOL    HW218897   1.579   1.723   2.468
 6000SOL     OW18898   4.111   6.617   1.317
 6000SOL    HW118899   4.179   6.641   1.247
 6000SOL    HW218900   4.021   6.650   1.287
 6001SOL     OW18901   0.617   3.871   6.719
 6001SOL    HW118902   0.669   3.786   6.714
 6001SOL    HW218903   0.520   3.852   6.702
 6002SOL     OW18904   6.481   0.289   0.946
 6002SOL    HW118905   6.404   0.343   0.979
 6002SOL    HW218906   6.510   0.225   1.017
 6003SOL     OW18907   6.981   2.148   4.051
 6003SOL    HW118908   0.033   2.213   4.020
 6003SOL    HW218909   6.947   2.175   4.141
 6004SOL     OW18910   0.472   4.272   3.234
 6004SOL    HW118911   0.570   4.285   3.248
 6004SOL    HW218912   0.422   4.319   3.307
 6005SOL     OW18913   5.159   5.267   4.558
 6005SOL    HW118914   5.161   5.176   4.599
 6005SOL    HW218915   5.252   5.302   4.548
 6006SOL     OW18916   2.683   0.581   6.719
 6006SOL    HW118917   2.597   0.552   6.676
 6006SOL    HW218918   2.664   0.656   6.783
 6007SOL     OW18919   4.967   3.535   5.234
 6007SOL    HW118920   4.947   3.586   5.318
 6007SOL    HW218921   4.892   3.549   5.168
 6008SOL     OW18922   1.690   5.066   5.375
 6008SOL    HW118923   1.634   5.088   5.295
 6008SOL    HW218924   1.707   4.967   5.377
 6009SOL     OW18925   3.546   0.890   4.051
 6009SOL    HW118926   3.494   0.831   3.989
 6009SOL    HW218927   3.643   0.884   4.029
 6010SOL     OW18928   1.867   4.311   3.708
 6010SOL    HW118929   1.938   4.305   3.637
 6010SOL    HW218930   1.849   4.407   3.729
 6011SOL     OW18931   5.047   2.919   3.264
 6011SOL    HW118932   5.068   2.928   3.166
 6011SOL    HW218933   4.950   2.936   3.279
 6012SOL     OW18934   5.233   1.030   0.046
 6012SOL    HW118935   5.143   1.042   0.088
 6012SOL    HW218936   5.274   0.945   0.077
 6013SOL     OW18937   5.624   2.899   3.183
 6013SOL    HW118938   5.549   2.845   3.143
 6013SOL    HW218939   5.608   2.996   3.166
 6014SOL     OW18940   4.333   3.674   1.261
 6014SOL    HW118941   4.379   3.589   1.284
 6014SOL    HW218942   4.393   3.731   1.206
 6015SOL     OW18943   5.919   2.328   4.645
 6015SOL    HW118944   5.823   2.348   4.667
 6015SOL    HW218945   5.945   2.240   4.683
 6016SOL     OW18946   6.614   1.443   5.775
 6016SOL    HW118947   6.692   1.483   5.727
 6016SOL    HW218948   6.646   1.391   5.854
 6017SOL     OW18949   0.302   4.032   2.809
 6017SOL    HW118950   0.291   3.944   2.855
 6017SOL    HW218951   0.216   4.084   2.813
 6018SOL     OW18952   2.634   0.861   6.234
 6018SOL    HW118953   2.610   0.784   6.294
 6018SOL    HW218954   2.652   0.942   6.289
 6019SOL     OW18955   6.648   1.570   4.034
 6019SOL    HW118956   6.554   1.604   4.038
 6019SOL    HW218957   6.676   1.540   4.125
 6020SOL     OW18958   2.015   5.566   1.450
 6020SOL    HW118959   2.113   5.571   1.429
 6020SOL    HW218960   2.003   5.544   1.546
 6021SOL     OW18961   4.327   0.843   2.483
 6021SOL    HW118962   4.300   0.880   2.393
 6021SOL    HW218963   4.415   0.881   2.509
 6022SOL     OW18964   4.468   1.986   4.022
 6022SOL    HW118965   4.529   1.912   3.994
 6022SOL    HW218966   4.413   1.956   4.100
 6023SOL     OW18967   6.429   0.594   1.670
 6023SOL    HW118968   6.332   0.618   1.674
 6023SOL    HW218969   6.484   0.668   1.709
 6024SOL     OW18970   0.719   5.028   3.218
 6024SOL    HW118971   0.682   5.106   3.168
 6024SOL    HW218972   0.782   5.061   3.288
 6025SOL     OW18973   3.646   1.757   2.577
 6025SOL    HW118974   3.619   1.736   2.483
 6025SOL    HW218975   3.672   1.672   2.623
 6026SOL     OW18976   6.962   4.094   4.904
 6026SOL    HW118977   6.974   4.073   5.001
 6026SOL    HW218978   6.990   4.015   4.849
 6027SOL     OW18979   1.439   3.975   6.344
 6027SOL    HW118980   1.428   3.885   6.303
 6027SOL    HW218981   1.378   4.041   6.299
 6028SOL     OW18982   1.023   4.330   0.276
 6028SOL    HW118983   1.056   4.391   0.204
 6028SOL    HW218984   0.979   4.384   0.347
 6029SOL     OW18985   2.380   6.320   4.891
 6029SOL    HW118986   2.469   6.294   4.853
 6029SOL    HW218987   2.316   6.245   4.879
 6030SOL     OW18988   4.109   6.179   2.713
 6030SOL    HW118989   4.049   6.232   2.653
 6030SOL    HW218990   4.074   6.086   2.721
 6031SOL     OW18991   3.684   5.201   2.970
 6031SOL    HW118992   3.623   5.154   2.906
 6031SOL    HW218993   3.630   5.240   3.045
 6032SOL     OW18994   2.540   4.552   2.964
 6032SOL    HW118995   2.489   4.633   2.935
 6032SOL    HW218996   2.634   4.558   2.931
 6033SOL     OW18997   2.865   1.503   2.623
 6033SOL    HW118998   2.906   1.412   2.630
 6033SOL    HW218999   2.865   1.533   2.527
 6034SOL     OW19000   0.556   5.464   4.260
 6034SOL    HW119001   0.512   5.528   4.323
 6034SOL    HW219002   0.650   5.492   4.244
 6035SOL     OW19003   6.622   0.548   2.705
 6035SOL    HW119004   6.692   0.618   2.697
 6035SOL    HW219005   6.664   0.460   2.727
 6036SOL     OW19006   6.247   5.763   4.640
 6036SOL    HW119007   6.249   5.792   4.735
 6036SOL    HW219008   6.190   5.682   4.630
 6037SOL     OW19009   4.569   4.960   6.461
 6037SOL    HW119010   4.573   4.971   6.362
 6037SOL    HW219011   4.660   4.978   6.500
 6038SOL     OW19012   1.512   2.819   6.370
 6038SOL    HW119013   1.424   2.866   6.369
 6038SOL    HW219014   1.530   2.778   6.280
 6039SOL     OW19015   3.316   2.865   2.455
 6039SOL    HW119016   3.242   2.914   2.500
 6039SOL    HW219017   3.302   2.867   2.356
 6040SOL     OW19018   0.499   2.287   6.032
 6040SOL    HW119019   0.563   2.230   5.980
 6040SOL    HW219020   0.545   2.321   6.114
 6041SOL     OW19021   2.152   0.621   5.029
 6041SOL    HW119022   2.229   0.642   4.969
 6041SOL    HW219023   2.075   0.680   5.006
 6042SOL     OW19024   5.596   5.826   2.534
 6042SOL    HW119025   5.595   5.749   2.469
 6042SOL    HW219026   5.574   5.793   2.625
 6043SOL     OW19027   1.076   4.719   6.036
 6043SOL    HW119028   1.075   4.750   5.941
 6043SOL    HW219029   1.015   4.775   6.091
 6044SOL     OW19030   1.534   1.668   1.416
 6044SOL    HW119031   1.589   1.741   1.375
 6044SOL    HW219032   1.438   1.696   1.417
 6045SOL     OW19033   6.778   5.034   1.489
 6045SOL    HW119034   6.695   5.068   1.445
 6045SOL    HW219035   6.834   4.986   1.422
 6046SOL     OW19036   3.384   1.718   6.578
 6046SOL    HW119037   3.413   1.788   6.512
 6046SOL    HW219038   3.383   1.756   6.670
 6047SOL     OW19039   5.932   2.389   2.302
 6047SOL    HW119040   5.919   2.454   2.228
 6047SOL    HW219041   6.014   2.335   2.285
 6048SOL     OW19042   4.589   5.834   4.060
 6048SOL    HW119043   4.664   5.899   4.071
 6048SOL    HW219044   4.519   5.875   4.001
 6049SOL     OW19045   5.724   2.956   5.699
 6049SOL    HW119046   5.818   2.958   5.667
 6049SOL    HW219047   5.701   3.042   5.744
 6050SOL     OW19048   2.974   5.160   4.346
 6050SOL    HW119049   3.048   5.226   4.359
 6050SOL    HW219050   2.936   5.170   4.254
 6051SOL     OW19051   2.678   1.548   4.474
 6051SOL    HW119052   2.748   1.478   4.458
 6051SOL    HW219053   2.717   1.638   4.456
 6052SOL     OW19054   6.250   0.141   0.765
 6052SOL    HW119055   6.193   0.069   0.724
 6052SOL    HW219056   6.346   0.114   0.759
 6053SOL     OW19057   3.298   0.830   6.534
 6053SOL    HW119058   3.210   0.802   6.494
 6053SOL    HW219059   3.299   0.929   6.547
 6054SOL     OW19060   3.000   3.889   0.277
 6054SOL    HW119061   3.079   3.911   0.334
 6054SOL    HW219062   2.916   3.903   0.330
 6055SOL     OW19063   4.764   1.137   5.657
 6055SOL    HW119064   4.753   1.058   5.596
 6055SOL    HW219065   4.860   1.143   5.686
 6056SOL     OW19066   5.144   2.812   4.671
 6056SOL    HW119067   5.141   2.910   4.695
 6056SOL    HW219068   5.059   2.768   4.700
 6057SOL     OW19069   4.882   2.555   4.453
 6057SOL    HW119070   4.974   2.574   4.487
 6057SOL    HW219071   4.819   2.624   4.490
 6058SOL     OW19072   4.914   2.646   1.605
 6058SOL    HW119073   4.935   2.629   1.508
 6058SOL    HW219074   4.920   2.745   1.623
 6059SOL     OW19075   5.261   4.718   4.852
 6059SOL    HW119076   5.325   4.774   4.904
 6059SOL    HW219077   5.309   4.675   4.775
 6060SOL     OW19078   3.538   4.183   6.174
 6060SOL    HW119079   3.462   4.214   6.231
 6060SOL    HW219080   3.544   4.084   6.178
 6061SOL     OW19081   3.894   2.211   1.439
 6061SOL    HW119082   3.895   2.263   1.524
 6061SOL    HW219083   3.956   2.133   1.447
 6062SOL     OW19084   2.020   1.785   4.598
 6062SOL    HW119085   2.078   1.866   4.587
 6062SOL    HW219086   1.942   1.808   4.657
 6063SOL     OW19087   3.649   1.493   6.598
 6063SOL    HW119088   3.581   1.499   6.525
 6063SOL    HW219089   3.646   1.403   6.640
 6064SOL     OW19090   2.286   5.820   1.166
 6064SOL    HW119091   2.211   5.803   1.229
 6064SOL    HW219092   2.253   5.809   1.072
 6065SOL     OW19093   5.689   6.840   2.389
 6065SOL    HW119094   5.705   6.935   2.360
 6065SOL    HW219095   5.626   6.839   2.466
 6066SOL     OW19096   4.860   2.183   6.263
 6066SOL    HW119097   4.784   2.129   6.299
 6066SOL    HW219098   4.837   2.219   6.172
 6067SOL     OW19099   5.446   1.760   6.034
 6067SOL    HW119100   5.489   1.787   5.948
 6067SOL    HW219101   5.475   1.667   6.058
 6068SOL     OW19102   5.582   2.967   4.654
 6068SOL    HW119103   5.490   2.992   4.684
 6068SOL    HW219104   5.632   3.049   4.627
 6069SOL     OW19105   6.485   3.348   4.793
 6069SOL    HW119106   6.495   3.433   4.740
 6069SOL    HW219107   6.550   3.348   4.869
 6070SOL     OW19108   2.401   2.302   0.676
 6070SOL    HW119109   2.493   2.337   0.658
 6070SOL    HW219110   2.407   2.212   0.719
 6071SOL     OW19111   5.854   4.884   4.627
 6071SOL    HW119112   5.853   4.975   4.667
 6071SOL    HW219113   5.806   4.820   4.687
 6072SOL     OW19114   0.105   6.446   1.694
 6072SOL    HW119115   0.159   6.484   1.769
 6072SOL    HW219116   0.074   6.521   1.635
 6073SOL     OW19117   6.314   4.097   0.379
 6073SOL    HW119118   6.229   4.051   0.351
 6073SOL    HW219119   6.327   4.086   0.477
 6074SOL     OW19120   1.263   6.099   4.335
 6074SOL    HW119121   1.218   6.189   4.329
 6074SOL    HW219122   1.258   6.054   4.246
 6075SOL     OW19123   0.216   2.030   6.677
 6075SOL    HW119124   0.258   1.940   6.682
 6075SOL    HW219125   0.210   2.069   6.769
 6076SOL     OW19126   1.894   6.084   4.313
 6076SOL    HW119127   1.842   6.110   4.394
 6076SOL    HW219128   1.943   6.163   4.277
 6077SOL     OW19129   5.345   5.907   1.848
 6077SOL    HW119130   5.280   5.983   1.840
 6077SOL    HW219131   5.395   5.916   1.934
 6078SOL     OW19132   3.748   5.212   1.123
 6078SOL    HW119133   3.796   5.221   1.211
 6078SOL    HW219134   3.650   5.225   1.137
 6079SOL     OW19135   3.317   3.053   6.539
 6079SOL    HW119136   3.289   3.064   6.444
 6079SOL    HW219137   3.241   3.014   6.592
 6080SOL     OW19138   6.849   0.529   1.866
 6080SOL    HW119139   6.909   0.516   1.945
 6080SOL    HW219140   6.871   0.615   1.821
 6081SOL     OW19141   6.236   3.111   4.720
 6081SOL    HW119142   6.311   3.089   4.783
 6081SOL    HW219143   6.150   3.112   4.770
 6082SOL     OW19144   2.383   1.664   3.676
 6082SOL    HW119145   2.379   1.764   3.670
 6082SOL    HW219146   2.478   1.633   3.664
 6083SOL     OW19147   0.455   4.863   0.016
 6083SOL    HW119148   0.485   4.786   6.977
 6083SOL    HW219149   0.528   4.890   0.079
 6084SOL     OW19150   0.186   5.828   3.818
 6084SOL    HW119151   0.218   5.920   3.795
 6084SOL    HW219152   0.170   5.776   3.735
 6085SOL     OW19153   0.754   4.222   0.416
 6085SOL    HW119154   0.843   4.251   0.449
 6085SOL    HW219155   0.682   4.262   0.474
 6086SOL     OW19156   3.578   1.177   5.838
 6086SOL    HW119157   3.644   1.235   5.886
 6086SOL    HW219158   3.602   1.174   5.741
 6087SOL     OW19159   4.373   6.052   0.355
 6087SOL    HW119160   4.428   5.988   0.301
 6087SOL    HW219161   4.366   6.020   0.449
 6088SOL     OW19162   5.808   6.302   4.321
 6088SOL    HW119163   5.889   6.253   4.290
 6088SOL    HW219164   5.767   6.254   4.398
 6089SOL     OW19165   6.509   3.447   1.169
 6089SOL    HW119166   6.437   3.457   1.100
 6089SOL    HW219167   6.539   3.351   1.172
 6090SOL     OW19168   2.253   6.196   5.345
 6090SOL    HW119169   2.182   6.242   5.292
 6090SOL    HW219170   2.283   6.113   5.297
 6091SOL     OW19171   1.767   1.706   2.129
 6091SOL    HW119172   1.714   1.707   2.213
 6091SOL    HW219173   1.852   1.656   2.143
 6092SOL     OW19174   3.364   7.010   3.342
 6092SOL    HW119175   3.411   6.927   3.371
 6092SOL    HW219176   3.363   0.059   3.418
 6093SOL     OW19177   1.805   3.266   2.610
 6093SOL    HW119178   1.777   3.183   2.562
 6093SOL    HW219179   1.794   3.252   2.709
 6094SOL     OW19180   3.871   0.806   1.513
 6094SOL    HW119181   3.861   0.893   1.463
 6094SOL    HW219182   3.782   0.777   1.547
 6095SOL     OW19183   4.233   3.485   6.645
 6095SOL    HW119184   4.196   3.544   6.573
 6095SOL    HW219185   4.236   3.536   6.731
 6096SOL     OW19186   5.816   0.573   3.809
 6096SOL    HW119187   5.912   0.545   3.807
 6096SOL    HW219188   5.801   0.637   3.885
 6097SOL     OW19189   2.001   0.552   2.135
 6097SOL    HW119190   2.052   0.468   2.149
 6097SOL    HW219191   1.904   0.537   2.158
 6098SOL     OW19192   1.235   2.529   6.537
 6098SOL    HW119193   1.192   2.453   6.585
 6098SOL    HW219194   1.293   2.493   6.464
 6099SOL     OW19195   6.944   5.964   0.524
 6099SOL    HW119196   6.979   5.883   0.475
 6099SOL    HW219197   6.866   5.937   0.580
 6100SOL     OW19198   5.274   3.366   0.207
 6100SOL    HW119199   5.366   3.378   0.243
 6100SOL    HW219200   5.269   3.280   0.156
 6101SOL     OW19201   6.008   2.025   4.669
 6101SOL    HW119202   5.945   1.971   4.613
 6101SOL    HW219203   6.058   2.089   4.610
 6102SOL     OW19204   3.249   6.458   3.463
 6102SOL    HW119205   3.257   6.362   3.436
 6102SOL    HW219206   3.231   6.463   3.562
 6103SOL     OW19207   0.575   2.417   2.598
 6103SOL    HW119208   0.504   2.393   2.532
 6103SOL    HW219209   0.664   2.413   2.553
 6104SOL     OW19210   5.585   1.291   5.375
 6104SOL    HW119211   5.683   1.300   5.391
 6104SOL    HW219212   5.544   1.240   5.451
 6105SOL     OW19213   1.440   0.736   5.257
 6105SOL    HW119214   1.489   0.684   5.187
 6105SOL    HW219215   1.489   0.821   5.276
 6106SOL     OW19216   1.596   4.115   5.631
 6106SOL    HW119217   1.610   4.057   5.711
 6106SOL    HW219218   1.640   4.073   5.551
 6107SOL     OW19219   2.423   4.586   4.544
 6107SOL    HW119220   2.346   4.611   4.486
 6107SOL    HW219221   2.409   4.495   4.582
 6108SOL     OW19222   1.075   2.486   1.933
 6108SOL    HW119223   1.115   2.527   2.015
 6108SOL    HW219224   0.982   2.520   1.922
 6109SOL     OW19225   4.934   3.111   6.313
 6109SOL    HW119226   4.991   3.131   6.233
 6109SOL    HW219227   4.920   3.012   6.320
 6110SOL     OW19228   4.093   2.960   6.951
 6110SOL    HW119229   4.167   2.984   7.014
 6110SOL    HW219230   4.024   2.906   6.999
 6111SOL     OW19231   2.299   4.200   2.091
 6111SOL    HW119232   2.340   4.181   2.002
 6111SOL    HW219233   2.280   4.114   2.138
 6112SOL     OW19234   3.180   6.951   3.152
 6112SOL    HW119235   3.091   6.947   3.199
 6112SOL    HW219236   3.251   6.972   3.218
 6113SOL     OW19237   1.498   1.117   6.014
 6113SOL    HW119238   1.441   1.109   6.096
 6113SOL    HW219239   1.554   1.034   6.005
 6114SOL     OW19240   5.144   5.232   1.178
 6114SOL    HW119241   5.079   5.202   1.248
 6114SOL    HW219242   5.096   5.285   1.108
 6115SOL     OW19243   4.751   0.224   3.693
 6115SOL    HW119244   4.773   0.128   3.708
 6115SOL    HW219245   4.697   0.234   3.610
 6116SOL     OW19246   2.734   0.308   0.694
 6116SOL    HW119247   2.683   0.314   0.780
 6116SOL    HW219248   2.721   0.391   0.641
 6117SOL     OW19249   0.033   0.509   5.940
 6117SOL    HW119250   0.056   0.531   6.034
 6117SOL    HW219251   6.950   0.503   5.930
 6118SOL     OW19252   6.165   0.395   1.710
 6118SOL    HW119253   6.075   0.375   1.748
 6118SOL    HW219254   6.190   0.324   1.643
 6119SOL     OW19255   0.835   3.722   5.456
 6119SOL    HW119256   0.847   3.716   5.357
 6119SOL    HW219257   0.876   3.808   5.489
 6120SOL     OW19258   4.242   6.978   4.254
 6120SOL    HW119259   4.308   6.903   4.259
 6120SOL    HW219260   4.243   0.000   4.161
 6121SOL     OW19261   0.841   3.346   5.046
 6121SOL    HW119262   0.923   3.383   5.001
 6121SOL    HW219263   0.771   3.328   4.977
 6122SOL     OW19264   3.676   7.015   1.510
 6122SOL    HW119265   3.733   6.934   1.526
 6122SOL    HW219266   3.661   0.046   1.597
 6123SOL     OW19267   6.271   0.514   6.286
 6123SOL    HW119268   6.278   0.608   6.319
 6123SOL    HW219269   6.240   0.455   6.360
 6124SOL     OW19270   2.233   0.984   6.609
 6124SOL    HW119271   2.282   1.067   6.637
 6124SOL    HW219272   2.135   1.004   6.604
 6125SOL     OW19273   1.980   5.560   0.038
 6125SOL    HW119274   1.955   5.640   6.999
 6125SOL    HW219275   1.913   5.548   0.110
 6126SOL     OW19276   6.941   6.704   4.248
 6126SOL    HW119277   6.846   6.673   4.260
 6126SOL    HW219278   6.947   6.766   4.171
 6127SOL     OW19279   3.206   6.987   2.226
 6127SOL    HW119280   3.113   6.973   2.191
 6127SOL    HW219281   3.213   6.949   2.318
 6128SOL     OW19282   6.465   3.411   0.404
 6128SOL    HW119283   6.381   3.410   0.349
 6128SOL    HW219284   6.517   3.493   0.382
 6129SOL     OW19285   6.626   3.569   2.919
 6129SOL    HW119286   6.562   3.518   2.976
 6129SOL    HW219287   6.670   3.641   2.973
 6130SOL     OW19288   6.603   2.319   3.949
 6130SOL    HW119289   6.582   2.324   3.851
 6130SOL    HW219290   6.700   2.339   3.963
 6131SOL     OW19291   0.256   1.815   5.229
 6131SOL    HW119292   0.184   1.751   5.205
 6131SOL    HW219293   0.252   1.834   5.327
 6132SOL     OW19294   4.847   1.282   0.423
 6132SOL    HW119295   4.858   1.264   0.521
 6132SOL    HW219296   4.788   1.212   0.383
 6133SOL     OW19297   1.102   2.489   2.626
 6133SOL    HW119298   1.089   2.565   2.562
 6133SOL    HW219299   1.192   2.496   2.669
 6134SOL     OW19300   3.982   4.315   6.491
 6134SOL    HW119301   4.010   4.300   6.396
 6134SOL    HW219302   4.038   4.258   6.551
 6135SOL     OW19303   0.491   0.046   1.724
 6135SOL    HW119304   0.529   0.128   1.681
 6135SOL    HW219305   0.559   0.006   1.785
 6136SOL     OW19306   1.001   2.961   2.094
 6136SOL    HW119307   1.015   3.052   2.133
 6136SOL    HW219308   0.911   2.957   2.051
 6137SOL     OW19309   5.558   2.383   3.822
 6137SOL    HW119310   5.544   2.446   3.898
 6137SOL    HW219311   5.604   2.300   3.854
 6138SOL     OW19312   4.790   6.297   1.869
 6138SOL    HW119313   4.704   6.284   1.920
 6138SOL    HW219314   4.773   6.356   1.790
 6139SOL     OW19315   2.127   1.701   5.312
 6139SOL    HW119316   2.082   1.724   5.398
 6139SOL    HW219317   2.209   1.648   5.332
 6140SOL     OW19318   0.564   6.303   1.580
 6140SOL    HW119319   0.471   6.272   1.560
 6140SOL    HW219320   0.560   6.391   1.628
 6141SOL     OW19321   5.910   5.225   6.352
 6141SOL    HW119322   5.903   5.312   6.303
 6141SOL    HW219323   5.844   5.160   6.314
 6142SOL     OW19324   0.127   5.004   0.780
 6142SOL    HW119325   0.225   5.020   0.795
 6142SOL    HW219326   0.100   4.921   0.829
 6143SOL     OW19327   6.396   4.594   0.343
 6143SOL    HW119328   6.477   4.640   0.308
 6143SOL    HW219329   6.315   4.648   0.320
 6144SOL     OW19330   6.647   5.022   3.102
 6144SOL    HW119331   6.673   4.936   3.059
 6144SOL    HW219332   6.673   5.098   3.043
 6145SOL     OW19333   4.490   5.533   3.723
 6145SOL    HW119334   4.560   5.584   3.773
 6145SOL    HW219335   4.460   5.455   3.778
 6146SOL     OW19336   3.249   0.187   3.600
 6146SOL    HW119337   3.229   0.268   3.656
 6146SOL    HW219338   3.237   0.105   3.655
 6147SOL     OW19339   1.482   3.731   4.539
 6147SOL    HW119340   1.545   3.763   4.468
 6147SOL    HW219341   1.529   3.729   4.627
 6148SOL     OW19342   6.878   0.407   4.751
 6148SOL    HW119343   6.973   0.436   4.755
 6148SOL    HW219344   6.869   0.328   4.691
 6149SOL     OW19345   3.329   5.052   1.300
 6149SOL    HW119346   3.335   5.039   1.399
 6149SOL    HW219347   3.328   4.963   1.255
 6150SOL     OW19348   4.273   4.615   6.511
 6150SOL    HW119349   4.216   4.607   6.592
 6150SOL    HW219350   4.240   4.551   6.441
 6151SOL     OW19351   5.787   3.960   5.373
 6151SOL    HW119352   5.763   3.972   5.469
 6151SOL    HW219353   5.871   4.011   5.353
 6152SOL     OW19354   5.808   5.824   5.136
 6152SOL    HW119355   5.803   5.905   5.078
 6152SOL    HW219356   5.904   5.798   5.148
 6153SOL     OW19357   4.933   3.925   1.969
 6153SOL    HW119358   4.991   3.997   1.931
 6153SOL    HW219359   4.987   3.842   1.980
 6154SOL     OW19360   5.690   1.442   2.696
 6154SOL    HW119361   5.705   1.538   2.721
 6154SOL    HW219362   5.605   1.410   2.738
 6155SOL     OW19363   1.762   2.475   4.649
 6155SOL    HW119364   1.793   2.439   4.738
 6155SOL    HW219365   1.842   2.495   4.592
 6156SOL     OW19366   4.665   4.922   2.098
 6156SOL    HW119367   4.585   4.900   2.042
 6156SOL    HW219368   4.635   4.958   2.186
 6157SOL     OW19369   1.127   1.336   4.596
 6157SOL    HW119370   1.109   1.270   4.522
 6157SOL    HW219371   1.071   1.313   4.675
 6158SOL     OW19372   4.711   0.738   5.877
 6158SOL    HW119373   4.749   0.715   5.788
 6158SOL    HW219374   4.737   0.669   5.944
 6159SOL     OW19375   5.099   1.788   1.803
 6159SOL    HW119376   5.145   1.859   1.856
 6159SOL    HW219377   5.163   1.715   1.783
 6160SOL     OW19378   4.770   0.057   6.179
 6160SOL    HW119379   4.716   0.076   6.260
 6160SOL    HW219380   4.790   0.142   6.131
 6161SOL     OW19381   5.197   1.196   4.730
 6161SOL    HW119382   5.269   1.169   4.665
 6161SOL    HW219383   5.169   1.290   4.712
 6162SOL     OW19384   1.220   6.274   3.689
 6162SOL    HW119385   1.237   6.267   3.591
 6162SOL    HW219386   1.307   6.280   3.737
 6163SOL     OW19387   5.614   6.033   1.528
 6163SOL    HW119388   5.633   6.010   1.432
 6163SOL    HW219389   5.655   6.121   1.550
 6164SOL     OW19390   3.231   2.408   1.672
 6164SOL    HW119391   3.199   2.341   1.605
 6164SOL    HW219392   3.154   2.443   1.725
 6165SOL     OW19393   4.611   0.321   6.340
 6165SOL    HW119394   4.664   0.352   6.261
 6165SOL    HW219395   4.668   0.324   6.422
 6166SOL     OW19396   4.187   1.206   6.702
 6166SOL    HW119397   4.245   1.156   6.638
 6166SOL    HW219398   4.103   1.236   6.655
 6167SOL     OW19399   0.691   3.900   3.442
 6167SOL    HW119400   0.768   3.963   3.447
 6167SOL    HW219401   0.722   3.808   3.466
 6168SOL     OW19402   1.025   3.523   0.889
 6168SOL    HW119403   1.038   3.530   0.790
 6168SOL    HW219404   0.963   3.447   0.909
 6169SOL     OW19405   1.955   3.113   1.469
 6169SOL    HW119406   1.888   3.133   1.541
 6169SOL    HW219407   1.963   3.014   1.458
 6170SOL     OW19408   1.168   3.594   5.415
 6170SOL    HW119409   1.071   3.596   5.393
 6170SOL    HW219410   1.214   3.671   5.371
 6171SOL     OW19411   0.191   2.512   0.381
 6171SOL    HW119412   0.284   2.474   0.376
 6171SOL    HW219413   0.195   2.600   0.428
 6172SOL     OW19414   1.743   3.114   2.108
 6172SOL    HW119415   1.710   3.104   2.014
 6172SOL    HW219416   1.670   3.088   2.171
 6173SOL     OW19417   6.678   5.321   2.463
 6173SOL    HW119418   6.666   5.317   2.364
 6173SOL    HW219419   6.774   5.304   2.485
 6174SOL     OW19420   5.225   6.087   4.046
 6174SOL    HW119421   5.260   6.062   3.956
 6174SOL    HW219422   5.254   6.018   4.113
 6175SOL     OW19423   3.835   0.899   4.007
 6175SOL    HW119424   3.846   0.802   3.987
 6175SOL    HW219425   3.860   0.952   3.926
 6176SOL     OW19426   5.452   4.643   5.786
 6176SOL    HW119427   5.552   4.639   5.784
 6176SOL    HW219428   5.417   4.671   5.697
 6177SOL     OW19429   5.676   1.830   1.715
 6177SOL    HW119430   5.673   1.774   1.798
 6177SOL    HW219431   5.676   1.926   1.740
 6178SOL     OW19432   5.273   5.104   1.967
 6178SOL    HW119433   5.298   5.060   2.053
 6178SOL    HW219434   5.179   5.137   1.973
 6179SOL     OW19435   6.783   4.349   3.515
 6179SOL    HW119436   6.823   4.279   3.455
 6179SOL    HW219437   6.855   4.398   3.563
 6180SOL     OW19438   2.491   4.741   1.292
 6180SOL    HW119439   2.555   4.691   1.234
 6180SOL    HW219440   2.537   4.817   1.336
 6181SOL     OW19441   4.697   5.965   5.864
 6181SOL    HW119442   4.728   5.989   5.956
 6181SOL    HW219443   4.684   6.049   5.811
 6182SOL     OW19444   4.309   3.084   5.963
 6182SOL    HW119445   4.364   3.064   5.881
 6182SOL    HW219446   4.218   3.045   5.952
 6183SOL     OW19447   1.772   2.332   3.613
 6183SOL    HW119448   1.815   2.347   3.702
 6183SOL    HW219449   1.729   2.416   3.582
 6184SOL     OW19450   2.912   6.347   6.475
 6184SOL    HW119451   2.958   6.434   6.455
 6184SOL    HW219452   2.877   6.307   6.390
 6185SOL     OW19453   0.076   3.775   6.773
 6185SOL    HW119454   0.102   3.706   6.841
 6185SOL    HW219455   0.043   3.856   6.819
 6186SOL     OW19456   6.318   1.492   0.298
 6186SOL    HW119457   6.308   1.557   0.373
 6186SOL    HW219458   6.408   1.502   0.257
 6187SOL     OW19459   5.315   3.731   4.261
 6187SOL    HW119460   5.324   3.740   4.162
 6187SOL    HW219461   5.343   3.639   4.289
 6188SOL     OW19462   1.559   1.382   6.033
 6188SOL    HW119463   1.556   1.284   6.012
 6188SOL    HW219464   1.613   1.429   5.964
 6189SOL     OW19465   4.270   5.313   2.606
 6189SOL    HW119466   4.334   5.239   2.626
 6189SOL    HW219467   4.176   5.279   2.613
 6190SOL     OW19468   0.422   3.997   5.034
 6190SOL    HW119469   0.385   3.931   4.968
 6190SOL    HW219470   0.508   4.034   5.000
 6191SOL     OW19471   2.808   2.531   6.658
 6191SOL    HW119472   2.716   2.517   6.620
 6191SOL    HW219473   2.875   2.530   6.583
 6192SOL     OW19474   2.488   1.822   6.382
 6192SOL    HW119475   2.414   1.886   6.406
 6192SOL    HW219476   2.568   1.840   6.439
 6193SOL     OW19477   4.815   6.153   1.488
 6193SOL    HW119478   4.812   6.252   1.501
 6193SOL    HW219479   4.729   6.123   1.446
 6194SOL     OW19480   6.850   0.518   6.626
 6194SOL    HW119481   6.928   0.495   6.568
 6194SOL    HW219482   6.791   0.438   6.635
 6195SOL     OW19483   4.655   5.276   4.449
 6195SOL    HW119484   4.694   5.219   4.377
 6195SOL    HW219485   4.624   5.218   4.524
 6196SOL     OW19486   4.990   4.327   2.092
 6196SOL    HW119487   4.909   4.288   2.049
 6196SOL    HW219488   5.040   4.381   2.024
 6197SOL     OW19489   2.225   5.838   1.512
 6197SOL    HW119490   2.251   5.927   1.477
 6197SOL    HW219491   2.172   5.789   1.442
 6198SOL     OW19492   4.573   0.109   0.948
 6198SOL    HW119493   4.533   0.130   1.037
 6198SOL    HW219494   4.673   0.110   0.956
 6199SOL     OW19495   0.359   1.114   0.451
 6199SOL    HW119496   0.293   1.164   0.395
 6199SOL    HW219497   0.309   1.054   0.515
 6200SOL     OW19498   0.793   1.580   5.657
 6200SOL    HW119499   0.810   1.502   5.717
 6200SOL    HW219500   0.879   1.624   5.632
 6201SOL     OW19501   0.729   3.267   5.525
 6201SOL    HW119502   0.780   3.334   5.471
 6201SOL    HW219503   0.634   3.296   5.533
 6202SOL     OW19504   4.912   1.144   2.107
 6202SOL    HW119505   4.821   1.182   2.123
 6202SOL    HW219506   4.904   1.060   2.053
 6203SOL     OW19507   6.021   6.134   2.031
 6203SOL    HW119508   6.045   6.046   2.072
 6203SOL    HW219509   5.923   6.150   2.042
 6204SOL     OW19510   0.969   5.903   4.579
 6204SOL    HW119511   1.037   5.970   4.611
 6204SOL    HW219512   0.969   5.824   4.641
 6205SOL     OW19513   6.390   4.969   1.693
 6205SOL    HW119514   6.372   4.932   1.784
 6205SOL    HW219515   6.310   4.954   1.634
 6206SOL     OW19516   6.084   1.422   2.146
 6206SOL    HW119517   6.144   1.379   2.079
 6206SOL    HW219518   6.140   1.470   2.214
 6207SOL     OW19519   2.047   5.920   5.495
 6207SOL    HW119520   1.964   5.952   5.450
 6207SOL    HW219521   2.090   5.996   5.544
 6208SOL     OW19522   3.794   2.385   5.414
 6208SOL    HW119523   3.836   2.455   5.472
 6208SOL    HW219524   3.806   2.295   5.456
 6209SOL     OW19525   2.975   5.674   6.827
 6209SOL    HW119526   3.014   5.690   6.736
 6209SOL    HW219527   2.915   5.749   6.851
 6210SOL     OW19528   4.805   4.128   2.950
 6210SOL    HW119529   4.739   4.135   3.025
 6210SOL    HW219530   4.890   4.173   2.976
 6211SOL     OW19531   2.711   6.341   5.558
 6211SOL    HW119532   2.781   6.303   5.619
 6211SOL    HW219533   2.747   6.348   5.466
 6212SOL     OW19534   2.601   4.737   4.677
 6212SOL    HW119535   2.542   4.687   4.614
 6212SOL    HW219536   2.610   4.832   4.646
 6213SOL     OW19537   4.909   6.630   6.787
 6213SOL    HW119538   4.867   6.660   6.872
 6213SOL    HW219539   4.928   6.709   6.728
 6214SOL     OW19540   5.641   5.554   5.560
 6214SOL    HW119541   5.712   5.597   5.504
 6214SOL    HW219542   5.646   5.455   5.549
 6215SOL     OW19543   3.678   3.045   6.853
 6215SOL    HW119544   3.645   3.005   6.767
 6215SOL    HW219545   3.688   3.144   6.841
 6216SOL     OW19546   6.378   2.682   2.676
 6216SOL    HW119547   6.304   2.682   2.609
 6216SOL    HW219548   6.463   2.713   2.633
 6217SOL     OW19549   0.810   4.243   2.799
 6217SOL    HW119550   0.810   4.150   2.836
 6217SOL    HW219551   0.744   4.299   2.848
 6218SOL     OW19552   3.749   0.026   6.894
 6218SOL    HW119553   3.694   0.095   6.940
 6218SOL    HW219554   3.820   0.070   6.840
 6219SOL     OW19555   1.018   1.221   4.834
 6219SOL    HW119556   0.979   1.129   4.821
 6219SOL    HW219557   0.958   1.275   4.891
 6220SOL     OW19558   3.036   1.384   5.475
 6220SOL    HW119559   3.007   1.304   5.528
 6220SOL    HW219560   3.001   1.467   5.517
 6221SOL     OW19561   5.836   0.647   6.691
 6221SOL    HW119562   5.893   0.589   6.633
 6221SOL    HW219563   5.740   0.623   6.677
 6222SOL     OW19564   1.088   0.431   2.437
 6222SOL    HW119565   1.156   0.443   2.365
 6222SOL    HW219566   1.000   0.469   2.407
 6223SOL     OW19567   1.201   5.186   2.686
 6223SOL    HW119568   1.106   5.187   2.654
 6223SOL    HW219569   1.235   5.092   2.684
 6224SOL     OW19570   4.103   1.145   6.137
 6224SOL    HW119571   4.118   1.157   6.235
 6224SOL    HW219572   4.124   1.051   6.111
 6225SOL     OW19573   3.532   2.677   6.795
 6225SOL    HW119574   3.471   2.744   6.836
 6225SOL    HW219575   3.480   2.618   6.733
 6226SOL     OW19576   1.173   1.724   4.249
 6226SOL    HW119577   1.273   1.727   4.256
 6226SOL    HW219578   1.137   1.657   4.313
 6227SOL     OW19579   3.699   5.416   5.430
 6227SOL    HW119580   3.693   5.335   5.372
 6227SOL    HW219581   3.678   5.392   5.524
 6228SOL     OW19582   0.850   2.777   2.316
 6228SOL    HW119583   0.866   2.870   2.280
 6228SOL    HW219584   0.754   2.754   2.307
 6229SOL     OW19585   1.016   2.943   5.346
 6229SOL    HW119586   1.068   2.906   5.269
 6229SOL    HW219587   1.050   2.902   5.431
 6230SOL     OW19588   1.054   2.188   3.453
 6230SOL    HW119589   1.115   2.238   3.392
 6230SOL    HW219590   1.089   2.094   3.465
 6231SOL     OW19591   5.605   4.860   0.371
 6231SOL    HW119592   5.619   4.772   0.416
 6231SOL    HW219593   5.624   4.850   0.273
 6232SOL     OW19594   6.359   1.703   6.959
 6232SOL    HW119595   6.308   1.670   6.879
 6232SOL    HW219596   6.447   1.657   6.963
 6233SOL     OW19597   6.033   2.526   1.788
 6233SOL    HW119598   6.043   2.530   1.689
 6233SOL    HW219599   5.936   2.531   1.813
 6234SOL     OW19600   6.795   0.099   5.395
 6234SOL    HW119601   6.703   0.081   5.432
 6234SOL    HW219602   6.792   0.089   5.296
 6235SOL     OW19603   6.969   0.310   1.643
 6235SOL    HW119604   6.970   0.253   1.561
 6235SOL    HW219605   6.885   0.364   1.645
 6236SOL     OW19606   0.286   4.262   0.727
 6236SOL    HW119607   0.281   4.182   0.786
 6236SOL    HW219608   0.356   4.247   0.656
 6237SOL     OW19609   3.837   0.322   0.333
 6237SOL    HW119610   3.748   0.356   0.304
 6237SOL    HW219611   3.827   0.232   0.375
 6238SOL     OW19612   4.792   6.276   2.916
 6238SOL    HW119613   4.722   6.215   2.877
 6238SOL    HW219614   4.864   6.290   2.849
 6239SOL     OW19615   3.867   1.046   1.365
 6239SOL    HW119616   3.947   1.015   1.313
 6239SOL    HW219617   3.830   1.129   1.324
 6240SOL     OW19618   3.100   3.673   5.618
 6240SOL    HW119619   3.023   3.628   5.573
 6240SOL    HW219620   3.173   3.689   5.551
 6241SOL     OW19621   3.595   0.507   3.374
 6241SOL    HW119622   3.515   0.472   3.423
 6241SOL    HW219623   3.651   0.562   3.435
 6242SOL     OW19624   3.617   0.055   3.190
 6242SOL    HW119625   3.681   7.003   3.225
 6242SOL    HW219626   3.525   0.016   3.185
 6243SOL     OW19627   6.655   6.964   5.776
 6243SOL    HW119628   6.744   6.981   5.820
 6243SOL    HW219629   6.601   0.031   5.776
 6244SOL     OW19630   5.284   3.537   3.549
 6244SOL    HW119631   5.314   3.510   3.458
 6244SOL    HW219632   5.263   3.456   3.603
 6245SOL     OW19633   1.417   4.403   1.792
 6245SOL    HW119634   1.323   4.395   1.759
 6245SOL    HW219635   1.431   4.341   1.869
 6246SOL     OW19636   1.120   1.099   5.157
 6246SOL    HW119637   1.163   1.171   5.103
 6246SOL    HW219638   1.179   1.074   5.234
 6247SOL     OW19639   1.551   6.427   3.565
 6247SOL    HW119640   1.609   6.385   3.636
 6247SOL    HW219641   1.493   6.356   3.525
 6248SOL     OW19642   3.587   3.835   0.263
 6248SOL    HW119643   3.556   3.750   0.307
 6248SOL    HW219644   3.619   3.899   0.333
 6249SOL     OW19645   6.972   2.909   0.745
 6249SOL    HW119646   6.943   2.960   0.825
 6249SOL    HW219647   6.975   2.969   0.665
 6250SOL     OW19648   6.645   6.649   0.914
 6250SOL    HW119649   6.660   6.644   1.012
 6250SOL    HW219650   6.577   6.721   0.895
 6251SOL     OW19651   4.085   6.029   4.563
 6251SOL    HW119652   4.102   6.124   4.588
 6251SOL    HW219653   4.171   5.977   4.568
 6252SOL     OW19654   2.401   4.295   6.611
 6252SOL    HW119655   2.476   4.233   6.591
 6252SOL    HW219656   2.375   4.287   6.707
 6253SOL     OW19657   2.550   5.004   4.081
 6253SOL    HW119658   2.553   4.939   4.157
 6253SOL    HW219659   2.467   5.059   4.088
 6254SOL     OW19660   6.435   0.343   0.671
 6254SOL    HW119661   6.453   0.297   0.758
 6254SOL    HW219662   6.360   0.296   0.624
 6255SOL     OW19663   2.746   1.562   0.954
 6255SOL    HW119664   2.786   1.579   1.044
 6255SOL    HW219665   2.809   1.594   0.883
 6256SOL     OW19666   4.138   5.307   2.309
 6256SOL    HW119667   4.105   5.356   2.228
 6256SOL    HW219668   4.202   5.364   2.360
 6257SOL     OW19669   4.288   2.941   0.174
 6257SOL    HW119670   4.368   2.926   0.233
 6257SOL    HW219671   4.279   3.039   0.155
 6258SOL     OW19672   3.042   6.559   4.748
 6258SOL    HW119673   3.046   6.619   4.828
 6258SOL    HW219674   3.104   6.482   4.761
 6259SOL     OW19675   2.143   0.733   6.213
 6259SOL    HW119676   2.107   0.709   6.123
 6259SOL    HW219677   2.093   0.684   6.284
 6260SOL     OW19678   3.888   7.011   0.179
 6260SOL    HW119679   3.805   6.957   0.195
 6260SOL    HW219680   3.944   7.010   0.261
 6261SOL     OW19681   4.664   6.901   0.352
 6261SOL    HW119682   4.631   6.864   0.265
 6261SOL    HW219683   4.596   6.884   0.423
 6262SOL     OW19684   1.561   6.255   2.400
 6262SOL    HW119685   1.529   6.258   2.494
 6262SOL    HW219686   1.650   6.300   2.392
 6263SOL     OW19687   0.750   6.585   5.100
 6263SOL    HW119688   0.661   6.540   5.106
 6263SOL    HW219689   0.741   6.670   5.049
 6264SOL     OW19690   2.228   0.314   1.556
 6264SOL    HW119691   2.203   0.250   1.629
 6264SOL    HW219692   2.267   0.396   1.596
 6265SOL     OW19693   4.513   3.441   0.735
 6265SOL    HW119694   4.516   3.350   0.693
 6265SOL    HW219695   4.512   3.511   0.663
 6266SOL     OW19696   4.471   6.762   3.171
 6266SOL    HW119697   4.422   6.814   3.242
 6266SOL    HW219698   4.466   6.812   3.084
 6267SOL     OW19699   2.028   6.992   5.016
 6267SOL    HW119700   2.079   0.051   5.057
 6267SOL    HW219701   2.012   7.011   4.919
 6268SOL     OW19702   2.915   0.684   2.045
 6268SOL    HW119703   2.999   0.735   2.064
 6268SOL    HW219704   2.937   0.589   2.024
 6269SOL     OW19705   6.071   0.080   2.396
 6269SOL    HW119706   6.102   0.118   2.483
 6269SOL    HW219707   6.145   0.086   2.328
 6270SOL     OW19708   0.201   7.006   0.109
 6270SOL    HW119709   0.217   6.960   0.196
 6270SOL    HW219710   0.195   6.939   0.035
 6271SOL     OW19711   6.505   2.531   5.649
 6271SOL    HW119712   6.476   2.491   5.562
 6271SOL    HW219713   6.605   2.532   5.653
 6272SOL     OW19714   0.610   1.639   6.986
 6272SOL    HW119715   0.651   1.626   0.060
 6272SOL    HW219716   0.542   1.712   6.990
 6273SOL     OW19717   0.053   5.620   2.738
 6273SOL    HW119718   0.038   5.522   2.752
 6273SOL    HW219719   0.116   5.655   2.807
 6274SOL     OW19720   2.917   6.934   4.571
 6274SOL    HW119721   2.831   6.982   4.588
 6274SOL    HW219722   2.926   6.916   4.474
 6275SOL     OW19723   1.755   6.026   0.251
 6275SOL    HW119724   1.659   5.999   0.252
 6275SOL    HW219725   1.810   5.957   0.298
 6276SOL     OW19726   3.030   5.304   3.504
 6276SOL    HW119727   3.003   5.315   3.408
 6276SOL    HW219728   3.073   5.215   3.516
 6277SOL     OW19729   4.901   2.327   0.955
 6277SOL    HW119730   4.901   2.286   1.046
 6277SOL    HW219731   4.864   2.262   0.889
 6278SOL     OW19732   3.478   0.559   4.852
 6278SOL    HW119733   3.519   0.559   4.944
 6278SOL    HW219734   3.536   0.508   4.790
 6279SOL     OW19735   3.916   6.058   0.535
 6279SOL    HW119736   3.945   6.149   0.507
 6279SOL    HW219737   3.961   5.990   0.476
 6280SOL     OW19738   0.368   1.515   6.563
 6280SOL    HW119739   0.405   1.443   6.505
 6280SOL    HW219740   0.280   1.485   6.602
 6281SOL     OW19741   6.739   4.762   4.121
 6281SOL    HW119742   6.732   4.720   4.211
 6281SOL    HW219743   6.767   4.693   4.054
 6282SOL     OW19744   5.763   3.166   4.644
 6282SOL    HW119745   5.861   3.155   4.626
 6282SOL    HW219746   5.739   3.262   4.639
 6283SOL     OW19747   0.880   4.249   4.514
 6283SOL    HW119748   0.802   4.196   4.482
 6283SOL    HW219749   0.859   4.346   4.507
 6284SOL     OW19750   1.411   5.557   6.513
 6284SOL    HW119751   1.490   5.507   6.476
 6284SOL    HW219752   1.440   5.610   6.592
 6285SOL     OW19753   0.909   3.266   3.118
 6285SOL    HW119754   0.896   3.269   3.217
 6285SOL    HW219755   0.984   3.204   3.095
 6286SOL     OW19756   0.598   3.410   4.596
 6286SOL    HW119757   0.614   3.336   4.531
 6286SOL    HW219758   0.647   3.492   4.566
 6287SOL     OW19759   3.296   5.127   5.130
 6287SOL    HW119760   3.277   5.187   5.207
 6287SOL    HW219761   3.215   5.072   5.109
 6288SOL     OW19762   5.534   4.790   1.403
 6288SOL    HW119763   5.574   4.787   1.311
 6288SOL    HW219764   5.474   4.870   1.411
 6289SOL     OW19765   2.222   4.659   6.735
 6289SOL    HW119766   2.236   4.666   6.834
 6289SOL    HW219767   2.265   4.738   6.691
 6290SOL     OW19768   6.043   5.817   6.119
 6290SOL    HW119769   5.974   5.801   6.048
 6290SOL    HW219770   6.114   5.746   6.112
 6291SOL     OW19771   3.456   3.859   3.329
 6291SOL    HW119772   3.462   3.849   3.429
 6291SOL    HW219773   3.441   3.769   3.288
 6292SOL     OW19774   2.670   2.188   5.366
 6292SOL    HW119775   2.652   2.286   5.359
 6292SOL    HW219776   2.621   2.139   5.295
 6293SOL     OW19777   4.767   1.931   0.694
 6293SOL    HW119778   4.843   1.978   0.738
 6293SOL    HW219779   4.735   1.984   0.615
 6294SOL     OW19780   4.308   0.214   3.474
 6294SOL    HW119781   4.298   0.260   3.385
 6294SOL    HW219782   4.223   0.225   3.527
 6295SOL     OW19783   5.470   4.922   4.656
 6295SOL    HW119784   5.462   4.850   4.587
 6295SOL    HW219785   5.509   4.882   4.740
 6296SOL     OW19786   0.307   4.159   5.268
 6296SOL    HW119787   0.229   4.191   5.322
 6296SOL    HW219788   0.299   4.060   5.254
 6297SOL     OW19789   6.277   0.466   5.185
 6297SOL    HW119790   6.287   0.368   5.201
 6297SOL    HW219791   6.180   0.491   5.189
 6298SOL     OW19792   0.253   3.594   6.300
 6298SOL    HW119793   0.292   3.602   6.391
 6298SOL    HW219794   0.308   3.646   6.235
 6299SOL     OW19795   5.410   2.646   1.802
 6299SOL    HW119796   5.316   2.612   1.797
 6299SOL    HW219797   5.472   2.580   1.759
 6300SOL     OW19798   6.160   0.742   6.860
 6300SOL    HW119799   6.167   0.718   6.763
 6300SOL    HW219800   6.066   0.769   6.881
 6301SOL     OW19801   3.102   6.073   6.902
 6301SOL    HW119802   3.078   6.126   6.821
 6301SOL    HW219803   3.171   6.005   6.878
 6302SOL     OW19804   2.028   1.812   5.093
 6302SOL    HW119805   2.040   1.762   5.179
 6302SOL    HW219806   2.066   1.758   5.017
 6303SOL     OW19807   0.353   6.638   6.179
 6303SOL    HW119808   0.428   6.697   6.148
 6303SOL    HW219809   0.329   6.661   6.273
 6304SOL     OW19810   3.316   1.616   3.354
 6304SOL    HW119811   3.295   1.522   3.329
 6304SOL    HW219812   3.325   1.672   3.272
 6305SOL     OW19813   5.756   6.178   0.677
 6305SOL    HW119814   5.719   6.257   0.727
 6305SOL    HW219815   5.825   6.209   0.612
 6306SOL     OW19816   0.469   3.973   3.961
 6306SOL    HW119817   0.425   3.915   4.029
 6306SOL    HW219818   0.402   4.001   3.892
 6307SOL     OW19819   3.153   3.038   4.039
 6307SOL    HW119820   3.145   2.992   4.127
 6307SOL    HW219821   3.238   3.009   3.994
 6308SOL     OW19822   1.060   2.223   5.513
 6308SOL    HW119823   0.994   2.149   5.528
 6308SOL    HW219824   1.146   2.185   5.480
 6309SOL     OW19825   0.300   0.066   4.490
 6309SOL    HW119826   0.255   0.118   4.563
 6309SOL    HW219827   0.368   0.125   4.445
 6310SOL     OW19828   2.345   6.476   2.383
 6310SOL    HW119829   2.371   6.484   2.479
 6310SOL    HW219830   2.369   6.385   2.350
 6311SOL     OW19831   5.008   1.924   5.873
 6311SOL    HW119832   4.955   1.916   5.957
 6311SOL    HW219833   5.047   1.835   5.849
 6312SOL     OW19834   0.684   6.525   5.844
 6312SOL    HW119835   0.629   6.471   5.908
 6312SOL    HW219836   0.632   6.541   5.760
 6313SOL     OW19837   6.139   6.705   2.984
 6313SOL    HW119838   6.065   6.706   2.918
 6313SOL    HW219839   6.106   6.738   3.073
 6314SOL     OW19840   3.217   6.519   2.524
 6314SOL    HW119841   3.283   6.588   2.495
 6314SOL    HW219842   3.137   6.565   2.564
 6315SOL     OW19843   3.276   1.727   4.893
 6315SOL    HW119844   3.376   1.730   4.889
 6315SOL    HW219845   3.238   1.770   4.811
 6316SOL     OW19846   4.428   1.920   5.331
 6316SOL    HW119847   4.438   1.820   5.329
 6316SOL    HW219848   4.483   1.958   5.405
 6317SOL     OW19849   4.996   3.961   2.236
 6317SOL    HW119850   4.994   4.055   2.271
 6317SOL    HW219851   4.962   3.960   2.141
 6318SOL     OW19852   4.301   6.981   6.009
 6318SOL    HW119853   4.273   0.059   5.992
 6318SOL    HW219854   4.383   6.960   5.956
 6319SOL     OW19855   6.808   2.235   5.078
 6319SOL    HW119856   6.733   2.298   5.099
 6319SOL    HW219857   6.782   2.177   5.000
 6320SOL     OW19858   6.962   6.453   5.096
 6320SOL    HW119859   6.895   6.515   5.137
 6320SOL    HW219860   6.960   6.365   5.144
 6321SOL     OW19861   5.182   2.985   0.353
 6321SOL    HW119862   5.279   2.966   0.368
 6321SOL    HW219863   5.150   2.935   0.272
 6322SOL     OW19864   2.760   2.844   0.453
 6322SOL    HW119865   2.793   2.825   0.545
 6322SOL    HW219866   2.674   2.895   0.459
 6323SOL     OW19867   1.513   2.046   1.585
 6323SOL    HW119868   1.597   1.993   1.572
 6323SOL    HW219869   1.455   2.037   1.504
 6324SOL     OW19870   4.345   1.250   0.316
 6324SOL    HW119871   4.370   1.204   0.402
 6324SOL    HW219872   4.250   1.278   0.319
 6325SOL     OW19873   1.781   3.267   2.893
 6325SOL    HW119874   1.863   3.220   2.925
 6325SOL    HW219875   1.737   3.313   2.970
 6326SOL     OW19876   5.900   4.989   6.957
 6326SOL    HW119877   5.867   5.025   6.869
 6326SOL    HW219878   5.995   5.016   6.971
 6327SOL     OW19879   0.201   1.883   3.719
 6327SOL    HW119880   0.248   1.970   3.706
 6327SOL    HW219881   0.260   1.821   3.772
 6328SOL     OW19882   4.558   3.619   6.610
 6328SOL    HW119883   4.592   3.606   6.517
 6328SOL    HW219884   4.481   3.683   6.608
 6329SOL     OW19885   1.498   2.677   5.138
 6329SOL    HW119886   1.510   2.699   5.235
 6329SOL    HW219887   1.526   2.756   5.083
 6330SOL     OW19888   5.740   6.818   1.891
 6330SOL    HW119889   5.769   6.806   1.986
 6330SOL    HW219890   5.727   6.915   1.872
 6331SOL     OW19891   6.873   3.683   4.954
 6331SOL    HW119892   6.855   3.640   4.866
 6331SOL    HW219893   6.825   3.771   4.958
 6332SOL     OW19894   0.936   2.920   1.141
 6332SOL    HW119895   1.006   2.858   1.105
 6332SOL    HW219896   0.913   2.894   1.235
 6333SOL     OW19897   4.475   0.216   5.306
 6333SOL    HW119898   4.470   0.304   5.259
 6333SOL    HW219899   4.559   0.168   5.279
 6334SOL     OW19900   3.080   1.462   2.146
 6334SOL    HW119901   3.095   1.424   2.238
 6334SOL    HW219902   3.081   1.561   2.150
 6335SOL     OW19903   4.147   0.476   0.605
 6335SOL    HW119904   4.117   0.499   0.512
 6335SOL    HW219905   4.214   0.543   0.636
 6336SOL     OW19906   0.561   2.574   6.487
 6336SOL    HW119907   0.584   2.632   6.409
 6336SOL    HW219908   0.478   2.609   6.531
 6337SOL     OW19909   4.043   5.155   4.779
 6337SOL    HW119910   4.093   5.214   4.843
 6337SOL    HW219911   3.988   5.090   4.831
 6338SOL     OW19912   2.660   2.383   4.534
 6338SOL    HW119913   2.564   2.380   4.562
 6338SOL    HW219914   2.717   2.340   4.604
 6339SOL     OW19915   0.732   3.259   4.231
 6339SOL    HW119916   0.798   3.248   4.305
 6339SOL    HW219917   0.748   3.189   4.161
 6340SOL     OW19918   2.496   4.103   1.418
 6340SOL    HW119919   2.468   4.020   1.466
 6340SOL    HW219920   2.514   4.176   1.484
 6341SOL     OW19921   6.820   3.738   4.414
 6341SOL    HW119922   6.799   3.827   4.455
 6341SOL    HW219923   6.916   3.736   4.386
 6342SOL     OW19924   3.329   1.191   0.610
 6342SOL    HW119925   3.415   1.218   0.568
 6342SOL    HW219926   3.279   1.273   0.639
 6343SOL     OW19927   3.988   0.524   0.236
 6343SOL    HW119928   4.070   0.476   0.205
 6343SOL    HW219929   3.916   0.458   0.256
 6344SOL     OW19930   5.328   1.746   4.501
 6344SOL    HW119931   5.284   1.820   4.553
 6344SOL    HW219932   5.413   1.720   4.546
 6345SOL     OW19933   4.694   3.157   1.527
 6345SOL    HW119934   4.612   3.194   1.570
 6345SOL    HW219935   4.670   3.114   1.441
 6346SOL     OW19936   0.240   5.375   4.855
 6346SOL    HW119937   0.218   5.473   4.857
 6346SOL    HW219938   0.188   5.328   4.926
 6347SOL     OW19939   2.080   1.494   1.241
 6347SOL    HW119940   2.091   1.472   1.338
 6347SOL    HW219941   2.149   1.445   1.188
 6348SOL     OW19942   0.905   2.964   6.162
 6348SOL    HW119943   0.835   2.953   6.232
 6348SOL    HW219944   0.903   3.058   6.128
 6349SOL     OW19945   1.997   0.789   0.722
 6349SOL    HW119946   1.929   0.828   0.660
 6349SOL    HW219947   2.028   0.860   0.786
 6350SOL     OW19948   0.613   5.007   4.154
 6350SOL    HW119949   0.651   4.970   4.239
 6350SOL    HW219950   0.681   5.000   4.082
 6351SOL     OW19951   6.288   3.638   3.361
 6351SOL    HW119952   6.267   3.655   3.265
 6351SOL    HW219953   6.252   3.548   3.387
 6352SOL     OW19954   2.418   0.300   4.843
 6352SOL    HW119955   2.332   0.324   4.887
 6352SOL    HW219956   2.488   0.367   4.868
 6353SOL     OW19957   1.643   6.086   6.704
 6353SOL    HW119958   1.727   6.083   6.649
 6353SOL    HW219959   1.574   6.028   6.662
 6354SOL     OW19960   3.488   5.972   2.693
 6354SOL    HW119961   3.474   5.955   2.791
 6354SOL    HW219962   3.524   6.065   2.681
 6355SOL     OW19963   2.795   5.434   0.202
 6355SOL    HW119964   2.775   5.405   0.108
 6355SOL    HW219965   2.883   5.397   0.231
 6356SOL     OW19966   5.587   4.560   0.502
 6356SOL    HW119967   5.679   4.528   0.525
 6356SOL    HW219968   5.537   4.487   0.456
 6357SOL     OW19969   6.239   3.017   2.151
 6357SOL    HW119970   6.272   2.927   2.123
 6357SOL    HW219971   6.140   3.022   2.139
 6358SOL     OW19972   0.325   2.003   6.325
 6358SOL    HW119973   0.226   1.991   6.331
 6358SOL    HW219974   0.371   1.921   6.359
 6359SOL     OW19975   6.151   6.371   0.777
 6359SOL    HW119976   6.195   6.440   0.719
 6359SOL    HW219977   6.054   6.395   0.790
 6360SOL     OW19978   1.030   3.441   4.341
 6360SOL    HW119979   1.001   3.456   4.246
 6360SOL    HW219980   1.113   3.493   4.359
 6361SOL     OW19981   0.984   0.867   1.190
 6361SOL    HW119982   1.061   0.821   1.234
 6361SOL    HW219983   1.018   0.930   1.120
 6362SOL     OW19984   1.330   5.850   6.249
 6362SOL    HW119985   1.278   5.842   6.334
 6362SOL    HW219986   1.373   5.763   6.228
 6363SOL     OW19987   3.061   5.509   4.260
 6363SOL    HW119988   2.967   5.489   4.290
 6363SOL    HW219989   3.100   5.578   4.321
 6364SOL     OW19990   3.004   2.639   5.713
 6364SOL    HW119991   2.994   2.672   5.806
 6364SOL    HW219992   3.011   2.716   5.650
 6365SOL     OW19993   5.582   6.465   4.066
 6365SOL    HW119994   5.595   6.472   3.967
 6365SOL    HW219995   5.650   6.402   4.103
 6366SOL     OW19996   0.487   6.068   5.590
 6366SOL    HW119997   0.427   6.111   5.657
 6366SOL    HW219998   0.557   6.014   5.638
 6367SOL     OW19999   3.226   2.125   2.957
 6367SOL    HW120000   3.218   2.112   2.858
 6367SOL    HW220001   3.161   2.195   2.987
 6368SOL     OW20002   4.231   4.711   4.605
 6368SOL    HW120003   4.208   4.693   4.700
 6368SOL    HW220004   4.172   4.785   4.569
 6369SOL     OW20005   1.791   0.556   4.334
 6369SOL    HW120006   1.769   0.650   4.308
 6369SOL    HW220007   1.743   0.532   4.418
 6370SOL     OW20008   5.089   4.175   3.395
 6370SOL    HW120009   5.032   4.203   3.318
 6370SOL    HW220010   5.136   4.089   3.373
 6371SOL     OW20011   5.519   4.185   2.540
 6371SOL    HW120012   5.492   4.145   2.628
 6371SOL    HW220013   5.438   4.192   2.482
 6372SOL     OW20014   1.269   1.050   2.524
 6372SOL    HW120015   1.216   1.067   2.441
 6372SOL    HW220016   1.236   0.966   2.568
 6373SOL     OW20017   5.434   4.439   2.885
 6373SOL    HW120018   5.376   4.499   2.831
 6373SOL    HW220019   5.521   4.425   2.838
 6374SOL     OW20020   4.760   3.267   1.078
 6374SOL    HW120021   4.842   3.315   1.046
 6374SOL    HW220022   4.682   3.329   1.073
 6375SOL     OW20023   0.195   2.646   2.297
 6375SOL    HW120024   0.107   2.602   2.315
 6375SOL    HW220025   0.257   2.629   2.374
 6376SOL     OW20026   3.958   2.069   6.347
 6376SOL    HW120027   3.871   2.118   6.340
 6376SOL    HW220028   3.941   1.976   6.381
 6377SOL     OW20029   0.105   1.581   5.409
 6377SOL    HW120030   0.046   1.618   5.337
 6377SOL    HW220031   0.126   1.486   5.389
 6378SOL     OW20032   5.617   4.912   3.477
 6378SOL    HW120033   5.695   4.908   3.415
 6378SOL    HW220034   5.650   4.914   3.572
 6379SOL     OW20035   0.294   4.704   5.803
 6379SOL    HW120036   0.198   4.729   5.818
 6379SOL    HW220037   0.348   4.730   5.884
 6380SOL     OW20038   0.178   2.268   4.453
 6380SOL    HW120039   0.262   2.311   4.487
 6380SOL    HW220040   0.169   2.177   4.492
 6381SOL     OW20041   4.173   3.033   0.707
 6381SOL    HW120042   4.153   3.011   0.611
 6381SOL    HW220043   4.091   3.016   0.762
 6382SOL     OW20044   3.374   2.171   0.602
 6382SOL    HW120045   3.278   2.172   0.632
 6382SOL    HW220046   3.418   2.088   0.635
 6383SOL     OW20047   2.000   2.917   2.291
 6383SOL    HW120048   2.026   2.821   2.306
 6383SOL    HW220049   2.025   2.944   2.198
 6384SOL     OW20050   5.965   3.094   2.758
 6384SOL    HW120051   5.965   3.052   2.668
 6384SOL    HW220052   6.042   3.059   2.811
 6385SOL     OW20053   6.265   3.961   2.906
 6385SOL    HW120054   6.346   3.935   2.958
 6385SOL    HW220055   6.184   3.954   2.965
 6386SOL     OW20056   2.063   3.428   6.878
 6386SOL    HW120057   2.103   3.336   6.879
 6386SOL    HW220058   1.994   3.435   6.950
 6387SOL     OW20059   6.128   1.888   6.928
 6387SOL    HW120060   6.145   1.796   6.963
 6387SOL    HW220061   6.213   1.927   6.892
 6388SOL     OW20062   5.578   5.599   1.707
 6388SOL    HW120063   5.658   5.650   1.738
 6388SOL    HW220064   5.519   5.660   1.654
 6389SOL     OW20065   1.125   0.126   0.733
 6389SOL    HW120066   1.140   0.182   0.651
 6389SOL    HW220067   1.184   0.046   0.730
 6390SOL     OW20068   6.321   0.209   5.611
 6390SOL    HW120069   6.248   0.277   5.617
 6390SOL    HW220070   6.397   0.247   5.557
 6391SOL     OW20071   1.625   0.855   5.953
 6391SOL    HW120072   1.711   0.905   5.944
 6391SOL    HW220073   1.634   0.784   6.022
 6392SOL     OW20074   2.826   5.744   3.123
 6392SOL    HW120075   2.840   5.646   3.135
 6392SOL    HW220076   2.776   5.780   3.203
 6393SOL     OW20077   6.236   5.581   1.956
 6393SOL    HW120078   6.163   5.647   1.940
 6393SOL    HW220079   6.289   5.608   2.036
 6394SOL     OW20080   1.959   5.897   0.833
 6394SOL    HW120081   1.962   5.934   0.926
 6394SOL    HW220082   1.962   5.797   0.838
 6395SOL     OW20083   6.651   3.507   2.340
 6395SOL    HW120084   6.588   3.431   2.320
 6395SOL    HW220085   6.666   3.513   2.439
 6396SOL     OW20086   6.610   3.711   6.099
 6396SOL    HW120087   6.692   3.657   6.118
 6396SOL    HW220088   6.566   3.678   6.016
 6397SOL     OW20089   6.270   1.331   1.979
 6397SOL    HW120090   6.242   1.252   1.926
 6397SOL    HW220091   6.368   1.326   1.998
 6398SOL     OW20092   2.095   6.827   1.920
 6398SOL    HW120093   2.183   6.848   1.878
 6398SOL    HW220094   2.070   6.733   1.898
 6399SOL     OW20095   1.227   0.540   6.567
 6399SOL    HW120096   1.239   0.502   6.475
 6399SOL    HW220097   1.204   0.466   6.630
 6400SOL     OW20098   1.873   4.876   2.363
 6400SOL    HW120099   1.930   4.890   2.443
 6400SOL    HW220100   1.901   4.939   2.290
 6401SOL     OW20101   5.869   5.134   2.945
 6401SOL    HW120102   5.923   5.051   2.942
 6401SOL    HW220103   5.864   5.168   3.039
 6402SOL     OW20104   2.141   2.997   4.084
 6402SOL    HW120105   2.198   2.948   4.018
 6402SOL    HW220106   2.144   2.951   4.172
 6403SOL     OW20107   6.030   5.780   5.543
 6403SOL    HW120108   6.113   5.824   5.579
 6403SOL    HW220109   5.954   5.797   5.605
 6404SOL     OW20110   4.587   1.194   2.700
 6404SOL    HW120111   4.579   1.261   2.626
 6404SOL    HW220112   4.662   1.220   2.761
 6405SOL     OW20113   4.319   0.796   4.749
 6405SOL    HW120114   4.241   0.859   4.751
 6405SOL    HW220115   4.396   0.839   4.701
 6406SOL     OW20116   1.171   2.752   2.170
 6406SOL    HW120117   1.152   2.701   2.254
 6406SOL    HW220118   1.097   2.817   2.153
 6407SOL     OW20119   2.316   6.905   4.636
 6407SOL    HW120120   2.363   6.880   4.551
 6407SOL    HW220121   2.218   6.898   4.622
 6408SOL     OW20122   5.429   1.196   1.388
 6408SOL    HW120123   5.497   1.234   1.450
 6408SOL    HW220124   5.449   1.225   1.294
 6409SOL     OW20125   0.034   4.972   2.814
 6409SOL    HW120126   0.122   4.987   2.770
 6409SOL    HW220127   0.001   4.880   2.792
 6410SOL     OW20128   1.863   1.005   5.984
 6410SOL    HW120129   1.941   0.942   5.980
 6410SOL    HW220130   1.877   1.070   6.059
 6411SOL     OW20131   1.078   2.647   2.395
 6411SOL    HW120132   0.990   2.669   2.353
 6411SOL    HW220133   1.122   2.730   2.428
 6412SOL     OW20134   2.030   0.572   6.006
 6412SOL    HW120135   2.115   0.526   5.979
 6412SOL    HW220136   1.953   0.511   5.990
 6413SOL     OW20137   3.661   5.005   4.130
 6413SOL    HW120138   3.688   5.056   4.048
 6413SOL    HW220139   3.564   4.984   4.127
 6414SOL     OW20140   5.611   0.496   6.683
 6414SOL    HW120141   5.577   0.524   6.594
 6414SOL    HW220142   5.574   0.406   6.707
 6415SOL     OW20143   1.341   3.446   3.922
 6415SOL    HW120144   1.296   3.524   3.966
 6415SOL    HW220145   1.436   3.440   3.954
 6416SOL     OW20146   2.249   6.457   6.040
 6416SOL    HW120147   2.333   6.412   6.011
 6416SOL    HW220148   2.222   6.525   5.972
 6417SOL     OW20149   5.603   3.195   0.562
 6417SOL    HW120150   5.671   3.123   0.550
 6417SOL    HW220151   5.529   3.161   0.621
 6418SOL     OW20152   5.062   4.245   3.022
 6418SOL    HW120153   5.126   4.227   3.097
 6418SOL    HW220154   5.114   4.273   2.941
 6419SOL     OW20155   1.515   5.795   3.214
 6419SOL    HW120156   1.472   5.758   3.296
 6419SOL    HW220157   1.444   5.812   3.145
 6420SOL     OW20158   2.322   1.241   3.992
 6420SOL    HW120159   2.273   1.241   4.080
 6420SOL    HW220160   2.386   1.164   3.989
 6421SOL     OW20161   4.227   0.576   1.205
 6421SOL    HW120162   4.130   0.602   1.206
 6421SOL    HW220163   4.242   0.503   1.272
 6422SOL     OW20164   6.525   1.828   4.935
 6422SOL    HW120165   6.483   1.885   5.005
 6422SOL    HW220166   6.457   1.804   4.866
 6423SOL     OW20167   5.104   5.405   4.934
 6423SOL    HW120168   5.008   5.375   4.927
 6423SOL    HW220169   5.112   5.499   4.902
 6424SOL     OW20170   1.139   4.150   4.834
 6424SOL    HW120171   1.117   4.055   4.814
 6424SOL    HW220172   1.238   4.159   4.846
 6425SOL     OW20173   6.673   5.589   3.297
 6425SOL    HW120174   6.640   5.503   3.258
 6425SOL    HW220175   6.724   5.639   3.227
 6426SOL     OW20176   6.247   5.481   3.708
 6426SOL    HW120177   6.192   5.397   3.699
 6426SOL    HW220178   6.324   5.477   3.644
 6427SOL     OW20179   2.904   3.789   3.333
 6427SOL    HW120180   2.994   3.831   3.321
 6427SOL    HW220181   2.835   3.861   3.344
 6428SOL     OW20182   5.993   3.165   0.442
 6428SOL    HW120183   5.942   3.193   0.524
 6428SOL    HW220184   6.030   3.246   0.398
 6429SOL     OW20185   0.326   1.131   5.819
 6429SOL    HW120186   0.311   1.156   5.914
 6429SOL    HW220187   0.240   1.133   5.769
 6430SOL     OW20188   6.484   1.193   4.308
 6430SOL    HW120189   6.453   1.115   4.254
 6430SOL    HW220190   6.529   1.160   4.391
 6431SOL     OW20191   4.505   6.056   3.177
 6431SOL    HW120192   4.417   6.081   3.137
 6431SOL    HW220193   4.549   5.988   3.120
 6432SOL     OW20194   4.005   4.462   5.854
 6432SOL    HW120195   4.097   4.502   5.854
 6432SOL    HW220196   4.012   4.366   5.826
 6433SOL     OW20197   3.074   4.736   6.899
 6433SOL    HW120198   3.174   4.731   6.900
 6433SOL    HW220199   3.035   4.644   6.904
 6434SOL     OW20200   2.850   0.446   6.303
 6434SOL    HW120201   2.782   0.473   6.235
 6434SOL    HW220202   2.823   0.359   6.344
 6435SOL     OW20203   6.081   6.945   0.714
 6435SOL    HW120204   6.036   6.896   0.640
 6435SOL    HW220205   6.016   6.967   0.786
 6436SOL     OW20206   1.528   3.720   3.341
 6436SOL    HW120207   1.495   3.662   3.266
 6436SOL    HW220208   1.580   3.797   3.304
 6437SOL     OW20209   1.756   2.719   0.384
 6437SOL    HW120210   1.674   2.764   0.348
 6437SOL    HW220211   1.732   2.665   0.465
 6438SOL     OW20212   0.263   4.873   6.308
 6438SOL    HW120213   0.207   4.885   6.226
 6438SOL    HW220214   0.311   4.958   6.329
 6439SOL     OW20215   5.351   0.751   2.420
 6439SOL    HW120216   5.429   0.711   2.372
 6439SOL    HW220217   5.276   0.686   2.423
 6440SOL     OW20218   3.063   1.188   5.698
 6440SOL    HW120219   2.979   1.200   5.752
 6440SOL    HW220220   3.074   1.091   5.676
 6441SOL     OW20221   0.569   0.636   1.779
 6441SOL    HW120222   0.578   0.667   1.874
 6441SOL    HW220223   0.650   0.584   1.753
 6442SOL     OW20224   3.070   1.601   4.653
 6442SOL    HW120225   3.077   1.513   4.607
 6442SOL    HW220226   3.078   1.588   4.752
 6443SOL     OW20227   3.140   3.062   5.848
 6443SOL    HW120228   3.186   2.977   5.825
 6443SOL    HW220229   3.041   3.048   5.845
 6444SOL     OW20230   6.060   2.388   4.361
 6444SOL    HW120231   6.099   2.421   4.274
 6444SOL    HW220232   5.961   2.387   4.355
 6445SOL     OW20233   3.865   3.357   3.295
 6445SOL    HW120234   3.784   3.414   3.306
 6445SOL    HW220235   3.889   3.315   3.383
 6446SOL     OW20236   0.281   1.692   0.410
 6446SOL    HW120237   0.267   1.662   0.316
 6446SOL    HW220238   0.203   1.664   0.466
 6447SOL     OW20239   6.712   4.227   2.350
 6447SOL    HW120240   6.674   4.250   2.440
 6447SOL    HW220241   6.707   4.308   2.290
 6448SOL     OW20242   5.701   4.784   1.611
 6448SOL    HW120243   5.626   4.787   1.545
 6448SOL    HW220244   5.681   4.715   1.681
 6449SOL     OW20245   3.290   5.461   1.832
 6449SOL    HW120246   3.260   5.528   1.764
 6449SOL    HW220247   3.270   5.369   1.798
 6450SOL     OW20248   1.271   3.743   0.315
 6450SOL    HW120249   1.291   3.681   0.240
 6450SOL    HW220250   1.305   3.834   0.293
 6451SOL     OW20251   2.222   0.857   5.500
 6451SOL    HW120252   2.192   0.907   5.419
 6451SOL    HW220253   2.220   0.917   5.580
 6452SOL     OW20254   4.881   4.126   2.564
 6452SOL    HW120255   4.896   4.035   2.604
 6452SOL    HW220256   4.945   4.139   2.487
 6453SOL     OW20257   2.878   0.559   1.555
 6453SOL    HW120258   2.941   0.538   1.629
 6453SOL    HW220259   2.785   0.532   1.580
 6454SOL     OW20260   0.634   1.010   2.811
 6454SOL    HW120261   0.541   0.985   2.781
 6454SOL    HW220262   0.628   1.079   2.883
 6455SOL     OW20263   7.001   3.270   3.761
 6455SOL    HW120264   6.940   3.204   3.804
 6455SOL    HW220265   6.955   3.359   3.755
 6456SOL     OW20266   1.435   0.589   3.459
 6456SOL    HW120267   1.412   0.492   3.449
 6456SOL    HW220268   1.480   0.603   3.548
 6457SOL     OW20269   5.441   0.244   1.638
 6457SOL    HW120270   5.355   0.205   1.606
 6457SOL    HW220271   5.423   0.319   1.701
 6458SOL     OW20272   1.438   5.139   4.415
 6458SOL    HW120273   1.384   5.182   4.487
 6458SOL    HW220274   1.531   5.124   4.448
 6459SOL     OW20275   6.391   3.039   2.389
 6459SOL    HW120276   6.324   3.023   2.317
 6459SOL    HW220277   6.416   2.951   2.432
 6460SOL     OW20278   5.895   5.867   5.748
 6460SOL    HW120279   5.938   5.953   5.777
 6460SOL    HW220280   5.904   5.799   5.820
 6461SOL     OW20281   3.014   4.293   6.797
 6461SOL    HW120282   3.114   4.295   6.793
 6461SOL    HW220283   2.983   4.198   6.808
 6462SOL     OW20284   1.242   3.129   4.533
 6462SOL    HW120285   1.272   3.193   4.462
 6462SOL    HW220286   1.320   3.075   4.565
 6463SOL     OW20287   5.545   0.573   0.647
 6463SOL    HW120288   5.609   0.565   0.570
 6463SOL    HW220289   5.452   0.580   0.611
 6464SOL     OW20290   1.790   5.707   5.081
 6464SOL    HW120291   1.796   5.655   4.997
 6464SOL    HW220292   1.865   5.680   5.142
 6465SOL     OW20293   0.248   2.784   3.137
 6465SOL    HW120294   0.283   2.743   3.052
 6465SOL    HW220295   0.287   2.875   3.148
 6466SOL     OW20296   6.159   0.958   6.469
 6466SOL    HW120297   6.083   0.932   6.529
 6466SOL    HW220298   6.130   1.032   6.408
 6467SOL     OW20299   4.117   6.947   1.105
 6467SOL    HW120300   4.019   6.934   1.120
 6467SOL    HW220301   4.158   6.859   1.081
 6468SOL     OW20302   3.507   6.803   1.904
 6468SOL    HW120303   3.458   6.723   1.869
 6468SOL    HW220304   3.529   6.789   2.001
 6469SOL     OW20305   3.783   2.043   3.537
 6469SOL    HW120306   3.838   2.110   3.586
 6469SOL    HW220307   3.843   1.984   3.482
 6470SOL     OW20308   5.841   2.640   1.137
 6470SOL    HW120309   5.851   2.579   1.216
 6470SOL    HW220310   5.856   2.588   1.053
 6471SOL     OW20311   0.725   6.366   5.560
 6471SOL    HW120312   0.800   6.431   5.544
 6471SOL    HW220313   0.639   6.416   5.568
 6472SOL     OW20314   6.531   5.768   2.883
 6472SOL    HW120315   6.519   5.809   2.973
 6472SOL    HW220316   6.442   5.754   2.840
 6473SOL     OW20317   1.989   1.489   4.512
 6473SOL    HW120318   2.018   1.440   4.594
 6473SOL    HW220319   2.003   1.587   4.525
 6474SOL     OW20320   4.539   5.663   5.610
 6474SOL    HW120321   4.562   5.703   5.522
 6474SOL    HW220322   4.448   5.623   5.607
 6475SOL     OW20323   5.883   4.190   3.622
 6475SOL    HW120324   5.933   4.265   3.664
 6475SOL    HW220325   5.832   4.139   3.692
 6476SOL     OW20326   4.930   2.888   0.007
 6476SOL    HW120327   4.943   2.962   6.958
 6476SOL    HW220328   5.005   2.887   0.073
 6477SOL     OW20329   6.495   5.428   1.149
 6477SOL    HW120330   6.527   5.502   1.090
 6477SOL    HW220331   6.419   5.460   1.204
 6478SOL     OW20332   2.851   6.248   2.781
 6478SOL    HW120333   2.778   6.264   2.847
 6478SOL    HW220334   2.938   6.235   2.828
 6479SOL     OW20335   3.825   5.866   4.383
 6479SOL    HW120336   3.727   5.879   4.371
 6479SOL    HW220337   3.869   5.954   4.399
 6480SOL     OW20338   2.308   0.955   7.002
 6480SOL    HW120339   2.220   0.955   6.954
 6480SOL    HW220340   2.307   1.023   0.059
 6481SOL     OW20341   3.547   2.207   1.677
 6481SOL    HW120342   3.467   2.175   1.728
 6481SOL    HW220343   3.583   2.289   1.721
 6482SOL     OW20344   6.404   2.057   6.388
 6482SOL    HW120345   6.344   2.035   6.464
 6482SOL    HW220346   6.430   2.154   6.393
 6483SOL     OW20347   6.858   6.702   3.032
 6483SOL    HW120348   6.774   6.757   3.036
 6483SOL    HW220349   6.878   6.667   3.123
 6484SOL     OW20350   3.005   1.238   2.666
 6484SOL    HW120351   3.094   1.219   2.624
 6484SOL    HW220352   2.958   1.151   2.685
 6485SOL     OW20353   2.058   5.353   4.116
 6485SOL    HW120354   1.994   5.430   4.113
 6485SOL    HW220355   2.151   5.386   4.099
 6486SOL     OW20356   1.204   4.944   2.375
 6486SOL    HW120357   1.215   5.043   2.381
 6486SOL    HW220358   1.264   4.899   2.442
 6487SOL     OW20359   1.230   6.715   5.615
 6487SOL    HW120360   1.195   6.755   5.530
 6487SOL    HW220361   1.174   6.636   5.640
 6488SOL     OW20362   3.994   5.240   4.506
 6488SOL    HW120363   4.074   5.295   4.482
 6488SOL    HW220364   3.995   5.222   4.605
 6489SOL     OW20365   3.490   3.566   6.230
 6489SOL    HW120366   3.421   3.495   6.249
 6489SOL    HW220367   3.453   3.631   6.164
 6490SOL     OW20368   3.151   1.090   6.155
 6490SOL    HW120369   3.116   0.997   6.139
 6490SOL    HW220370   3.121   1.121   6.245
 6491SOL     OW20371   3.248   0.474   1.337
 6491SOL    HW120372   3.237   0.404   1.408
 6491SOL    HW220373   3.232   0.564   1.378
 6492SOL     OW20374   3.732   3.810   5.338
 6492SOL    HW120375   3.822   3.846   5.364
 6492SOL    HW220376   3.685   3.876   5.281
 6493SOL     OW20377   1.165   4.213   6.549
 6493SOL    HW120378   1.208   4.162   6.475
 6493SOL    HW220379   1.158   4.310   6.523
 6494SOL     OW20380   6.858   6.909   2.722
 6494SOL    HW120381   6.864   6.972   2.799
 6494SOL    HW220382   6.771   6.924   2.674
 6495SOL     OW20383   0.036   0.990   4.538
 6495SOL    HW120384   6.994   0.947   4.607
 6495SOL    HW220385   0.079   0.919   4.482
 6496SOL     OW20386   5.714   0.700   2.407
 6496SOL    HW120387   5.757   0.612   2.390
 6496SOL    HW220388   5.642   0.689   2.476
 6497SOL     OW20389   0.597   0.614   1.343
 6497SOL    HW120390   0.666   0.685   1.350
 6497SOL    HW220391   0.513   0.652   1.304
 6498SOL     OW20392   0.748   3.617   4.474
 6498SOL    HW120393   0.726   3.591   4.380
 6498SOL    HW220394   0.835   3.577   4.501
 6499SOL     OW20395   5.506   3.636   5.352
 6499SOL    HW120396   5.539   3.581   5.275
 6499SOL    HW220397   5.509   3.582   5.436
 6500SOL     OW20398   0.187   3.988   3.366
 6500SOL    HW120399   0.149   3.901   3.397
 6500SOL    HW220400   0.127   4.027   3.296
 6501SOL     OW20401   6.809   1.525   0.741
 6501SOL    HW120402   6.812   1.450   0.808
 6501SOL    HW220403   6.717   1.564   0.737
 6502SOL     OW20404   0.038   3.934   2.119
 6502SOL    HW120405   0.108   3.899   2.181
 6502SOL    HW220406   0.014   4.027   2.146
 6503SOL     OW20407   5.712   0.896   3.723
 6503SOL    HW120408   5.732   0.862   3.815
 6503SOL    HW220409   5.768   0.977   3.705
 6504SOL     OW20410   3.547   6.565   6.007
 6504SOL    HW120411   3.472   6.573   5.942
 6504SOL    HW220412   3.511   6.549   6.099
 6505SOL     OW20413   5.669   6.257   6.175
 6505SOL    HW120414   5.580   6.212   6.173
 6505SOL    HW220415   5.741   6.188   6.172
 6506SOL     OW20416   6.974   2.910   3.588
 6506SOL    HW120417   6.924   2.859   3.518
 6506SOL    HW220418   0.051   2.927   3.556
 6507SOL     OW20419   2.666   5.980   6.645
 6507SOL    HW120420   2.668   5.993   6.546
 6507SOL    HW220421   2.577   5.941   6.671
 6508SOL     OW20422   2.111   0.465   3.273
 6508SOL    HW120423   2.134   0.551   3.227
 6508SOL    HW220424   2.196   0.419   3.300
 6509SOL     OW20425   4.735   2.106   4.553
 6509SOL    HW120426   4.749   2.008   4.565
 6509SOL    HW220427   4.649   2.122   4.505
 6510SOL     OW20428   5.899   4.706   6.842
 6510SOL    HW120429   5.861   4.782   6.895
 6510SOL    HW220430   5.962   4.742   6.773
 6511SOL     OW20431   4.164   1.023   4.779
 6511SOL    HW120432   4.071   1.028   4.816
 6511SOL    HW220433   4.214   1.105   4.805
 6512SOL     OW20434   3.578   6.748   2.151
 6512SOL    HW120435   3.560   6.744   2.249
 6512SOL    HW220436   3.676   6.737   2.135
 6513SOL     OW20437   2.025   5.683   3.826
 6513SOL    HW120438   1.999   5.635   3.910
 6513SOL    HW220439   2.021   5.782   3.841
 6514SOL     OW20440   6.024   1.186   4.154
 6514SOL    HW120441   6.084   1.163   4.078
 6514SOL    HW220442   6.014   1.106   4.214
 6515SOL     OW20443   1.411   3.263   3.522
 6515SOL    HW120444   1.471   3.225   3.452
 6515SOL    HW220445   1.440   3.356   3.544
 6516SOL     OW20446   0.445   3.141   1.270
 6516SOL    HW120447   0.496   3.076   1.327
 6516SOL    HW220448   0.462   3.234   1.304
 6517SOL     OW20449   6.839   1.911   2.040
 6517SOL    HW120450   6.753   1.863   2.052
 6517SOL    HW220451   6.899   1.892   2.117
 6518SOL     OW20452   0.624   0.293   1.463
 6518SOL    HW120453   0.661   0.376   1.421
 6518SOL    HW220454   0.560   0.318   1.536
 6519SOL     OW20455   0.341   1.449   2.865
 6519SOL    HW120456   0.431   1.491   2.851
 6519SOL    HW220457   0.293   1.495   2.939
 6520SOL     OW20458   0.033   4.766   0.196
 6520SOL    HW120459   0.064   4.825   0.271
 6520SOL    HW220460   0.108   4.709   0.165
 6521SOL     OW20461   2.138   2.817   4.692
 6521SOL    HW120462   2.061   2.795   4.752
 6521SOL    HW220463   2.157   2.915   4.697
 6522SOL     OW20464   2.707   4.636   5.616
 6522SOL    HW120465   2.742   4.565   5.555
 6522SOL    HW220466   2.661   4.707   5.562
 6523SOL     OW20467   3.950   0.660   6.784
 6523SOL    HW120468   3.984   0.597   6.716
 6523SOL    HW220469   4.010   0.740   6.790
 6524SOL     OW20470   2.800   3.490   1.190
 6524SOL    HW120471   2.758   3.445   1.268
 6524SOL    HW220472   2.861   3.563   1.222
 6525SOL     OW20473   1.993   4.731   2.859
 6525SOL    HW120474   2.041   4.685   2.934
 6525SOL    HW220475   1.894   4.716   2.869
 6526SOL     OW20476   0.774   0.474   1.772
 6526SOL    HW120477   0.762   0.377   1.792
 6526SOL    HW220478   0.850   0.510   1.827
 6527SOL     OW20479   6.527   2.252   6.639
 6527SOL    HW120480   6.576   2.166   6.654
 6527SOL    HW220481   6.447   2.256   6.700
 6528SOL     OW20482   5.909   1.294   5.407
 6528SOL    HW120483   5.965   1.343   5.340
 6528SOL    HW220484   5.917   1.338   5.496
 6529SOL     OW20485   2.528   0.214   2.324
 6529SOL    HW120486   2.622   0.185   2.308
 6529SOL    HW220487   2.526   0.283   2.396
 6530SOL     OW20488   6.984   2.242   1.184
 6530SOL    HW120489   6.922   2.236   1.262
 6530SOL    HW220490   0.062   2.244   1.216
 6531SOL     OW20491   5.006   3.403   4.950
 6531SOL    HW120492   4.992   3.313   4.992
 6531SOL    HW220493   4.941   3.468   4.989
 6532SOL     OW20494   1.162   1.499   1.045
 6532SOL    HW120495   1.168   1.598   1.035
 6532SOL    HW220496   1.247   1.464   1.085
 6533SOL     OW20497   4.049   5.881   0.378
 6533SOL    HW120498   4.142   5.896   0.345
 6533SOL    HW220499   3.992   5.844   0.305
 6534SOL     OW20500   4.964   5.208   1.365
 6534SOL    HW120501   4.870   5.202   1.398
 6534SOL    HW220502   5.025   5.161   1.428
 6535SOL     OW20503   6.623   4.396   4.355
 6535SOL    HW120504   6.541   4.360   4.398
 6535SOL    HW220505   6.605   4.411   4.257
 6536SOL     OW20506   0.513   2.166   5.025
 6536SOL    HW120507   0.511   2.263   5.003
 6536SOL    HW220508   0.509   2.153   5.124
 6537SOL     OW20509   0.205   4.430   6.271
 6537SOL    HW120510   0.128   4.366   6.277
 6537SOL    HW220511   0.211   4.467   6.178
 6538SOL     OW20512   1.792   3.940   5.761
 6538SOL    HW120513   1.834   4.019   5.715
 6538SOL    HW220514   1.853   3.906   5.832
 6539SOL     OW20515   5.148   0.601   7.007
 6539SOL    HW120516   5.185   0.640   0.074
 6539SOL    HW220517   5.051   0.625   6.999
 6540SOL     OW20518   3.784   2.801   6.113
 6540SOL    HW120519   3.854   2.858   6.157
 6540SOL    HW220520   3.696   2.848   6.116
 6541SOL     OW20521   4.815   1.301   5.236
 6541SOL    HW120522   4.804   1.311   5.335
 6541SOL    HW220523   4.912   1.287   5.215
 6542SOL     OW20524   0.708   2.845   3.664
 6542SOL    HW120525   0.771   2.897   3.607
 6542SOL    HW220526   0.743   2.841   3.758
 6543SOL     OW20527   4.454   3.060   5.473
 6543SOL    HW120528   4.452   2.975   5.421
 6543SOL    HW220529   4.413   3.134   5.420
 6544SOL     OW20530   1.317   6.484   3.311
 6544SOL    HW120531   1.249   6.443   3.372
 6544SOL    HW220532   1.398   6.425   3.307
 6545SOL     OW20533   4.128   0.694   0.959
 6545SOL    HW120534   4.182   0.691   0.875
 6545SOL    HW220535   4.184   0.662   1.036
 6546SOL     OW20536   2.579   4.052   5.904
 6546SOL    HW120537   2.618   4.106   5.829
 6546SOL    HW220538   2.482   4.074   5.914
 6547SOL     OW20539   4.799   1.083   6.495
 6547SOL    HW120540   4.799   1.055   6.399
 6547SOL    HW220541   4.862   1.025   6.547
 6548SOL     OW20542   1.733   4.081   1.213
 6548SOL    HW120543   1.747   4.092   1.115
 6548SOL    HW220544   1.740   4.170   1.258
 6549SOL     OW20545   4.260   0.922   2.218
 6549SOL    HW120546   4.234   0.930   2.122
 6549SOL    HW220547   4.319   0.842   2.230
 6550SOL     OW20548   6.945   6.729   4.602
 6550SOL    HW120549   0.001   6.754   4.538
 6550SOL    HW220550   6.930   6.630   4.598
 6551SOL     OW20551   2.010   3.607   1.912
 6551SOL    HW120552   2.080   3.547   1.951
 6551SOL    HW220553   2.011   3.599   1.813
 6552SOL     OW20554   1.744   0.299   0.389
 6552SOL    HW120555   1.756   0.201   0.401
 6552SOL    HW220556   1.801   0.349   0.454
 6553SOL     OW20557   0.164   2.487   3.213
 6553SOL    HW120558   0.211   2.407   3.249
 6553SOL    HW220559   0.210   2.570   3.243
 6554SOL     OW20560   1.645   6.972   4.332
 6554SOL    HW120561   1.662   0.043   4.378
 6554SOL    HW220562   1.591   6.913   4.392
 6555SOL     OW20563   5.091   2.004   2.826
 6555SOL    HW120564   5.179   1.989   2.872
 6555SOL    HW220565   5.026   2.042   2.890
 6556SOL     OW20566   5.699   4.527   3.424
 6556SOL    HW120567   5.797   4.508   3.432
 6556SOL    HW220568   5.677   4.549   3.329
 6557SOL     OW20569   2.674   0.360   3.289
 6557SOL    HW120570   2.632   0.433   3.235
 6557SOL    HW220571   2.614   0.280   3.287
 6558SOL     OW20572   6.579   4.937   6.796
 6558SOL    HW120573   6.510   4.914   6.865
 6558SOL    HW220574   6.657   4.981   6.842
 6559SOL     OW20575   0.708   3.981   0.266
 6559SOL    HW120576   0.739   4.068   0.304
 6559SOL    HW220577   0.715   3.983   0.166
 6560SOL     OW20578   3.928   4.730   1.710
 6560SOL    HW120579   4.013   4.753   1.757
 6560SOL    HW220580   3.855   4.790   1.741
 6561SOL     OW20581   3.472   4.247   1.266
 6561SOL    HW120582   3.470   4.305   1.185
 6561SOL    HW220583   3.561   4.202   1.273
 6562SOL     OW20584   5.990   1.953   1.284
 6562SOL    HW120585   5.903   1.940   1.235
 6562SOL    HW220586   5.981   2.029   1.348
 6563SOL     OW20587   5.185   5.492   6.172
 6563SOL    HW120588   5.142   5.580   6.193
 6563SOL    HW220589   5.258   5.505   6.105
 6564SOL     OW20590   6.265   4.220   2.434
 6564SOL    HW120591   6.279   4.173   2.521
 6564SOL    HW220592   6.219   4.307   2.449
 6565SOL     OW20593   6.030   1.082   2.823
 6565SOL    HW120594   6.117   1.115   2.787
 6565SOL    HW220595   6.043   1.045   2.914
 6566SOL     OW20596   4.166   6.630   2.336
 6566SOL    HW120597   4.095   6.641   2.406
 6566SOL    HW220598   4.124   6.592   2.253
 6567SOL     OW20599   5.039   0.725   2.224
 6567SOL    HW120600   5.112   0.727   2.156
 6567SOL    HW220601   4.951   0.715   2.177
 6568SOL     OW20602   3.402   1.740   4.028
 6568SOL    HW120603   3.415   1.835   3.999
 6568SOL    HW220604   3.341   1.738   4.107
 6569SOL     OW20605   2.960   2.928   0.283
 6569SOL    HW120606   2.888   2.884   0.336
 6569SOL    HW220607   2.984   3.016   0.324
 6570SOL     OW20608   3.001   0.907   2.373
 6570SOL    HW120609   3.062   0.906   2.452
 6570SOL    HW220610   2.956   0.996   2.367
 6571SOL     OW20611   2.926   4.818   2.423
 6571SOL    HW120612   2.952   4.835   2.328
 6571SOL    HW220613   2.834   4.778   2.426
 6572SOL     OW20614   0.005   3.990   4.558
 6572SOL    HW120615   0.063   3.967   4.636
 6572SOL    HW220616   6.979   4.079   4.572
 6573SOL     OW20617   0.515   1.908   2.588
 6573SOL    HW120618   0.599   1.963   2.587
 6573SOL    HW220619   0.456   1.940   2.662
 6574SOL     OW20620   2.236   5.782   3.006
 6574SOL    HW120621   2.160   5.826   3.054
 6574SOL    HW220622   2.261   5.697   3.053
 6575SOL     OW20623   0.816   0.136   3.824
 6575SOL    HW120624   0.910   0.121   3.794
 6575SOL    HW220625   0.768   0.049   3.830
 6576SOL     OW20626   2.799   6.120   0.412
 6576SOL    HW120627   2.830   6.112   0.317
 6576SOL    HW220628   2.859   6.184   0.461
 6577SOL     OW20629   1.285   1.741   3.346
 6577SOL    HW120630   1.206   1.688   3.317
 6577SOL    HW220631   1.296   1.820   3.285
 6578SOL     OW20632   0.510   6.121   2.597
 6578SOL    HW120633   0.516   6.066   2.681
 6578SOL    HW220634   0.602   6.134   2.560
 6579SOL     OW20635   0.010   3.260   3.491
 6579SOL    HW120636   0.014   3.258   3.591
 6579SOL    HW220637   6.937   3.228   3.461
 6580SOL     OW20638   0.528   1.636   0.500
 6580SOL    HW120639   0.485   1.568   0.559
 6580SOL    HW220640   0.458   1.685   0.449
 6581SOL     OW20641   2.467   0.584   0.567
 6581SOL    HW120642   2.383   0.617   0.524
 6581SOL    HW220643   2.540   0.581   0.499
 6582SOL     OW20644   6.965   1.159   3.363
 6582SOL    HW120645   6.980   1.251   3.400
 6582SOL    HW220646   0.031   1.104   3.379
 6583SOL     OW20647   4.801   6.818   5.785
 6583SOL    HW120648   4.792   6.772   5.697
 6583SOL    HW220649   4.714   6.813   5.834
 6584SOL     OW20650   5.132   2.387   0.239
 6584SOL    HW120651   5.214   2.333   0.259
 6584SOL    HW220652   5.102   2.368   0.145
 6585SOL     OW20653   6.031   5.678   0.118
 6585SOL    HW120654   6.105   5.717   0.173
 6585SOL    HW220655   5.982   5.610   0.172
 6586SOL     OW20656   5.691   1.268   5.724
 6586SOL    HW120657   5.616   1.238   5.667
 6586SOL    HW220658   5.723   1.193   5.782
 6587SOL     OW20659   1.729   4.930   5.764
 6587SOL    HW120660   1.765   4.882   5.684
 6587SOL    HW220661   1.653   4.878   5.802
 6588SOL     OW20662   0.606   2.956   1.437
 6588SOL    HW120663   0.654   3.022   1.495
 6588SOL    HW220664   0.655   2.868   1.438
 6589SOL     OW20665   4.487   0.256   2.129
 6589SOL    HW120666   4.532   0.167   2.122
 6589SOL    HW220667   4.556   0.328   2.130
 6590SOL     OW20668   0.105   1.224   6.583
 6590SOL    HW120669   0.125   1.157   6.511
 6590SOL    HW220670   0.125   1.184   6.672
 6591SOL     OW20671   5.953   5.637   3.592
 6591SOL    HW120672   5.978   5.635   3.495
 6591SOL    HW220673   6.034   5.659   3.646
 6592SOL     OW20674   5.430   6.846   3.195
 6592SOL    HW120675   5.440   6.844   3.294
 6592SOL    HW220676   5.333   6.854   3.171
 6593SOL     OW20677   2.569   2.475   2.606
 6593SOL    HW120678   2.613   2.411   2.542
 6593SOL    HW220679   2.490   2.517   2.561
 6594SOL     OW20680   3.595   1.265   6.262
 6594SOL    HW120681   3.591   1.364   6.250
 6594SOL    HW220682   3.528   1.221   6.202
 6595SOL     OW20683   1.636   4.149   6.733
 6595SOL    HW120684   1.674   4.150   6.826
 6595SOL    HW220685   1.648   4.059   6.693
 6596SOL     OW20686   3.497   6.931   4.193
 6596SOL    HW120687   3.569   6.886   4.247
 6596SOL    HW220688   3.540   6.992   4.126
 6597SOL     OW20689   1.230   5.484   0.982
 6597SOL    HW120690   1.310   5.447   1.027
 6597SOL    HW220691   1.215   5.578   1.013
 6598SOL     OW20692   1.853   4.582   3.812
 6598SOL    HW120693   1.873   4.624   3.900
 6598SOL    HW220694   1.828   4.652   3.746
 6599SOL     OW20695   4.534   6.133   6.238
 6599SOL    HW120696   4.533   6.233   6.235
 6599SOL    HW220697   4.455   6.097   6.188
 6600SOL     OW20698   3.572   6.583   5.386
 6600SOL    HW120699   3.642   6.602   5.317
 6600SOL    HW220700   3.507   6.659   5.389
 6601SOL     OW20701   1.203   2.285   4.910
 6601SOL    HW120702   1.292   2.310   4.872
 6601SOL    HW220703   1.199   2.314   5.006
 6602SOL     OW20704   1.725   0.842   1.352
 6602SOL    HW120705   1.647   0.779   1.363
 6602SOL    HW220706   1.775   0.849   1.438
 6603SOL     OW20707   0.554   3.082   3.438
 6603SOL    HW120708   0.517   3.009   3.381
 6603SOL    HW220709   0.516   3.076   3.530
 6604SOL     OW20710   1.650   6.885   1.592
 6604SOL    HW120711   1.631   6.787   1.587
 6604SOL    HW220712   1.589   6.934   1.530
 6605SOL     OW20713   5.762   5.733   1.928
 6605SOL    HW120714   5.794   5.783   1.847
 6605SOL    HW220715   5.712   5.795   1.988
 6606SOL     OW20716   6.704   5.699   2.224
 6606SOL    HW120717   6.745   5.661   2.307
 6606SOL    HW220718   6.776   5.731   2.162
 6607SOL     OW20719   1.085   4.776   3.390
 6607SOL    HW120720   1.129   4.725   3.463
 6607SOL    HW220721   1.000   4.817   3.423
 6608SOL     OW20722   6.329   6.806   6.913
 6608SOL    HW120723   6.390   6.812   6.833
 6608SOL    HW220724   6.383   6.818   6.996
 6609SOL     OW20725   5.554   0.704   0.098
 6609SOL    HW120726   5.564   0.607   0.117
 6609SOL    HW220727   5.462   0.722   0.064
 6610SOL     OW20728   2.037   6.434   6.584
 6610SOL    HW120729   2.070   6.529   6.581
 6610SOL    HW220730   2.084   6.380   6.514
 6611SOL     OW20731   4.801   3.012   3.072
 6611SOL    HW120732   4.766   3.038   3.162
 6611SOL    HW220733   4.766   2.922   3.048
 6612SOL     OW20734   6.517   1.964   6.179
 6612SOL    HW120735   6.458   1.998   6.252
 6612SOL    HW220736   6.602   1.930   6.218
 6613SOL     OW20737   6.257   6.508   5.512
 6613SOL    HW120738   6.349   6.473   5.494
 6613SOL    HW220739   6.232   6.491   5.607
 6614SOL     OW20740   4.672   5.242   6.921
 6614SOL    HW120741   4.610   5.164   6.909
 6614SOL    HW220742   4.687   5.257   0.003
 6615SOL     OW20743   1.685   5.906   1.234
 6615SOL    HW120744   1.653   5.893   1.327
 6615SOL    HW220745   1.637   5.983   1.192
 6616SOL     OW20746   4.512   6.899   6.537
 6616SOL    HW120747   4.503   6.961   6.459
 6616SOL    HW220748   4.441   6.918   6.604
 6617SOL     OW20749   4.341   5.583   3.496
 6617SOL    HW120750   4.335   5.682   3.484
 6617SOL    HW220751   4.380   5.563   3.586
 6618SOL     OW20752   1.926   2.046   2.253
 6618SOL    HW120753   1.883   1.990   2.324
 6618SOL    HW220754   1.889   2.020   2.163
 6619SOL     OW20755   5.611   6.798   3.920
 6619SOL    HW120756   5.542   6.770   3.986
 6619SOL    HW220757   5.611   6.734   3.843
 6620SOL     OW20758   2.251   2.441   5.648
 6620SOL    HW120759   2.191   2.481   5.717
 6620SOL    HW220760   2.336   2.411   5.690
 6621SOL     OW20761   3.486   3.388   5.566
 6621SOL    HW120762   3.464   3.412   5.472
 6621SOL    HW220763   3.415   3.328   5.603
 6622SOL     OW20764   5.845   5.627   2.174
 6622SOL    HW120765   5.834   5.684   2.093
 6622SOL    HW220766   5.920   5.661   2.230
 6623SOL     OW20767   3.531   2.896   4.787
 6623SOL    HW120768   3.587   2.876   4.867
 6623SOL    HW220769   3.587   2.944   4.719
 6624SOL     OW20770   0.089   4.587   5.388
 6624SOL    HW120771   0.040   4.524   5.328
 6624SOL    HW220772   0.154   4.640   5.334
 6625SOL     OW20773   5.114   2.023   5.446
 6625SOL    HW120774   5.048   1.948   5.452
 6625SOL    HW220775   5.179   2.005   5.372
 6626SOL     OW20776   3.045   6.582   5.728
 6626SOL    HW120777   2.969   6.646   5.735
 6626SOL    HW220778   3.127   6.622   5.769
 6627SOL     OW20779   1.590   6.602   4.549
 6627SOL    HW120780   1.589   6.558   4.639
 6627SOL    HW220781   1.550   6.693   4.556
 6628SOL     OW20782   5.994   4.758   5.014
 6628SOL    HW120783   6.035   4.725   5.099
 6628SOL    HW220784   5.972   4.855   5.023
 6629SOL     OW20785   4.493   6.414   6.291
 6629SOL    HW120786   4.398   6.433   6.316
 6629SOL    HW220787   4.554   6.474   6.342
 6630SOL     OW20788   3.862   1.679   1.292
 6630SOL    HW120789   3.784   1.624   1.263
 6630SOL    HW220790   3.831   1.751   1.355
 6631SOL     OW20791   2.318   5.960   4.075
 6631SOL    HW120792   2.229   5.924   4.103
 6631SOL    HW220793   2.336   6.046   4.123
 6632SOL     OW20794   0.711   0.806   1.026
 6632SOL    HW120795   0.723   0.812   1.125
 6632SOL    HW220796   0.759   0.882   0.982
 6633SOL     OW20797   2.269   5.186   6.299
 6633SOL    HW120798   2.327   5.150   6.226
 6633SOL    HW220799   2.288   5.137   6.384
 6634SOL     OW20800   4.993   1.148   4.897
 6634SOL    HW120801   5.081   1.145   4.850
 6634SOL    HW220802   5.008   1.155   4.996
 6635SOL     OW20803   4.842   4.429   3.084
 6635SOL    HW120804   4.941   4.444   3.076
 6635SOL    HW220805   4.825   4.338   3.121
 6636SOL     OW20806   4.790   1.381   0.000
 6636SOL    HW120807   4.883   1.372   6.981
 6636SOL    HW220808   4.736   1.301   6.989
 6637SOL     OW20809   0.954   0.153   6.826
 6637SOL    HW120810   0.989   0.076   6.773
 6637SOL    HW220811   0.870   0.126   6.872
 6638SOL     OW20812   3.023   3.229   3.304
 6638SOL    HW120813   2.952   3.283   3.350
 6638SOL    HW220814   3.083   3.290   3.253
 6639SOL     OW20815   4.889   4.673   6.877
 6639SOL    HW120816   4.911   4.577   6.858
 6639SOL    HW220817   4.920   4.730   6.800
 6640SOL     OW20818   6.426   1.575   5.134
 6640SOL    HW120819   6.370   1.577   5.051
 6640SOL    HW220820   6.400   1.650   5.193
 6641SOL     OW20821   2.949   1.403   6.988
 6641SOL    HW120822   2.902   1.326   0.014
 6641SOL    HW220823   3.048   1.386   6.988
 6642SOL     OW20824   2.614   6.232   6.813
 6642SOL    HW120825   2.617   6.139   6.777
 6642SOL    HW220826   2.656   6.295   6.746
 6643SOL     OW20827   4.993   6.308   6.847
 6643SOL    HW120828   4.897   6.328   6.828
 6643SOL    HW220829   5.047   6.323   6.765
 6644SOL     OW20830   2.615   5.983   1.418
 6644SOL    HW120831   2.714   5.970   1.407
 6644SOL    HW220832   2.596   6.009   1.513
 6645SOL     OW20833   5.653   3.742   1.037
 6645SOL    HW120834   5.582   3.774   0.975
 6645SOL    HW220835   5.668   3.644   1.023
 6646SOL     OW20836   4.239   1.227   5.262
 6646SOL    HW120837   4.205   1.318   5.239
 6646SOL    HW220838   4.321   1.208   5.209
 6647SOL     OW20839   4.713   0.317   1.393
 6647SOL    HW120840   4.656   0.353   1.466
 6647SOL    HW220841   4.657   0.262   1.331
 6648SOL     OW20842   3.643   6.693   3.775
 6648SOL    HW120843   3.710   6.632   3.732
 6648SOL    HW220844   3.623   6.769   3.714
 6649SOL     OW20845   5.841   1.686   6.520
 6649SOL    HW120846   5.910   1.751   6.552
 6649SOL    HW220847   5.808   1.714   6.431
 6650SOL     OW20848   3.731   1.361   5.977
 6650SOL    HW120849   3.764   1.432   5.916
 6650SOL    HW220850   3.692   1.402   6.059
 6651SOL     OW20851   1.778   0.511   5.890
 6651SOL    HW120852   1.803   0.484   5.797
 6651SOL    HW220853   1.822   0.598   5.912
 6652SOL     OW20854   0.412   4.472   6.696
 6652SOL    HW120855   0.477   4.412   6.651
 6652SOL    HW220856   0.350   4.417   6.753
 6653SOL     OW20857   4.010   4.028   1.494
 6653SOL    HW120858   3.928   4.084   1.505
 6653SOL    HW220859   4.001   3.945   1.549
 6654SOL     OW20860   1.507   5.747   1.721
 6654SOL    HW120861   1.538   5.819   1.783
 6654SOL    HW220862   1.413   5.764   1.693
 6655SOL     OW20863   0.559   6.743   3.771
 6655SOL    HW120864   0.546   6.774   3.677
 6655SOL    HW220865   0.473   6.755   3.822
 6656SOL     OW20866   5.926   2.281   2.965
 6656SOL    HW120867   5.915   2.333   2.881
 6656SOL    HW220868   5.871   2.322   3.038
 6657SOL     OW20869   5.675   4.320   5.385
 6657SOL    HW120870   5.716   4.285   5.301
 6657SOL    HW220871   5.590   4.271   5.404
 6658SOL     OW20872   4.788   1.032   5.144
 6658SOL    HW120873   4.764   1.128   5.161
 6658SOL    HW220874   4.705   0.980   5.123
 6659SOL     OW20875   2.250   2.849   1.112
 6659SOL    HW120876   2.231   2.940   1.076
 6659SOL    HW220877   2.294   2.794   1.041
 6660SOL     OW20878   1.801   4.831   1.201
 6660SOL    HW120879   1.812   4.732   1.202
 6660SOL    HW220880   1.848   4.868   1.120
 6661SOL     OW20881   1.619   0.646   5.044
 6661SOL    HW120882   1.654   0.738   5.027
 6661SOL    HW220883   1.580   0.609   4.960
 6662SOL     OW20884   1.180   0.511   0.360
 6662SOL    HW120885   1.088   0.526   0.396
 6662SOL    HW220886   1.248   0.533   0.431
 6663SOL     OW20887   6.473   6.438   4.637
 6663SOL    HW120888   6.482   6.351   4.589
 6663SOL    HW220889   6.526   6.509   4.590
 6664SOL     OW20890   2.422   0.010   0.236
 6664SOL    HW120891   2.329   0.023   0.201
 6664SOL    HW220892   2.433   0.063   0.320
 6665SOL     OW20893   1.421   5.757   4.728
 6665SOL    HW120894   1.520   5.770   4.725
 6665SOL    HW220895   1.377   5.829   4.674
 6666SOL     OW20896   6.248   6.195   6.123
 6666SOL    HW120897   6.342   6.198   6.091
 6666SOL    HW220898   6.186   6.211   6.047
 6667SOL     OW20899   6.839   6.437   5.958
 6667SOL    HW120900   6.937   6.458   5.962
 6667SOL    HW220901   6.799   6.452   6.049
 6668SOL     OW20902   0.068   6.015   0.954
 6668SOL    HW120903   0.053   6.107   0.991
 6668SOL    HW220904   0.104   5.956   1.026
 6669SOL     OW20905   2.812   2.231   1.719
 6669SOL    HW120906   2.821   2.283   1.635
 6669SOL    HW220907   2.859   2.279   1.793
 6670SOL     OW20908   3.294   1.424   5.379
 6670SOL    HW120909   3.328   1.513   5.409
 6670SOL    HW220910   3.196   1.418   5.393
 6671SOL     OW20911   4.505   6.566   0.284
 6671SOL    HW120912   4.405   6.574   0.280
 6671SOL    HW220913   4.531   6.517   0.367
 6672SOL     OW20914   6.584   2.526   6.868
 6672SOL    HW120915   6.493   2.487   6.885
 6672SOL    HW220916   6.584   2.571   6.779
 6673SOL     OW20917   4.724   4.272   3.700
 6673SOL    HW120918   4.823   4.281   3.685
 6673SOL    HW220919   4.706   4.194   3.758
 6674SOL     OW20920   0.447   3.631   0.341
 6674SOL    HW120921   0.500   3.665   0.263
 6674SOL    HW220922   0.349   3.641   0.321
 6675SOL     OW20923   6.054   3.339   0.849
 6675SOL    HW120924   6.044   3.245   0.818
 6675SOL    HW220925   6.076   3.398   0.771
 6676SOL     OW20926   0.256   3.462   5.053
 6676SOL    HW120927   0.192   3.536   5.075
 6676SOL    HW220928   0.249   3.440   4.956
 6677SOL     OW20929   1.178   1.622   6.169
 6677SOL    HW120930   1.229   1.594   6.088
 6677SOL    HW220931   1.238   1.619   6.249
 6678SOL     OW20932   3.348   3.708   0.450
 6678SOL    HW120933   3.337   3.613   0.422
 6678SOL    HW220934   3.398   3.712   0.537
 6679SOL     OW20935   3.323   0.681   4.267
 6679SOL    HW120936   3.383   0.662   4.345
 6679SOL    HW220937   3.290   0.775   4.274
 6680SOL     OW20938   4.569   6.654   6.432
 6680SOL    HW120939   4.558   6.746   6.468
 6680SOL    HW220940   4.617   6.597   6.498
 6681SOL     OW20941   4.610   5.630   0.551
 6681SOL    HW120942   4.647   5.688   0.478
 6681SOL    HW220943   4.526   5.587   0.520
 6682SOL     OW20944   2.195   5.010   0.955
 6682SOL    HW120945   2.124   5.016   0.885
 6682SOL    HW220946   2.190   5.091   1.015
 6683SOL     OW20947   6.051   3.163   5.094
 6683SOL    HW120948   6.062   3.065   5.108
 6683SOL    HW220949   6.112   3.213   5.155
 6684SOL     OW20950   3.762   6.531   1.812
 6684SOL    HW120951   3.857   6.559   1.823
 6684SOL    HW220952   3.706   6.578   1.880
 6685SOL     OW20953   5.297   2.891   6.297
 6685SOL    HW120954   5.253   2.811   6.336
 6685SOL    HW220955   5.240   2.927   6.223
 6686SOL     OW20956   5.224   5.410   4.080
 6686SOL    HW120957   5.138   5.377   4.119
 6686SOL    HW220958   5.205   5.483   4.015
 6687SOL     OW20959   0.930   3.071   1.708
 6687SOL    HW120960   0.957   2.998   1.770
 6687SOL    HW220961   0.991   3.071   1.628
 6688SOL     OW20962   5.224   4.309   1.512
 6688SOL    HW120963   5.210   4.285   1.608
 6688SOL    HW220964   5.263   4.401   1.505
 6689SOL     OW20965   4.029   3.921   5.957
 6689SOL    HW120966   3.985   4.010   5.959
 6689SOL    HW220967   4.047   3.894   5.863
 6690SOL     OW20968   0.210   0.039   0.822
 6690SOL    HW120969   0.126   7.002   0.817
 6690SOL    HW220970   0.257   0.019   0.908
 6691SOL     OW20971   2.599   0.586   2.289
 6691SOL    HW120972   2.632   0.670   2.247
 6691SOL    HW220973   2.500   0.580   2.277
 6692SOL     OW20974   3.971   3.906   3.663
 6692SOL    HW120975   3.987   3.861   3.751
 6692SOL    HW220976   3.876   3.936   3.659
 6693SOL     OW20977   3.678   2.224   5.211
 6693SOL    HW120978   3.724   2.292   5.267
 6693SOL    HW220979   3.580   2.229   5.226
 6694SOL     OW20980   3.995   5.866   1.408
 6694SOL    HW120981   4.025   5.815   1.488
 6694SOL    HW220982   4.045   5.835   1.327
 6695SOL     OW20983   2.918   2.084   0.122
 6695SOL    HW120984   2.888   2.075   0.027
 6695SOL    HW220985   2.838   2.096   0.181
 6696SOL     OW20986   3.417   2.994   4.005
 6696SOL    HW120987   3.439   2.946   3.920
 6696SOL    HW220988   3.436   2.935   4.083
 6697SOL     OW20989   4.725   2.013   3.079
 6697SOL    HW120990   4.822   2.034   3.067
 6697SOL    HW220991   4.714   1.916   3.099
 6698SOL     OW20992   3.505   1.973   0.712
 6698SOL    HW120993   3.514   1.909   0.788
 6698SOL    HW220994   3.510   1.922   0.626
 6699SOL     OW20995   2.618   5.790   5.977
 6699SOL    HW120996   2.588   5.769   6.069
 6699SOL    HW220997   2.718   5.789   5.974
 6700SOL     OW20998   0.265   1.186   1.661
 6700SOL    HW120999   0.181   1.239   1.670
 6700SOL    HW221000   0.296   1.188   1.566
 6701SOL     OW21001   5.588   5.262   1.508
 6701SOL    HW121002   5.675   5.280   1.554
 6701SOL    HW221003   5.564   5.341   1.451
 6702SOL     OW21004   2.605   2.428   1.190
 6702SOL    HW121005   2.656   2.505   1.228
 6702SOL    HW221006   2.594   2.358   1.260
 6703SOL     OW21007   6.127   0.434   0.776
 6703SOL    HW121008   6.046   0.449   0.720
 6703SOL    HW221009   6.152   0.337   0.774
 6704SOL     OW21010   3.771   2.122   2.781
 6704SOL    HW121011   3.742   2.080   2.694
 6704SOL    HW221012   3.690   2.150   2.832
 6705SOL     OW21013   6.049   3.335   1.750
 6705SOL    HW121014   5.954   3.362   1.736
 6705SOL    HW221015   6.089   3.304   1.664
 6706SOL     OW21016   1.209   5.236   1.452
 6706SOL    HW121017   1.131   5.219   1.511
 6706SOL    HW221018   1.178   5.275   1.365
 6707SOL     OW21019   5.679   6.967   3.428
 6707SOL    HW121020   5.645   0.043   3.410
 6707SOL    HW221021   5.691   6.955   3.526
 6708SOL     OW21022   5.963   5.085   0.507
 6708SOL    HW121023   5.994   5.162   0.452
 6708SOL    HW221024   5.967   5.001   0.452
 6709SOL     OW21025   1.688   6.478   2.620
 6709SOL    HW121026   1.754   6.423   2.569
 6709SOL    HW221027   1.660   6.429   2.702
 6710SOL     OW21028   3.605   1.028   6.429
 6710SOL    HW121029   3.569   1.022   6.522
 6710SOL    HW221030   3.561   1.103   6.381
 6711SOL     OW21031   4.943   6.373   5.282
 6711SOL    HW121032   5.000   6.301   5.242
 6711SOL    HW221033   4.936   6.449   5.218
 6712SOL     OW21034   5.635   3.936   0.647
 6712SOL    HW121035   5.539   3.906   0.645
 6712SOL    HW221036   5.691   3.864   0.687
 6713SOL     OW21037   2.269   0.568   2.690
 6713SOL    HW121038   2.209   0.507   2.742
 6713SOL    HW221039   2.343   0.516   2.648
 6714SOL     OW21040   6.391   1.000   5.944
 6714SOL    HW121041   6.400   1.039   6.036
 6714SOL    HW221042   6.355   1.068   5.882
 6715SOL     OW21043   0.920   0.454   0.566
 6715SOL    HW121044   0.921   0.387   0.640
 6715SOL    HW221045   0.955   0.541   0.598
 6716SOL     OW21046   0.356   5.603   2.109
 6716SOL    HW121047   0.331   5.530   2.173
 6716SOL    HW221048   0.433   5.655   2.146
 6717SOL     OW21049   3.490   2.920   0.018
 6717SOL    HW121050   3.425   2.996   0.018
 6717SOL    HW221051   3.572   2.947   6.985
 6718SOL     OW21052   5.176   0.668   0.676
 6718SOL    HW121053   5.085   0.710   0.672
 6718SOL    HW221054   5.189   0.625   0.765
 6719SOL     OW21055   2.852   6.529   0.521
 6719SOL    HW121056   2.887   6.572   0.604
 6719SOL    HW221057   2.892   6.438   0.511
 6720SOL     OW21058   2.059   6.879   4.548
 6720SOL    HW121059   2.022   6.787   4.536
 6720SOL    HW221060   2.062   6.927   4.460
 6721SOL     OW21061   6.531   6.471   0.256
 6721SOL    HW121062   6.627   6.496   0.246
 6721SOL    HW221063   6.521   6.406   0.331
 6722SOL     OW21064   6.617   3.241   1.428
 6722SOL    HW121065   6.563   3.325   1.429
 6722SOL    HW221066   6.676   3.237   1.509
 6723SOL     OW21067   1.541   6.881   4.576
 6723SOL    HW121068   1.506   6.974   4.581
 6723SOL    HW221069   1.613   6.869   4.645
 6724SOL     OW21070   2.166   3.385   5.972
 6724SOL    HW121071   2.131   3.355   6.061
 6724SOL    HW221072   2.233   3.318   5.939
 6725SOL     OW21073   0.164   3.672   1.525
 6725SOL    HW121074   0.230   3.716   1.586
 6725SOL    HW221075   0.084   3.732   1.515
 6726SOL     OW21076   1.235   2.721   4.815
 6726SOL    HW121077   1.171   2.795   4.836
 6726SOL    HW221078   1.243   2.709   4.716
 6727SOL     OW21079   0.276   4.440   5.740
 6727SOL    HW121080   0.351   4.392   5.695
 6727SOL    HW221081   0.302   4.535   5.757
 6728SOL     OW21082   3.970   2.179   2.089
 6728SOL    HW121083   3.892   2.231   2.053
 6728SOL    HW221084   3.940   2.126   2.168
 6729SOL     OW21085   6.199   0.783   1.280
 6729SOL    HW121086   6.281   0.762   1.226
 6729SOL    HW221087   6.122   0.797   1.218
 6730SOL     OW21088   1.830   6.823   1.310
 6730SOL    HW121089   1.880   6.818   1.396
 6730SOL    HW221090   1.766   6.746   1.305
 6731SOL     OW21091   1.705   6.551   1.186
 6731SOL    HW121092   1.726   6.615   1.112
 6731SOL    HW221093   1.607   6.531   1.186
 6732SOL     OW21094   5.739   4.224   5.060
 6732SOL    HW121095   5.661   4.189   5.112
 6732SOL    HW221096   5.805   4.151   5.045
 6733SOL     OW21097   3.168   5.428   6.025
 6733SOL    HW121098   3.255   5.386   5.999
 6733SOL    HW221099   3.179   5.477   6.112
 6734SOL     OW21100   5.760   2.071   4.297
 6734SOL    HW121101   5.791   2.022   4.216
 6734SOL    HW221102   5.661   2.062   4.306
 6735SOL     OW21103   6.176   3.755   5.000
 6735SOL    HW121104   6.266   3.729   5.036
 6735SOL    HW221105   6.148   3.841   5.042
 6736SOL     OW21106   3.087   3.739   6.861
 6736SOL    HW121107   2.992   3.760   6.885
 6736SOL    HW221108   3.091   3.648   6.819
 6737SOL     OW21109   1.594   3.189   0.787
 6737SOL    HW121110   1.683   3.154   0.815
 6737SOL    HW221111   1.552   3.238   0.864
 6738SOL     OW21112   1.690   5.908   3.424
 6738SOL    HW121113   1.768   5.858   3.460
 6738SOL    HW221114   1.651   5.858   3.346
 6739SOL     OW21115   4.963   5.702   4.562
 6739SOL    HW121116   4.879   5.650   4.577
 6739SOL    HW221117   4.947   5.774   4.495
 6740SOL     OW21118   0.398   0.162   5.262
 6740SOL    HW121119   0.407   0.150   5.163
 6740SOL    HW221120   0.339   0.090   5.299
 6741SOL     OW21121   4.398   2.074   5.707
 6741SOL    HW121122   4.433   2.165   5.683
 6741SOL    HW221123   4.472   2.018   5.745
 6742SOL     OW21124   5.733   5.906   3.539
 6742SOL    HW121125   5.800   5.928   3.610
 6742SOL    HW221126   5.644   5.887   3.581
 6743SOL     OW21127   4.623   4.294   6.651
 6743SOL    HW121128   4.689   4.221   6.669
 6743SOL    HW221129   4.659   4.355   6.580
 6744SOL     OW21130   6.236   3.844   6.167
 6744SOL    HW121131   6.233   3.909   6.243
 6744SOL    HW221132   6.282   3.761   6.196
 6745SOL     OW21133   0.144   6.997   3.830
 6745SOL    HW121134   0.080   6.968   3.758
 6745SOL    HW221135   0.172   0.075   3.813
 6746SOL     OW21136   0.976   1.035   4.208
 6746SOL    HW121137   0.969   1.124   4.164
 6746SOL    HW221138   0.912   0.972   4.165
 6747SOL     OW21139   5.247   1.026   5.564
 6747SOL    HW121140   5.244   0.934   5.602
 6747SOL    HW221141   5.169   1.040   5.503
 6748SOL     OW21142   2.905   1.894   3.529
 6748SOL    HW121143   2.966   1.845   3.465
 6748SOL    HW221144   2.812   1.857   3.521
 6749SOL     OW21145   3.540   4.574   0.889
 6749SOL    HW121146   3.598   4.638   0.940
 6749SOL    HW221147   3.561   4.581   0.791
 6750SOL     OW21148   3.540   1.935   4.387
 6750SOL    HW121149   3.476   1.982   4.327
 6750SOL    HW221150   3.496   1.855   4.427
 6751SOL     OW21151   4.934   0.040   2.949
 6751SOL    HW121152   4.894   0.054   2.858
 6751SOL    HW221153   4.977   0.125   2.980
 6752SOL     OW21154   1.559   0.109   3.101
 6752SOL    HW121155   1.566   0.121   3.002
 6752SOL    HW221156   1.464   0.089   3.125
 6753SOL     OW21157   2.924   1.381   6.277
 6753SOL    HW121158   2.827   1.389   6.256
 6753SOL    HW221159   2.972   1.340   6.200
 6754SOL     OW21160   6.909   1.844   1.025
 6754SOL    HW121161   6.979   1.901   1.070
 6754SOL    HW221162   6.952   1.764   0.984
 6755SOL     OW21163   4.017   1.052   2.303
 6755SOL    HW121164   4.102   1.024   2.257
 6755SOL    HW221165   3.996   0.988   2.377
 6756SOL     OW21166   3.780   5.695   5.377
 6756SOL    HW121167   3.789   5.766   5.447
 6756SOL    HW221168   3.739   5.613   5.417
 6757SOL     OW21169   3.918   2.324   0.435
 6757SOL    HW121170   3.874   2.387   0.371
 6757SOL    HW221171   3.881   2.339   0.527
 6758SOL     OW21172   6.219   2.388   2.105
 6758SOL    HW121173   6.244   2.306   2.156
 6758SOL    HW221174   6.147   2.365   2.040
 6759SOL     OW21175   1.434   4.155   4.184
 6759SOL    HW121176   1.500   4.161   4.109
 6759SOL    HW221177   1.392   4.245   4.199
 6760SOL     OW21178   6.951   4.193   2.181
 6760SOL    HW121179   6.992   4.284   2.186
 6760SOL    HW221180   6.887   4.181   2.257
 6761SOL     OW21181   6.798   2.483   5.667
 6761SOL    HW121182   6.865   2.531   5.610
 6761SOL    HW221183   6.811   2.384   5.657
 6762SOL     OW21184   0.626   4.653   4.485
 6762SOL    HW121185   0.534   4.667   4.447
 6762SOL    HW221186   0.656   4.737   4.530
 6763SOL     OW21187   6.755   5.607   3.562
 6763SOL    HW121188   6.709   5.600   3.473
 6763SOL    HW221189   6.784   5.702   3.576
 6764SOL     OW21190   1.815   5.686   1.125
 6764SOL    HW121191   1.771   5.697   1.035
 6764SOL    HW221192   1.788   5.761   1.185
 6765SOL     OW21193   5.467   4.776   3.778
 6765SOL    HW121194   5.492   4.773   3.875
 6765SOL    HW221195   5.533   4.724   3.725
 6766SOL     OW21196   5.234   6.437   5.887
 6766SOL    HW121197   5.325   6.478   5.896
 6766SOL    HW221198   5.215   6.420   5.791
 6767SOL     OW21199   2.485   1.508   0.982
 6767SOL    HW121200   2.445   1.547   1.066
 6767SOL    HW221201   2.583   1.528   0.980
 6768SOL     OW21202   1.338   6.576   4.813
 6768SOL    HW121203   1.417   6.616   4.860
 6768SOL    HW221204   1.338   6.477   4.828
 6769SOL     OW21205   2.272   0.483   5.924
 6769SOL    HW121206   2.324   0.478   6.010
 6769SOL    HW221207   2.245   0.390   5.896
 6770SOL     OW21208   5.531   1.525   3.237
 6770SOL    HW121209   5.461   1.482   3.294
 6770SOL    HW221210   5.580   1.455   3.186
 6771SOL     OW21211   3.940   1.615   3.055
 6771SOL    HW121212   3.912   1.688   2.992
 6771SOL    HW221213   3.865   1.596   3.118
 6772SOL     OW21214   4.228   2.283   2.809
 6772SOL    HW121215   4.257   2.354   2.872
 6772SOL    HW221216   4.161   2.223   2.854
 6773SOL     OW21217   6.693   5.957   1.639
 6773SOL    HW121218   6.709   5.888   1.569
 6773SOL    HW221219   6.739   5.930   1.723
 6774SOL     OW21220   0.761   3.851   4.924
 6774SOL    HW121221   0.744   3.883   5.017
 6774SOL    HW221222   0.711   3.766   4.907
 6775SOL     OW21223   2.747   2.260   2.123
 6775SOL    HW121224   2.665   2.272   2.066
 6775SOL    HW221225   2.829   2.276   2.068
 6776SOL     OW21226   4.805   3.844   6.991
 6776SOL    HW121227   4.733   3.876   0.036
 6776SOL    HW221228   4.894   3.876   0.009
 6777SOL     OW21229   4.980   4.631   0.616
 6777SOL    HW121230   4.935   4.719   0.635
 6777SOL    HW221231   5.064   4.648   0.565
 6778SOL     OW21232   6.122   5.330   2.028
 6778SOL    HW121233   6.061   5.359   2.103
 6778SOL    HW221234   6.180   5.407   2.002
 6779SOL     OW21235   5.658   5.781   6.077
 6779SOL    HW121236   5.635   5.863   6.024
 6779SOL    HW221237   5.639   5.798   6.174
 6780SOL     OW21238   1.858   2.549   2.363
 6780SOL    HW121239   1.764   2.583   2.371
 6780SOL    HW221240   1.866   2.461   2.409
 6781SOL     OW21241   6.728   2.367   4.327
 6781SOL    HW121242   6.667   2.320   4.391
 6781SOL    HW221243   6.803   2.307   4.302
 6782SOL     OW21244   0.525   0.740   2.723
 6782SOL    HW121245   0.477   0.826   2.704
 6782SOL    HW221246   0.531   0.686   2.639
 6783SOL     OW21247   6.247   1.147   5.418
 6783SOL    HW121248   6.161   1.150   5.368
 6783SOL    HW221249   6.303   1.226   5.391
 6784SOL     OW21250   1.561   3.350   1.044
 6784SOL    HW121251   1.468   3.332   1.077
 6784SOL    HW221252   1.569   3.446   1.018
 6785SOL     OW21253   5.852   5.654   4.848
 6785SOL    HW121254   5.809   5.722   4.789
 6785SOL    HW221255   5.784   5.620   4.914
 6786SOL     OW21256   1.699   2.190   0.846
 6786SOL    HW121257   1.687   2.098   0.807
 6786SOL    HW221258   1.782   2.192   0.901
 6787SOL     OW21259   2.597   2.524   0.048
 6787SOL    HW121260   2.543   2.593   0.097
 6787SOL    HW221261   2.694   2.536   0.069
 6788SOL     OW21262   1.417   4.461   1.144
 6788SOL    HW121263   1.359   4.427   1.218
 6788SOL    HW221264   1.417   4.561   1.146
 6789SOL     OW21265   0.636   5.289   3.193
 6789SOL    HW121266   0.590   5.306   3.280
 6789SOL    HW221267   0.717   5.346   3.186
 6790SOL     OW21268   0.521   3.816   0.560
 6790SOL    HW121269   0.512   3.750   0.485
 6790SOL    HW221270   0.616   3.848   0.564
 6791SOL     OW21271   4.019   1.670   2.115
 6791SOL    HW121272   3.980   1.614   2.188
 6791SOL    HW221273   4.003   1.624   2.027
 6792SOL     OW21274   6.106   7.006   4.463
 6792SOL    HW121275   6.135   6.910   4.467
 6792SOL    HW221276   6.053   0.005   4.380
 6793SOL     OW21277   2.125   1.382   0.695
 6793SOL    HW121278   2.104   1.404   0.600
 6793SOL    HW221279   2.049   1.411   0.754
 6794SOL     OW21280   5.287   0.504   5.694
 6794SOL    HW121281   5.241   0.424   5.730
 6794SOL    HW221282   5.358   0.476   5.629
 6795SOL     OW21283   1.737   6.363   0.380
 6795SOL    HW121284   1.765   6.306   0.302
 6795SOL    HW221285   1.787   6.334   0.462
 6796SOL     OW21286   5.945   0.413   2.976
 6796SOL    HW121287   5.949   0.473   2.896
 6796SOL    HW221288   5.996   0.454   3.052
 6797SOL     OW21289   7.008   2.652   1.736
 6797SOL    HW121290   7.009   2.574   1.799
 6797SOL    HW221291   0.055   2.635   1.661
 6798SOL     OW21292   5.604   6.477   1.997
 6798SOL    HW121293   5.634   6.454   1.904
 6798SOL    HW221294   5.676   6.526   2.045
 6799SOL     OW21295   0.051   0.140   2.207
 6799SOL    HW121296   6.981   0.090   2.201
 6799SOL    HW221297   0.094   0.142   2.116
 6800SOL     OW21298   2.035   3.010   2.043
 6800SOL    HW121299   2.047   3.103   2.008
 6800SOL    HW221300   2.075   2.945   1.978
 6801SOL     OW21301   0.534   6.924   2.802
 6801SOL    HW121302   0.534   6.917   2.703
 6801SOL    HW221303   0.628   6.929   2.836
 6802SOL     OW21304   3.703   5.843   1.634
 6802SOL    HW121305   3.741   5.769   1.579
 6802SOL    HW221306   3.606   5.825   1.652
 6803SOL     OW21307   4.038   3.740   5.637
 6803SOL    HW121308   3.955   3.684   5.631
 6803SOL    HW221309   4.033   3.814   5.570
 6804SOL     OW21310   3.421   4.875   4.074
 6804SOL    HW121311   3.419   4.850   3.978
 6804SOL    HW221312   3.327   4.886   4.107
 6805SOL     OW21313   0.678   4.850   6.539
 6805SOL    HW121314   0.756   4.787   6.547
 6805SOL    HW221315   0.620   4.822   6.462
 6806SOL     OW21316   6.651   0.618   3.314
 6806SOL    HW121317   6.706   0.694   3.279
 6806SOL    HW221318   6.599   0.577   3.239
 6807SOL     OW21319   3.381   3.788   1.157
 6807SOL    HW121320   3.334   3.868   1.193
 6807SOL    HW221321   3.441   3.749   1.227
 6808SOL     OW21322   6.917   2.219   5.858
 6808SOL    HW121323   6.866   2.137   5.831
 6808SOL    HW221324   6.995   2.192   5.916
 6809SOL     OW21325   0.721   3.177   1.596
 6809SOL    HW121326   0.749   3.256   1.541
 6809SOL    HW221327   0.799   3.144   1.649
 6810SOL     OW21328   2.034   0.984   2.415
 6810SOL    HW121329   2.013   1.059   2.353
 6810SOL    HW221330   1.961   0.916   2.412
 6811SOL     OW21331   5.319   3.481   1.991
 6811SOL    HW121332   5.329   3.478   1.892
 6811SOL    HW221333   5.250   3.414   2.019
 6812SOL     OW21334   3.158   3.779   4.854
 6812SOL    HW121335   3.231   3.786   4.787
 6812SOL    HW221336   3.076   3.826   4.819
 6813SOL     OW21337   5.176   3.320   3.212
 6813SOL    HW121338   5.166   3.269   3.297
 6813SOL    HW221339   5.104   3.293   3.148
 6814SOL     OW21340   3.660   1.881   5.945
 6814SOL    HW121341   3.616   1.803   5.899
 6814SOL    HW221342   3.724   1.924   5.881
 6815SOL     OW21343   3.656   6.027   0.970
 6815SOL    HW121344   3.709   5.942   0.968
 6815SOL    HW221345   3.589   6.026   0.897
 6816SOL     OW21346   6.567   0.808   6.042
 6816SOL    HW121347   6.502   0.874   6.004
 6816SOL    HW221348   6.628   0.853   6.106
 6817SOL     OW21349   2.265   2.594   2.675
 6817SOL    HW121350   2.298   2.620   2.585
 6817SOL    HW221351   2.337   2.609   2.743
 6818SOL     OW21352   2.627   6.684   1.564
 6818SOL    HW121353   2.563   6.757   1.538
 6818SOL    HW221354   2.624   6.612   1.494
 6819SOL     OW21355   3.826   1.806   2.853
 6819SOL    HW121356   3.900   1.785   2.789
 6819SOL    HW221357   3.812   1.905   2.857
 6820SOL     OW21358   2.099   6.420   1.877
 6820SOL    HW121359   2.017   6.371   1.906
 6820SOL    HW221360   2.089   6.450   1.782
 6821SOL     OW21361   3.995   2.112   5.214
 6821SOL    HW121362   3.965   2.090   5.307
 6821SOL    HW221363   3.923   2.089   5.149
 6822SOL     OW21364   5.684   2.174   5.729
 6822SOL    HW121365   5.700   2.259   5.779
 6822SOL    HW221366   5.587   2.168   5.704
 6823SOL     OW21367   5.134   3.515   5.573
 6823SOL    HW121368   5.178   3.459   5.503
 6823SOL    HW221369   5.078   3.586   5.530
 6824SOL     OW21370   1.555   1.874   0.357
 6824SOL    HW121371   1.517   1.888   0.266
 6824SOL    HW221372   1.558   1.961   0.406
 6825SOL     OW21373   5.700   0.206   1.023
 6825SOL    HW121374   5.601   0.201   1.007
 6825SOL    HW221375   5.739   0.277   0.965
 6826SOL     OW21376   2.162   3.356   3.488
 6826SOL    HW121377   2.145   3.376   3.392
 6826SOL    HW221378   2.154   3.257   3.503
 6827SOL     OW21379   4.375   5.163   6.580
 6827SOL    HW121380   4.397   5.068   6.600
 6827SOL    HW221381   4.372   5.215   6.665
 6828SOL     OW21382   3.192   1.204   1.867
 6828SOL    HW121383   3.232   1.254   1.944
 6828SOL    HW221384   3.129   1.264   1.817
 6829SOL     OW21385   5.125   5.705   5.053
 6829SOL    HW121386   5.162   5.796   5.069
 6829SOL    HW221387   5.089   5.699   4.960
 6830SOL     OW21388   4.906   0.644   3.279
 6830SOL    HW121389   4.972   0.688   3.217
 6830SOL    HW221390   4.955   0.588   3.346
 6831SOL     OW21391   0.991   0.434   6.914
 6831SOL    HW121392   0.963   0.352   6.863
 6831SOL    HW221393   1.081   0.417   6.955
 6832SOL     OW21394   2.811   4.386   0.799
 6832SOL    HW121395   2.852   4.334   0.874
 6832SOL    HW221396   2.763   4.324   0.738
 6833SOL     OW21397   3.528   4.618   6.171
 6833SOL    HW121398   3.495   4.696   6.224
 6833SOL    HW221399   3.453   4.553   6.156
 6834SOL     OW21400   4.905   6.880   0.476
 6834SOL    HW121401   4.813   6.882   0.437
 6834SOL    HW221402   4.968   6.839   0.409
 6835SOL     OW21403   3.970   0.568   4.568
 6835SOL    HW121404   3.966   0.536   4.473
 6835SOL    HW221405   4.065   0.569   4.598
 6836SOL     OW21406   2.644   4.751   0.568
 6836SOL    HW121407   2.558   4.716   0.607
 6836SOL    HW221408   2.623   4.804   0.486
 6837SOL     OW21409   0.672   1.934   2.218
 6837SOL    HW121410   0.591   1.953   2.273
 6837SOL    HW221411   0.753   1.974   2.261
 6838SOL     OW21412   3.376   6.238   0.032
 6838SOL    HW121413   3.420   6.156   0.070
 6838SOL    HW221414   3.279   6.237   0.056
 6839SOL     OW21415   5.988   1.168   6.222
 6839SOL    HW121416   6.036   1.231   6.162
 6839SOL    HW221417   5.901   1.209   6.251
 6840SOL     OW21418   3.471   0.625   4.526
 6840SOL    HW121419   3.410   0.651   4.601
 6840SOL    HW221420   3.486   0.526   4.529
 6841SOL     OW21421   4.257   4.290   0.349
 6841SOL    HW121422   4.299   4.294   0.259
 6841SOL    HW221423   4.284   4.370   0.402
 6842SOL     OW21424   2.654   3.757   0.625
 6842SOL    HW121425   2.614   3.847   0.642
 6842SOL    HW221426   2.630   3.696   0.700
 6843SOL     OW21427   6.098   6.578   1.329
 6843SOL    HW121428   6.005   6.597   1.297
 6843SOL    HW221429   6.159   6.570   1.251
 6844SOL     OW21430   4.938   0.630   3.739
 6844SOL    HW121431   4.997   0.684   3.798
 6844SOL    HW221432   4.941   0.666   3.646
 6845SOL     OW21433   6.578   4.440   3.717
 6845SOL    HW121434   6.591   4.538   3.703
 6845SOL    HW221435   6.480   4.421   3.727
 6846SOL     OW21436   3.865   3.259   0.553
 6846SOL    HW121437   3.943   3.248   0.492
 6846SOL    HW221438   3.781   3.260   0.500
 6847SOL     OW21439   0.437   3.799   4.193
 6847SOL    HW121440   0.424   3.712   4.146
 6847SOL    HW221441   0.425   3.786   4.291
 6848SOL     OW21442   4.415   6.486   3.665
 6848SOL    HW121443   4.368   6.569   3.635
 6848SOL    HW221444   4.423   6.423   3.587
 6849SOL     OW21445   4.132   4.867   5.076
 6849SOL    HW121446   4.128   4.796   5.146
 6849SOL    HW221447   4.042   4.879   5.035
 6850SOL     OW21448   5.867   4.343   2.238
 6850SOL    HW121449   5.954   4.298   2.223
 6850SOL    HW221450   5.878   4.442   2.228
 6851SOL     OW21451   0.719   2.456   3.076
 6851SOL    HW121452   0.765   2.473   2.989
 6851SOL    HW221453   0.664   2.373   3.070
 6852SOL     OW21454   2.852   4.852   0.806
 6852SOL    HW121455   2.939   4.818   0.771
 6852SOL    HW221456   2.780   4.839   0.737
 6853SOL     OW21457   6.235   4.367   0.338
 6853SOL    HW121458   6.291   4.284   0.344
 6853SOL    HW221459   6.294   4.447   0.335
 6854SOL     OW21460   4.657   2.003   6.378
 6854SOL    HW121461   4.646   2.049   6.466
 6854SOL    HW221462   4.592   2.040   6.312
 6855SOL     OW21463   4.086   5.559   3.347
 6855SOL    HW121464   4.172   5.544   3.395
 6855SOL    HW221465   4.096   5.634   3.282
 6856SOL     OW21466   5.764   3.014   5.316
 6856SOL    HW121467   5.730   2.920   5.321
 6856SOL    HW221468   5.708   3.066   5.253
 6857SOL     OW21469   3.126   2.849   6.918
 6857SOL    HW121470   3.087   2.759   6.899
 6857SOL    HW221471   3.138   2.899   6.832
 6858SOL     OW21472   4.022   3.618   3.124
 6858SOL    HW121473   3.931   3.580   3.106
 6858SOL    HW221474   4.019   3.674   3.206
 6859SOL     OW21475   0.110   1.575   1.233
 6859SOL    HW121476   0.147   1.569   1.140
 6859SOL    HW221477   0.162   1.515   1.293
 6860SOL     OW21478   6.847   4.931   1.017
 6860SOL    HW121479   6.921   4.867   0.995
 6860SOL    HW221480   6.838   4.938   1.117
 6861SOL     OW21481   4.229   5.346   0.207
 6861SOL    HW121482   4.182   5.395   0.134
 6861SOL    HW221483   4.187   5.370   0.295
 6862SOL     OW21484   1.377   5.295   6.268
 6862SOL    HW121485   1.287   5.272   6.232
 6862SOL    HW221486   1.389   5.394   6.266
 6863SOL     OW21487   5.690   6.807   6.251
 6863SOL    HW121488   5.787   6.824   6.235
 6863SOL    HW221489   5.643   6.798   6.163
 6864SOL     OW21490   2.570   5.266   4.471
 6864SOL    HW121491   2.596   5.220   4.387
 6864SOL    HW221492   2.650   5.275   4.531
 6865SOL     OW21493   1.284   6.079   4.010
 6865SOL    HW121494   1.186   6.073   3.992
 6865SOL    HW221495   1.332   6.010   3.956
 6866SOL     OW21496   6.253   4.916   3.758
 6866SOL    HW121497   6.244   4.872   3.668
 6866SOL    HW221498   6.166   4.910   3.806
 6867SOL     OW21499   2.127   4.183   1.357
 6867SOL    HW121500   2.131   4.091   1.319
 6867SOL    HW221501   2.135   4.179   1.456
 6868SOL     OW21502   1.173   5.559   6.383
 6868SOL    HW121503   1.241   5.568   6.456
 6868SOL    HW221504   1.091   5.611   6.406
 6869SOL     OW21505   5.815   1.071   5.905
 6869SOL    HW121506   5.895   1.080   5.845
 6869SOL    HW221507   5.783   0.977   5.904
 6870SOL     OW21508   0.646   5.200   1.586
 6870SOL    HW121509   0.639   5.136   1.509
 6870SOL    HW221510   0.563   5.256   1.590
 6871SOL     OW21511   6.343   4.112   3.360
 6871SOL    HW121512   6.350   4.019   3.397
 6871SOL    HW221513   6.402   4.173   3.412
 6872SOL     OW21514   0.197   2.215   1.334
 6872SOL    HW121515   0.181   2.193   1.431
 6872SOL    HW221516   0.274   2.279   1.327
 6873SOL     OW21517   6.560   3.645   4.378
 6873SOL    HW121518   6.537   3.658   4.282
 6873SOL    HW221519   6.659   3.654   4.391
 6874SOL     OW21520   6.770   5.630   2.771
 6874SOL    HW121521   6.864   5.644   2.802
 6874SOL    HW221522   6.712   5.702   2.807
 6875SOL     OW21523   2.662   2.323   2.381
 6875SOL    HW121524   2.727   2.320   2.306
 6875SOL    HW221525   2.649   2.231   2.418
 6876SOL     OW21526   3.658   6.893   3.586
 6876SOL    HW121527   3.752   6.895   3.621
 6876SOL    HW221528   3.636   6.981   3.544
 6877SOL     OW21529   2.435   4.012   0.557
 6877SOL    HW121530   2.374   3.960   0.616
 6877SOL    HW221531   2.385   4.086   0.513
 6878SOL     OW21532   3.384   1.108   4.537
 6878SOL    HW121533   3.415   1.193   4.494
 6878SOL    HW221534   3.462   1.062   4.579
 6879SOL     OW21535   0.923   2.653   0.795
 6879SOL    HW121536   0.853   2.584   0.780
 6879SOL    HW221537   0.979   2.626   0.874
 6880SOL     OW21538   2.306   5.659   5.015
 6880SOL    HW121539   2.382   5.697   4.962
 6880SOL    HW221540   2.241   5.615   4.953
 6881SOL     OW21541   1.540   4.869   1.067
 6881SOL    HW121542   1.639   4.856   1.067
 6881SOL    HW221543   1.518   4.957   1.026
 6882SOL     OW21544   2.776   0.556   0.291
 6882SOL    HW121545   2.875   0.558   0.280
 6882SOL    HW221546   2.732   0.586   0.206
 6883SOL     OW21547   4.879   1.666   6.593
 6883SOL    HW121548   4.898   1.714   6.507
 6883SOL    HW221549   4.904   1.570   6.584
 6884SOL     OW21550   1.910   4.530   3.362
 6884SOL    HW121551   1.987   4.591   3.386
 6884SOL    HW221552   1.946   4.443   3.329
 6885SOL     OW21553   4.052   4.971   4.017
 6885SOL    HW121554   4.150   4.983   4.002
 6885SOL    HW221555   4.026   5.013   4.104
 6886SOL     OW21556   6.928   1.241   4.452
 6886SOL    HW121557   6.876   1.211   4.372
 6886SOL    HW221558   6.980   1.164   4.489
 6887SOL     OW21559   5.051   5.736   6.147
 6887SOL    HW121560   4.978   5.716   6.081
 6887SOL    HW221561   5.012   5.775   6.230
 6888SOL     OW21562   5.713   5.458   6.478
 6888SOL    HW121563   5.712   5.464   6.578
 6888SOL    HW221564   5.807   5.473   6.445
 6889SOL     OW21565   1.942   2.469   5.299
 6889SOL    HW121566   1.975   2.387   5.252
 6889SOL    HW221567   1.852   2.451   5.339
 6890SOL     OW21568   4.405   6.533   1.985
 6890SOL    HW121569   4.308   6.522   2.005
 6890SOL    HW221570   4.417   6.590   1.904
 6891SOL     OW21571   2.527   4.495   3.246
 6891SOL    HW121572   2.579   4.579   3.263
 6891SOL    HW221573   2.516   4.483   3.147
 6892SOL     OW21574   3.018   2.133   3.492
 6892SOL    HW121575   2.983   2.039   3.495
 6892SOL    HW221576   3.103   2.138   3.544
 6893SOL     OW21577   4.671   4.595   0.016
 6893SOL    HW121578   4.770   4.602   0.002
 6893SOL    HW221579   4.624   4.619   6.948
 6894SOL     OW21580   6.065   4.885   0.810
 6894SOL    HW121581   5.969   4.910   0.800
 6894SOL    HW221582   6.095   4.835   0.728
 6895SOL     OW21583   3.380   4.892   0.535
 6895SOL    HW121584   3.463   4.945   0.518
 6895SOL    HW221585   3.397   4.795   0.516
 6896SOL     OW21586   2.237   6.828   4.094
 6896SOL    HW121587   2.314   6.852   4.034
 6896SOL    HW221588   2.270   6.818   4.188
 6897SOL     OW21589   4.758   3.594   5.613
 6897SOL    HW121590   4.697   3.515   5.617
 6897SOL    HW221591   4.744   3.651   5.694
 6898SOL     OW21592   4.617   1.517   1.950
 6898SOL    HW121593   4.577   1.594   2.000
 6898SOL    HW221594   4.621   1.540   1.852
 6899SOL     OW21595   5.266   6.166   1.355
 6899SOL    HW121596   5.275   6.266   1.356
 6899SOL    HW221597   5.200   6.138   1.425
 6900SOL     OW21598   6.058   5.850   5.291
 6900SOL    HW121599   6.108   5.937   5.291
 6900SOL    HW221600   6.040   5.823   5.386
 6901SOL     OW21601   6.691   6.333   6.258
 6901SOL    HW121602   6.787   6.308   6.252
 6901SOL    HW221603   6.670   6.362   6.352
 6902SOL     OW21604   5.504   5.743   6.593
 6902SOL    HW121605   5.576   5.712   6.655
 6902SOL    HW221606   5.508   5.690   6.508
 6903SOL     OW21607   2.795   5.015   4.973
 6903SOL    HW121608   2.827   4.939   4.917
 6903SOL    HW221609   2.748   4.979   5.054
 6904SOL     OW21610   6.381   0.998   4.826
 6904SOL    HW121611   6.397   1.097   4.823
 6904SOL    HW221612   6.298   0.979   4.879
 6905SOL     OW21613   5.932   6.495   6.226
 6905SOL    HW121614   5.919   6.532   6.318
 6905SOL    HW221615   6.025   6.514   6.196
 6906SOL     OW21616   4.505   1.285   4.076
 6906SOL    HW121617   4.447   1.318   4.002
 6906SOL    HW221618   4.462   1.304   4.164
 6907SOL     OW21619   5.021   2.876   1.700
 6907SOL    HW121620   5.006   2.866   1.799
 6907SOL    HW221621   4.985   2.965   1.670
 6908SOL     OW21622   0.694   5.141   6.501
 6908SOL    HW121623   0.774   5.174   6.552
 6908SOL    HW221624   0.687   5.042   6.511
 6909SOL     OW21625   4.970   4.372   1.462
 6909SOL    HW121626   5.056   4.332   1.494
 6909SOL    HW221627   4.893   4.321   1.501
 6910SOL     OW21628   0.517   2.850   3.289
 6910SOL    HW121629   0.616   2.864   3.291
 6910SOL    HW221630   0.497   2.758   3.253
 6911SOL     OW21631   4.228   6.052   3.854
 6911SOL    HW121632   4.327   6.042   3.867
 6911SOL    HW221633   4.186   5.962   3.849
 6912SOL     OW21634   3.813   3.913   6.368
 6912SOL    HW121635   3.748   3.983   6.398
 6912SOL    HW221636   3.788   3.882   6.276
 6913SOL     OW21637   5.548   5.839   4.011
 6913SOL    HW121638   5.471   5.800   3.959
 6913SOL    HW221639   5.576   5.925   3.969
 6914SOL     OW21640   6.010   3.883   3.753
 6914SOL    HW121641   6.104   3.888   3.786
 6914SOL    HW221642   5.958   3.960   3.789
 6915SOL     OW21643   5.865   2.624   2.084
 6915SOL    HW121644   5.801   2.555   2.050
 6915SOL    HW221645   5.892   2.684   2.010
 6916SOL     OW21646   6.055   2.133   0.180
 6916SOL    HW121647   5.980   2.070   0.160
 6916SOL    HW221648   6.142   2.088   0.161
 6917SOL     OW21649   3.403   6.970   1.447
 6917SOL    HW121650   3.394   6.872   1.469
 6917SOL    HW221651   3.499   6.990   1.427
 6918SOL     OW21652   0.579   2.535   4.429
 6918SOL    HW121653   0.618   2.609   4.484
 6918SOL    HW221654   0.564   2.568   4.335
 6919SOL     OW21655   6.566   5.739   3.763
 6919SOL    HW121656   6.647   5.702   3.717
 6919SOL    HW221657   6.584   5.747   3.860
 6920SOL     OW21658   4.095   5.956   5.650
 6920SOL    HW121659   4.084   5.863   5.615
 6920SOL    HW221660   4.006   6.001   5.653
 6921SOL     OW21661   5.142   5.541   3.838
 6921SOL    HW121662   5.064   5.595   3.807
 6921SOL    HW221663   5.192   5.507   3.758
 6922SOL     OW21664   1.488   6.162   4.692
 6922SOL    HW121665   1.452   6.187   4.782
 6922SOL    HW221666   1.443   6.078   4.662
 6923SOL     OW21667   4.715   5.568   3.531
 6923SOL    HW121668   4.682   5.661   3.518
 6923SOL    HW221669   4.638   5.506   3.547
 6924SOL     OW21670   2.415   3.995   6.495
 6924SOL    HW121671   2.493   4.050   6.525
 6924SOL    HW221672   2.375   4.036   6.414
 6925SOL     OW21673   4.783   6.071   3.767
 6925SOL    HW121674   4.771   6.085   3.669
 6925SOL    HW221675   4.793   6.160   3.812
 6926SOL     OW21676   3.123   2.512   1.150
 6926SOL    HW121677   3.044   2.482   1.097
 6926SOL    HW221678   3.204   2.459   1.122
 6927SOL     OW21679   4.054   2.726   6.010
 6927SOL    HW121680   4.055   2.820   5.974
 6927SOL    HW221681   4.039   2.729   6.109
 6928SOL     OW21682   5.761   5.739   0.707
 6928SOL    HW121683   5.704   5.681   0.648
 6928SOL    HW221684   5.738   5.835   0.691
 6929SOL     OW21685   5.495   5.498   1.416
 6929SOL    HW121686   5.402   5.487   1.378
 6929SOL    HW221687   5.489   5.547   1.503
 6930SOL     OW21688   0.806   0.489   2.692
 6930SOL    HW121689   0.762   0.494   2.782
 6930SOL    HW221690   0.747   0.532   2.624
 6931SOL     OW21691   2.140   0.793   2.238
 6931SOL    HW121692   2.109   0.816   2.331
 6931SOL    HW221693   2.085   0.718   2.202
 6932SOL     OW21694   4.450   6.333   0.443
 6932SOL    HW121695   4.492   6.330   0.534
 6932SOL    HW221696   4.437   6.240   0.410
 6933SOL     OW21697   3.312   6.093   5.291
 6933SOL    HW121698   3.263   6.019   5.244
 6933SOL    HW221699   3.370   6.141   5.225
 6934SOL     OW21700   4.774   3.625   6.352
 6934SOL    HW121701   4.802   3.530   6.361
 6934SOL    HW221702   4.816   3.679   6.425
 6935SOL     OW21703   4.975   5.408   2.274
 6935SOL    HW121704   4.885   5.383   2.310
 6935SOL    HW221705   4.996   5.502   2.300
 6936SOL     OW21706   5.952   1.380   3.311
 6936SOL    HW121707   6.040   1.383   3.358
 6936SOL    HW221708   5.947   1.456   3.246
 6937SOL     OW21709   6.432   6.149   0.197
 6937SOL    HW121710   6.484   6.233   0.216
 6937SOL    HW221711   6.335   6.166   0.214
 6938SOL     OW21712   5.730   3.054   4.879
 6938SOL    HW121713   5.808   2.992   4.868
 6938SOL    HW221714   5.706   3.094   4.791
 6939SOL     OW21715   1.240   5.280   1.814
 6939SOL    HW121716   1.332   5.244   1.799
 6939SOL    HW221717   1.181   5.255   1.737
 6940SOL     OW21718   3.709   0.835   6.083
 6940SOL    HW121719   3.731   0.932   6.077
 6940SOL    HW221720   3.725   0.803   6.177
 6941SOL     OW21721   3.394   3.962   1.830
 6941SOL    HW121722   3.411   3.978   1.733
 6941SOL    HW221723   3.298   3.982   1.851
 6942SOL     OW21724   6.137   0.150   1.031
 6942SOL    HW121725   6.042   0.162   1.004
 6942SOL    HW221726   6.194   0.141   0.949
 6943SOL     OW21727   3.518   5.792   0.015
 6943SOL    HW121728   3.558   5.707   0.051
 6943SOL    HW221729   3.422   5.777   7.010
 6944SOL     OW21730   0.685   4.100   6.590
 6944SOL    HW121731   0.779   4.097   6.555
 6944SOL    HW221732   0.666   4.015   6.640
 6945SOL     OW21733   6.353   1.053   6.669
 6945SOL    HW121734   6.373   1.135   6.616
 6945SOL    HW221735   6.339   0.976   6.608
 6946SOL     OW21736   4.449   6.833   0.513
 6946SOL    HW121737   4.389   6.755   0.529
 6946SOL    HW221738   4.422   6.909   0.573
 6947SOL     OW21739   2.916   5.912   6.565
 6947SOL    HW121740   2.929   5.905   6.466
 6947SOL    HW221741   2.823   5.944   6.584
 6948SOL     OW21742   0.441   0.535   0.694
 6948SOL    HW121743   0.493   0.531   0.609
 6948SOL    HW221744   0.391   0.449   0.707
 6949SOL     OW21745   3.896   6.935   3.064
 6949SOL    HW121746   3.992   6.910   3.050
 6949SOL    HW221747   3.861   6.891   3.146
 6950SOL     OW21748   1.582   2.224   4.613
 6950SOL    HW121749   1.669   2.265   4.586
 6950SOL    HW221750   1.510   2.293   4.612
 6951SOL     OW21751   6.608   5.243   5.848
 6951SOL    HW121752   6.624   5.145   5.857
 6951SOL    HW221753   6.562   5.277   5.931
 6952SOL     OW21754   0.393   6.018   3.018
 6952SOL    HW121755   0.448   6.088   3.064
 6952SOL    HW221756   0.413   5.929   3.058
 6953SOL     OW21757   4.259   6.498   0.936
 6953SOL    HW121758   4.190   6.428   0.956
 6953SOL    HW221759   4.235   6.583   0.983
 6954SOL     OW21760   6.986   3.694   2.755
 6954SOL    HW121761   0.024   3.615   2.726
 6954SOL    HW221762   6.899   3.693   2.705
 6955SOL     OW21763   6.272   0.335   2.184
 6955SOL    HW121764   6.179   0.359   2.157
 6955SOL    HW221765   6.280   0.236   2.191
 6956SOL     OW21766   5.907   6.254   3.775
 6956SOL    HW121767   5.944   6.166   3.744
 6956SOL    HW221768   5.893   6.251   3.874
 6957SOL     OW21769   6.349   5.178   0.520
 6957SOL    HW121770   6.379   5.247   0.454
 6957SOL    HW221771   6.308   5.101   0.471
 6958SOL     OW21772   3.917   3.064   4.272
 6958SOL    HW121773   3.924   3.120   4.190
 6958SOL    HW221774   3.868   2.979   4.250
 6959SOL     OW21775   1.647   3.152   3.913
 6959SOL    HW121776   1.658   3.189   4.005
 6959SOL    HW221777   1.696   3.065   3.905
 6960SOL     OW21778   2.354   4.822   1.558
 6960SOL    HW121779   2.311   4.747   1.506
 6960SOL    HW221780   2.360   4.796   1.654
 6961SOL     OW21781   5.938   1.439   4.056
 6961SOL    HW121782   5.972   1.356   4.101
 6961SOL    HW221783   5.872   1.484   4.117
 6962SOL     OW21784   5.186   6.121   1.846
 6962SOL    HW121785   5.141   6.098   1.932
 6962SOL    HW221786   5.235   6.207   1.857
 6963SOL     OW21787   5.300   6.043   0.871
 6963SOL    HW121788   5.242   6.054   0.952
 6963SOL    HW221789   5.384   6.095   0.882
 6964SOL     OW21790   3.232   1.062   5.423
 6964SOL    HW121791   3.284   1.141   5.392
 6964SOL    HW221792   3.243   1.051   5.522
 6965SOL     OW21793   0.828   1.341   0.716
 6965SOL    HW121794   0.818   1.244   0.696
 6965SOL    HW221795   0.740   1.379   0.742
 6966SOL     OW21796   1.109   2.082   3.135
 6966SOL    HW121797   1.053   1.999   3.141
 6966SOL    HW221798   1.051   2.160   3.111
 6967SOL     OW21799   2.579   0.812   5.572
 6967SOL    HW121800   2.480   0.799   5.578
 6967SOL    HW221801   2.604   0.833   5.478
 6968SOL     OW21802   3.614   6.910   2.882
 6968SOL    HW121803   3.559   6.978   2.833
 6968SOL    HW221804   3.671   6.956   2.950
 6969SOL     OW21805   3.447   2.551   1.601
 6969SOL    HW121806   3.532   2.556   1.653
 6969SOL    HW221807   3.392   2.474   1.635
 6970SOL     OW21808   4.464   4.479   5.445
 6970SOL    HW121809   4.385   4.431   5.482
 6970SOL    HW221810   4.528   4.500   5.518
 6971SOL     OW21811   6.695   4.665   1.401
 6971SOL    HW121812   6.701   4.568   1.425
 6971SOL    HW221813   6.700   4.721   1.484
 6972SOL     OW21814   5.496   4.646   3.122
 6972SOL    HW121815   5.589   4.618   3.101
 6972SOL    HW221816   5.432   4.582   3.078
 6973SOL     OW21817   0.925   3.086   3.572
 6973SOL    HW121818   0.996   3.032   3.527
 6973SOL    HW221819   0.924   3.179   3.533
 6974SOL     OW21820   2.902   3.507   3.307
 6974SOL    HW121821   2.936   3.594   3.343
 6974SOL    HW221822   2.882   3.517   3.209
 6975SOL     OW21823   2.020   6.319   6.141
 6975SOL    HW121824   2.069   6.403   6.118
 6975SOL    HW221825   1.922   6.334   6.134
 6976SOL     OW21826   5.764   5.435   5.187
 6976SOL    HW121827   5.797   5.523   5.219
 6976SOL    HW221828   5.694   5.449   5.117
 6977SOL     OW21829   4.113   2.992   1.844
 6977SOL    HW121830   4.199   3.027   1.880
 6977SOL    HW221831   4.040   3.008   1.911
 6978SOL     OW21832   5.926   1.524   1.906
 6978SOL    HW121833   5.964   1.478   1.826
 6978SOL    HW221834   5.963   1.482   1.989
 6979SOL     OW21835   0.844   4.478   1.191
 6979SOL    HW121836   0.876   4.446   1.281
 6979SOL    HW221837   0.917   4.466   1.124
 6980SOL     OW21838   2.027   0.506   4.125
 6980SOL    HW121839   1.959   0.476   4.193
 6980SOL    HW221840   2.112   0.455   4.138
 6981SOL     OW21841   3.830   2.697   5.817
 6981SOL    HW121842   3.890   2.734   5.888
 6981SOL    HW221843   3.751   2.653   5.859
 6982SOL     OW21844   1.469   0.908   4.725
 6982SOL    HW121845   1.402   0.979   4.741
 6982SOL    HW221846   1.436   0.821   4.760
 6983SOL     OW21847   3.246   2.073   3.662
 6983SOL    HW121848   3.341   2.078   3.631
 6983SOL    HW221849   3.227   1.980   3.693
 6984SOL     OW21850   1.793   1.514   3.456
 6984SOL    HW121851   1.788   1.433   3.514
 6984SOL    HW221852   1.887   1.528   3.424
 6985SOL     OW21853   5.845   5.381   1.638
 6985SOL    HW121854   5.913   5.307   1.642
 6985SOL    HW221855   5.832   5.419   1.730
 6986SOL     OW21856   2.341   0.197   6.142
 6986SOL    HW121857   2.399   0.278   6.131
 6986SOL    HW221858   2.246   0.225   6.155
 6987SOL     OW21859   6.039   1.399   6.075
 6987SOL    HW121860   6.071   1.342   5.999
 6987SOL    HW221861   5.975   1.468   6.040
 6988SOL     OW21862   0.410   6.779   5.768
 6988SOL    HW121863   0.347   6.749   5.840
 6988SOL    HW221864   0.503   6.778   5.804
 6989SOL     OW21865   0.974   3.669   3.245
 6989SOL    HW121866   0.957   3.750   3.188
 6989SOL    HW221867   0.933   3.682   3.335
 6990SOL     OW21868   5.199   2.564   1.405
 6990SOL    HW121869   5.167   2.614   1.325
 6990SOL    HW221870   5.129   2.499   1.434
 6991SOL     OW21871   4.162   4.763   3.043
 6991SOL    HW121872   4.210   4.697   2.985
 6991SOL    HW221873   4.223   4.839   3.066
 6992SOL     OW21874   5.370   6.531   6.279
 6992SOL    HW121875   5.462   6.521   6.241
 6992SOL    HW221876   5.366   6.610   6.339
 6993SOL     OW21877   5.287   0.173   3.135
 6993SOL    HW121878   5.302   0.134   3.226
 6993SOL    HW221879   5.328   0.113   3.066
 6994SOL     OW21880   0.218   2.491   4.266
 6994SOL    HW121881   0.160   2.547   4.326
 6994SOL    HW221882   0.241   2.405   4.312
 6995SOL     OW21883   0.031   4.727   6.433
 6995SOL    HW121884   0.094   4.670   6.486
 6995SOL    HW221885   0.082   4.797   6.385
 6996SOL     OW21886   1.666   6.943   6.503
 6996SOL    HW121887   1.675   0.007   6.443
 6996SOL    HW221888   1.617   6.870   6.455
 6997SOL     OW21889   6.781   6.022   5.420
 6997SOL    HW121890   6.820   5.974   5.341
 6997SOL    HW221891   6.742   5.955   5.483
 6998SOL     OW21892   2.407   0.519   1.655
 6998SOL    HW121893   2.490   0.465   1.666
 6998SOL    HW221894   2.411   0.598   1.716
 6999SOL     OW21895   2.166   2.064   0.043
 6999SOL    HW121896   2.181   2.067   0.141
 6999SOL    HW221897   2.144   2.155   0.009
 7000SOL     OW21898   5.023   0.103   1.291
 7000SOL    HW121899   5.087   0.045   1.340
 7000SOL    HW221900   5.003   0.184   1.347
 7001SOL     OW21901   1.689   3.086   6.044
 7001SOL    HW121902   1.708   3.173   5.999
 7001SOL    HW221903   1.713   3.011   5.982
 7002SOL     OW21904   1.605   5.285   3.748
 7002SOL    HW121905   1.653   5.315   3.665
 7002SOL    HW221906   1.519   5.336   3.756
 7003SOL     OW21907   4.389   5.500   0.479
 7003SOL    HW121908   4.296   5.474   0.506
 7003SOL    HW221909   4.434   5.423   0.434
 7004SOL     OW21910   0.811   5.476   2.134
 7004SOL    HW121911   0.868   5.541   2.184
 7004SOL    HW221912   0.870   5.415   2.080
 7005SOL     OW21913   0.960   6.841   0.762
 7005SOL    HW121914   0.968   6.898   0.843
 7005SOL    HW221915   0.941   6.899   0.682
 7006SOL     OW21916   5.225   5.174   3.878
 7006SOL    HW121917   5.308   5.193   3.931
 7006SOL    HW221918   5.152   5.237   3.906
 7007SOL     OW21919   4.506   0.689   4.165
 7007SOL    HW121920   4.532   0.643   4.081
 7007SOL    HW221921   4.490   0.786   4.147
 7008SOL     OW21922   6.918   4.230   4.603
 7008SOL    HW121923   7.013   4.251   4.627
 7008SOL    HW221924   6.857   4.283   4.663
 7009SOL     OW21925   5.397   6.087   2.373
 7009SOL    HW121926   5.406   6.175   2.419
 7009SOL    HW221927   5.369   6.017   2.439
 7010SOL     OW21928   5.507   4.129   3.899
 7010SOL    HW121929   5.420   4.100   3.939
 7010SOL    HW221930   5.489   4.195   3.826
 7011SOL     OW21931   2.906   6.758   0.096
 7011SOL    HW121932   2.955   6.840   0.064
 7011SOL    HW221933   2.837   6.732   0.028
 7012SOL     OW21934   0.522   1.748   1.828
 7012SOL    HW121935   0.561   1.835   1.859
 7012SOL    HW221936   0.429   1.739   1.864
 7013SOL     OW21937   0.621   0.379   0.229
 7013SOL    HW121938   0.697   0.434   0.194
 7013SOL    HW221939   0.604   0.302   0.168
 7014SOL     OW21940   4.315   3.336   1.110
 7014SOL    HW121941   4.248   3.408   1.091
 7014SOL    HW221942   4.272   3.246   1.095
 7015SOL     OW21943   6.191   4.141   1.572
 7015SOL    HW121944   6.193   4.240   1.556
 7015SOL    HW221945   6.144   4.096   1.496
 7016SOL     OW21946   3.439   4.758   1.129
 7016SOL    HW121947   3.526   4.782   1.086
 7016SOL    HW221948   3.365   4.770   1.064
 7017SOL     OW21949   2.746   5.175   3.104
 7017SOL    HW121950   2.829   5.212   3.144
 7017SOL    HW221951   2.666   5.213   3.151
 7018SOL     OW21952   5.489   3.097   4.280
 7018SOL    HW121953   5.483   3.169   4.349
 7018SOL    HW221954   5.581   3.058   4.279
 7019SOL     OW21955   3.979   4.342   0.746
 7019SOL    HW121956   4.015   4.281   0.675
 7019SOL    HW221957   4.015   4.315   0.835
 7020SOL     OW21958   6.686   4.491   6.048
 7020SOL    HW121959   6.601   4.542   6.030
 7020SOL    HW221960   6.701   4.486   6.146
 7021SOL     OW21961   1.702   1.884   5.816
 7021SOL    HW121962   1.774   1.936   5.770
 7021SOL    HW221963   1.665   1.816   5.752
 7022SOL     OW21964   4.405   6.463   5.718
 7022SOL    HW121965   4.383   6.386   5.659
 7022SOL    HW221966   4.476   6.519   5.674
 7023SOL     OW21967   0.508   2.501   3.687
 7023SOL    HW121968   0.557   2.548   3.760
 7023SOL    HW221969   0.493   2.565   3.611
 7024SOL     OW21970   2.783   3.747   5.374
 7024SOL    HW121971   2.836   3.678   5.423
 7024SOL    HW221972   2.803   3.741   5.276
 7025SOL     OW21973   3.552   0.803   0.664
 7025SOL    HW121974   3.558   0.759   0.575
 7025SOL    HW221975   3.475   0.866   0.665
 7026SOL     OW21976   3.212   2.070   2.238
 7026SOL    HW121977   3.194   2.017   2.321
 7026SOL    HW221978   3.309   2.062   2.215
 7027SOL     OW21979   2.433   4.968   4.456
 7027SOL    HW121980   2.508   4.993   4.518
 7027SOL    HW221981   2.456   4.884   4.408
 7028SOL     OW21982   3.229   1.823   3.736
 7028SOL    HW121983   3.294   1.767   3.685
 7028SOL    HW221984   3.229   1.795   3.832
 7029SOL     OW21985   5.062   4.923   4.802
 7029SOL    HW121986   5.114   4.945   4.719
 7029SOL    HW221987   5.115   4.859   4.858
 7030SOL     OW21988   1.351   0.677   4.867
 7030SOL    HW121989   1.322   0.699   4.960
 7030SOL    HW221990   1.273   0.644   4.814
 7031SOL     OW21991   3.937   5.756   5.861
 7031SOL    HW121992   4.030   5.730   5.837
 7031SOL    HW221993   3.873   5.690   5.821
 7032SOL     OW21994   4.130   1.266   3.798
 7032SOL    HW121995   4.158   1.171   3.811
 7032SOL    HW221996   4.208   1.327   3.811
 7033SOL     OW21997   1.518   2.289   3.510
 7033SOL    HW121998   1.475   2.238   3.584
 7033SOL    HW221999   1.615   2.302   3.530
 7034SOL     OW22000   7.010   0.629   3.485
 7034SOL    HW122001   0.086   0.624   3.524
 7034SOL    HW222002   7.015   0.658   3.390
 7035SOL     OW22003   1.722   6.902   0.742
 7035SOL    HW122004   1.766   6.990   0.728
 7035SOL    HW222005   1.631   6.916   0.782
 7036SOL     OW22006   0.094   0.147   3.040
 7036SOL    HW122007   0.149   0.162   3.122
 7036SOL    HW222008   0.062   0.052   3.037
 7037SOL     OW22009   1.645   1.113   6.480
 7037SOL    HW122010   1.701   1.105   6.562
 7037SOL    HW222011   1.549   1.094   6.503
 7038SOL     OW22012   2.188   3.500   5.106
 7038SOL    HW122013   2.173   3.595   5.078
 7038SOL    HW222014   2.210   3.445   5.025
 7039SOL     OW22015   1.986   5.545   2.418
 7039SOL    HW122016   2.055   5.511   2.482
 7039SOL    HW222017   2.025   5.549   2.326
 7040SOL     OW22018   5.421   2.177   5.606
 7040SOL    HW122019   5.335   2.147   5.649
 7040SOL    HW222020   5.400   2.222   5.519
 7041SOL     OW22021   6.565   1.347   1.899
 7041SOL    HW122022   6.655   1.389   1.912
 7041SOL    HW222023   6.569   1.250   1.923
 7042SOL     OW22024   4.389   5.467   5.030
 7042SOL    HW122025   4.462   5.496   5.092
 7042SOL    HW222026   4.401   5.370   5.008
 7043SOL     OW22027   2.190   4.763   2.679
 7043SOL    HW122028   2.267   4.769   2.742
 7043SOL    HW222029   2.111   4.723   2.726
 7044SOL     OW22030   6.038   4.909   4.417
 7044SOL    HW122031   6.005   4.903   4.511
 7044SOL    HW222032   6.024   5.002   4.383
 7045SOL     OW22033   4.742   5.422   2.786
 7045SOL    HW122034   4.713   5.460   2.699
 7045SOL    HW222035   4.842   5.410   2.786
 7046SOL     OW22036   2.671   1.042   3.560
 7046SOL    HW122037   2.582   1.034   3.606
 7046SOL    HW222038   2.657   1.055   3.462
 7047SOL     OW22039   6.449   1.012   2.298
 7047SOL    HW122040   6.481   1.006   2.392
 7047SOL    HW222041   6.349   1.010   2.297
 7048SOL     OW22042   5.164   0.206   3.665
 7048SOL    HW122043   5.075   0.225   3.622
 7048SOL    HW222044   5.164   0.113   3.701
 7049SOL     OW22045   3.173   1.431   0.651
 7049SOL    HW122046   3.241   1.503   0.668
 7049SOL    HW222047   3.124   1.450   0.566
 7050SOL     OW22048   4.038   3.960   1.798
 7050SOL    HW122049   4.006   3.868   1.772
 7050SOL    HW222050   4.025   3.972   1.896
 7051SOL     OW22051   6.484   6.297   1.101
 7051SOL    HW122052   6.454   6.202   1.105
 7051SOL    HW222053   6.560   6.310   1.165
 7052SOL     OW22054   5.908   1.912   3.503
 7052SOL    HW122055   5.927   1.963   3.419
 7052SOL    HW222056   5.821   1.864   3.494
 7053SOL     OW22057   1.669   2.914   5.245
 7053SOL    HW122058   1.704   2.976   5.315
 7053SOL    HW222059   1.697   2.947   5.154
 7054SOL     OW22060   6.683   6.968   0.482
 7054SOL    HW122061   6.657   6.876   0.512
 7054SOL    HW222062   6.782   6.976   0.484
 7055SOL     OW22063   2.778   6.911   6.305
 7055SOL    HW122064   2.826   6.861   6.233
 7055SOL    HW222065   2.730   6.846   6.364
 7056SOL     OW22066   0.314   4.813   1.430
 7056SOL    HW122067   0.307   4.719   1.463
 7056SOL    HW222068   0.274   4.875   1.498
 7057SOL     OW22069   2.615   4.582   4.049
 7057SOL    HW122070   2.567   4.507   4.096
 7057SOL    HW222071   2.565   4.607   3.966
 7058SOL     OW22072   5.556   4.115   5.214
 7058SOL    HW122073   5.545   4.016   5.227
 7058SOL    HW222074   5.481   4.163   5.261
 7059SOL     OW22075   0.599   1.504   3.586
 7059SOL    HW122076   0.638   1.441   3.520
 7059SOL    HW222077   0.520   1.462   3.631
 7060SOL     OW22078   3.232   6.983   1.666
 7060SOL    HW122079   3.258   6.970   1.762
 7060SOL    HW222080   3.310   6.963   1.608
 7061SOL     OW22081   0.136   3.113   4.086
 7061SOL    HW122082   0.174   3.087   3.997
 7061SOL    HW222083   0.071   3.043   4.116
 7062SOL     OW22084   3.682   2.177   5.640
 7062SOL    HW122085   3.646   2.221   5.722
 7062SOL    HW222086   3.611   2.118   5.601
 7063SOL     OW22087   1.231   6.788   1.703
 7063SOL    HW122088   1.293   6.709   1.706
 7063SOL    HW222089   1.154   6.772   1.765
 7064SOL     OW22090   3.948   2.008   6.826
 7064SOL    HW122091   3.977   1.915   6.850
 7064SOL    HW222092   4.024   2.072   6.844
 7065SOL     OW22093   4.958   3.698   5.951
 7065SOL    HW122094   5.042   3.704   6.005
 7065SOL    HW222095   4.909   3.785   5.956
 7066SOL     OW22096   4.065   0.057   6.686
 7066SOL    HW122097   4.129   0.133   6.701
 7066SOL    HW222098   4.053   0.044   6.587
 7067SOL     OW22099   1.537   2.727   5.400
 7067SOL    HW122100   1.538   2.752   5.497
 7067SOL    HW222101   1.628   2.743   5.361
 7068SOL     OW22102   6.214   4.724   4.808
 7068SOL    HW122103   6.178   4.644   4.760
 7068SOL    HW222104   6.168   4.734   4.896
 7069SOL     OW22105   5.122   2.261   4.569
 7069SOL    HW122106   5.076   2.198   4.631
 7069SOL    HW222107   5.095   2.355   4.590
 7070SOL     OW22108   0.132   6.857   4.466
 7070SOL    HW122109   0.135   6.797   4.386
 7070SOL    HW222110   0.197   6.932   4.454
 7071SOL     OW22111   3.569   6.337   5.483
 7071SOL    HW122112   3.523   6.331   5.572
 7071SOL    HW222113   3.579   6.433   5.457
 7072SOL     OW22114   1.911   5.774   6.873
 7072SOL    HW122115   1.842   5.844   6.892
 7072SOL    HW222116   1.912   5.754   6.774
 7073SOL     OW22117   5.317   0.255   4.094
 7073SOL    HW122118   5.359   0.225   4.180
 7073SOL    HW222119   5.290   0.351   4.101
 7074SOL     OW22120   6.215   2.326   1.722
 7074SOL    HW122121   6.170   2.390   1.784
 7074SOL    HW222122   6.280   2.375   1.664
 7075SOL     OW22123   1.648   4.369   4.790
 7075SOL    HW122124   1.623   4.381   4.694
 7075SOL    HW222125   1.728   4.308   4.796
 7076SOL     OW22126   5.779   2.738   7.013
 7076SOL    HW122127   5.711   2.811   7.001
 7076SOL    HW222128   5.863   2.777   0.034
 7077SOL     OW22129   2.108   4.508   3.731
 7077SOL    HW122130   2.082   4.503   3.828
 7077SOL    HW222131   2.083   4.598   3.694
 7078SOL     OW22132   6.642   6.346   2.114
 7078SOL    HW122133   6.643   6.263   2.170
 7078SOL    HW222134   6.723   6.347   2.055
 7079SOL     OW22135   0.488   6.964   4.175
 7079SOL    HW122136   0.566   6.958   4.112
 7079SOL    HW222137   0.521   6.989   4.266
 7080SOL     OW22138   3.573   1.264   5.102
 7080SOL    HW122139   3.621   1.350   5.086
 7080SOL    HW222140   3.483   1.267   5.058
 7081SOL     OW22141   2.153   6.084   6.917
 7081SOL    HW122142   2.087   6.143   6.870
 7081SOL    HW222143   2.245   6.121   6.904
 7082SOL     OW22144   6.676   4.614   6.918
 7082SOL    HW122145   6.746   4.641   6.852
 7082SOL    HW222146   6.586   4.614   6.874
 7083SOL     OW22147   1.813   0.408   1.712
 7083SOL    HW122148   1.852   0.489   1.669
 7083SOL    HW222149   1.720   0.426   1.741
 7084SOL     OW22150   0.453   5.338   5.229
 7084SOL    HW122151   0.445   5.301   5.322
 7084SOL    HW222152   0.383   5.409   5.216
 7085SOL     OW22153   0.505   1.615   2.614
 7085SOL    HW122154   0.507   1.715   2.609
 7085SOL    HW222155   0.557   1.576   2.538
 7086SOL     OW22156   5.939   0.613   5.813
 7086SOL    HW122157   5.957   0.538   5.877
 7086SOL    HW222158   5.887   0.685   5.859
 7087SOL     OW22159   6.021   3.780   3.342
 7087SOL    HW122160   6.087   3.739   3.405
 7087SOL    HW222161   5.969   3.851   3.390
 7088SOL     OW22162   4.843   2.569   3.990
 7088SOL    HW122163   4.809   2.475   4.001
 7088SOL    HW222164   4.906   2.591   4.064
 7089SOL     OW22165   2.740   2.249   4.741
 7089SOL    HW122166   2.828   2.280   4.779
 7089SOL    HW222167   2.680   2.222   4.816
 7090SOL     OW22168   1.440   1.308   0.592
 7090SOL    HW122169   1.455   1.391   0.646
 7090SOL    HW222170   1.342   1.295   0.577
 7091SOL     OW22171   0.432   2.093   0.805
 7091SOL    HW122172   0.494   2.163   0.769
 7091SOL    HW222173   0.439   2.091   0.905
 7092SOL     OW22174   4.134   2.940   5.408
 7092SOL    HW122175   4.075   2.861   5.420
 7092SOL    HW222176   4.202   2.920   5.337
 7093SOL     OW22177   3.087   4.035   1.878
 7093SOL    HW122178   3.012   3.968   1.874
 7093SOL    HW222179   3.113   4.050   1.973
 7094SOL     OW22180   6.876   6.221   5.590
 7094SOL    HW122181   6.812   6.178   5.527
 7094SOL    HW222182   6.831   6.238   5.678
 7095SOL     OW22183   3.077   4.654   5.566
 7095SOL    HW122184   3.150   4.629   5.502
 7095SOL    HW222185   3.073   4.753   5.573
 7096SOL     OW22186   6.689   0.849   2.423
 7096SOL    HW122187   6.658   0.944   2.423
 7096SOL    HW222188   6.767   0.840   2.486
 7097SOL     OW22189   4.795   0.892   1.546
 7097SOL    HW122190   4.853   0.972   1.532
 7097SOL    HW222191   4.731   0.909   1.620
 7098SOL     OW22192   2.301   5.578   5.427
 7098SOL    HW122193   2.320   5.503   5.364
 7098SOL    HW222194   2.297   5.664   5.375
 7099SOL     OW22195   3.748   1.649   5.297
 7099SOL    HW122196   3.756   1.686   5.205
 7099SOL    HW222197   3.772   1.552   5.297
 7100SOL     OW22198   6.731   3.715   6.928
 7100SOL    HW122199   6.682   3.800   6.949
 7100SOL    HW222200   6.665   3.639   6.923
 7101SOL     OW22201   2.867   1.652   5.303
 7101SOL    HW122202   2.803   1.687   5.371
 7101SOL    HW222203   2.824   1.580   5.250
 7102SOL     OW22204   5.484   0.232   1.287
 7102SOL    HW122205   5.497   0.134   1.307
 7102SOL    HW222206   5.399   0.263   1.329
 7103SOL     OW22207   5.843   5.473   1.892
 7103SOL    HW122208   5.891   5.436   1.972
 7103SOL    HW222209   5.834   5.572   1.902
 7104SOL     OW22210   6.220   3.639   2.795
 7104SOL    HW122211   6.132   3.684   2.779
 7104SOL    HW222212   6.260   3.672   2.880
 7105SOL     OW22213   2.825   3.335   5.341
 7105SOL    HW122214   2.886   3.290   5.275
 7105SOL    HW222215   2.730   3.315   5.317
 7106SOL     OW22216   3.652   3.319   2.008
 7106SOL    HW122217   3.718   3.370   2.063
 7106SOL    HW222218   3.560   3.340   2.040
 7107SOL     OW22219   4.945   0.249   0.681
 7107SOL    HW122220   4.899   0.310   0.746
 7107SOL    HW222221   4.941   0.290   0.590
 7108SOL     OW22222   3.172   5.762   2.882
 7108SOL    HW122223   3.076   5.738   2.866
 7108SOL    HW222224   3.222   5.758   2.796
 7109SOL     OW22225   1.826   6.632   5.208
 7109SOL    HW122226   1.844   6.537   5.233
 7109SOL    HW222227   1.912   6.683   5.209
 7110SOL     OW22228   2.798   5.441   4.310
 7110SOL    HW122229   2.824   5.462   4.404
 7110SOL    HW222230   2.771   5.345   4.304
 7111SOL     OW22231   0.824   2.616   5.241
 7111SOL    HW122232   0.770   2.574   5.168
 7111SOL    HW222233   0.876   2.546   5.290
 7112SOL     OW22234   1.847   5.274   4.244
 7112SOL    HW122235   1.937   5.294   4.205
 7112SOL    HW222236   1.779   5.274   4.171
 7113SOL     OW22237   3.382   4.022   4.851
 7113SOL    HW122238   3.369   3.971   4.937
 7113SOL    HW222239   3.295   4.032   4.804
 7114SOL     OW22240   5.214   5.603   0.668
 7114SOL    HW122241   5.234   5.607   0.766
 7114SOL    HW222242   5.120   5.574   0.654
 7115SOL     OW22243   4.645   3.074   0.057
 7115SOL    HW122244   4.739   3.052   0.084
 7115SOL    HW222245   4.599   2.990   0.026
 7116SOL     OW22246   5.748   4.576   3.152
 7116SOL    HW122247   5.809   4.620   3.086
 7116SOL    HW222248   5.772   4.480   3.160
 7117SOL     OW22249   0.868   6.172   5.153
 7117SOL    HW122250   0.811   6.239   5.106
 7117SOL    HW222251   0.913   6.114   5.085
 7118SOL     OW22252   3.340   5.029   6.498
 7118SOL    HW122253   3.296   5.101   6.445
 7118SOL    HW222254   3.272   4.958   6.520
 7119SOL     OW22255   5.171   1.317   4.140
 7119SOL    HW122256   5.195   1.222   4.163
 7119SOL    HW222257   5.103   1.318   4.067
 7120SOL     OW22258   3.524   2.082   2.213
 7120SOL    HW122259   3.554   2.018   2.142
 7120SOL    HW222260   3.542   2.176   2.183
 7121SOL     OW22261   0.735   6.905   3.910
 7121SOL    HW122262   0.805   6.852   3.958
 7121SOL    HW222263   0.669   6.842   3.869
 7122SOL     OW22264   1.380   0.790   5.864
 7122SOL    HW122265   1.465   0.822   5.907
 7122SOL    HW222266   1.402   0.744   5.778
 7123SOL     OW22267   1.284   4.909   3.638
 7123SOL    HW122268   1.234   4.955   3.565
 7123SOL    HW222269   1.309   4.817   3.607
 7124SOL     OW22270   0.215   2.115   1.744
 7124SOL    HW122271   0.136   2.176   1.737
 7124SOL    HW222272   0.189   2.023   1.713
 7125SOL     OW22273   0.866   0.230   0.762
 7125SOL    HW122274   0.779   0.183   0.744
 7125SOL    HW222275   0.942   0.169   0.742
 7126SOL     OW22276   3.608   5.082   0.671
 7126SOL    HW122277   3.655   5.002   0.708
 7126SOL    HW222278   3.545   5.119   0.739
 7127SOL     OW22279   2.371   5.911   6.702
 7127SOL    HW122280   2.344   5.835   6.644
 7127SOL    HW222281   2.314   5.913   6.784
 7128SOL     OW22282   3.674   4.118   6.628
 7128SOL    HW122283   3.588   4.168   6.631
 7128SOL    HW222284   3.716   4.128   6.538
 7129SOL     OW22285   2.349   1.341   0.407
 7129SOL    HW122286   2.400   1.386   0.333
 7129SOL    HW222287   2.371   1.386   0.494
 7130SOL     OW22288   3.581   5.813   3.696
 7130SOL    HW122289   3.592   5.737   3.632
 7130SOL    HW222290   3.661   5.818   3.756
 7131SOL     OW22291   3.062   1.014   1.476
 7131SOL    HW122292   3.019   0.946   1.417
 7131SOL    HW222293   3.034   0.997   1.571
 7132SOL     OW22294   3.992   4.367   0.245
 7132SOL    HW122295   3.994   4.465   0.268
 7132SOL    HW222296   4.084   4.329   0.255
 7133SOL     OW22297   4.407   4.799   5.269
 7133SOL    HW122298   4.406   4.828   5.365
 7133SOL    HW222299   4.327   4.836   5.222
 7134SOL     OW22300   4.633   6.819   1.828
 7134SOL    HW122301   4.678   6.786   1.911
 7134SOL    HW222302   4.601   6.741   1.774
 7135SOL     OW22303   1.679   2.587   3.671
 7135SOL    HW122304   1.621   2.645   3.614
 7135SOL    HW222305   1.771   2.626   3.675
 7136SOL     OW22306   2.838   1.831   0.321
 7136SOL    HW122307   2.850   1.791   0.230
 7136SOL    HW222308   2.838   1.758   0.390
 7137SOL     OW22309   2.774   1.264   0.306
 7137SOL    HW122310   2.869   1.260   0.274
 7137SOL    HW222311   2.713   1.238   0.231
 7138SOL     OW22312   2.022   2.041   0.536
 7138SOL    HW122313   2.033   2.139   0.557
 7138SOL    HW222314   2.022   2.029   0.437
 7139SOL     OW22315   5.276   4.945   1.749
 7139SOL    HW122316   5.264   5.006   1.827
 7139SOL    HW222317   5.341   4.985   1.685
 7140SOL     OW22318   6.622   4.196   1.106
 7140SOL    HW122319   6.607   4.200   1.007
 7140SOL    HW222320   6.533   4.186   1.152
 7141SOL     OW22321   3.645   6.348   0.591
 7141SOL    HW122322   3.572   6.413   0.606
 7141SOL    HW222323   3.721   6.393   0.543
 7142SOL     OW22324   3.968   6.631   3.345
 7142SOL    HW122325   4.038   6.613   3.275
 7142SOL    HW222326   3.983   6.572   3.424
 7143SOL     OW22327   1.878   3.447   0.037
 7143SOL    HW122328   1.850   3.359   0.075
 7143SOL    HW222329   1.801   3.511   0.042
 7144SOL     OW22330   1.395   1.637   2.865
 7144SOL    HW122331   1.347   1.717   2.901
 7144SOL    HW222332   1.475   1.618   2.922
 7145SOL     OW22333   3.471   0.637   6.427
 7145SOL    HW122334   3.489   0.645   6.329
 7145SOL    HW222335   3.411   0.711   6.456
 7146SOL     OW22336   1.280   0.314   6.772
 7146SOL    HW122337   1.313   0.376   6.843
 7146SOL    HW222338   1.319   0.223   6.786
 7147SOL     OW22339   0.286   6.333   3.117
 7147SOL    HW122340   0.263   6.268   3.044
 7147SOL    HW222341   0.216   6.405   3.121
 7148SOL     OW22342   6.672   6.339   1.286
 7148SOL    HW122343   6.749   6.284   1.255
 7148SOL    HW222344   6.677   6.351   1.385
 7149SOL     OW22345   0.431   6.344   4.592
 7149SOL    HW122346   0.464   6.278   4.659
 7149SOL    HW222347   0.344   6.384   4.623
 7150SOL     OW22348   3.858   2.867   0.733
 7150SOL    HW122349   3.848   2.768   0.724
 7150SOL    HW222350   3.890   2.905   0.646
 7151SOL     OW22351   3.490   6.547   0.793
 7151SOL    HW122352   3.397   6.536   0.828
 7151SOL    HW222353   3.524   6.639   0.818
 7152SOL     OW22354   6.600   0.906   5.464
 7152SOL    HW122355   6.522   0.884   5.523
 7152SOL    HW222356   6.650   0.823   5.442
 7153SOL     OW22357   4.003   5.264   1.666
 7153SOL    HW122358   3.948   5.343   1.693
 7153SOL    HW222359   3.966   5.225   1.582
 7154SOL     OW22360   5.077   6.388   3.402
 7154SOL    HW122361   5.080   6.456   3.475
 7154SOL    HW222362   5.031   6.426   3.322
 7155SOL     OW22363   3.121   3.410   1.139
 7155SOL    HW122364   3.086   3.412   1.232
 7155SOL    HW222365   3.084   3.331   1.090
 7156SOL     OW22366   6.722   3.660   2.649
 7156SOL    HW122367   6.664   3.742   2.649
 7156SOL    HW222368   6.701   3.605   2.730
 7157SOL     OW22369   0.418   4.943   1.222
 7157SOL    HW122370   0.430   5.042   1.232
 7157SOL    HW222371   0.381   4.906   1.308
 7158SOL     OW22372   0.990   0.303   4.141
 7158SOL    HW122373   0.991   0.216   4.191
 7158SOL    HW222374   1.018   0.377   4.202
 7159SOL     OW22375   0.837   4.938   3.781
 7159SOL    HW122376   0.931   4.911   3.802
 7159SOL    HW222377   0.811   5.016   3.838
 7160SOL     OW22378   6.058   0.126   3.007
 7160SOL    HW122379   5.960   0.139   3.023
 7160SOL    HW222380   6.107   0.134   3.093
 7161SOL     OW22381   3.196   3.992   2.760
 7161SOL    HW122382   3.270   3.975   2.696
 7161SOL    HW222383   3.111   4.008   2.710
 7162SOL     OW22384   1.548   5.211   6.073
 7162SOL    HW122385   1.502   5.195   5.986
 7162SOL    HW222386   1.481   5.212   6.147
 7163SOL     OW22387   2.865   0.238   2.372
 7163SOL    HW122388   2.791   0.259   2.307
 7163SOL    HW222389   2.953   0.263   2.331
 7164SOL     OW22390   2.935   0.482   5.336
 7164SOL    HW122391   2.929   0.390   5.296
 7164SOL    HW222392   2.897   0.548   5.272
 7165SOL     OW22393   5.766   6.549   1.789
 7165SOL    HW122394   5.862   6.528   1.804
 7165SOL    HW222395   5.746   6.640   1.825
 7166SOL     OW22396   5.027   2.127   0.410
 7166SOL    HW122397   5.038   2.053   0.476
 7166SOL    HW222398   5.098   2.196   0.426
 7167SOL     OW22399   5.247   3.296   4.680
 7167SOL    HW122400   5.164   3.298   4.624
 7167SOL    HW222401   5.235   3.357   4.759
 7168SOL     OW22402   1.964   2.550   3.833
 7168SOL    HW122403   1.987   2.609   3.910
 7168SOL    HW222404   2.002   2.588   3.749
 7169SOL     OW22405   0.185   3.888   5.696
 7169SOL    HW122406   0.102   3.857   5.742
 7169SOL    HW222407   0.194   3.841   5.608
 7170SOL     OW22408   4.518   6.774   2.514
 7170SOL    HW122409   4.581   6.696   2.511
 7170SOL    HW222410   4.569   6.858   2.528
 7171SOL     OW22411   5.714   4.179   0.753
 7171SOL    HW122412   5.786   4.218   0.696
 7171SOL    HW222413   5.675   4.099   0.708
 7172SOL     OW22414   1.764   6.832   4.745
 7172SOL    HW122415   1.858   6.865   4.746
 7172SOL    HW222416   1.751   6.764   4.816
 7173SOL     OW22417   6.405   4.182   6.932
 7173SOL    HW122418   6.490   4.211   6.976
 7173SOL    HW222419   6.330   4.189   6.997
 7174SOL     OW22420   1.004   3.942   1.000
 7174SOL    HW122421   0.965   3.861   0.957
 7174SOL    HW222422   1.032   3.919   1.094
 7175SOL     OW22423   6.052   2.885   5.166
 7175SOL    HW122424   5.972   2.905   5.110
 7175SOL    HW222425   6.077   2.789   5.155
 7176SOL     OW22426   0.042   1.372   3.038
 7176SOL    HW122427   6.988   1.317   3.082
 7176SOL    HW222428   0.022   1.469   3.052
 7177SOL     OW22429   1.193   4.877   5.002
 7177SOL    HW122430   1.213   4.802   4.939
 7177SOL    HW222431   1.098   4.870   5.034
 7178SOL     OW22432   6.808   1.911   5.544
 7178SOL    HW122433   6.882   1.890   5.608
 7178SOL    HW222434   6.843   1.970   5.471
 7179SOL     OW22435   1.660   3.730   4.761
 7179SOL    HW122436   1.723   3.808   4.756
 7179SOL    HW222437   1.713   3.645   4.757
 7180SOL     OW22438   2.396   4.628   0.454
 7180SOL    HW122439   2.310   4.656   0.413
 7180SOL    HW222440   2.390   4.637   0.554
 7181SOL     OW22441   2.372   0.445   0.184
 7181SOL    HW122442   2.373   0.542   0.159
 7181SOL    HW222443   2.463   0.417   0.214
 7182SOL     OW22444   0.161   3.907   4.146
 7182SOL    HW122445   0.081   3.870   4.193
 7182SOL    HW222446   0.165   4.006   4.161
 7183SOL     OW22447   1.842   5.792   1.647
 7183SOL    HW122448   1.788   5.801   1.730
 7183SOL    HW222449   1.785   5.751   1.575
 7184SOL     OW22450   6.798   1.404   3.878
 7184SOL    HW122451   6.895   1.403   3.903
 7184SOL    HW222452   6.752   1.478   3.928
 7185SOL     OW22453   5.035   0.960   5.294
 7185SOL    HW122454   4.994   0.931   5.381
 7185SOL    HW222455   4.963   0.968   5.225
 7186SOL     OW22456   6.648   1.709   2.032
 7186SOL    HW122457   6.590   1.654   2.092
 7186SOL    HW222458   6.591   1.756   1.964
 7187SOL     OW22459   2.794   4.030   5.251
 7187SOL    HW122460   2.745   3.950   5.285
 7187SOL    HW222461   2.766   4.111   5.302
 7188SOL     OW22462   4.692   6.524   6.615
 7188SOL    HW122463   4.740   6.574   6.687
 7188SOL    HW222464   4.756   6.465   6.567
 7189SOL     OW22465   6.812   1.584   5.407
 7189SOL    HW122466   6.794   1.498   5.359
 7189SOL    HW222467   6.836   1.654   5.340
 7190SOL     OW22468   6.464   5.218   1.779
 7190SOL    HW122469   6.440   5.122   1.762
 7190SOL    HW222470   6.497   5.259   1.694
 7191SOL     OW22471   1.592   4.942   2.401
 7191SOL    HW122472   1.548   4.889   2.329
 7191SOL    HW222473   1.691   4.940   2.388
 7192SOL     OW22474   1.912   4.263   5.856
 7192SOL    HW122475   1.958   4.220   5.934
 7192SOL    HW222476   1.922   4.205   5.776
 7193SOL     OW22477   1.696   2.344   2.220
 7193SOL    HW122478   1.641   2.262   2.203
 7193SOL    HW222479   1.771   2.348   2.154
 7194SOL     OW22480   2.006   2.830   0.426
 7194SOL    HW122481   2.063   2.841   0.345
 7194SOL    HW222482   1.914   2.801   0.399
 7195SOL     OW22483   0.302   4.185   0.269
 7195SOL    HW122484   0.392   4.229   0.275
 7195SOL    HW222485   0.310   4.100   0.218
 7196SOL     OW22486   2.250   3.724   1.435
 7196SOL    HW122487   2.320   3.782   1.476
 7196SOL    HW222488   2.294   3.654   1.378
 7197SOL     OW22489   0.746   3.033   5.394
 7197SOL    HW122490   0.739   3.121   5.441
 7197SOL    HW222491   0.842   3.014   5.373
 7198SOL     OW22492   0.205   0.949   0.649
 7198SOL    HW122493   0.185   0.866   0.596
 7198SOL    HW222494   0.123   1.007   0.652
 7199SOL     OW22495   0.772   0.159   2.276
 7199SOL    HW122496   0.853   0.114   2.311
 7199SOL    HW222497   0.711   0.091   2.235
 7200SOL     OW22498   2.129   2.927   6.696
 7200SOL    HW122499   2.165   2.914   6.604
 7200SOL    HW222500   2.191   2.884   6.762
 7201SOL     OW22501   0.700   6.052   3.856
 7201SOL    HW122502   0.663   6.141   3.882
 7201SOL    HW222503   0.762   6.020   3.927
 7202SOL     OW22504   4.306   6.642   6.505
 7202SOL    HW122505   4.239   6.708   6.539
 7202SOL    HW222506   4.378   6.690   6.455
 7203SOL     OW22507   0.094   0.984   1.200
 7203SOL    HW122508   0.124   0.945   1.287
 7203SOL    HW222509   0.038   1.066   1.217
 7204SOL     OW22510   0.365   1.247   6.078
 7204SOL    HW122511   0.435   1.316   6.099
 7204SOL    HW222512   0.338   1.202   6.163
 7205SOL     OW22513   1.431   4.136   5.245
 7205SOL    HW122514   1.423   4.236   5.248
 7205SOL    HW222515   1.518   4.112   5.202
 7206SOL     OW22516   0.995   0.158   2.419
 7206SOL    HW122517   1.062   0.111   2.477
 7206SOL    HW222518   1.007   0.257   2.427
 7207SOL     OW22519   3.493   0.294   3.752
 7207SOL    HW122520   3.402   0.335   3.746
 7207SOL    HW222521   3.556   0.344   3.694
 7208SOL     OW22522   4.221   6.945   3.832
 7208SOL    HW122523   4.156   6.873   3.855
 7208SOL    HW222524   4.194   0.014   3.878
 7209SOL     OW22525   2.834   3.226   1.572
 7209SOL    HW122526   2.891   3.163   1.626
 7209SOL    HW222527   2.750   3.247   1.624
 7210SOL     OW22528   3.886   1.029   2.779
 7210SOL    HW122529   3.813   0.968   2.749
 7210SOL    HW222530   3.971   1.005   2.732
 7211SOL     OW22531   1.729   6.095   4.915
 7211SOL    HW122532   1.695   6.176   4.868
 7211SOL    HW222533   1.660   6.061   4.978
 7212SOL     OW22534   0.446   6.545   4.834
 7212SOL    HW122535   0.357   6.578   4.865
 7212SOL    HW222536   0.502   6.519   4.913
 7213SOL     OW22537   3.928   6.377   6.411
 7213SOL    HW122538   3.881   6.314   6.348
 7213SOL    HW222539   4.021   6.392   6.379
 7214SOL     OW22540   6.933   0.144   4.643
 7214SOL    HW122541   6.929   0.120   4.546
 7214SOL    HW222542   6.907   0.064   4.698
 7215SOL     OW22543   6.647   3.446   4.146
 7215SOL    HW122544   6.560   3.436   4.194
 7215SOL    HW222545   6.687   3.535   4.167
 7216SOL     OW22546   3.308   6.936   0.745
 7216SOL    HW122547   3.337   6.877   0.821
 7216SOL    HW222548   3.234   6.996   0.776
 7217SOL     OW22549   1.943   4.305   3.214
 7217SOL    HW122550   1.974   4.212   3.232
 7217SOL    HW222551   1.960   4.328   3.118
 7218SOL     OW22552   6.067   2.780   3.781
 7218SOL    HW122553   6.091   2.709   3.848
 7218SOL    HW222554   6.025   2.737   3.701
 7219SOL     OW22555   3.719   0.304   3.235
 7219SOL    HW122556   3.658   0.367   3.282
 7219SOL    HW222557   3.671   0.218   3.218
 7220SOL     OW22558   0.039   4.363   4.943
 7220SOL    HW122559   0.008   4.268   4.935
 7220SOL    HW222560   0.129   4.372   4.900
 7221SOL     OW22561   3.535   5.584   4.569
 7221SOL    HW122562   3.510   5.588   4.472
 7221SOL    HW222563   3.622   5.536   4.578
 7222SOL     OW22564   6.315   6.507   3.513
 7222SOL    HW122565   6.234   6.492   3.457
 7222SOL    HW222566   6.288   6.533   3.606
 7223SOL     OW22567   3.410   1.477   0.988
 7223SOL    HW122568   3.398   1.553   1.052
 7223SOL    HW222569   3.324   1.427   0.980
 7224SOL     OW22570   5.386   1.877   3.979
 7224SOL    HW122571   5.329   1.945   4.024
 7224SOL    HW222572   5.389   1.896   3.880
 7225SOL     OW22573   1.483   6.130   0.540
 7225SOL    HW122574   1.418   6.135   0.616
 7225SOL    HW222575   1.459   6.198   0.471
 7226SOL     OW22576   6.026   0.090   1.829
 7226SOL    HW122577   6.123   0.106   1.812
 7226SOL    HW222578   5.981   0.063   1.743
 7227SOL     OW22579   2.948   2.111   1.384
 7227SOL    HW122580   2.852   2.084   1.393
 7227SOL    HW222581   2.980   2.091   1.291
 7228SOL     OW22582   0.945   2.091   2.717
 7228SOL    HW122583   1.014   2.124   2.782
 7228SOL    HW222584   0.981   2.011   2.669
 7229SOL     OW22585   1.158   5.809   5.839
 7229SOL    HW122586   1.192   5.861   5.761
 7229SOL    HW222587   1.119   5.723   5.808
 7230SOL     OW22588   3.700   5.292   4.887
 7230SOL    HW122589   3.723   5.228   4.814
 7230SOL    HW222590   3.605   5.276   4.917
 7231SOL     OW22591   4.003   0.402   6.330
 7231SOL    HW122592   3.926   0.371   6.274
 7231SOL    HW222593   4.063   0.325   6.349
 7232SOL     OW22594   5.037   5.924   2.370
 7232SOL    HW122595   5.078   6.007   2.333
 7232SOL    HW222596   4.975   5.947   2.445
 7233SOL     OW22597   1.418   1.278   3.760
 7233SOL    HW122598   1.393   1.369   3.794
 7233SOL    HW222599   1.514   1.278   3.733
 7234SOL     OW22600   5.418   2.581   3.487
 7234SOL    HW122601   5.475   2.526   3.547
 7234SOL    HW222602   5.441   2.562   3.391
 7235SOL     OW22603   6.873   4.421   2.644
 7235SOL    HW122604   6.966   4.451   2.668
 7235SOL    HW222605   6.854   4.446   2.549
 7236SOL     OW22606   2.583   2.089   1.770
 7236SOL    HW122607   2.606   1.996   1.798
 7236SOL    HW222608   2.666   2.142   1.758
 7237SOL     OW22609   3.811   0.364   4.741
 7237SOL    HW122610   3.839   0.455   4.710
 7237SOL    HW222611   3.891   0.316   4.777
 7238SOL     OW22612   4.161   2.213   6.816
 7238SOL    HW122613   4.244   2.225   6.761
 7238SOL    HW222614   4.159   2.283   6.887
 7239SOL     OW22615   1.109   1.814   2.059
 7239SOL    HW122616   1.111   1.877   1.982
 7239SOL    HW222617   1.174   1.843   2.129
 7240SOL     OW22618   1.079   1.082   6.163
 7240SOL    HW122619   1.117   1.108   6.252
 7240SOL    HW222620   1.012   1.009   6.174
 7241SOL     OW22621   2.108   0.241   1.268
 7241SOL    HW122622   2.165   0.213   1.191
 7241SOL    HW222623   2.153   0.215   1.354
 7242SOL     OW22624   6.776   5.649   6.822
 7242SOL    HW122625   6.828   5.726   6.787
 7242SOL    HW222626   6.698   5.683   6.875
 7243SOL     OW22627   6.611   3.978   6.540
 7243SOL    HW122628   6.612   3.902   6.474
 7243SOL    HW222629   6.700   3.985   6.584
 7244SOL     OW22630   6.988   0.442   2.122
 7244SOL    HW122631   0.010   0.429   2.214
 7244SOL    HW222632   6.917   0.374   2.106
 7245SOL     OW22633   1.835   3.188   5.181
 7245SOL    HW122634   1.751   3.186   5.126
 7245SOL    HW222635   1.828   3.261   5.249
 7246SOL     OW22636   0.457   0.480   4.004
 7246SOL    HW122637   0.469   0.526   3.916
 7246SOL    HW222638   0.532   0.505   4.064
 7247SOL     OW22639   2.481   1.431   4.121
 7247SOL    HW122640   2.568   1.400   4.082
 7247SOL    HW222641   2.408   1.369   4.092
 7248SOL     OW22642   2.558   1.288   3.291
 7248SOL    HW122643   2.510   1.317   3.374
 7248SOL    HW222644   2.500   1.305   3.211
 7249SOL     OW22645   6.140   5.058   2.358
 7249SOL    HW122646   6.236   5.056   2.329
 7249SOL    HW222647   6.092   5.130   2.307
 7250SOL     OW22648   5.655   6.434   5.676
 7250SOL    HW122649   5.709   6.505   5.631
 7250SOL    HW222650   5.588   6.476   5.737
 7251SOL     OW22651   0.283   6.505   5.345
 7251SOL    HW122652   0.192   6.465   5.355
 7251SOL    HW222653   0.351   6.432   5.335
 7252SOL     OW22654   4.013   3.316   2.222
 7252SOL    HW122655   3.941   3.247   2.220
 7252SOL    HW222656   4.055   3.317   2.313
 7253SOL     OW22657   1.591   5.719   0.067
 7253SOL    HW122658   1.549   5.796   0.116
 7253SOL    HW222659   1.642   5.753   7.004
 7254SOL     OW22660   4.865   5.084   4.561
 7254SOL    HW122661   4.792   5.020   4.584
 7254SOL    HW222662   4.946   5.064   4.616
 7255SOL     OW22663   4.012   4.001   0.107
 7255SOL    HW122664   3.913   3.996   0.123
 7255SOL    HW222665   4.058   3.935   0.166
 7256SOL     OW22666   2.986   5.749   4.659
 7256SOL    HW122667   3.070   5.793   4.629
 7256SOL    HW222668   2.926   5.817   4.701
 7257SOL     OW22669   6.006   1.617   3.127
 7257SOL    HW122670   6.042   1.565   3.049
 7257SOL    HW222671   6.027   1.714   3.115
 7258SOL     OW22672   5.008   1.480   2.807
 7258SOL    HW122673   4.996   1.569   2.850
 7258SOL    HW222674   5.047   1.491   2.716
 7259SOL     OW22675   2.213   3.966   1.052
 7259SOL    HW122676   2.261   3.915   0.980
 7259SOL    HW222677   2.277   4.030   1.095
 7260SOL     OW22678   4.344   1.466   1.165
 7260SOL    HW122679   4.439   1.468   1.195
 7260SOL    HW222680   4.289   1.525   1.224
 7261SOL     OW22681   1.384   3.070   1.391
 7261SOL    HW122682   1.390   3.080   1.490
 7261SOL    HW222683   1.419   2.979   1.366
 7262SOL     OW22684   5.292   2.468   6.350
 7262SOL    HW122685   5.226   2.534   6.384
 7262SOL    HW222686   5.373   2.515   6.315
 7263SOL     OW22687   1.066   6.889   6.950
 7263SOL    HW122688   1.087   6.795   6.924
 7263SOL    HW222689   1.152   6.937   6.972
 7264SOL     OW22690   4.960   2.088   6.691
 7264SOL    HW122691   4.934   2.013   6.753
 7264SOL    HW222692   4.902   2.167   6.710
 7265SOL     OW22693   5.909   5.094   5.522
 7265SOL    HW122694   5.885   5.152   5.600
 7265SOL    HW222695   5.974   5.024   5.551
 7266SOL     OW22696   5.161   6.596   2.052
 7266SOL    HW122697   5.116   6.510   2.026
 7266SOL    HW222698   5.118   6.672   2.004
 7267SOL     OW22699   6.411   6.305   4.992
 7267SOL    HW122700   6.491   6.354   4.957
 7267SOL    HW222701   6.388   6.340   5.083
 7268SOL     OW22702   6.126   5.228   3.678
 7268SOL    HW122703   6.192   5.206   3.750
 7268SOL    HW222704   6.041   5.178   3.696
 7269SOL     OW22705   0.083   5.934   6.496
 7269SOL    HW122706   0.052   6.029   6.504
 7269SOL    HW222707   0.182   5.932   6.486
 7270SOL     OW22708   1.447   3.420   5.355
 7270SOL    HW122709   1.365   3.407   5.410
 7270SOL    HW222710   1.424   3.473   5.273
 7271SOL     OW22711   0.393   6.027   3.628
 7271SOL    HW122712   0.367   6.011   3.533
 7271SOL    HW222713   0.345   6.107   3.664
 7272SOL     OW22714   6.178   5.511   2.674
 7272SOL    HW122715   6.137   5.432   2.721
 7272SOL    HW222716   6.234   5.479   2.598
 7273SOL     OW22717   6.325   4.635   1.705
 7273SOL    HW122718   6.316   4.666   1.611
 7273SOL    HW222719   6.401   4.683   1.749
 7274SOL     OW22720   6.981   5.188   6.088
 7274SOL    HW122721   6.921   5.260   6.054
 7274SOL    HW222722   6.953   5.163   6.181
 7275SOL     OW22723   0.071   6.153   2.387
 7275SOL    HW122724   0.165   6.120   2.375
 7275SOL    HW222725   0.073   6.250   2.412
 7276SOL     OW22726   3.968   1.081   3.542
 7276SOL    HW122727   3.942   1.169   3.503
 7276SOL    HW222728   3.936   1.076   3.637
 7277SOL     OW22729   4.488   0.965   4.043
 7277SOL    HW122730   4.564   0.921   3.993
 7277SOL    HW222731   4.483   1.062   4.017
 7278SOL     OW22732   3.613   2.549   1.310
 7278SOL    HW122733   3.682   2.481   1.284
 7278SOL    HW222734   3.528   2.502   1.333
 7279SOL     OW22735   4.655   4.204   6.040
 7279SOL    HW122736   4.577   4.259   6.012
 7279SOL    HW222737   4.732   4.222   5.978
 7280SOL     OW22738   0.471   1.748   3.498
 7280SOL    HW122739   0.554   1.701   3.467
 7280SOL    HW222740   0.434   1.701   3.578
 7281SOL     OW22741   1.775   1.193   0.819
 7281SOL    HW122742   1.751   1.100   0.790
 7281SOL    HW222743   1.777   1.254   0.740
 7282SOL     OW22744   5.914   5.375   2.203
 7282SOL    HW122745   5.854   5.318   2.258
 7282SOL    HW222746   5.875   5.467   2.195
 7283SOL     OW22747   4.926   0.438   2.737
 7283SOL    HW122748   4.872   0.480   2.810
 7283SOL    HW222749   5.023   0.442   2.761
 7284SOL     OW22750   0.222   2.836   5.830
 7284SOL    HW122751   0.292   2.893   5.873
 7284SOL    HW222752   0.259   2.744   5.815
 7285SOL     OW22753   5.638   3.277   2.603
 7285SOL    HW122754   5.690   3.268   2.689
 7285SOL    HW222755   5.700   3.266   2.526
 7286SOL     OW22756   1.954   1.119   1.233
 7286SOL    HW122757   1.926   1.032   1.193
 7286SOL    HW222758   2.011   1.169   1.168
 7287SOL     OW22759   0.627   2.798   5.277
 7287SOL    HW122760   0.686   2.869   5.316
 7287SOL    HW222761   0.680   2.715   5.260
 7288SOL     OW22762   1.984   1.181   2.213
 7288SOL    HW122763   1.907   1.205   2.272
 7288SOL    HW222764   1.949   1.154   2.123
 7289SOL     OW22765   5.913   1.897   4.128
 7289SOL    HW122766   5.837   1.909   4.063
 7289SOL    HW222767   5.976   1.829   4.092
 7290SOL     OW22768   3.774   1.790   5.527
 7290SOL    HW122769   3.695   1.850   5.536
 7290SOL    HW222770   3.777   1.752   5.435
 7291SOL     OW22771   0.855   6.961   0.101
 7291SOL    HW122772   0.922   6.927   0.035
 7291SOL    HW222773   0.902   6.998   0.181
 7292SOL     OW22774   3.129   0.412   3.365
 7292SOL    HW122775   3.118   0.338   3.299
 7292SOL    HW222776   3.044   0.424   3.417
 7293SOL     OW22777   1.449   2.119   4.835
 7293SOL    HW122778   1.500   2.071   4.906
 7293SOL    HW222779   1.508   2.137   4.757
 7294SOL     OW22780   2.657   4.439   0.033
 7294SOL    HW122781   2.569   4.409   7.013
 7294SOL    HW222782   2.641   4.502   0.110
 7295SOL     OW22783   5.776   3.549   1.494
 7295SOL    HW122784   5.851   3.598   1.449
 7295SOL    HW222785   5.804   3.522   1.585
 7296SOL     OW22786   3.670   6.144   1.993
 7296SOL    HW122787   3.700   6.075   2.058
 7296SOL    HW222788   3.749   6.178   1.941
 7297SOL     OW22789   3.834   0.014   1.262
 7297SOL    HW122790   3.781   0.038   1.343
 7297SOL    HW222791   3.863   0.098   1.215
 7298SOL     OW22792   4.976   5.313   6.106
 7298SOL    HW122793   5.066   5.352   6.125
 7298SOL    HW222794   4.919   5.382   6.063
 7299SOL     OW22795   1.001   2.637   1.245
 7299SOL    HW122796   1.100   2.651   1.254
 7299SOL    HW222797   0.979   2.543   1.268
 7300SOL     OW22798   0.250   6.583   1.872
 7300SOL    HW122799   0.180   6.648   1.844
 7300SOL    HW222800   0.300   6.619   1.951
 7301SOL     OW22801   5.740   1.599   4.508
 7301SOL    HW122802   5.701   1.514   4.545
 7301SOL    HW222803   5.840   1.589   4.501
 7302SOL     OW22804   0.889   2.686   5.541
 7302SOL    HW122805   0.789   2.687   5.535
 7302SOL    HW222806   0.919   2.736   5.622
 7303SOL     OW22807   4.102   0.905   6.763
 7303SOL    HW122808   4.162   0.908   6.683
 7303SOL    HW222809   4.141   0.961   6.836
 7304SOL     OW22810   3.111   5.600   1.695
 7304SOL    HW122811   3.020   5.616   1.733
 7304SOL    HW222812   3.109   5.613   1.596
 7305SOL     OW22813   5.273   1.020   0.695
 7305SOL    HW122814   5.234   0.959   0.626
 7305SOL    HW222815   5.333   1.087   0.651
 7306SOL     OW22816   4.432   1.681   0.980
 7306SOL    HW122817   4.378   1.627   1.045
 7306SOL    HW222818   4.380   1.692   0.895
 7307SOL     OW22819   2.643   6.495   2.570
 7307SOL    HW122820   2.546   6.508   2.587
 7307SOL    HW222821   2.695   6.570   2.613
 7308SOL     OW22822   6.765   2.946   4.988
 7308SOL    HW122823   6.690   2.989   4.937
 7308SOL    HW222824   6.825   3.017   5.025
 7309SOL     OW22825   4.122   4.933   0.565
 7309SOL    HW122826   4.185   4.887   0.627
 7309SOL    HW222827   4.161   4.937   0.474
 7310SOL     OW22828   2.595   4.206   0.655
 7310SOL    HW122829   2.548   4.121   0.630
 7310SOL    HW222830   2.625   4.252   0.572
 7311SOL     OW22831   1.791   1.916   1.574
 7311SOL    HW122832   1.820   1.841   1.633
 7311SOL    HW222833   1.803   2.003   1.622
 7312SOL     OW22834   1.076   3.449   4.948
 7312SOL    HW122835   1.113   3.531   4.905
 7312SOL    HW222836   1.077   3.373   4.883
 7313SOL     OW22837   2.223   1.008   1.153
 7313SOL    HW122838   2.231   0.911   1.174
 7313SOL    HW222839   2.253   1.062   1.232
 7314SOL     OW22840   6.885   5.189   6.357
 7314SOL    HW122841   6.868   5.145   6.446
 7314SOL    HW222842   6.814   5.256   6.339
 7315SOL     OW22843   6.088   6.230   1.727
 7315SOL    HW122844   6.129   6.261   1.813
 7315SOL    HW222845   6.105   6.298   1.655
 7316SOL     OW22846   3.745   3.700   6.519
 7316SOL    HW122847   3.828   3.676   6.571
 7316SOL    HW222848   3.765   3.777   6.459
 7317SOL     OW22849   4.693   1.343   2.161
 7317SOL    HW122850   4.654   1.368   2.072
 7317SOL    HW222851   4.643   1.265   2.198
 7318SOL     OW22852   2.980   0.415   2.005
 7318SOL    HW122853   2.946   0.325   2.033
 7318SOL    HW222854   3.038   0.452   2.078
 7319SOL     OW22855   6.744   3.062   6.698
 7319SOL    HW122856   6.765   3.109   6.784
 7319SOL    HW222857   6.657   3.094   6.662
 7320SOL     OW22858   0.993   3.910   2.348
 7320SOL    HW122859   0.944   3.997   2.344
 7320SOL    HW222860   0.990   3.874   2.441
 7321SOL     OW22861   1.341   6.856   6.396
 7321SOL    HW122862   1.348   6.777   6.456
 7321SOL    HW222863   1.250   6.896   6.403
 7322SOL     OW22864   6.994   2.821   3.109
 7322SOL    HW122865   6.988   2.915   3.075
 7322SOL    HW222866   0.073   2.791   3.106
 7323SOL     OW22867   2.498   2.830   1.232
 7323SOL    HW122868   2.430   2.846   1.160
 7323SOL    HW222869   2.501   2.909   1.293
 7324SOL     OW22870   5.457   5.838   1.603
 7324SOL    HW122871   5.513   5.913   1.568
 7324SOL    HW222872   5.412   5.866   1.688
 7325SOL     OW22873   2.476   0.667   6.389
 7325SOL    HW122874   2.421   0.750   6.381
 7325SOL    HW222875   2.464   0.628   6.481
 7326SOL     OW22876   2.719   6.431   6.654
 7326SOL    HW122877   2.753   6.505   6.714
 7326SOL    HW222878   2.780   6.422   6.576
 7327SOL     OW22879   6.389   1.537   5.882
 7327SOL    HW122880   6.380   1.631   5.917
 7327SOL    HW222881   6.483   1.523   5.850
 7328SOL     OW22882   3.896   0.538   5.915
 7328SOL    HW122883   3.895   0.611   5.983
 7328SOL    HW222884   3.944   0.459   5.951
 7329SOL     OW22885   1.129   3.614   1.163
 7329SOL    HW122886   1.097   3.585   1.073
 7329SOL    HW222887   1.226   3.640   1.157
 7330SOL     OW22888   1.830   2.858   6.657
 7330SOL    HW122889   1.765   2.926   6.688
 7330SOL    HW222890   1.923   2.886   6.683
 7331SOL     OW22891   5.414   5.922   1.331
 7331SOL    HW122892   5.366   6.009   1.340
 7331SOL    HW222893   5.440   5.889   1.422
 7332SOL     OW22894   3.448   6.146   6.790
 7332SOL    HW122895   3.528   6.205   6.779
 7332SOL    HW222896   3.395   6.176   6.870
 7333SOL     OW22897   6.732   3.174   2.297
 7333SOL    HW122898   6.811   3.230   2.323
 7333SOL    HW222899   6.648   3.227   2.311
 7334SOL     OW22900   2.265   5.780   6.238
 7334SOL    HW122901   2.240   5.875   6.254
 7334SOL    HW222902   2.187   5.732   6.197
 7335SOL     OW22903   0.766   2.969   3.276
 7335SOL    HW122904   0.749   3.029   3.353
 7335SOL    HW222905   0.860   2.935   3.279
 7336SOL     OW22906   1.557   6.709   2.765
 7336SOL    HW122907   1.536   6.712   2.667
 7336SOL    HW222908   1.655   6.725   2.778
 7337SOL     OW22909   0.692   3.005   1.034
 7337SOL    HW122910   0.777   2.961   1.064
 7337SOL    HW222911   0.685   3.096   1.076
 7338SOL     OW22912   4.803   1.598   2.195
 7338SOL    HW122913   4.748   1.515   2.196
 7338SOL    HW222914   4.822   1.625   2.101
 7339SOL     OW22915   6.066   0.770   4.462
 7339SOL    HW122916   6.080   0.676   4.494
 7339SOL    HW222917   6.057   0.831   4.541
 7340SOL     OW22918   3.041   1.237   0.256
 7340SOL    HW122919   3.071   1.210   0.348
 7340SOL    HW222920   3.073   1.169   0.190
 7341SOL     OW22921   0.808   4.325   5.878
 7341SOL    HW122922   0.864   4.401   5.911
 7341SOL    HW222923   0.825   4.311   5.780
 7342SOL     OW22924   6.817   1.057   6.907
 7342SOL    HW122925   6.724   1.066   6.873
 7342SOL    HW222926   6.866   0.988   6.854
 7343SOL     OW22927   6.240   4.446   1.907
 7343SOL    HW122928   6.142   4.464   1.907
 7343SOL    HW222929   6.278   4.470   1.817
 7344SOL     OW22930   0.585   0.739   6.216
 7344SOL    HW122931   0.566   0.755   6.312
 7344SOL    HW222932   0.511   0.778   6.161
 7345SOL     OW22933   4.827   5.022   5.386
 7345SOL    HW122934   4.762   5.010   5.461
 7345SOL    HW222935   4.852   5.119   5.380
 7346SOL     OW22936   4.532   4.984   1.857
 7346SOL    HW122937   4.540   5.074   1.814
 7346SOL    HW222938   4.591   4.919   1.808
 7347SOL     OW22939   0.422   2.443   0.590
 7347SOL    HW122940   0.440   2.371   0.523
 7347SOL    HW222941   0.505   2.460   0.643
 7348SOL     OW22942   1.771   4.043   4.327
 7348SOL    HW122943   1.688   4.086   4.362
 7348SOL    HW222944   1.771   4.046   4.227
 7349SOL     OW22945   4.991   1.814   1.257
 7349SOL    HW122946   5.032   1.727   1.228
 7349SOL    HW222947   5.017   1.834   1.351
 7350SOL     OW22948   1.875   2.861   5.512
 7350SOL    HW122949   1.812   2.910   5.572
 7350SOL    HW222950   1.940   2.926   5.472
 7351SOL     OW22951   5.142   6.659   4.949
 7351SOL    HW122952   5.067   6.722   4.930
 7351SOL    HW222953   5.116   6.567   4.921
 7352SOL     OW22954   1.985   2.005   3.094
 7352SOL    HW122955   1.922   1.937   3.057
 7352SOL    HW222956   1.941   2.055   3.168
 7353SOL     OW22957   0.857   0.629   6.772
 7353SOL    HW122958   0.900   0.659   6.687
 7353SOL    HW222959   0.922   0.574   6.825
 7354SOL     OW22960   0.141   1.686   5.648
 7354SOL    HW122961   0.115   1.634   5.567
 7354SOL    HW222962   0.061   1.732   5.685
 7355SOL     OW22963   2.013   0.543   0.868
 7355SOL    HW122964   1.919   0.519   0.893
 7355SOL    HW222965   2.018   0.641   0.849
 7356SOL     OW22966   4.064   4.212   5.761
 7356SOL    HW122967   4.040   4.212   5.664
 7356SOL    HW222968   4.148   4.159   5.774
 7357SOL     OW22969   4.018   6.621   1.844
 7357SOL    HW122970   4.035   6.589   1.751
 7357SOL    HW222971   4.034   6.720   1.849
 7358SOL     OW22972   6.211   3.369   2.884
 7358SOL    HW122973   6.198   3.461   2.847
 7358SOL    HW222974   6.225   3.304   2.809
 7359SOL     OW22975   2.667   1.557   6.548
 7359SOL    HW122976   2.703   1.477   6.597
 7359SOL    HW222977   2.725   1.636   6.568
 7360SOL     OW22978   2.901   3.782   5.806
 7360SOL    HW122979   2.853   3.840   5.741
 7360SOL    HW222980   2.957   3.714   5.757
 7361SOL     OW22981   4.586   7.010   2.137
 7361SOL    HW122982   4.615   6.914   2.139
 7361SOL    HW222983   4.571   0.025   2.231
 7362SOL     OW22984   1.481   4.777   4.618
 7362SOL    HW122985   1.476   4.876   4.605
 7362SOL    HW222986   1.523   4.735   4.538
 7363SOL     OW22987   4.528   1.787   1.345
 7363SOL    HW122988   4.550   1.816   1.439
 7363SOL    HW222989   4.444   1.733   1.346
 7364SOL     OW22990   4.584   0.685   1.847
 7364SOL    HW122991   4.597   0.771   1.798
 7364SOL    HW222992   4.651   0.678   1.921
 7365SOL     OW22993   0.628   5.553   1.934
 7365SOL    HW122994   0.695   5.523   2.002
 7365SOL    HW222995   0.615   5.480   1.866
 7366SOL     OW22996   2.449   5.734   6.967
 7366SOL    HW122997   2.453   5.649   0.004
 7366SOL    HW222998   2.355   5.748   6.936
 7367SOL     OW22999   4.980   2.374   1.426
 7367SOL    HW123000   5.003   2.304   1.494
 7367SOL    HW223001   4.892   2.353   1.384
 7368SOL     OW23002   3.659   2.936   2.869
 7368SOL    HW123003   3.565   2.901   2.860
 7368SOL    HW223004   3.681   2.947   2.966
 7369SOL     OW23005   4.158   2.710   0.125
 7369SOL    HW123006   4.211   2.792   0.146
 7369SOL    HW223007   4.061   2.734   0.119
 7370SOL     OW23008   2.779   0.443   4.363
 7370SOL    HW123009   2.680   0.438   4.352
 7370SOL    HW223010   2.823   0.417   4.277
 7371SOL     OW23011   1.894   6.597   3.527
 7371SOL    HW123012   1.818   6.651   3.491
 7371SOL    HW223013   1.882   6.501   3.502
 7372SOL     OW23014   4.254   1.088   4.332
 7372SOL    HW123015   4.309   1.171   4.340
 7372SOL    HW223016   4.311   1.013   4.299
 7373SOL     OW23017   6.084   1.694   4.038
 7373SOL    HW123018   6.159   1.667   3.977
 7373SOL    HW223019   6.033   1.612   4.065
 7374SOL     OW23020   2.497   1.708   5.155
 7374SOL    HW123021   2.541   1.791   5.189
 7374SOL    HW223022   2.463   1.654   5.232
 7375SOL     OW23023   2.149   2.524   3.273
 7375SOL    HW123024   2.223   2.591   3.265
 7375SOL    HW223025   2.104   2.514   3.185
 7376SOL     OW23026   2.639   1.074   0.469
 7376SOL    HW123027   2.724   1.118   0.439
 7376SOL    HW223028   2.622   1.096   0.565
 7377SOL     OW23029   5.820   4.488   0.627
 7377SOL    HW123030   5.852   4.580   0.603
 7377SOL    HW223031   5.862   4.422   0.565
 7378SOL     OW23032   0.459   0.929   6.025
 7378SOL    HW123033   0.386   0.940   5.958
 7378SOL    HW223034   0.441   0.987   6.105
 7379SOL     OW23035   2.867   1.812   2.925
 7379SOL    HW123036   2.830   1.777   3.010
 7379SOL    HW223037   2.966   1.793   2.921
 7380SOL     OW23038   6.706   4.394   4.703
 7380SOL    HW123039   6.649   4.437   4.773
 7380SOL    HW223040   6.740   4.464   4.640
 7381SOL     OW23041   4.473   3.818   1.108
 7381SOL    HW123042   4.567   3.792   1.134
 7381SOL    HW223043   4.460   3.916   1.127
 7382SOL     OW23044   7.003   6.497   5.499
 7382SOL    HW123045   6.946   6.415   5.504
 7382SOL    HW223046   0.064   6.488   5.561
 7383SOL     OW23047   1.781   0.159   0.841
 7383SOL    HW123048   1.723   0.227   0.885
 7383SOL    HW223049   1.818   0.097   0.910
 7384SOL     OW23050   6.119   6.835   2.474
 7384SOL    HW123051   6.217   6.825   2.457
 7384SOL    HW223052   6.093   6.930   2.461
 7385SOL     OW23053   3.993   6.054   2.211
 7385SOL    HW123054   3.903   6.013   2.197
 7385SOL    HW223055   4.021   6.041   2.306
 7386SOL     OW23056   0.303   2.081   6.056
 7386SOL    HW123057   0.347   2.170   6.045
 7386SOL    HW223058   0.324   2.044   6.146
 7387SOL     OW23059   5.691   6.641   4.634
 7387SOL    HW123060   5.772   6.589   4.607
 7387SOL    HW223061   5.690   6.653   4.733
 7388SOL     OW23062   0.478   5.239   2.232
 7388SOL    HW123063   0.470   5.234   2.133
 7388SOL    HW223064   0.536   5.164   2.265
 7389SOL     OW23065   6.604   3.761   6.379
 7389SOL    HW123066   6.628   3.696   6.452
 7389SOL    HW223067   6.641   3.729   6.292
 7390SOL     OW23068   1.152   1.782   0.284
 7390SOL    HW123069   1.070   1.829   0.317
 7390SOL    HW223070   1.200   1.841   0.219
 7391SOL     OW23071   4.012   3.810   3.949
 7391SOL    HW123072   3.978   3.893   3.994
 7391SOL    HW223073   4.046   3.746   4.017
 7392SOL     OW23074   2.533   6.473   7.013
 7392SOL    HW123075   2.447   6.515   0.028
 7392SOL    HW223076   2.555   6.507   6.922
 7393SOL     OW23077   6.101   3.954   3.123
 7393SOL    HW123078   6.051   4.038   3.104
 7393SOL    HW223079   6.037   3.879   3.138
 7394SOL     OW23080   2.229   2.896   5.996
 7394SOL    HW123081   2.187   2.923   6.082
 7394SOL    HW223082   2.160   2.853   5.938
 7395SOL     OW23083   1.574   2.985   1.014
 7395SOL    HW123084   1.668   3.012   1.035
 7395SOL    HW223085   1.559   2.991   0.915
 7396SOL     OW23086   1.448   6.709   1.067
 7396SOL    HW123087   1.484   6.774   1.001
 7396SOL    HW223088   1.390   6.642   1.020
 7397SOL     OW23089   4.260   5.012   4.721
 7397SOL    HW123090   4.258   4.919   4.758
 7397SOL    HW223091   4.185   5.065   4.762
 7398SOL     OW23092   2.365   4.758   4.832
 7398SOL    HW123093   2.333   4.664   4.838
 7398SOL    HW223094   2.419   4.769   4.748
 7399SOL     OW23095   1.170   2.870   5.135
 7399SOL    HW123096   1.174   2.773   5.110
 7399SOL    HW223097   1.260   2.912   5.121
 7400SOL     OW23098   4.067   2.284   5.704
 7400SOL    HW123099   4.031   2.258   5.793
 7400SOL    HW223100   4.032   2.374   5.678
 7401SOL     OW23101   1.655   1.934   4.587
 7401SOL    HW123102   1.640   2.031   4.567
 7401SOL    HW223103   1.730   1.924   4.652
 7402SOL     OW23104   3.065   6.204   6.653
 7402SOL    HW123105   3.094   6.132   6.590
 7402SOL    HW223106   3.008   6.270   6.604
 7403SOL     OW23107   2.078   3.725   2.226
 7403SOL    HW123108   2.149   3.655   2.232
 7403SOL    HW223109   2.003   3.693   2.168
 7404SOL     OW23110   2.736   5.325   1.710
 7404SOL    HW123111   2.815   5.321   1.649
 7404SOL    HW223112   2.767   5.314   1.804
 7405SOL     OW23113   3.687   4.950   4.527
 7405SOL    HW123114   3.607   4.952   4.467
 7405SOL    HW223115   3.769   4.934   4.473
 7406SOL     OW23116   0.167   2.570   3.581
 7406SOL    HW123117   0.184   2.491   3.640
 7406SOL    HW223118   0.245   2.632   3.586
 7407SOL     OW23119   0.818   6.930   5.036
 7407SOL    HW123120   0.915   6.941   5.059
 7407SOL    HW223121   0.807   6.935   4.937
 7408SOL     OW23122   3.313   3.913   6.870
 7408SOL    HW123123   3.236   3.852   6.857
 7408SOL    HW223124   3.343   3.950   6.782
 7409SOL     OW23125   5.680   2.390   0.080
 7409SOL    HW123126   5.596   2.429   0.043
 7409SOL    HW223127   5.749   2.385   0.008
 7410SOL     OW23128   0.484   6.727   0.415
 7410SOL    HW123129   0.527   6.674   0.342
 7410SOL    HW223130   0.521   6.700   0.503
 7411SOL     OW23131   2.199   6.981   6.148
 7411SOL    HW123132   2.252   0.043   6.115
 7411SOL    HW223133   2.117   6.971   6.092
 7412SOL     OW23134   5.415   0.662   2.120
 7412SOL    HW123135   5.489   0.708   2.070
 7412SOL    HW223136   5.447   0.573   2.153
 7413SOL     OW23137   5.273   5.867   4.212
 7413SOL    HW123138   5.324   5.818   4.141
 7413SOL    HW223139   5.177   5.842   4.207
 7414SOL     OW23140   0.484   0.597   3.758
 7414SOL    HW123141   0.491   0.555   3.668
 7414SOL    HW223142   0.479   0.697   3.748
 7415SOL     OW23143   1.575   5.012   3.579
 7415SOL    HW123144   1.488   4.972   3.609
 7415SOL    HW223145   1.586   5.102   3.620
 7416SOL     OW23146   2.101   1.242   2.708
 7416SOL    HW123147   2.027   1.294   2.666
 7416SOL    HW223148   2.065   1.182   2.779
 7417SOL     OW23149   1.650   1.612   0.509
 7417SOL    HW123150   1.717   1.683   0.532
 7417SOL    HW223151   1.589   1.598   0.587
 7418SOL     OW23152   2.737   5.962   0.613
 7418SOL    HW123153   2.737   6.012   0.527
 7418SOL    HW223154   2.764   5.867   0.596
 7419SOL     OW23155   6.574   3.010   4.098
 7419SOL    HW123156   6.531   2.920   4.095
 7419SOL    HW223157   6.671   3.002   4.078
 7420SOL     OW23158   0.457   6.870   1.365
 7420SOL    HW123159   0.435   6.958   1.322
 7420SOL    HW223160   0.553   6.869   1.390
 7421SOL     OW23161   4.330   4.606   0.841
 7421SOL    HW123162   4.307   4.524   0.788
 7421SOL    HW223163   4.304   4.687   0.790
 7422SOL     OW23164   0.558   3.858   2.162
 7422SOL    HW123165   0.642   3.821   2.122
 7422SOL    HW223166   0.524   3.796   2.232
 7423SOL     OW23167   5.941   2.534   5.356
 7423SOL    HW123168   5.849   2.511   5.388
 7423SOL    HW223169   5.998   2.451   5.356
 7424SOL     OW23170   6.456   6.402   5.847
 7424SOL    HW123171   6.545   6.409   5.802
 7424SOL    HW223172   6.468   6.364   5.939
 7425SOL     OW23173   3.917   6.020   6.486
 7425SOL    HW123174   3.950   5.945   6.428
 7425SOL    HW223175   3.991   6.053   6.544
 7426SOL     OW23176   3.105   1.503   5.728
 7426SOL    HW123177   3.148   1.552   5.652
 7426SOL    HW223178   3.171   1.438   5.766
 7427SOL     OW23179   4.262   0.817   3.618
 7427SOL    HW123180   4.212   0.737   3.585
 7427SOL    HW223181   4.360   0.798   3.619
 7428SOL     OW23182   4.173   1.879   5.216
 7428SOL    HW123183   4.117   1.961   5.226
 7428SOL    HW223184   4.267   1.898   5.244
 7429SOL     OW23185   0.113   6.507   4.251
 7429SOL    HW123186   0.054   6.587   4.246
 7429SOL    HW223187   0.079   6.444   4.320
 7430SOL     OW23188   1.554   3.571   0.378
 7430SOL    HW123189   1.482   3.561   0.447
 7430SOL    HW223190   1.561   3.486   0.325
 7431SOL     OW23191   1.741   2.985   3.297
 7431SOL    HW123192   1.790   2.897   3.302
 7431SOL    HW223193   1.792   3.054   3.348
 7432SOL     OW23194   0.901   0.988   3.129
 7432SOL    HW123195   0.909   1.078   3.088
 7432SOL    HW223196   0.916   0.995   3.228
 7433SOL     OW23197   4.347   5.985   5.775
 7433SOL    HW123198   4.424   5.986   5.712
 7433SOL    HW223199   4.262   5.980   5.723
 7434SOL     OW23200   4.759   5.935   5.487
 7434SOL    HW123201   4.814   5.910   5.408
 7434SOL    HW223202   4.797   5.892   5.569
 7435SOL     OW23203   3.750   5.767   0.971
 7435SOL    HW123204   3.676   5.714   1.012
 7435SOL    HW223205   3.762   5.738   0.876
 7436SOL     OW23206   4.877   3.949   6.022
 7436SOL    HW123207   4.943   3.967   6.095
 7436SOL    HW223208   4.882   4.024   5.955
 7437SOL     OW23209   1.900   5.805   0.330
 7437SOL    HW123210   1.849   5.741   0.273
 7437SOL    HW223211   1.983   5.832   0.283
 7438SOL     OW23212   1.478   5.918   0.198
 7438SOL    HW123213   1.505   5.862   0.276
 7438SOL    HW223214   1.378   5.926   0.195
 7439SOL     OW23215   1.677   6.456   5.644
 7439SOL    HW123216   1.589   6.417   5.671
 7439SOL    HW223217   1.748   6.423   5.705
 7440SOL     OW23218   0.379   2.641   4.816
 7440SOL    HW123219   0.312   2.566   4.818
 7440SOL    HW223220   0.343   2.716   4.759
 7441SOL     OW23221   5.069   6.477   4.344
 7441SOL    HW123222   5.129   6.411   4.387
 7441SOL    HW223223   5.104   6.570   4.358
 7442SOL     OW23224   6.250   1.229   5.790
 7442SOL    HW123225   6.331   1.206   5.735
 7442SOL    HW223226   6.232   1.327   5.782
 7443SOL     OW23227   6.864   6.199   1.715
 7443SOL    HW123228   6.790   6.132   1.721
 7443SOL    HW223229   6.873   6.246   1.802
 7444SOL     OW23230   5.699   2.165   5.297
 7444SOL    HW123231   5.736   2.125   5.381
 7444SOL    HW223232   5.600   2.150   5.294
 7445SOL     OW23233   4.070   1.021   1.027
 7445SOL    HW123234   4.054   1.079   0.947
 7445SOL    HW223235   4.008   0.942   1.024
 7446SOL     OW23236   5.957   3.459   1.077
 7446SOL    HW123237   5.921   3.396   1.146
 7446SOL    HW223238   5.975   3.409   0.993
 7447SOL     OW23239   6.489   2.936   6.942
 7447SOL    HW123240   6.443   2.951   0.014
 7447SOL    HW223241   6.587   2.949   6.954
 7448SOL     OW23242   6.132   6.822   5.257
 7448SOL    HW123243   6.149   6.865   5.169
 7448SOL    HW223244   6.219   6.802   5.302
 7449SOL     OW23245   0.614   4.306   2.022
 7449SOL    HW123246   0.534   4.358   1.992
 7449SOL    HW223247   0.663   4.271   1.942
 7450SOL     OW23248   5.419   2.314   5.042
 7450SOL    HW123249   5.357   2.349   4.972
 7450SOL    HW223250   5.439   2.218   5.024
 7451SOL     OW23251   6.781   6.106   3.153
 7451SOL    HW123252   6.698   6.149   3.118
 7451SOL    HW223253   6.773   6.006   3.144
 7452SOL     OW23254   6.031   6.589   4.259
 7452SOL    HW123255   5.935   6.617   4.254
 7452SOL    HW223256   6.041   6.500   4.214
 7453SOL     OW23257   4.802   6.349   5.743
 7453SOL    HW123258   4.724   6.302   5.783
 7453SOL    HW223259   4.807   6.328   5.645
 7454SOL     OW23260   1.125   2.248   1.777
 7454SOL    HW123261   1.102   2.332   1.828
 7454SOL    HW223262   1.096   2.257   1.682
 7455SOL     OW23263   6.868   2.833   2.070
 7455SOL    HW123264   6.822   2.920   2.048
 7455SOL    HW223265   6.818   2.758   2.027
 7456SOL     OW23266   1.388   1.037   3.906
 7456SOL    HW123267   1.397   1.113   3.841
 7456SOL    HW223268   1.447   1.054   3.985
 7457SOL     OW23269   3.159   0.391   5.862
 7457SOL    HW123270   3.196   0.480   5.889
 7457SOL    HW223271   3.131   0.340   5.943
 7458SOL     OW23272   1.425   6.409   5.505
 7458SOL    HW123273   1.469   6.323   5.532
 7458SOL    HW223274   1.490   6.464   5.451
 7459SOL     OW23275   4.847   0.268   2.321
 7459SOL    HW123276   4.870   0.313   2.407
 7459SOL    HW223277   4.787   0.190   2.339
 7460SOL     OW23278   1.174   5.039   0.451
 7460SOL    HW123279   1.084   5.022   0.411
 7460SOL    HW223280   1.205   5.130   0.427
 7461SOL     OW23281   5.967   0.658   6.432
 7461SOL    HW123282   6.054   0.664   6.382
 7461SOL    HW223283   5.917   0.577   6.402
 7462SOL     OW23284   1.822   3.979   2.388
 7462SOL    HW123285   1.739   3.925   2.400
 7462SOL    HW223286   1.879   3.971   2.470
 7463SOL     OW23287   3.039   4.955   0.288
 7463SOL    HW123288   3.099   4.995   0.358
 7463SOL    HW223289   3.057   4.857   0.281
 7464SOL     OW23290   5.436   6.869   5.630
 7464SOL    HW123291   5.412   6.965   5.619
 7464SOL    HW223292   5.442   6.825   5.540
 7465SOL     OW23293   1.933   5.393   6.829
 7465SOL    HW123294   1.993   5.426   6.756
 7465SOL    HW223295   1.963   5.432   6.916
 7466SOL     OW23296   0.493   0.768   4.659
 7466SOL    HW123297   0.586   0.804   4.660
 7466SOL    HW223298   0.466   0.743   4.752
 7467SOL     OW23299   0.430   1.425   0.687
 7467SOL    HW123300   0.478   1.339   0.703
 7467SOL    HW223301   0.464   1.494   0.751
 7468SOL     OW23302   5.996   2.992   3.399
 7468SOL    HW123303   5.913   2.949   3.435
 7468SOL    HW223304   6.056   3.018   3.474
 7469SOL     OW23305   6.532   0.607   0.650
 7469SOL    HW123306   6.452   0.666   0.648
 7469SOL    HW223307   6.507   0.516   0.683
 7470SOL     OW23308   6.193   3.704   3.081
 7470SOL    HW123309   6.219   3.795   3.111
 7470SOL    HW223310   6.093   3.697   3.078
 7471SOL     OW23311   5.522   6.762   5.401
 7471SOL    HW123312   5.499   6.827   5.329
 7471SOL    HW223313   5.485   6.672   5.379
 7472SOL     OW23314   6.117   0.263   5.858
 7472SOL    HW123315   6.077   0.209   5.784
 7472SOL    HW223316   6.177   0.334   5.819
 7473SOL     OW23317   5.775   5.738   4.133
 7473SOL    HW123318   5.693   5.771   4.087
 7473SOL    HW223319   5.855   5.752   4.075
 7474SOL     OW23320   0.861   1.612   6.176
 7474SOL    HW123321   0.959   1.619   6.158
 7474SOL    HW223322   0.820   1.704   6.173
 7475SOL     OW23323   4.686   2.452   2.712
 7475SOL    HW123324   4.598   2.404   2.709
 7475SOL    HW223325   4.761   2.386   2.710
 7476SOL     OW23326   3.227   0.412   3.797
 7476SOL    HW123327   3.265   0.461   3.875
 7476SOL    HW223328   3.189   0.477   3.732
 7477SOL     OW23329   0.494   1.354   5.794
 7477SOL    HW123330   0.434   1.276   5.781
 7477SOL    HW223331   0.585   1.323   5.821
 7478SOL     OW23332   5.700   3.951   5.642
 7478SOL    HW123333   5.755   4.010   5.701
 7478SOL    HW223334   5.605   3.953   5.672
 7479SOL     OW23335   4.200   2.244   2.169
 7479SOL    HW123336   4.102   2.249   2.152
 7479SOL    HW223337   4.250   2.287   2.094
 7480SOL     OW23338   1.378   4.447   2.619
 7480SOL    HW123339   1.464   4.403   2.595
 7480SOL    HW223340   1.320   4.454   2.537
 7481SOL     OW23341   5.963   5.723   0.917
 7481SOL    HW123342   5.884   5.742   0.858
 7481SOL    HW223343   6.042   5.700   0.860
 7482SOL     OW23344   4.577   2.575   3.064
 7482SOL    HW123345   4.620   2.528   3.141
 7482SOL    HW223346   4.486   2.538   3.049
 7483SOL     OW23347   4.935   3.142   4.510
 7483SOL    HW123348   4.925   3.141   4.609
 7483SOL    HW223349   4.998   3.216   4.484
 7484SOL     OW23350   1.296   0.045   4.906
 7484SOL    HW123351   1.210   0.095   4.894
 7484SOL    HW223352   1.276   6.965   4.927
 7485SOL     OW23353   3.490   6.835   4.622
 7485SOL    HW123354   3.517   6.923   4.661
 7485SOL    HW223355   3.394   6.840   4.593
 7486SOL     OW23356   1.923   6.274   0.206
 7486SOL    HW123357   2.010   6.268   0.255
 7486SOL    HW223358   1.879   6.184   0.204
 7487SOL     OW23359   1.904   6.948   3.060
 7487SOL    HW123360   1.964   6.901   3.126
 7487SOL    HW223361   1.817   6.970   3.104
 7488SOL     OW23362   2.840   6.205   4.072
 7488SOL    HW123363   2.858   6.107   4.072
 7488SOL    HW223364   2.808   6.233   3.982
 7489SOL     OW23365   6.044   2.420   5.649
 7489SOL    HW123366   6.116   2.485   5.672
 7489SOL    HW223367   5.961   2.443   5.701
 7490SOL     OW23368   1.170   0.042   2.596
 7490SOL    HW123369   1.142   0.049   2.692
 7490SOL    HW223370   1.214   6.969   2.581
 7491SOL     OW23371   5.012   2.816   6.698
 7491SOL    HW123372   5.010   2.757   6.779
 7491SOL    HW223373   5.016   2.912   6.727
 7492SOL     OW23374   1.898   0.130   3.439
 7492SOL    HW123375   1.994   0.152   3.421
 7492SOL    HW223376   1.840   0.208   3.413
 7493SOL     OW23377   0.397   3.267   6.808
 7493SOL    HW123378   0.345   3.286   6.725
 7493SOL    HW223379   0.346   3.300   6.888
 7494SOL     OW23380   5.440   1.860   2.761
 7494SOL    HW123381   5.384   1.792   2.808
 7494SOL    HW223382   5.423   1.950   2.799
 7495SOL     OW23383   1.578   2.019   6.657
 7495SOL    HW123384   1.651   2.058   6.600
 7495SOL    HW223385   1.492   2.065   6.636
 7496SOL     OW23386   6.442   3.388   4.324
 7496SOL    HW123387   6.423   3.486   4.332
 7496SOL    HW223388   6.435   3.345   4.414
 7497SOL     OW23389   2.905   4.500   6.941
 7497SOL    HW123390   2.955   4.425   6.897
 7497SOL    HW223391   2.812   4.471   6.961
 7498SOL     OW23392   3.177   0.643   5.300
 7498SOL    HW123393   3.108   0.685   5.241
 7498SOL    HW223394   3.266   0.685   5.283
 7499SOL     OW23395   3.760   1.083   3.106
 7499SOL    HW123396   3.673   1.035   3.098
 7499SOL    HW223397   3.834   1.021   3.079
 7500SOL     OW23398   3.131   5.548   3.119
 7500SOL    HW123399   3.210   5.498   3.084
 7500SOL    HW223400   3.118   5.632   3.066
 7501SOL     OW23401   5.188   3.762   4.728
 7501SOL    HW123402   5.224   3.670   4.710
 7501SOL    HW223403   5.104   3.754   4.782
 7502SOL     OW23404   3.202   0.708   4.640
 7502SOL    HW123405   3.159   0.619   4.624
 7502SOL    HW223406   3.143   0.780   4.605
 7503SOL     OW23407   1.590   0.106   1.083
 7503SOL    HW123408   1.543   0.194   1.081
 7503SOL    HW223409   1.630   0.091   1.173
 7504SOL     OW23410   0.716   6.345   3.561
 7504SOL    HW123411   0.774   6.264   3.573
 7504SOL    HW223412   0.679   6.346   3.469
 7505SOL     OW23413   1.744   2.939   5.741
 7505SOL    HW123414   1.686   2.980   5.671
 7505SOL    HW223415   1.822   2.999   5.760
 7506SOL     OW23416   4.994   1.632   3.231
 7506SOL    HW123417   5.065   1.603   3.295
 7506SOL    HW223418   4.925   1.560   3.224
 7507SOL     OW23419   0.091   1.647   2.710
 7507SOL    HW123420   0.138   1.686   2.789
 7507SOL    HW223421   0.112   1.549   2.704
 7508SOL     OW23422   1.282   0.021   1.684
 7508SOL    HW123423   1.329   0.051   1.602
 7508SOL    HW223424   1.272   6.937   1.682
 7509SOL     OW23425   5.982   3.971   0.647
 7509SOL    HW123426   6.071   3.954   0.689
 7509SOL    HW223427   5.922   3.893   0.664
 7510SOL     OW23428   3.586   3.213   5.177
 7510SOL    HW123429   3.543   3.293   5.218
 7510SOL    HW223430   3.529   3.181   5.101
 7511SOL     OW23431   2.671   5.933   4.094
 7511SOL    HW123432   2.592   5.891   4.049
 7511SOL    HW223433   2.723   5.863   4.142
 7512SOL     OW23434   2.677   6.712   6.491
 7512SOL    HW123435   2.730   6.679   6.568
 7512SOL    HW223436   2.649   6.635   6.434
 7513SOL     OW23437   1.784   0.808   1.876
 7513SOL    HW123438   1.878   0.778   1.895
 7513SOL    HW223439   1.750   0.763   1.794
 7514SOL     OW23440   2.768   5.541   2.067
 7514SOL    HW123441   2.854   5.499   2.095
 7514SOL    HW223442   2.786   5.612   2.000
 7515SOL     OW23443   6.851   5.429   4.668
 7515SOL    HW123444   6.941   5.391   4.645
 7515SOL    HW223445   6.834   5.511   4.613
 7516SOL     OW23446   6.477   5.992   6.156
 7516SOL    HW123447   6.423   5.992   6.241
 7516SOL    HW223448   6.442   5.923   6.094
 7517SOL     OW23449   0.640   2.022   0.486
 7517SOL    HW123450   0.569   1.969   0.439
 7517SOL    HW223451   0.604   2.057   0.573
 7518SOL     OW23452   4.315   4.693   4.082
 7518SOL    HW123453   4.218   4.675   4.066
 7518SOL    HW223454   4.325   4.758   4.158
 7519SOL     OW23455   0.423   6.549   4.262
 7519SOL    HW123456   0.475   6.507   4.337
 7519SOL    HW223457   0.326   6.547   4.285
 7520SOL     OW23458   2.625   0.044   1.891
 7520SOL    HW123459   2.570   6.999   1.835
 7520SOL    HW223460   2.564   0.101   1.947
 7521SOL     OW23461   4.499   3.030   5.730
 7521SOL    HW123462   4.533   2.937   5.744
 7521SOL    HW223463   4.488   3.046   5.632
 7522SOL     OW23464   1.724   1.477   5.833
 7522SOL    HW123465   1.804   1.463   5.774
 7522SOL    HW223466   1.729   1.567   5.875
 7523SOL     OW23467   5.472   6.979   6.352
 7523SOL    HW123468   5.492   7.014   6.444
 7523SOL    HW223469   5.557   6.946   6.310
 7524SOL     OW23470   1.226   2.619   5.055
 7524SOL    HW123471   1.232   2.645   4.959
 7524SOL    HW223472   1.318   2.611   5.093
 7525SOL     OW23473   3.056   0.776   6.382
 7525SOL    HW123474   2.967   0.742   6.411
 7525SOL    HW223475   3.052   0.801   6.285
 7526SOL     OW23476   3.757   3.408   1.256
 7526SOL    HW123477   3.704   3.413   1.341
 7526SOL    HW223478   3.840   3.353   1.272
 7527SOL     OW23479   2.899   5.656   3.411
 7527SOL    HW123480   2.888   5.688   3.505
 7527SOL    HW223481   2.859   5.565   3.402
 7528SOL     OW23482   6.319   2.109   0.684
 7528SOL    HW123483   6.224   2.129   0.662
 7528SOL    HW223484   6.338   2.134   0.779
 7529SOL     OW23485   5.150   1.561   4.242
 7529SOL    HW123486   5.199   1.566   4.329
 7529SOL    HW223487   5.163   1.470   4.202
 7530SOL     OW23488   0.397   3.030   2.177
 7530SOL    HW123489   0.335   3.034   2.255
 7530SOL    HW223490   0.373   2.953   2.118
 7531SOL     OW23491   5.723   2.876   4.437
 7531SOL    HW123492   5.726   2.776   4.437
 7531SOL    HW223493   5.650   2.907   4.498
 7532SOL     OW23494   4.444   5.994   6.984
 7532SOL    HW123495   4.521   6.057   6.982
 7532SOL    HW223496   4.477   5.900   6.998
 7533SOL     OW23497   3.717   1.310   1.571
 7533SOL    HW123498   3.768   1.295   1.487
 7533SOL    HW223499   3.621   1.328   1.550
 7534SOL     OW23500   3.925   6.397   5.082
 7534SOL    HW123501   3.859   6.368   5.012
 7534SOL    HW223502   3.877   6.407   5.169
 7535SOL     OW23503   1.952   0.576   4.726
 7535SOL    HW123504   2.044   0.612   4.711
 7535SOL    HW223505   1.888   0.618   4.661
 7536SOL     OW23506   5.205   4.750   4.313
 7536SOL    HW123507   5.118   4.798   4.320
 7536SOL    HW223508   5.279   4.817   4.302
 7537SOL     OW23509   2.514   5.777   1.903
 7537SOL    HW123510   2.461   5.859   1.924
 7537SOL    HW223511   2.571   5.795   1.823
 7538SOL     OW23512   2.269   2.425   1.247
 7538SOL    HW123513   2.369   2.430   1.252
 7538SOL    HW223514   2.240   2.447   1.154
 7539SOL     OW23515   1.710   3.793   3.893
 7539SOL    HW123516   1.798   3.751   3.917
 7539SOL    HW223517   1.636   3.741   3.935
 7540SOL     OW23518   3.819   0.653   4.787
 7540SOL    HW123519   3.884   0.644   4.711
 7540SOL    HW223520   3.784   0.747   4.790
 7541SOL     OW23521   0.491   4.326   5.111
 7541SOL    HW123522   0.431   4.269   5.168
 7541SOL    HW223523   0.461   4.321   5.016
 7542SOL     OW23524   1.239   5.114   6.875
 7542SOL    HW123525   1.232   5.214   6.885
 7542SOL    HW223526   1.220   5.089   6.780
 7543SOL     OW23527   3.951   1.192   5.532
 7543SOL    HW123528   3.960   1.094   5.549
 7543SOL    HW223529   4.009   1.242   5.596
 7544SOL     OW23530   6.675   2.332   2.738
 7544SOL    HW123531   6.577   2.352   2.743
 7544SOL    HW223532   6.699   2.265   2.808
 7545SOL     OW23533   0.382   5.325   0.050
 7545SOL    HW123534   0.383   5.227   0.072
 7545SOL    HW223535   0.388   5.337   6.967
 7546SOL     OW23536   3.627   1.911   1.125
 7546SOL    HW123537   3.723   1.933   1.107
 7546SOL    HW223538   3.614   1.893   1.223
 7547SOL     OW23539   5.355   1.576   0.194
 7547SOL    HW123540   5.364   1.625   0.281
 7547SOL    HW223541   5.258   1.575   0.167
 7548SOL     OW23542   4.505   2.430   0.413
 7548SOL    HW123543   4.432   2.489   0.447
 7548SOL    HW223544   4.576   2.420   0.483
 7549SOL     OW23545   2.979   2.607   6.861
 7549SOL    HW123546   2.942   2.526   6.905
 7549SOL    HW223547   2.931   2.622   6.774
 7550SOL     OW23548   2.090   4.757   3.607
 7550SOL    HW123549   2.115   4.706   3.524
 7550SOL    HW223550   2.044   4.842   3.581
 7551SOL     OW23551   5.398   3.130   5.595
 7551SOL    HW123552   5.319   3.124   5.656
 7551SOL    HW223553   5.482   3.132   5.649
 7552SOL     OW23554   1.287   6.004   2.639
 7552SOL    HW123555   1.267   5.949   2.558
 7552SOL    HW223556   1.229   5.974   2.715
 7553SOL     OW23557   4.136   6.540   5.465
 7553SOL    HW123558   4.067   6.568   5.398
 7553SOL    HW223559   4.137   6.604   5.542
 7554SOL     OW23560   5.202   0.938   6.800
 7554SOL    HW123561   5.293   0.964   6.768
 7554SOL    HW223562   5.190   0.969   6.895
 7555SOL     OW23563   2.331   5.009   6.524
 7555SOL    HW123564   2.429   4.996   6.512
 7555SOL    HW223565   2.282   4.927   6.496
 7556SOL     OW23566   2.201   3.057   0.939
 7556SOL    HW123567   2.271   3.072   0.869
 7556SOL    HW223568   2.120   3.112   0.917
 7557SOL     OW23569   5.561   0.517   6.134
 7557SOL    HW123570   5.552   0.437   6.193
 7557SOL    HW223571   5.649   0.561   6.150
 7558SOL     OW23572   2.099   2.491   4.878
 7558SOL    HW123573   2.167   2.465   4.809
 7558SOL    HW223574   2.051   2.573   4.848
 7559SOL     OW23575   4.478   3.637   0.536
 7559SOL    HW123576   4.499   3.621   0.440
 7559SOL    HW223577   4.499   3.732   0.560
 7560SOL     OW23578   4.729   6.675   0.975
 7560SOL    HW123579   4.721   6.743   1.048
 7560SOL    HW223580   4.647   6.619   0.972
 7561SOL     OW23581   0.777   2.933   6.715
 7561SOL    HW123582   0.800   2.860   6.779
 7561SOL    HW223583   0.678   2.948   6.715
 7562SOL     OW23584   0.555   5.591   5.260
 7562SOL    HW123585   0.483   5.639   5.310
 7562SOL    HW223586   0.529   5.495   5.250
 7563SOL     OW23587   3.028   6.857   1.107
 7563SOL    HW123588   3.000   6.779   1.162
 7563SOL    HW223589   2.952   6.885   1.048
 7564SOL     OW23590   3.855   0.211   3.755
 7564SOL    HW123591   3.880   0.218   3.851
 7564SOL    HW223592   3.850   0.115   3.729
 7565SOL     OW23593   5.571   2.874   6.302
 7565SOL    HW123594   5.580   2.948   6.368
 7565SOL    HW223595   5.491   2.890   6.244
 7566SOL     OW23596   6.767   4.769   3.012
 7566SOL    HW123597   6.842   4.725   2.963
 7566SOL    HW223598   6.685   4.771   2.954
 7567SOL     OW23599   1.761   1.721   5.029
 7567SOL    HW123600   1.858   1.746   5.036
 7567SOL    HW223601   1.711   1.759   5.106
 7568SOL     OW23602   5.252   5.262   2.706
 7568SOL    HW123603   5.187   5.190   2.730
 7568SOL    HW223604   5.208   5.329   2.647
 7569SOL     OW23605   3.408   4.841   5.659
 7569SOL    HW123606   3.320   4.819   5.703
 7569SOL    HW223607   3.454   4.756   5.632
 7570SOL     OW23608   5.211   4.292   5.151
 7570SOL    HW123609   5.279   4.273   5.080
 7570SOL    HW223610   5.225   4.385   5.186
 7571SOL     OW23611   4.360   4.613   2.879
 7571SOL    HW123612   4.347   4.514   2.866
 7571SOL    HW223613   4.373   4.657   2.791
 7572SOL     OW23614   4.484   1.093   1.922
 7572SOL    HW123615   4.399   1.040   1.922
 7572SOL    HW223616   4.518   1.100   2.016
 7573SOL     OW23617   0.103   6.936   5.123
 7573SOL    HW123618   0.131   6.959   5.216
 7573SOL    HW223619   0.177   6.959   5.059
 7574SOL     OW23620   4.884   0.618   5.236
 7574SOL    HW123621   4.947   0.667   5.177
 7574SOL    HW223622   4.936   0.560   5.300
 7575SOL     OW23623   5.711   0.780   6.343
 7575SOL    HW123624   5.787   0.760   6.404
 7575SOL    HW223625   5.684   0.876   6.355
 7576SOL     OW23626   5.464   2.817   0.457
 7576SOL    HW123627   5.541   2.833   0.396
 7576SOL    HW223628   5.497   2.809   0.551
 7577SOL     OW23629   0.500   6.716   6.582
 7577SOL    HW123630   0.569   6.706   6.510
 7577SOL    HW223631   0.514   6.644   6.651
 7578SOL     OW23632   3.399   5.214   2.058
 7578SOL    HW123633   3.318   5.158   2.041
 7578SOL    HW223634   3.456   5.215   1.976
 7579SOL     OW23635   0.177   0.661   2.791
 7579SOL    HW123636   0.198   0.655   2.693
 7579SOL    HW223637   0.258   0.635   2.844
 7580SOL     OW23638   0.597   4.204   4.107
 7580SOL    HW123639   0.552   4.122   4.074
 7580SOL    HW223640   0.529   4.277   4.118
 7581SOL     OW23641   0.097   1.867   2.009
 7581SOL    HW123642   0.021   1.916   1.968
 7581SOL    HW223643   0.119   1.907   2.098
 7582SOL     OW23644   3.752   1.209   2.506
 7582SOL    HW123645   3.759   1.248   2.598
 7582SOL    HW223646   3.819   1.134   2.497
 7583SOL     OW23647   5.199   2.445   2.261
 7583SOL    HW123648   5.156   2.534   2.243
 7583SOL    HW223649   5.129   2.376   2.273
 7584SOL     OW23650   3.359   0.619   2.908
 7584SOL    HW123651   3.421   0.588   2.836
 7584SOL    HW223652   3.376   0.567   2.992
 7585SOL     OW23653   1.722   2.660   6.454
 7585SOL    HW123654   1.644   2.717   6.429
 7585SOL    HW223655   1.768   2.699   6.534
 7586SOL     OW23656   2.569   6.786   4.154
 7586SOL    HW123657   2.585   6.729   4.235
 7586SOL    HW223658   2.636   6.762   4.083
 7587SOL     OW23659   2.076   1.951   6.833
 7587SOL    HW123660   2.008   1.888   6.870
 7587SOL    HW223661   2.113   2.007   6.908
 7588SOL     OW23662   1.673   2.497   3.930
 7588SOL    HW123663   1.647   2.510   3.834
 7588SOL    HW223664   1.741   2.424   3.936
 7589SOL     OW23665   0.385   6.951   2.061
 7589SOL    HW123666   0.477   6.925   2.088
 7589SOL    HW223667   0.339   6.994   2.138
 7590SOL     OW23668   3.644   2.357   6.567
 7590SOL    HW123669   3.666   2.315   6.655
 7590SOL    HW223670   3.570   2.423   6.580
 7591SOL     OW23671   6.305   4.080   0.668
 7591SOL    HW123672   6.342   4.147   0.732
 7591SOL    HW223673   6.358   3.995   0.675
 7592SOL     OW23674   6.314   5.897   5.019
 7592SOL    HW123675   6.356   5.806   5.006
 7592SOL    HW223676   6.344   5.957   4.945
 7593SOL     OW23677   6.535   2.791   0.327
 7593SOL    HW123678   6.581   2.831   0.406
 7593SOL    HW223679   6.588   2.713   0.293
 7594SOL     OW23680   1.755   4.642   2.237
 7594SOL    HW123681   1.666   4.688   2.230
 7594SOL    HW223682   1.823   4.706   2.273
 7595SOL     OW23683   6.097   2.861   5.839
 7595SOL    HW123684   6.041   2.942   5.820
 7595SOL    HW223685   6.193   2.888   5.840
 7596SOL     OW23686   3.962   5.941   3.523
 7596SOL    HW123687   4.060   5.957   3.531
 7596SOL    HW223688   3.943   5.843   3.536
 7597SOL     OW23689   1.141   6.533   3.078
 7597SOL    HW123690   1.173   6.496   3.165
 7597SOL    HW223691   1.158   6.631   3.075
 7598SOL     OW23692   6.287   0.859   2.890
 7598SOL    HW123693   6.300   0.925   2.816
 7598SOL    HW223694   6.261   0.771   2.850
 7599SOL     OW23695   5.087   1.991   2.101
 7599SOL    HW123696   5.152   1.984   2.026
 7599SOL    HW223697   5.121   2.055   2.169
 7600SOL     OW23698   1.345   1.550   3.527
 7600SOL    HW123699   1.339   1.634   3.473
 7600SOL    HW223700   1.372   1.474   3.468
 7601SOL     OW23701   2.084   4.652   2.206
 7601SOL    HW123702   2.070   4.646   2.305
 7601SOL    HW223703   2.003   4.692   2.163
 7602SOL     OW23704   2.306   3.994   6.962
 7602SOL    HW123705   2.278   3.966   6.870
 7602SOL    HW223706   2.228   3.990   0.007
 7603SOL     OW23707   1.677   5.788   6.448
 7603SOL    HW123708   1.589   5.822   6.482
 7603SOL    HW223709   1.669   5.763   6.352
 7604SOL     OW23710   1.701   3.289   4.140
 7604SOL    HW123711   1.678   3.382   4.111
 7604SOL    HW223712   1.800   3.276   4.130
 7605SOL     OW23713   0.655   1.336   1.143
 7605SOL    HW123714   0.744   1.363   1.106
 7605SOL    HW223715   0.668   1.273   1.219
 7606SOL     OW23716   5.985   3.681   4.594
 7606SOL    HW123717   5.967   3.582   4.594
 7606SOL    HW223718   5.927   3.726   4.662
 7607SOL     OW23719   3.555   5.050   0.252
 7607SOL    HW123720   3.558   5.149   0.244
 7607SOL    HW223721   3.474   5.015   0.203
 7608SOL     OW23722   4.069   3.892   1.235
 7608SOL    HW123723   4.087   3.797   1.210
 7608SOL    HW223724   4.026   3.896   1.325
 7609SOL     OW23725   1.471   3.011   4.624
 7609SOL    HW123726   1.501   2.932   4.677
 7609SOL    HW223727   1.528   3.020   4.542
 7610SOL     OW23728   4.177   4.454   6.320
 7610SOL    HW123729   4.117   4.490   6.249
 7610SOL    HW223730   4.225   4.373   6.286
 7611SOL     OW23731   5.462   3.911   1.927
 7611SOL    HW123732   5.405   3.876   1.852
 7611SOL    HW223733   5.404   3.935   2.005
 7612SOL     OW23734   4.886   3.284   2.390
 7612SOL    HW123735   4.881   3.196   2.438
 7612SOL    HW223736   4.868   3.270   2.293
 7613SOL     OW23737   0.100   2.327   0.799
 7613SOL    HW123738   0.136   2.236   0.816
 7613SOL    HW223739   0.017   2.341   0.854
 7614SOL     OW23740   5.632   3.200   1.160
 7614SOL    HW123741   5.702   3.205   1.231
 7614SOL    HW223742   5.617   3.291   1.121
 7615SOL     OW23743   3.773   4.882   6.827
 7615SOL    HW123744   3.690   4.931   6.801
 7615SOL    HW223745   3.756   4.827   6.909
 7616SOL     OW23746   6.170   6.394   4.597
 7616SOL    HW123747   6.160   6.302   4.635
 7616SOL    HW223748   6.264   6.427   4.613
 7617SOL     OW23749   3.580   6.030   3.408
 7617SOL    HW123750   3.492   5.987   3.428
 7617SOL    HW223751   3.608   6.087   3.484
 7618SOL     OW23752   6.980   2.519   5.949
 7618SOL    HW123753   6.909   2.589   5.939
 7618SOL    HW223754   6.951   2.436   5.901
 7619SOL     OW23755   6.425   3.235   4.557
 7619SOL    HW123756   6.342   3.199   4.599
 7619SOL    HW223757   6.477   3.287   4.624
 7620SOL     OW23758   4.325   5.648   1.534
 7620SOL    HW123759   4.377   5.607   1.609
 7620SOL    HW223760   4.357   5.742   1.520
 7621SOL     OW23761   6.637   1.054   0.718
 7621SOL    HW123762   6.726   1.061   0.761
 7621SOL    HW223763   6.625   1.130   0.653
 7622SOL     OW23764   3.990   5.084   6.405
 7622SOL    HW123765   4.064   5.122   6.348
 7622SOL    HW223766   3.955   5.001   6.363
 7623SOL     OW23767   5.301   3.383   6.682
 7623SOL    HW123768   5.207   3.409   6.702
 7623SOL    HW223769   5.308   3.352   6.587
 7624SOL     OW23770   6.634   3.807   5.108
 7624SOL    HW123771   6.622   3.721   5.156
 7624SOL    HW223772   6.552   3.826   5.053
 7625SOL     OW23773   4.912   0.720   7.004
 7625SOL    HW123774   4.895   0.776   6.923
 7625SOL    HW223775   4.878   0.768   0.069
 7626SOL     OW23776   6.739   0.202   4.926
 7626SOL    HW123777   6.698   0.130   4.870
 7626SOL    HW223778   6.784   0.269   4.867
 7627SOL     OW23779   4.557   3.306   0.207
 7627SOL    HW123780   4.458   3.306   0.190
 7627SOL    HW223781   4.598   3.225   0.165
 7628SOL     OW23782   3.363   2.799   1.882
 7628SOL    HW123783   3.432   2.758   1.823
 7628SOL    HW223784   3.404   2.828   1.968
 7629SOL     OW23785   0.199   4.774   3.538
 7629SOL    HW123786   0.219   4.698   3.600
 7629SOL    HW223787   0.136   4.743   3.466
 7630SOL     OW23788   0.743   0.417   1.197
 7630SOL    HW123789   0.740   0.428   1.097
 7630SOL    HW223790   0.691   0.491   1.240
 7631SOL     OW23791   0.687   2.150   5.890
 7631SOL    HW123792   0.760   2.196   5.841
 7631SOL    HW223793   0.706   2.052   5.894
 7632SOL     OW23794   4.914   4.143   1.018
 7632SOL    HW123795   4.992   4.101   1.065
 7632SOL    HW223796   4.864   4.201   1.082
 7633SOL     OW23797   5.249   0.308   1.964
 7633SOL    HW123798   5.314   0.355   2.024
 7633SOL    HW223799   5.187   0.253   2.019
 7634SOL     OW23800   1.975   1.536   2.132
 7634SOL    HW123801   1.989   1.528   2.033
 7634SOL    HW223802   2.043   1.481   2.179
 7635SOL     OW23803   3.410   4.927   4.883
 7635SOL    HW123804   3.413   4.995   4.956
 7635SOL    HW223805   3.325   4.938   4.831
 7636SOL     OW23806   1.830   2.784   4.179
 7636SOL    HW123807   1.736   2.769   4.212
 7636SOL    HW223808   1.837   2.876   4.140
 7637SOL     OW23809   2.788   6.502   2.150
 7637SOL    HW123810   2.736   6.583   2.176
 7637SOL    HW223811   2.758   6.424   2.205
 7638SOL     OW23812   2.035   5.809   1.290
 7638SOL    HW123813   2.006   5.851   1.203
 7638SOL    HW223814   1.971   5.736   1.313
 7639SOL     OW23815   0.474   1.833   1.170
 7639SOL    HW123816   0.411   1.891   1.222
 7639SOL    HW223817   0.423   1.777   1.105
 7640SOL     OW23818   2.944   1.748   5.743
 7640SOL    HW123819   2.965   1.658   5.783
 7640SOL    HW223820   2.952   1.818   5.813
 7641SOL     OW23821   1.453   3.750   2.283
 7641SOL    HW123822   1.487   3.800   2.363
 7641SOL    HW223823   1.360   3.719   2.299
 7642SOL     OW23824   3.232   1.545   2.642
 7642SOL    HW123825   3.239   1.490   2.725
 7642SOL    HW223826   3.161   1.614   2.654
 7643SOL     OW23827   5.027   2.328   3.089
 7643SOL    HW123828   5.011   2.409   3.033
 7643SOL    HW223829   4.967   2.329   3.168
 7644SOL     OW23830   4.567   2.463   1.945
 7644SOL    HW123831   4.607   2.442   2.034
 7644SOL    HW223832   4.607   2.547   1.909
 7645SOL     OW23833   5.164   3.702   5.122
 7645SOL    HW123834   5.101   3.646   5.176
 7645SOL    HW223835   5.115   3.782   5.088
 7646SOL     OW23836   1.644   2.696   4.422
 7646SOL    HW123837   1.637   2.641   4.339
 7646SOL    HW223838   1.613   2.641   4.500
 7647SOL     OW23839   0.193   2.371   3.758
 7647SOL    HW123840   0.223   2.276   3.760
 7647SOL    HW223841   0.140   2.391   3.840
 7648SOL     OW23842   2.482   1.521   2.704
 7648SOL    HW123843   2.555   1.587   2.720
 7648SOL    HW223844   2.413   1.561   2.645
 7649SOL     OW23845   1.158   0.661   3.778
 7649SOL    HW123846   1.248   0.695   3.805
 7649SOL    HW223847   1.169   0.586   3.713
 7650SOL     OW23848   5.683   1.190   0.338
 7650SOL    HW123849   5.744   1.226   0.409
 7650SOL    HW223850   5.715   1.099   0.310
 7651SOL     OW23851   2.196   0.283   4.151
 7651SOL    HW123852   2.268   0.252   4.090
 7651SOL    HW223853   2.107   0.253   4.117
 7652SOL     OW23854   5.944   2.881   4.024
 7652SOL    HW123855   5.862   2.855   4.076
 7652SOL    HW223856   5.939   2.841   3.932
 7653SOL     OW23857   0.410   1.838   7.002
 7653SOL    HW123858   0.312   1.833   0.003
 7653SOL    HW223859   0.429   1.909   6.935
 7654SOL     OW23860   4.871   3.154   4.779
 7654SOL    HW123861   4.812   3.076   4.797
 7654SOL    HW223862   4.851   3.227   4.844
 7655SOL     OW23863   4.217   6.625   3.228
 7655SOL    HW123864   4.310   6.652   3.254
 7655SOL    HW223865   4.217   6.528   3.203
 7656SOL     OW23866   4.042   3.829   6.909
 7656SOL    HW123867   4.014   3.878   6.826
 7656SOL    HW223868   4.037   3.891   6.988
 7657SOL     OW23869   1.254   1.927   3.550
 7657SOL    HW123870   1.299   1.896   3.466
 7657SOL    HW223871   1.293   2.014   3.579
 7658SOL     OW23872   2.842   0.371   0.041
 7658SOL    HW123873   2.745   0.394   0.043
 7658SOL    HW223874   2.895   0.450   0.011
 7659SOL     OW23875   5.328   4.315   6.427
 7659SOL    HW123876   5.285   4.226   6.442
 7659SOL    HW223877   5.337   4.331   6.329
 7660SOL     OW23878   0.060   5.719   3.618
 7660SOL    HW123879   0.023   5.628   3.605
 7660SOL    HW223880   0.067   5.766   3.530
 7661SOL     OW23881   5.282   1.912   5.204
 7661SOL    HW123882   5.360   1.872   5.156
 7661SOL    HW223883   5.197   1.873   5.168
 7662SOL     OW23884   1.615   3.346   4.567
 7662SOL    HW123885   1.585   3.294   4.487
 7662SOL    HW223886   1.535   3.376   4.618
 7663SOL     OW23887   6.118   4.208   5.984
 7663SOL    HW123888   6.210   4.171   5.993
 7663SOL    HW223889   6.121   4.292   5.929
 7664SOL     OW23890   4.234   0.980   1.952
 7664SOL    HW123891   4.194   0.926   1.879
 7664SOL    HW223892   4.199   1.073   1.948
 7665SOL     OW23893   6.098   0.910   4.704
 7665SOL    HW123894   6.102   0.843   4.778
 7665SOL    HW223895   6.155   0.989   4.727
 7666SOL     OW23896   0.515   4.848   2.325
 7666SOL    HW123897   0.583   4.907   2.281
 7666SOL    HW223898   0.500   4.766   2.268
 7667SOL     OW23899   4.237   0.250   2.715
 7667SOL    HW123900   4.157   0.308   2.698
 7667SOL    HW223901   4.283   0.231   2.628
 7668SOL     OW23902   3.241   5.107   0.398
 7668SOL    HW123903   3.298   5.152   0.329
 7668SOL    HW223904   3.298   5.049   0.456
 7669SOL     OW23905   4.291   0.878   5.199
 7669SOL    HW123906   4.205   0.836   5.168
 7669SOL    HW223907   4.270   0.950   5.265
 7670SOL     OW23908   0.591   4.325   0.602
 7670SOL    HW123909   0.639   4.297   0.684
 7670SOL    HW223910   0.525   4.397   0.625
 7671SOL     OW23911   3.778   1.482   2.404
 7671SOL    HW123912   3.852   1.511   2.465
 7671SOL    HW223913   3.766   1.383   2.413
 7672SOL     OW23914   6.925   5.889   2.992
 7672SOL    HW123915   6.849   5.926   2.939
 7672SOL    HW223916   7.012   5.922   2.954
 7673SOL     OW23917   1.823   6.184   1.119
 7673SOL    HW123918   1.811   6.254   1.049
 7673SOL    HW223919   1.812   6.225   1.210
 7674SOL     OW23920   4.962   1.468   3.612
 7674SOL    HW123921   4.914   1.383   3.592
 7674SOL    HW223922   4.979   1.474   3.711
 7675SOL     OW23923   6.406   6.802   2.980
 7675SOL    HW123924   6.311   6.770   2.979
 7675SOL    HW223925   6.409   6.899   2.957
 7676SOL     OW23926   2.264   1.748   0.249
 7676SOL    HW123927   2.265   1.706   0.340
 7676SOL    HW223928   2.354   1.789   0.231
 7677SOL     OW23929   0.701   4.376   1.518
 7677SOL    HW123930   0.799   4.391   1.507
 7677SOL    HW223931   0.684   4.281   1.543
 7678SOL     OW23932   2.506   2.716   5.218
 7678SOL    HW123933   2.486   2.803   5.172
 7678SOL    HW223934   2.428   2.654   5.205
 7679SOL     OW23935   3.151   6.721   6.099
 7679SOL    HW123936   3.159   6.649   6.168
 7679SOL    HW223937   3.057   6.725   6.066
 7680SOL     OW23938   1.427   0.333   1.070
 7680SOL    HW123939   1.512   0.386   1.064
 7680SOL    HW223940   1.356   0.389   1.114
 7681SOL     OW23941   2.974   0.762   0.793
 7681SOL    HW123942   2.876   0.782   0.786
 7681SOL    HW223943   3.002   0.763   0.889
 7682SOL     OW23944   3.675   0.134   2.390
 7682SOL    HW123945   3.746   0.115   2.458
 7682SOL    HW223946   3.680   0.230   2.362
 7683SOL     OW23947   6.746   2.485   4.693
 7683SOL    HW123948   6.709   2.544   4.622
 7683SOL    HW223949   6.841   2.462   4.673
 7684SOL     OW23950   4.155   1.813   1.044
 7684SOL    HW123951   4.097   1.735   1.069
 7684SOL    HW223952   4.191   1.856   1.126
 7685SOL     OW23953   2.783   1.369   5.609
 7685SOL    HW123954   2.773   1.366   5.510
 7685SOL    HW223955   2.741   1.453   5.644
 7686SOL     OW23956   0.169   6.473   3.564
 7686SOL    HW123957   0.185   6.491   3.661
 7686SOL    HW223958   0.073   6.488   3.543
 7687SOL     OW23959   6.250   5.405   4.354
 7687SOL    HW123960   6.219   5.419   4.448
 7687SOL    HW223961   6.349   5.388   4.354
 7688SOL     OW23962   0.639   5.967   5.807
 7688SOL    HW123963   0.722   5.923   5.774
 7688SOL    HW223964   0.594   5.907   5.873
 7689SOL     OW23965   6.035   6.629   2.625
 7689SOL    HW123966   6.056   6.721   2.592
 7689SOL    HW223967   6.067   6.562   2.558
 7690SOL     OW23968   5.938   4.680   0.282
 7690SOL    HW123969   5.916   4.691   0.379
 7690SOL    HW223970   5.874   4.735   0.228
 7691SOL     OW23971   4.876   3.918   3.247
 7691SOL    HW123972   4.856   3.888   3.154
 7691SOL    HW223973   4.970   3.896   3.270
 7692SOL     OW23974   0.683   6.095   1.739
 7692SOL    HW123975   0.602   6.052   1.779
 7692SOL    HW223976   0.655   6.179   1.691
 7693SOL     OW23977   3.186   0.194   1.872
 7693SOL    HW123978   3.228   0.103   1.873
 7693SOL    HW223979   3.096   0.190   1.915
 7694SOL     OW23980   5.191   4.029   3.935
 7694SOL    HW123981   5.131   4.082   3.993
 7694SOL    HW223982   5.149   4.018   3.845
 7695SOL     OW23983   4.439   0.096   1.460
 7695SOL    HW123984   4.344   0.063   1.460
 7695SOL    HW223985   4.460   0.136   1.549
 7696SOL     OW23986   0.494   1.452   6.228
 7696SOL    HW123987   0.495   1.521   6.155
 7696SOL    HW223988   0.587   1.422   6.246
 7697SOL     OW23989   2.618   0.021   3.565
 7697SOL    HW123990   2.666   6.985   3.635
 7697SOL    HW223991   2.598   6.977   3.487
 7698SOL     OW23992   5.642   1.690   3.680
 7698SOL    HW123993   5.544   1.702   3.696
 7698SOL    HW223994   5.665   1.593   3.684
 7699SOL     OW23995   3.099   6.275   6.022
 7699SOL    HW123996   3.193   6.292   6.053
 7699SOL    HW223997   3.035   6.302   6.094
 7700SOL     OW23998   4.978   5.628   3.196
 7700SOL    HW123999   4.979   5.591   3.289
 7700SOL    HW224000   4.898   5.593   3.146
 7701SOL     OW24001   6.218   2.413   6.471
 7701SOL    HW124002   6.273   2.457   6.543
 7701SOL    HW224003   6.241   2.453   6.382
 7702SOL     OW24004   4.150   6.215   5.059
 7702SOL    HW124005   4.073   6.188   5.002
 7702SOL    HW224006   4.125   6.294   5.114
 7703SOL     OW24007   5.724   6.216   5.843
 7703SOL    HW124008   5.673   6.281   5.786
 7703SOL    HW224009   5.668   6.135   5.860
 7704SOL     OW24010   5.568   0.461   3.740
 7704SOL    HW124011   5.656   0.499   3.769
 7704SOL    HW224012   5.499   0.533   3.740
 7705SOL     OW24013   2.425   6.380   0.755
 7705SOL    HW124014   2.356   6.310   0.741
 7705SOL    HW224015   2.422   6.412   0.850
 7706SOL     OW24016   3.260   3.504   4.921
 7706SOL    HW124017   3.354   3.516   4.889
 7706SOL    HW224018   3.209   3.589   4.906
 7707SOL     OW24019   0.728   3.939   5.955
 7707SOL    HW124020   0.706   4.026   5.999
 7707SOL    HW224021   0.706   3.944   5.858
 7708SOL     OW24022   0.960   6.608   5.803
 7708SOL    HW124023   1.041   6.550   5.810
 7708SOL    HW224024   0.882   6.561   5.843
 7709SOL     OW24025   6.698   4.402   1.836
 7709SOL    HW124026   6.775   4.354   1.879
 7709SOL    HW224027   6.616   4.345   1.841
 7710SOL     OW24028   3.070   2.410   0.077
 7710SOL    HW124029   3.106   2.351   0.004
 7710SOL    HW224030   3.134   2.410   0.154
 7711SOL     OW24031   5.670   5.959   5.359
 7711SOL    HW124032   5.708   5.904   5.284
 7711SOL    HW224033   5.741   6.020   5.395
 7712SOL     OW24034   6.518   5.224   1.407
 7712SOL    HW124035   6.439   5.163   1.395
 7712SOL    HW224036   6.493   5.317   1.380
 7713SOL     OW24037   1.726   4.623   0.733
 7713SOL    HW124038   1.786   4.695   0.767
 7713SOL    HW224039   1.708   4.637   0.635
 7714SOL     OW24040   0.021   4.450   5.614
 7714SOL    HW124041   0.048   4.502   5.533
 7714SOL    HW224042   0.100   4.437   5.673
 7715SOL     OW24043   2.859   2.582   0.126
 7715SOL    HW124044   2.936   2.519   0.123
 7715SOL    HW224045   2.876   2.660   0.066
 7716SOL     OW24046   6.802   4.453   0.943
 7716SOL    HW124047   6.867   4.490   0.876
 7716SOL    HW224048   6.725   4.516   0.952
 7717SOL     OW24049   1.155   0.970   5.911
 7717SOL    HW124050   1.157   0.988   6.009
 7717SOL    HW224051   1.243   0.931   5.882
 7718SOL     OW24052   6.446   4.056   3.695
 7718SOL    HW124053   6.520   4.005   3.738
 7718SOL    HW224054   6.391   4.101   3.766
 7719SOL     OW24055   0.255   3.910   5.218
 7719SOL    HW124056   0.203   3.830   5.187
 7719SOL    HW224057   0.326   3.931   5.150
 7720SOL     OW24058   6.513   2.714   6.699
 7720SOL    HW124059   6.589   2.704   6.635
 7720SOL    HW224060   6.541   2.775   6.774
 7721SOL     OW24061   0.292   5.271   2.457
 7721SOL    HW124062   0.373   5.260   2.399
 7721SOL    HW224063   0.210   5.247   2.404
 7722SOL     OW24064   1.228   3.838   3.821
 7722SOL    HW124065   1.244   3.800   3.730
 7722SOL    HW224066   1.261   3.932   3.824
 7723SOL     OW24067   4.452   3.363   6.465
 7723SOL    HW124068   4.490   3.448   6.428
 7723SOL    HW224069   4.526   3.306   6.499
 7724SOL     OW24070   2.954   3.830   0.644
 7724SOL    HW124071   2.899   3.798   0.721
 7724SOL    HW224072   2.910   3.910   0.603
 7725SOL     OW24073   5.990   1.370   2.791
 7725SOL    HW124074   6.020   1.276   2.771
 7725SOL    HW224075   5.927   1.401   2.720
 7726SOL     OW24076   2.079   5.146   5.895
 7726SOL    HW124077   2.176   5.173   5.893
 7726SOL    HW224078   2.060   5.084   5.820
 7727SOL     OW24079   6.516   2.756   2.297
 7727SOL    HW124080   6.612   2.783   2.291
 7727SOL    HW224081   6.469   2.781   2.212
 7728SOL     OW24082   2.155   2.869   5.097
 7728SOL    HW124083   2.252   2.895   5.095
 7728SOL    HW224084   2.111   2.915   5.174
 7729SOL     OW24085   6.257   1.871   1.308
 7729SOL    HW124086   6.242   1.825   1.395
 7729SOL    HW224087   6.170   1.897   1.268
 7730SOL     OW24088   6.300   4.819   6.409
 7730SOL    HW124089   6.336   4.893   6.352
 7730SOL    HW224090   6.362   4.803   6.486
 7731SOL     OW24091   5.720   0.930   0.275
 7731SOL    HW124092   5.671   0.850   0.240
 7731SOL    HW224093   5.809   0.937   0.228
 7732SOL     OW24094   4.360   6.885   0.242
 7732SOL    HW124095   4.397   6.893   0.334
 7732SOL    HW224096   4.294   6.810   0.239
 7733SOL     OW24097   5.480   6.060   2.105
 7733SOL    HW124098   5.441   6.090   2.191
 7733SOL    HW224099   5.461   6.128   2.034
 7734SOL     OW24100   1.670   4.888   4.096
 7734SOL    HW124101   1.611   4.966   4.115
 7734SOL    HW224102   1.613   4.809   4.070
 7735SOL     OW24103   4.702   5.940   6.182
 7735SOL    HW124104   4.651   6.016   6.221
 7735SOL    HW224105   4.794   5.936   6.221
 7736SOL     OW24106   2.313   2.851   6.901
 7736SOL    HW124107   2.383   2.780   6.915
 7736SOL    HW224108   2.357   2.934   6.865
 7737SOL     OW24109   3.206   6.823   2.917
 7737SOL    HW124110   3.202   6.861   3.010
 7737SOL    HW224111   3.209   6.898   2.851
 7738SOL     OW24112   3.657   5.294   0.246
 7738SOL    HW124113   3.696   5.258   0.161
 7738SOL    HW224114   3.602   5.375   0.227
 7739SOL     OW24115   0.571   2.698   2.108
 7739SOL    HW124116   0.572   2.645   2.193
 7739SOL    HW224117   0.477   2.722   2.085
 7740SOL     OW24118   3.097   0.758   3.162
 7740SOL    HW124119   3.090   0.857   3.160
 7740SOL    HW224120   3.066   0.721   3.074
 7741SOL     OW24121   0.398   4.702   5.493
 7741SOL    HW124122   0.342   4.650   5.558
 7741SOL    HW224123   0.491   4.666   5.493
 7742SOL     OW24124   4.032   2.130   2.930
 7742SOL    HW124125   3.934   2.122   2.916
 7742SOL    HW224126   4.056   2.093   3.020
 7743SOL     OW24127   4.543   2.107   6.910
 7743SOL    HW124128   4.621   2.153   6.952
 7743SOL    HW224129   4.505   2.165   6.837
 7744SOL     OW24130   0.981   0.734   4.802
 7744SOL    HW124131   0.971   0.807   4.869
 7744SOL    HW224132   0.968   0.646   4.846
 7745SOL     OW24133   3.848   0.986   6.728
 7745SOL    HW124134   3.811   0.897   6.702
 7745SOL    HW224135   3.947   0.980   6.736
 7746SOL     OW24136   0.726   0.676   0.782
 7746SOL    HW124137   0.657   0.688   0.710
 7746SOL    HW224138   0.708   0.740   0.857
 7747SOL     OW24139   5.625   6.605   1.129
 7747SOL    HW124140   5.678   6.531   1.086
 7747SOL    HW224141   5.533   6.606   1.089
 7748SOL     OW24142   3.052   3.910   4.155
 7748SOL    HW124143   3.070   3.946   4.063
 7748SOL    HW224144   2.982   3.838   4.149
 7749SOL     OW24145   3.296   3.185   5.643
 7749SOL    HW124146   3.208   3.191   5.690
 7749SOL    HW224147   3.332   3.092   5.650
 7750SOL     OW24148   0.099   5.778   0.329
 7750SOL    HW124149   0.023   5.764   0.265
 7750SOL    HW224150   0.151   5.858   0.302
 7751SOL     OW24151   1.360   3.078   2.951
 7751SOL    HW124152   1.331   2.988   2.919
 7751SOL    HW224153   1.407   3.126   2.878
 7752SOL     OW24154   5.993   6.506   5.562
 7752SOL    HW124155   5.930   6.580   5.540
 7752SOL    HW224156   6.064   6.501   5.492
 7753SOL     OW24157   2.441   0.310   4.576
 7753SOL    HW124158   2.415   0.273   4.666
 7753SOL    HW224159   2.516   0.376   4.587
 7754SOL     OW24160   4.734   0.031   1.738
 7754SOL    HW124161   4.798   7.012   1.671
 7754SOL    HW224162   4.704   6.973   1.798
 7755SOL     OW24163   1.573   2.065   5.941
 7755SOL    HW124164   1.626   1.982   5.925
 7755SOL    HW224165   1.538   2.099   5.853
 7756SOL     OW24166   3.589   5.244   1.845
 7756SOL    HW124167   3.620   5.314   1.781
 7756SOL    HW224168   3.530   5.179   1.797
 7757SOL     OW24169   6.134   5.589   5.187
 7757SOL    HW124170   6.167   5.544   5.269
 7757SOL    HW224171   6.156   5.687   5.190
 7758SOL     OW24172   1.291   1.765   6.602
 7758SOL    HW124173   1.241   1.741   6.685
 7758SOL    HW224174   1.241   1.835   6.551
 7759SOL     OW24175   1.175   1.696   5.584
 7759SOL    HW124176   1.177   1.615   5.642
 7759SOL    HW224177   1.147   1.670   5.491
 7760SOL     OW24178   5.429   3.645   2.726
 7760SOL    HW124179   5.373   3.581   2.674
 7760SOL    HW224180   5.483   3.595   2.794
 7761SOL     OW24181   0.974   0.113   6.177
 7761SOL    HW124182   0.895   0.104   6.117
 7761SOL    HW224183   1.032   0.032   6.169
 7762SOL     OW24184   4.394   0.515   4.365
 7762SOL    HW124185   4.402   0.614   4.359
 7762SOL    HW224186   4.424   0.474   4.279
 7763SOL     OW24187   1.141   1.434   0.321
 7763SOL    HW124188   1.207   1.509   0.315
 7763SOL    HW224189   1.174   1.365   0.386
 7764SOL     OW24190   3.618   3.026   3.366
 7764SOL    HW124191   3.682   2.978   3.425
 7764SOL    HW224192   3.600   3.117   3.402
 7765SOL     OW24193   6.184   2.648   4.006
 7765SOL    HW124194   6.168   2.717   4.077
 7765SOL    HW224195   6.210   2.562   4.049
 7766SOL     OW24196   6.185   2.620   6.913
 7766SOL    HW124197   6.233   2.642   6.827
 7766SOL    HW224198   6.252   2.617   6.987
 7767SOL     OW24199   4.180   5.946   3.237
 7767SOL    HW124200   4.154   5.857   3.200
 7767SOL    HW224201   4.199   6.009   3.162
 7768SOL     OW24202   4.374   4.846   2.400
 7768SOL    HW124203   4.332   4.927   2.359
 7768SOL    HW224204   4.418   4.792   2.329
 7769SOL     OW24205   4.960   3.029   2.708
 7769SOL    HW124206   5.032   3.022   2.639
 7769SOL    HW224207   4.932   2.938   2.736
 7770SOL     OW24208   1.770   4.161   2.118
 7770SOL    HW124209   1.796   4.065   2.130
 7770SOL    HW224210   1.689   4.181   2.173
 7771SOL     OW24211   3.411   2.228   5.276
 7771SOL    HW124212   3.337   2.280   5.233
 7771SOL    HW224213   3.415   2.249   5.373
 7772SOL     OW24214   5.195   0.514   2.420
 7772SOL    HW124215   5.154   0.428   2.449
 7772SOL    HW224216   5.123   0.578   2.392
 7773SOL     OW24217   2.438   5.711   4.485
 7773SOL    HW124218   2.430   5.628   4.541
 7773SOL    HW224219   2.441   5.685   4.388
 7774SOL     OW24220   5.336   1.997   6.107
 7774SOL    HW124221   5.379   2.074   6.060
 7774SOL    HW224222   5.361   1.912   6.061
 7775SOL     OW24223   4.965   6.410   2.041
 7775SOL    HW124224   4.904   6.358   1.982
 7775SOL    HW224225   4.945   6.389   2.137
 7776SOL     OW24226   1.909   4.885   6.819
 7776SOL    HW124227   1.988   4.890   6.757
 7776SOL    HW224228   1.899   4.973   6.866
 7777SOL     OW24229   1.282   0.363   4.780
 7777SOL    HW124230   1.369   0.319   4.806
 7777SOL    HW224231   1.287   0.394   4.685
 7778SOL     OW24232   5.282   4.079   0.901
 7778SOL    HW124233   5.323   4.154   0.954
 7778SOL    HW224234   5.302   4.092   0.804
 7779SOL     OW24235   2.929   2.623   1.459
 7779SOL    HW124236   2.994   2.653   1.390
 7779SOL    HW224237   2.836   2.633   1.424
 7780SOL     OW24238   1.048   4.891   5.487
 7780SOL    HW124239   1.069   4.811   5.431
 7780SOL    HW224240   0.958   4.880   5.528
 7781SOL     OW24241   1.280   4.748   0.455
 7781SOL    HW124242   1.369   4.795   0.457
 7781SOL    HW224243   1.207   4.816   0.454
 7782SOL     OW24244   6.528   4.578   4.833
 7782SOL    HW124245   6.481   4.660   4.865
 7782SOL    HW224246   6.619   4.572   4.875
 7783SOL     OW24247   0.480   5.885   5.024
 7783SOL    HW124248   0.535   5.951   4.972
 7783SOL    HW224249   0.535   5.848   5.098
 7784SOL     OW24250   3.130   2.732   1.305
 7784SOL    HW124251   3.139   2.646   1.255
 7784SOL    HW224252   3.182   2.727   1.390
 7785SOL     OW24253   1.626   5.751   4.106
 7785SOL    HW124254   1.637   5.832   4.049
 7785SOL    HW224255   1.530   5.724   4.108
 7786SOL     OW24256   3.139   6.579   0.156
 7786SOL    HW124257   3.064   6.638   0.127
 7786SOL    HW224258   3.198   6.629   0.220
 7787SOL     OW24259   2.221   2.566   6.558
 7787SOL    HW124260   2.146   2.553   6.622
 7787SOL    HW224261   2.228   2.663   6.534
 7788SOL     OW24262   2.315   5.570   1.551
 7788SOL    HW124263   2.387   5.535   1.612
 7788SOL    HW224264   2.325   5.669   1.542
 7789SOL     OW24265   2.013   6.700   6.205
 7789SOL    HW124266   1.958   6.673   6.285
 7789SOL    HW224267   2.060   6.786   6.224
 7790SOL     OW24268   5.807   5.334   3.698
 7790SOL    HW124269   5.768   5.426   3.707
 7790SOL    HW224270   5.807   5.307   3.602
 7791SOL     OW24271   1.925   5.817   3.531
 7791SOL    HW124272   1.945   5.914   3.540
 7791SOL    HW224273   2.012   5.766   3.529
 7792SOL     OW24274   1.341   5.026   4.751
 7792SOL    HW124275   1.396   5.083   4.812
 7792SOL    HW224276   1.287   4.961   4.806
 7793SOL     OW24277   3.661   1.102   0.262
 7793SOL    HW124278   3.721   1.030   0.298
 7793SOL    HW224279   3.699   1.136   0.175
 7794SOL     OW24280   6.229   4.745   3.005
 7794SOL    HW124281   6.314   4.786   3.039
 7794SOL    HW224282   6.242   4.646   2.994
 7795SOL     OW24283   1.707   4.076   5.396
 7795SOL    HW124284   1.798   4.045   5.422
 7795SOL    HW224285   1.698   4.075   5.296
 7796SOL     OW24286   3.997   3.801   3.373
 7796SOL    HW124287   4.018   3.899   3.380
 7796SOL    HW224288   3.961   3.768   3.460
 7797SOL     OW24289   1.139   6.822   3.163
 7797SOL    HW124290   1.207   6.893   3.145
 7797SOL    HW224291   1.164   6.773   3.246
 7798SOL     OW24292   2.249   4.044   5.371
 7798SOL    HW124293   2.181   3.974   5.392
 7798SOL    HW224294   2.311   4.010   5.299
 7799SOL     OW24295   0.791   6.189   2.561
 7799SOL    HW124296   0.827   6.108   2.515
 7799SOL    HW224297   0.814   6.271   2.508
 7800SOL     OW24298   0.620   5.436   1.341
 7800SOL    HW124299   0.693   5.393   1.288
 7800SOL    HW224300   0.596   5.524   1.299
 7801SOL     OW24301   2.113   1.801   1.635
 7801SOL    HW124302   2.114   1.894   1.596
 7801SOL    HW224303   2.019   1.771   1.647
 7802SOL     OW24304   5.877   2.499   0.898
 7802SOL    HW124305   5.905   2.523   0.805
 7802SOL    HW224306   5.815   2.421   0.895
 7803SOL     OW24307   4.808   1.936   6.056
 7803SOL    HW124308   4.744   1.862   6.078
 7803SOL    HW224309   4.836   1.981   6.140
 7804SOL     OW24310   4.663   2.161   3.588
 7804SOL    HW124311   4.642   2.163   3.490
 7804SOL    HW224312   4.579   2.146   3.640
 7805SOL     OW24313   5.432   2.426   1.184
 7805SOL    HW124314   5.464   2.519   1.169
 7805SOL    HW224315   5.378   2.422   1.268
 7806SOL     OW24316   5.393   1.802   6.470
 7806SOL    HW124317   5.377   1.894   6.505
 7806SOL    HW224318   5.322   1.779   6.403
 7807SOL     OW24319   1.353   4.671   5.373
 7807SOL    HW124320   1.397   4.718   5.450
 7807SOL    HW224321   1.387   4.709   5.287
 7808SOL     OW24322   6.597   3.279   3.794
 7808SOL    HW124323   6.521   3.238   3.845
 7808SOL    HW224324   6.663   3.207   3.769
 7809SOL     OW24325   2.145   5.277   3.832
 7809SOL    HW124326   2.154   5.307   3.737
 7809SOL    HW224327   2.196   5.339   3.892
 7810SOL     OW24328   3.796   0.261   4.477
 7810SOL    HW124329   3.709   0.300   4.446
 7810SOL    HW224330   3.808   0.280   4.574
 7811SOL     OW24331   1.746   5.414   2.125
 7811SOL    HW124332   1.699   5.371   2.202
 7811SOL    HW224333   1.845   5.409   2.139
 7812SOL     OW24334   0.379   1.593   3.867
 7812SOL    HW124335   0.448   1.579   3.938
 7812SOL    HW224336   0.298   1.635   3.907
 7813SOL     OW24337   5.257   2.633   0.010
 7813SOL    HW124338   5.279   2.611   6.932
 7813SOL    HW224339   5.225   2.551   0.057
 7814SOL     OW24340   0.284   3.077   3.133
 7814SOL    HW124341   0.247   3.146   3.195
 7814SOL    HW224342   0.236   3.082   3.045
 7815SOL     OW24343   5.404   0.132   5.570
 7815SOL    HW124344   5.333   0.197   5.598
 7815SOL    HW224345   5.494   0.172   5.586
 7816SOL     OW24346   1.723   2.449   6.272
 7816SOL    HW124347   1.706   2.510   6.350
 7816SOL    HW224348   1.783   2.495   6.207
 7817SOL     OW24349   5.533   4.916   2.998
 7817SOL    HW124350   5.510   4.837   3.054
 7817SOL    HW224351   5.520   4.894   2.902
 7818SOL     OW24352   4.394   0.579   2.543
 7818SOL    HW124353   4.469   0.558   2.606
 7818SOL    HW224354   4.404   0.673   2.509
 7819SOL     OW24355   0.343   3.838   1.655
 7819SOL    HW124356   0.431   3.865   1.617
 7819SOL    HW224357   0.356   3.801   1.747
 7820SOL     OW24358   1.812   2.139   5.993
 7820SOL    HW124359   1.826   2.163   6.089
 7820SOL    HW224360   1.717   2.158   5.968
 7821SOL     OW24361   5.373   5.919   0.188
 7821SOL    HW124362   5.340   5.827   0.210
 7821SOL    HW224363   5.378   5.929   0.088
 7822SOL     OW24364   2.124   1.757   6.465
 7822SOL    HW124365   2.090   1.666   6.489
 7822SOL    HW224366   2.140   1.809   6.549
 7823SOL     OW24367   2.513   3.822   5.370
 7823SOL    HW124368   2.597   3.774   5.346
 7823SOL    HW224369   2.492   3.890   5.299
 7824SOL     OW24370   6.758   0.680   4.153
 7824SOL    HW124371   6.673   0.713   4.111
 7824SOL    HW224372   6.836   0.724   4.108
 7825SOL     OW24373   2.197   2.808   1.374
 7825SOL    HW124374   2.230   2.713   1.376
 7825SOL    HW224375   2.208   2.845   1.282
 7826SOL     OW24376   6.559   1.620   0.768
 7826SOL    HW124377   6.500   1.603   0.847
 7826SOL    HW224378   6.545   1.714   0.736
 7827SOL     OW24379   2.562   5.853   0.987
 7827SOL    HW124380   2.564   5.884   1.082
 7827SOL    HW224381   2.487   5.898   0.939
 7828SOL     OW24382   1.112   4.270   6.884
 7828SOL    HW124383   1.062   4.184   6.874
 7828SOL    HW224384   1.205   4.251   6.913
 7829SOL     OW24385   2.944   4.120   0.965
 7829SOL    HW124386   2.919   4.043   1.024
 7829SOL    HW224387   2.996   4.086   0.886
 7830SOL     OW24388   2.384   4.643   5.501
 7830SOL    HW124389   2.338   4.657   5.413
 7830SOL    HW224390   2.404   4.546   5.512
 7831SOL     OW24391   2.031   6.473   0.897
 7831SOL    HW124392   2.030   6.525   0.812
 7831SOL    HW224393   1.938   6.442   0.919
 7832SOL     OW24394   5.029   0.770   3.081
 7832SOL    HW124395   5.012   0.862   3.046
 7832SOL    HW224396   5.112   0.734   3.039
 7833SOL     OW24397   0.952   1.165   6.697
 7833SOL    HW124398   0.892   1.241   6.670
 7833SOL    HW224399   0.974   1.174   6.795
 7834SOL     OW24400   6.855   1.646   3.264
 7834SOL    HW124401   6.915   1.688   3.196
 7834SOL    HW224402   6.772   1.701   3.275
 7835SOL     OW24403   3.688   2.279   6.110
 7835SOL    HW124404   3.727   2.371   6.106
 7835SOL    HW224405   3.680   2.250   6.206
 7836SOL     OW24406   3.299   2.843   4.954
 7836SOL    HW124407   3.386   2.828   4.906
 7836SOL    HW224408   3.233   2.773   4.926
 7837SOL     OW24409   6.262   5.457   0.200
 7837SOL    HW124410   6.186   5.513   0.169
 7837SOL    HW224411   6.344   5.514   0.206
 7838SOL     OW24412   4.075   6.756   0.236
 7838SOL    HW124413   4.100   6.678   0.295
 7838SOL    HW224414   4.055   6.836   0.292
 7839SOL     OW24415   6.074   4.321   5.101
 7839SOL    HW124416   6.028   4.403   5.134
 7839SOL    HW224417   6.141   4.345   5.032
 7840SOL     OW24418   6.547   2.515   4.183
 7840SOL    HW124419   6.540   2.465   4.096
 7840SOL    HW224420   6.609   2.465   4.244
 7841SOL     OW24421   3.601   1.952   6.463
 7841SOL    HW124422   3.654   1.893   6.524
 7841SOL    HW224423   3.583   1.904   6.377
 7842SOL     OW24424   2.256   2.209   2.853
 7842SOL    HW124425   2.251   2.178   2.948
 7842SOL    HW224426   2.208   2.144   2.794
 7843SOL     OW24427   6.866   5.633   3.061
 7843SOL    HW124428   6.885   5.723   3.020
 7843SOL    HW224429   6.930   5.616   3.136
 7844SOL     OW24430   3.835   6.747   2.803
 7844SOL    HW124431   3.917   6.803   2.818
 7844SOL    HW224432   3.755   6.795   2.837
 7845SOL     OW24433   5.703   2.006   3.150
 7845SOL    HW124434   5.673   1.911   3.152
 7845SOL    HW224435   5.690   2.048   3.240
 7846SOL     OW24436   0.758   1.367   2.100
 7846SOL    HW124437   0.825   1.332   2.034
 7846SOL    HW224438   0.682   1.409   2.051
 7847SOL     OW24439   0.018   1.663   3.044
 7847SOL    HW124440   0.112   1.695   3.035
 7847SOL    HW224441   6.972   1.732   3.009
 7848SOL     OW24442   3.822   3.543   0.672
 7848SOL    HW124443   3.828   3.552   0.771
 7848SOL    HW224444   3.759   3.469   0.648
 7849SOL     OW24445   5.805   4.221   4.142
 7849SOL    HW124446   5.769   4.128   4.148
 7849SOL    HW224447   5.767   4.267   4.062
 7850SOL     OW24448   0.596   2.005   4.814
 7850SOL    HW124449   0.512   2.003   4.760
 7850SOL    HW224450   0.586   2.072   4.888
 7851SOL     OW24451   6.731   1.183   1.516
 7851SOL    HW124452   6.678   1.184   1.431
 7851SOL    HW224453   6.828   1.194   1.495
 7852SOL     OW24454   2.641   1.516   6.274
 7852SOL    HW124455   2.685   1.553   6.356
 7852SOL    HW224456   2.545   1.496   6.294
 7853SOL     OW24457   5.018   2.176   1.599
 7853SOL    HW124458   4.954   2.175   1.676
 7853SOL    HW224459   5.112   2.181   1.634
 7854SOL     OW24460   3.734   3.161   0.167
 7854SOL    HW124461   3.717   3.234   0.233
 7854SOL    HW224462   3.688   3.182   0.081
 7855SOL     OW24463   4.775   6.047   4.098
 7855SOL    HW124464   4.845   6.071   4.165
 7855SOL    HW224465   4.819   6.026   4.010
 7856SOL     OW24466   6.711   4.693   5.437
 7856SOL    HW124467   6.765   4.679   5.354
 7856SOL    HW224468   6.646   4.617   5.446
 7857SOL     OW24469   5.530   1.876   5.810
 7857SOL    HW124470   5.621   1.847   5.781
 7857SOL    HW224471   5.474   1.897   5.730
 7858SOL     OW24472   5.898   6.574   3.921
 7858SOL    HW124473   5.945   6.524   3.995
 7858SOL    HW224474   5.824   6.518   3.885
 7859SOL     OW24475   4.552   2.856   6.376
 7859SOL    HW124476   4.510   2.912   6.305
 7859SOL    HW224477   4.560   2.761   6.344
 7860SOL     OW24478   3.289   0.233   3.190
 7860SOL    HW124479   3.235   0.222   3.106
 7860SOL    HW224480   3.303   0.144   3.232
 7861SOL     OW24481   3.743   4.926   1.814
 7861SOL    HW124482   3.685   4.884   1.884
 7861SOL    HW224483   3.828   4.958   1.856
 7862SOL     OW24484   1.890   4.318   1.590
 7862SOL    HW124485   1.936   4.261   1.658
 7862SOL    HW224486   1.800   4.345   1.625
 7863SOL     OW24487   0.352   5.016   3.982
 7863SOL    HW124488   0.447   5.017   4.014
 7863SOL    HW224489   0.333   5.099   3.930
 7864SOL     OW24490   0.196   5.690   5.577
 7864SOL    HW124491   0.114   5.740   5.602
 7864SOL    HW224492   0.239   5.651   5.659
 7865SOL     OW24493   6.062   0.063   3.798
 7865SOL    HW124494   6.057   0.025   3.705
 7865SOL    HW224495   6.145   0.031   3.843
 7866SOL     OW24496   1.697   1.269   6.273
 7866SOL    HW124497   1.662   1.198   6.335
 7866SOL    HW224498   1.634   1.280   6.196
 7867SOL     OW24499   6.163   6.175   3.937
 7867SOL    HW124500   6.182   6.078   3.922
 7867SOL    HW224501   6.168   6.224   3.850
 7868SOL     OW24502   5.071   6.099   1.562
 7868SOL    HW124503   5.083   6.078   1.659
 7868SOL    HW224504   4.980   6.140   1.548
 7869SOL     OW24505   6.172   3.774   0.457
 7869SOL    HW124506   6.149   3.696   0.398
 7869SOL    HW224507   6.166   3.859   0.405
 7870SOL     OW24508   4.343   4.846   4.296
 7870SOL    HW124509   4.375   4.770   4.353
 7870SOL    HW224510   4.334   4.928   4.351
 7871SOL     OW24511   4.616   2.582   2.376
 7871SOL    HW124512   4.520   2.557   2.373
 7871SOL    HW224513   4.667   2.514   2.429
 7872SOL     OW24514   2.028   4.046   3.217
 7872SOL    HW124515   2.021   3.992   3.133
 7872SOL    HW224516   2.107   4.014   3.269
 7873SOL     OW24517   5.443   6.846   6.108
 7873SOL    HW124518   5.420   6.895   6.191
 7873SOL    HW224519   5.362   6.801   6.071
 7874SOL     OW24520   5.307   1.812   6.809
 7874SOL    HW124521   5.347   1.898   6.841
 7874SOL    HW224522   5.372   1.766   6.749
 7875SOL     OW24523   4.591   2.981   6.613
 7875SOL    HW124524   4.563   2.936   6.528
 7875SOL    HW224525   4.510   3.002   6.668
 7876SOL     OW24526   1.182   0.115   4.508
 7876SOL    HW124527   1.120   0.036   4.510
 7876SOL    HW224528   1.190   0.154   4.600
 7877SOL     OW24529   0.727   2.235   2.905
 7877SOL    HW124530   0.639   2.189   2.898
 7877SOL    HW224531   0.793   2.191   2.845
 7878SOL     OW24532   5.874   4.490   4.503
 7878SOL    HW124533   5.859   4.575   4.452
 7878SOL    HW224534   5.871   4.509   4.601
 7879SOL     OW24535   4.111   5.091   3.219
 7879SOL    HW124536   4.175   5.022   3.252
 7879SOL    HW224537   4.113   5.170   3.280
 7880SOL     OW24538   2.014   5.560   0.765
 7880SOL    HW124539   1.926   5.519   0.789
 7880SOL    HW224540   2.080   5.542   0.837
 7881SOL     OW24541   6.487   4.762   4.417
 7881SOL    HW124542   6.444   4.712   4.493
 7881SOL    HW224543   6.442   4.736   4.331
 7882SOL     OW24544   1.391   3.084   1.679
 7882SOL    HW124545   1.333   3.033   1.742
 7882SOL    HW224546   1.484   3.049   1.683
 7883SOL     OW24547   0.963   0.611   1.012
 7883SOL    HW124548   0.945   0.707   1.036
 7883SOL    HW224549   0.876   0.565   0.991
 7884SOL     OW24550   2.061   3.710   4.596
 7884SOL    HW124551   2.081   3.776   4.523
 7884SOL    HW224552   2.101   3.622   4.573
 7885SOL     OW24553   6.438   5.497   1.446
 7885SOL    HW124554   6.499   5.490   1.525
 7885SOL    HW224555   6.343   5.492   1.476
 7886SOL     OW24556   3.093   5.378   6.536
 7886SOL    HW124557   3.151   5.309   6.494
 7886SOL    HW224558   3.086   5.362   6.635
 7887SOL     OW24559   3.774   2.741   5.357
 7887SOL    HW124560   3.710   2.817   5.344
 7887SOL    HW224561   3.722   2.657   5.375
 7888SOL     OW24562   6.386   0.031   5.268
 7888SOL    HW124563   6.420   0.010   5.177
 7888SOL    HW224564   6.387   6.964   5.324
 7889SOL     OW24565   1.601   5.183   0.790
 7889SOL    HW124566   1.522   5.174   0.851
 7889SOL    HW224567   1.661   5.103   0.801
 7890SOL     OW24568   1.334   2.426   3.369
 7890SOL    HW124569   1.403   2.364   3.407
 7890SOL    HW224570   1.377   2.514   3.349
 7891SOL     OW24571   1.982   3.715   3.879
 7891SOL    HW124572   2.026   3.627   3.890
 7891SOL    HW224573   2.007   3.755   3.790
 7892SOL     OW24574   1.859   0.731   3.691
 7892SOL    HW124575   1.904   0.723   3.780
 7892SOL    HW224576   1.764   0.701   3.699
 7893SOL     OW24577   6.560   6.218   3.004
 7893SOL    HW124578   6.485   6.153   2.996
 7893SOL    HW224579   6.536   6.303   2.957
 7894SOL     OW24580   3.768   6.742   0.438
 7894SOL    HW124581   3.702   6.804   0.396
 7894SOL    HW224582   3.807   6.785   0.519
 7895SOL     OW24583   5.620   0.654   5.022
 7895SOL    HW124584   5.602   0.685   5.115
 7895SOL    HW224585   5.710   0.687   4.992
 7896SOL     OW24586   5.055   3.409   0.612
 7896SOL    HW124587   5.102   3.377   0.694
 7896SOL    HW224588   5.081   3.351   0.534
 7897SOL     OW24589   2.893   3.819   0.022
 7897SOL    HW124590   2.950   3.848   0.099
 7897SOL    HW224591   2.814   3.880   0.013
 7898SOL     OW24592   4.082   2.253   3.473
 7898SOL    HW124593   4.045   2.208   3.555
 7898SOL    HW224594   4.174   2.286   3.492
 7899SOL     OW24595   5.709   0.834   1.435
 7899SOL    HW124596   5.787   0.836   1.498
 7899SOL    HW224597   5.723   0.901   1.362
 7900SOL     OW24598   1.800   5.061   1.903
 7900SOL    HW124599   1.717   5.029   1.949
 7900SOL    HW224600   1.779   5.080   1.807
 7901SOL     OW24601   5.216   1.298   6.433
 7901SOL    HW124602   5.153   1.373   6.415
 7901SOL    HW224603   5.244   1.300   6.529
 7902SOL     OW24604   5.606   6.928   1.126
 7902SOL    HW124605   5.599   6.959   1.032
 7902SOL    HW224606   5.594   6.828   1.130
 7903SOL     OW24607   5.735   1.665   0.643
 7903SOL    HW124608   5.713   1.684   0.547
 7903SOL    HW224609   5.792   1.738   0.679
 7904SOL     OW24610   5.537   0.294   3.445
 7904SOL    HW124611   5.546   0.375   3.387
 7904SOL    HW224612   5.617   0.286   3.504
 7905SOL     OW24613   4.647   2.524   6.733
 7905SOL    HW124614   4.704   2.602   6.708
 7905SOL    HW224615   4.561   2.528   6.682
 7906SOL     OW24616   6.987   5.214   0.471
 7906SOL    HW124617   0.032   5.247   0.543
 7906SOL    HW224618   7.015   5.253   0.383
 7907SOL     OW24619   5.420   2.688   3.099
 7907SOL    HW124620   5.472   2.658   3.018
 7907SOL    HW224621   5.327   2.712   3.072
 7908SOL     OW24622   0.981   1.284   5.789
 7908SOL    HW124623   1.037   1.294   5.871
 7908SOL    HW224624   0.960   1.188   5.774
 7909SOL     OW24625   5.170   4.274   4.432
 7909SOL    HW124626   5.214   4.281   4.343
 7909SOL    HW224627   5.104   4.198   4.430
 7910SOL     OW24628   2.749   3.421   5.740
 7910SOL    HW124629   2.733   3.325   5.718
 7910SOL    HW224630   2.773   3.429   5.837
 7911SOL     OW24631   1.870   3.300   0.276
 7911SOL    HW124632   1.859   3.213   0.229
 7911SOL    HW224633   1.903   3.284   0.369
 7912SOL     OW24634   6.732   4.967   0.271
 7912SOL    HW124635   6.768   4.979   0.363
 7912SOL    HW224636   6.735   4.870   0.247
 7913SOL     OW24637   1.146   5.049   1.000
 7913SOL    HW124638   1.155   4.951   1.020
 7913SOL    HW224639   1.062   5.083   1.041
 7914SOL     OW24640   0.548   4.303   0.190
 7914SOL    HW124641   0.623   4.304   0.255
 7914SOL    HW224642   0.573   4.357   0.109
 7915SOL     OW24643   4.943   3.161   2.114
 7915SOL    HW124644   5.021   3.186   2.056
 7915SOL    HW224645   4.870   3.122   2.057
 7916SOL     OW24646   0.709   4.209   5.217
 7916SOL    HW124647   0.620   4.233   5.180
 7916SOL    HW224648   0.781   4.259   5.167
 7917SOL     OW24649   3.691   3.758   4.474
 7917SOL    HW124650   3.667   3.662   4.481
 7917SOL    HW224651   3.684   3.801   4.564
 7918SOL     OW24652   6.899   1.381   6.643
 7918SOL    HW124653   6.971   1.313   6.655
 7918SOL    HW224654   6.864   1.409   6.733
 7919SOL     OW24655   1.871   4.423   2.129
 7919SOL    HW124656   1.809   4.491   2.167
 7919SOL    HW224657   1.856   4.335   2.174
 7920SOL     OW24658   0.247   5.637   0.937
 7920SOL    HW124659   0.179   5.566   0.955
 7920SOL    HW224660   0.246   5.661   0.840
 7921SOL     OW24661   5.464   6.673   0.342
 7921SOL    HW124662   5.517   6.610   0.286
 7921SOL    HW224663   5.373   6.636   0.359
 7922SOL     OW24664   0.008   6.359   0.156
 7922SOL    HW124665   7.016   6.364   0.255
 7922SOL    HW224666   6.997   6.268   0.125
 7923SOL     OW24667   3.410   0.159   2.210
 7923SOL    HW124668   3.492   0.120   2.252
 7923SOL    HW224669   3.349   0.086   2.181
 7924SOL     OW24670   4.186   0.123   2.234
 7924SOL    HW124671   4.267   0.092   2.184
 7924SOL    HW224672   4.215   0.187   2.305
 7925SOL     OW24673   1.088   1.857   6.304
 7925SOL    HW124674   1.104   1.764   6.271
 7925SOL    HW224675   1.050   1.913   6.230
 7926SOL     OW24676   4.513   1.505   5.278
 7926SOL    HW124677   4.577   1.580   5.262
 7926SOL    HW224678   4.463   1.485   5.193
 7927SOL     OW24679   4.216   5.145   2.972
 7927SOL    HW124680   4.189   5.098   3.055
 7927SOL    HW224681   4.208   5.244   2.985
 7928SOL     OW24682   1.200   2.169   4.512
 7928SOL    HW124683   1.157   2.081   4.495
 7928SOL    HW224684   1.147   2.219   4.581
 7929SOL     OW24685   3.893   5.006   6.024
 7929SOL    HW124686   3.866   4.958   5.940
 7929SOL    HW224687   3.885   4.945   6.102
 7930SOL     OW24688   4.462   5.494   4.491
 7930SOL    HW124689   4.532   5.424   4.504
 7930SOL    HW224690   4.489   5.554   4.415
 7931SOL     OW24691   1.719   2.167   6.247
 7931SOL    HW124692   1.626   2.134   6.258
 7931SOL    HW224693   1.719   2.267   6.250
 7932SOL     OW24694   1.996   5.966   6.519
 7932SOL    HW124695   1.952   6.048   6.558
 7932SOL    HW224696   1.987   5.968   6.419
 7933SOL     OW24697   0.429   5.699   6.504
 7933SOL    HW124698   0.410   5.794   6.531
 7933SOL    HW224699   0.350   5.642   6.526
 7934SOL     OW24700   2.371   4.946   0.626
 7934SOL    HW124701   2.380   5.019   0.693
 7934SOL    HW224702   2.323   4.869   0.667
 7935SOL     OW24703   5.683   5.726   6.803
 7935SOL    HW124704   5.659   5.664   6.878
 7935SOL    HW224705   5.702   5.817   6.840
 7936SOL     OW24706   3.966   6.382   2.575
 7936SOL    HW124707   4.057   6.422   2.562
 7936SOL    HW224708   3.908   6.406   2.497
 7937SOL     OW24709   6.707   6.630   3.693
 7937SOL    HW124710   6.662   6.548   3.659
 7937SOL    HW224711   6.650   6.710   3.676
 7938SOL     OW24712   6.418   5.646   5.005
 7938SOL    HW124713   6.500   5.628   4.950
 7938SOL    HW224714   6.376   5.559   5.032
 7939SOL     OW24715   1.915   2.404   5.609
 7939SOL    HW124716   1.834   2.445   5.566
 7939SOL    HW224717   1.935   2.317   5.564
 7940SOL     OW24718   2.013   3.907   1.960
 7940SOL    HW124719   1.928   3.910   2.012
 7940SOL    HW224720   2.038   3.812   1.942
 7941SOL     OW24721   6.326   0.760   0.609
 7941SOL    HW124722   6.253   0.804   0.662
 7941SOL    HW224723   6.358   0.824   0.539
 7942SOL     OW24724   6.404   5.842   2.527
 7942SOL    HW124725   6.427   5.784   2.605
 7942SOL    HW224726   6.328   5.902   2.550
 7943SOL     OW24727   6.460   3.122   0.851
 7943SOL    HW124728   6.416   3.198   0.900
 7943SOL    HW224729   6.543   3.155   0.806
 7944SOL     OW24730   0.654   2.446   1.739
 7944SOL    HW124731   0.588   2.519   1.759
 7944SOL    HW224732   0.605   2.360   1.722
 7945SOL     OW24733   5.809   5.800   1.671
 7945SOL    HW124734   5.891   5.750   1.697
 7945SOL    HW224735   5.831   5.897   1.659
 7946SOL     OW24736   2.365   1.532   5.327
 7946SOL    HW124737   2.412   1.501   5.410
 7946SOL    HW224738   2.319   1.455   5.284
 7947SOL     OW24739   3.331   2.256   6.281
 7947SOL    HW124740   3.374   2.183   6.227
 7947SOL    HW224741   3.382   2.269   6.366
 7948SOL     OW24742   1.043   6.194   0.998
 7948SOL    HW124743   1.080   6.265   0.937
 7948SOL    HW224744   1.010   6.237   1.082
 7949SOL     OW24745   4.358   4.598   4.400
 7949SOL    HW124746   4.303   4.536   4.344
 7949SOL    HW224747   4.302   4.635   4.474
 7950SOL     OW24748   6.070   5.122   4.736
 7950SOL    HW124749   5.972   5.138   4.731
 7950SOL    HW224750   6.097   5.107   4.832
 7951SOL     OW24751   2.271   4.313   1.794
 7951SOL    HW124752   2.359   4.362   1.789
 7951SOL    HW224753   2.202   4.375   1.831
 7952SOL     OW24754   0.514   3.034   6.775
 7952SOL    HW124755   0.493   3.117   6.827
 7952SOL    HW224756   0.482   2.954   6.826
 7953SOL     OW24757   2.375   2.732   4.356
 7953SOL    HW124758   2.328   2.645   4.372
 7953SOL    HW224759   2.397   2.741   4.259
 7954SOL     OW24760   4.762   4.081   5.391
 7954SOL    HW124761   4.765   3.994   5.342
 7954SOL    HW224762   4.854   4.120   5.396
 7955SOL     OW24763   0.960   6.555   6.792
 7955SOL    HW124764   0.913   6.640   6.766
 7955SOL    HW224765   1.020   6.573   6.870
 7956SOL     OW24766   3.894   5.971   2.660
 7956SOL    HW124767   3.898   5.916   2.744
 7956SOL    HW224768   3.809   6.023   2.659
 7957SOL     OW24769   0.852   0.783   2.064
 7957SOL    HW124770   0.820   0.853   2.128
 7957SOL    HW224771   0.773   0.731   2.030
 7958SOL     OW24772   3.763   5.603   4.306
 7958SOL    HW124773   3.769   5.550   4.390
 7958SOL    HW224774   3.798   5.695   4.322
 7959SOL     OW24775   4.384   5.819   1.080
 7959SOL    HW124776   4.382   5.749   1.010
 7959SOL    HW224777   4.323   5.894   1.055
 7960SOL     OW24778   2.843   1.262   0.656
 7960SOL    HW124779   2.908   1.244   0.582
 7960SOL    HW224780   2.751   1.268   0.619
 7961SOL     OW24781   0.218   0.105   1.488
 7961SOL    HW124782   0.296   0.140   1.437
 7961SOL    HW224783   0.249   0.074   1.578
 7962SOL     OW24784   1.493   0.201   6.956
 7962SOL    HW124785   1.526   0.155   6.874
 7962SOL    HW224786   1.559   0.187   0.015
 7963SOL     OW24787   6.823   0.766   3.693
 7963SOL    HW124788   6.893   0.748   3.624
 7963SOL    HW224789   6.820   0.690   3.759
 7964SOL     OW24790   0.237   5.200   3.818
 7964SOL    HW124791   0.160   5.143   3.791
 7964SOL    HW224792   0.203   5.281   3.866
 7965SOL     OW24793   3.543   2.961   6.630
 7965SOL    HW124794   3.626   2.998   6.588
 7965SOL    HW224795   3.463   2.992   6.578
 7966SOL     OW24796   0.840   3.070   5.114
 7966SOL    HW124797   0.818   3.059   5.211
 7966SOL    HW224798   0.844   3.168   5.091
 7967SOL     OW24799   2.761   5.938   3.842
 7967SOL    HW124800   2.765   6.035   3.818
 7967SOL    HW224801   2.728   5.928   3.935
 7968SOL     OW24802   2.367   2.696   3.327
 7968SOL    HW124803   2.372   2.763   3.254
 7968SOL    HW224804   2.447   2.635   3.321
 7969SOL     OW24805   4.307   5.973   0.603
 7969SOL    HW124806   4.301   6.063   0.646
 7969SOL    HW224807   4.216   5.933   0.597
 7970SOL     OW24808   0.220   3.101   2.636
 7970SOL    HW124809   0.207   3.114   2.734
 7970SOL    HW224810   0.132   3.082   2.593
 7971SOL     OW24811   4.412   1.654   0.654
 7971SOL    HW124812   4.365   1.637   0.567
 7971SOL    HW224813   4.477   1.729   0.643
 7972SOL     OW24814   1.653   3.613   1.008
 7972SOL    HW124815   1.670   3.645   0.915
 7972SOL    HW224816   1.693   3.677   1.073
 7973SOL     OW24817   4.812   4.566   4.066
 7973SOL    HW124818   4.865   4.552   3.982
 7973SOL    HW224819   4.731   4.507   4.063
 7974SOL     OW24820   5.505   1.119   5.584
 7974SOL    HW124821   5.411   1.097   5.608
 7974SOL    HW224822   5.560   1.036   5.586
 7975SOL     OW24823   5.191   0.477   2.847
 7975SOL    HW124824   5.181   0.564   2.895
 7975SOL    HW224825   5.287   0.466   2.819
 7976SOL     OW24826   0.491   0.488   6.832
 7976SOL    HW124827   0.566   0.423   6.843
 7976SOL    HW224828   0.520   0.578   6.863
 7977SOL     OW24829   5.069   5.603   1.560
 7977SOL    HW124830   5.101   5.520   1.515
 7977SOL    HW224831   5.037   5.669   1.492
 7978SOL     OW24832   6.253   3.422   5.973
 7978SOL    HW124833   6.225   3.518   5.969
 7978SOL    HW224834   6.186   3.365   5.925
 7979SOL     OW24835   3.348   6.745   5.504
 7979SOL    HW124836   3.264   6.695   5.481
 7979SOL    HW224837   3.324   6.829   5.554
 7980SOL     OW24838   2.391   5.449   0.052
 7980SOL    HW124839   2.449   5.368   0.053
 7980SOL    HW224840   2.334   5.448   6.985
 7981SOL     OW24841   0.332   5.673   1.775
 7981SOL    HW124842   0.301   5.578   1.768
 7981SOL    HW224843   0.384   5.684   1.860
 7982SOL     OW24844   0.151   1.776   0.018
 7982SOL    HW124845   0.169   1.723   6.951
 7982SOL    HW224846   0.052   1.781   0.032
 7983SOL     OW24847   5.642   1.709   2.362
 7983SOL    HW124848   5.548   1.685   2.339
 7983SOL    HW224849   5.648   1.808   2.377
 7984SOL     OW24850   1.651   1.539   0.978
 7984SOL    HW124851   1.710   1.480   1.033
 7984SOL    HW224852   1.702   1.621   0.951
 7985SOL     OW24853   2.426   6.911   3.900
 7985SOL    HW124854   2.414   6.979   3.827
 7985SOL    HW224855   2.410   6.819   3.863
 7986SOL     OW24856   3.564   1.254   6.911
 7986SOL    HW124857   3.497   1.326   6.895
 7986SOL    HW224858   3.644   1.292   6.957
 7987SOL     OW24859   1.507   3.238   6.902
 7987SOL    HW124860   1.439   3.204   6.966
 7987SOL    HW224861   1.541   3.327   6.933
 7988SOL     OW24862   1.331   2.130   3.725
 7988SOL    HW124863   1.382   2.070   3.787
 7988SOL    HW224864   1.318   2.219   3.769
 7989SOL     OW24865   3.826   2.993   5.452
 7989SOL    HW124866   3.773   3.032   5.377
 7989SOL    HW224867   3.841   2.895   5.435
 7990SOL     OW24868   6.585   3.067   3.422
 7990SOL    HW124869   6.541   3.146   3.463
 7990SOL    HW224870   6.516   2.998   3.400
 7991SOL     OW24871   6.559   0.441   3.654
 7991SOL    HW124872   6.596   0.523   3.611
 7991SOL    HW224873   6.552   0.455   3.753
 7992SOL     OW24874   1.060   6.951   1.530
 7992SOL    HW124875   1.122   6.985   1.600
 7992SOL    HW224876   0.990   0.004   1.510
 7993SOL     OW24877   0.812   6.441   6.495
 7993SOL    HW124878   0.896   6.391   6.472
 7993SOL    HW224879   0.763   6.392   6.568
 7994SOL     OW24880   4.430   0.106   3.103
 7994SOL    HW124881   4.495   0.083   3.030
 7994SOL    HW224882   4.344   0.137   3.063
 7995SOL     OW24883   4.351   4.936   3.224
 7995SOL    HW124884   4.410   4.882   3.165
 7995SOL    HW224885   4.406   4.982   3.294
 7996SOL     OW24886   2.751   0.197   4.927
 7996SOL    HW124887   2.721   0.102   4.919
 7996SOL    HW224888   2.680   0.250   4.972
 7997SOL     OW24889   0.657   1.116   1.349
 7997SOL    HW124890   0.671   1.174   1.430
 7997SOL    HW224891   0.567   1.073   1.355
 7998SOL     OW24892   4.028   5.208   0.640
 7998SOL    HW124893   4.062   5.130   0.588
 7998SOL    HW224894   3.974   5.175   0.718
 7999SOL     OW24895   0.489   6.450   6.028
 7999SOL    HW124896   0.519   6.375   6.085
 7999SOL    HW224897   0.450   6.522   6.085
 8000SOL     OW24898   5.456   0.175   0.269
 8000SOL    HW124899   5.359   0.198   0.261
 8000SOL    HW224900   5.466   0.076   0.277
 8001SOL     OW24901   3.326   6.029   0.873
 8001SOL    HW124902   3.331   6.115   0.924
 8001SOL    HW224903   3.283   5.959   0.930
 8002SOL     OW24904   1.010   2.482   5.389
 8002SOL    HW124905   1.011   2.568   5.440
 8002SOL    HW224906   1.026   2.406   5.451
 8003SOL     OW24907   2.805   4.985   2.654
 8003SOL    HW124908   2.869   5.011   2.582
 8003SOL    HW224909   2.785   4.888   2.648
 8004SOL     OW24910   2.131   3.490   3.940
 8004SOL    HW124911   2.202   3.420   3.943
 8004SOL    HW224912   2.112   3.514   3.844
 8005SOL     OW24913   3.463   0.801   2.627
 8005SOL    HW124914   3.414   0.824   2.710
 8005SOL    HW224915   3.398   0.771   2.557
 8006SOL     OW24916   2.159   0.305   6.570
 8006SOL    HW124917   2.204   0.232   6.518
 8006SOL    HW224918   2.128   0.268   6.658
 8007SOL     OW24919   0.311   1.139   4.859
 8007SOL    HW124920   0.391   1.088   4.826
 8007SOL    HW224921   0.279   1.200   4.786
 8008SOL     OW24922   4.530   6.049   5.575
 8008SOL    HW124923   4.449   6.029   5.522
 8008SOL    HW224924   4.611   6.014   5.528
 8009SOL     OW24925   5.665   0.788   2.787
 8009SOL    HW124926   5.643   0.869   2.731
 8009SOL    HW224927   5.618   0.708   2.749
 8010SOL     OW24928   0.728   1.387   0.125
 8010SOL    HW124929   0.823   1.389   0.154
 8010SOL    HW224930   0.677   1.459   0.174
 8011SOL     OW24931   3.483   2.574   0.795
 8011SOL    HW124932   3.548   2.519   0.848
 8011SOL    HW224933   3.432   2.514   0.734
 8012SOL     OW24934   2.077   4.667   1.682
 8012SOL    HW124935   2.138   4.616   1.621
 8012SOL    HW224936   2.094   4.765   1.672
 8013SOL     OW24937   1.397   4.885   3.076
 8013SOL    HW124938   1.392   4.786   3.064
 8013SOL    HW224939   1.307   4.921   3.098
 8014SOL     OW24940   0.624   6.280   5.321
 8014SOL    HW124941   0.668   6.196   5.290
 8014SOL    HW224942   0.651   6.299   5.415
 8015SOL     OW24943   2.708   0.803   0.758
 8015SOL    HW124944   2.680   0.899   0.747
 8015SOL    HW224945   2.696   0.755   0.671
 8016SOL     OW24946   4.986   0.035   6.396
 8016SOL    HW124947   5.082   0.059   6.382
 8016SOL    HW224948   4.944   0.012   6.308
 8017SOL     OW24949   6.680   6.700   0.526
 8017SOL    HW124950   6.736   6.687   0.608
 8017SOL    HW224951   6.725   6.655   0.448
 8018SOL     OW24952   3.175   2.401   6.151
 8018SOL    HW124953   3.197   2.378   6.056
 8018SOL    HW224954   3.230   2.344   6.212
 8019SOL     OW24955   2.320   4.061   5.921
 8019SOL    HW124956   2.280   4.142   5.964
 8019SOL    HW224957   2.296   4.060   5.824
 8020SOL     OW24958   6.113   6.181   0.994
 8020SOL    HW124959   6.117   6.258   0.930
 8020SOL    HW224960   6.033   6.125   0.974
 8021SOL     OW24961   1.409   1.783   1.145
 8021SOL    HW124962   1.406   1.694   1.191
 8021SOL    HW224963   1.479   1.840   1.188
 8022SOL     OW24964   4.753   6.764   2.730
 8022SOL    HW124965   4.828   6.735   2.789
 8022SOL    HW224966   4.675   6.703   2.743
 8023SOL     OW24967   6.209   5.001   3.376
 8023SOL    HW124968   6.207   4.920   3.435
 8023SOL    HW224969   6.185   5.082   3.429
 8024SOL     OW24970   3.171   5.254   6.772
 8024SOL    HW124971   3.135   5.304   6.850
 8024SOL    HW224972   3.248   5.198   6.801
 8025SOL     OW24973   2.526   6.223   6.490
 8025SOL    HW124974   2.563   6.139   6.449
 8025SOL    HW224975   2.583   6.301   6.463
 8026SOL     OW24976   1.334   4.071   6.736
 8026SOL    HW124977   1.432   4.087   6.744
 8026SOL    HW224978   1.293   4.143   6.679
 8027SOL     OW24979   4.299   1.391   5.614
 8027SOL    HW124980   4.310   1.298   5.581
 8027SOL    HW224981   4.377   1.446   5.585
 8028SOL     OW24982   3.230   4.946   4.528
 8028SOL    HW124983   3.130   4.949   4.527
 8028SOL    HW224984   3.264   4.999   4.606
 8029SOL     OW24985   4.963   2.872   0.994
 8029SOL    HW124986   4.879   2.896   0.946
 8029SOL    HW224987   4.975   2.932   1.073
 8030SOL     OW24988   4.281   4.393   0.088
 8030SOL    HW124989   4.268   4.369   7.008
 8030SOL    HW224990   4.230   4.477   0.109
 8031SOL     OW24991   5.289   6.561   3.179
 8031SOL    HW124992   5.357   6.548   3.251
 8031SOL    HW224993   5.270   6.659   3.169
 8032SOL     OW24994   5.763   4.206   6.066
 8032SOL    HW124995   5.712   4.182   6.148
 8032SOL    HW224996   5.837   4.269   6.089
 8033SOL     OW24997   4.665   2.966   6.096
 8033SOL    HW124998   4.589   2.902   6.111
 8033SOL    HW224999   4.738   2.947   6.161
 8034SOL     OW25000   6.035   0.508   4.571
 8034SOL    HW125001   6.012   0.477   4.479
 8034SOL    HW225002   6.117   0.460   4.603
 8035SOL     OW25003   4.915   1.733   4.371
 8035SOL    HW125004   4.842   1.686   4.322
 8035SOL    HW225005   4.993   1.671   4.383
 8036SOL     OW25006   0.871   4.648   2.871
 8036SOL    HW125007   0.830   4.574   2.925
 8036SOL    HW225008   0.884   4.616   2.777
 8037SOL     OW25009   1.297   2.947   1.106
 8037SOL    HW125010   1.300   2.858   1.152
 8037SOL    HW225011   1.389   2.972   1.076
 8038SOL     OW25012   3.798   0.874   3.467
 8038SOL    HW125013   3.703   0.903   3.480
 8038SOL    HW225014   3.857   0.954   3.458
 8039SOL     OW25015   0.536   1.425   4.087
 8039SOL    HW125016   0.474   1.392   4.158
 8039SOL    HW225017   0.557   1.351   4.023
 8040SOL     OW25018   1.454   6.337   0.373
 8040SOL    HW125019   1.552   6.351   0.382
 8040SOL    HW225020   1.436   6.276   0.295
 8041SOL     OW25021   2.982   1.676   1.740
 8041SOL    HW125022   2.965   1.774   1.750
 8041SOL    HW225023   2.902   1.625   1.775
 8042SOL     OW25024   3.517   2.867   3.789
 8042SOL    HW125025   3.573   2.943   3.754
 8042SOL    HW225026   3.437   2.855   3.730
 8043SOL     OW25027   3.876   6.752   2.469
 8043SOL    HW125028   3.790   6.791   2.435
 8043SOL    HW225029   3.864   6.720   2.563
 8044SOL     OW25030   3.863   3.019   1.069
 8044SOL    HW125031   3.868   3.106   1.118
 8044SOL    HW225032   3.843   2.945   1.134
 8045SOL     OW25033   5.375   0.915   1.365
 8045SOL    HW125034   5.360   1.013   1.374
 8045SOL    HW225035   5.467   0.898   1.330
 8046SOL     OW25036   7.008   4.875   0.590
 8046SOL    HW125037   0.012   4.873   0.492
 8046SOL    HW225038   0.054   4.939   0.636
 8047SOL     OW25039   3.412   5.596   4.307
 8047SOL    HW125040   3.399   5.497   4.297
 8047SOL    HW225041   3.400   5.640   4.218
 8048SOL     OW25042   5.343   0.790   5.681
 8048SOL    HW125043   5.430   0.793   5.633
 8048SOL    HW225044   5.328   0.697   5.716
 8049SOL     OW25045   0.943   0.318   0.329
 8049SOL    HW125046   0.884   0.369   0.266
 8049SOL    HW225047   0.946   0.364   0.417
 8050SOL     OW25048   1.562   3.971   2.729
 8050SOL    HW125049   1.551   4.056   2.781
 8050SOL    HW225050   1.621   3.909   2.780
 8051SOL     OW25051   4.984   5.888   3.108
 8051SOL    HW125052   4.989   5.806   3.165
 8051SOL    HW225053   4.961   5.967   3.166
 8052SOL     OW25054   4.851   1.403   1.730
 8052SOL    HW125055   4.841   1.471   1.803
 8052SOL    HW225056   4.765   1.353   1.719
 8053SOL     OW25057   3.187   4.016   3.602
 8053SOL    HW125058   3.116   3.955   3.638
 8053SOL    HW225059   3.144   4.096   3.561
 8054SOL     OW25060   4.295   0.118   4.652
 8054SOL    HW125061   4.297   0.161   4.562
 8054SOL    HW225062   4.388   0.090   4.677
 8055SOL     OW25063   0.275   0.176   5.707
 8055SOL    HW125064   0.219   0.109   5.755
 8055SOL    HW225065   0.271   0.264   5.754
 8056SOL     OW25066   3.945   2.168   3.750
 8056SOL    HW125067   3.919   2.081   3.792
 8056SOL    HW225068   4.021   2.208   3.802
 8057SOL     OW25069   3.237   2.073   3.228
 8057SOL    HW125070   3.209   2.096   3.135
 8057SOL    HW225071   3.163   2.094   3.292
 8058SOL     OW25072   4.658   0.757   2.343
 8058SOL    HW125073   4.625   0.823   2.411
 8058SOL    HW225074   4.756   0.742   2.357
 8059SOL     OW25075   4.531   2.436   4.692
 8059SOL    HW125076   4.621   2.478   4.701
 8059SOL    HW225077   4.479   2.450   4.776
 8060SOL     OW25078   1.043   2.673   3.874
 8060SOL    HW125079   0.994   2.612   3.936
 8060SOL    HW225080   1.122   2.712   3.920
 8061SOL     OW25081   0.016   0.382   2.368
 8061SOL    HW125082   0.056   0.291   2.360
 8061SOL    HW225083   0.010   0.407   2.465
 8062SOL     OW25084   3.499   5.311   4.301
 8062SOL    HW125085   3.591   5.274   4.317
 8062SOL    HW225086   3.475   5.298   4.205
 8063SOL     OW25087   0.661   2.726   0.490
 8063SOL    HW125088   0.746   2.689   0.452
 8063SOL    HW225089   0.637   2.810   0.441
 8064SOL     OW25090   0.262   4.458   1.087
 8064SOL    HW125091   0.192   4.470   1.157
 8064SOL    HW225092   0.222   4.472   0.996
 8065SOL     OW25093   3.571   5.961   4.292
 8065SOL    HW125094   3.505   5.937   4.363
 8065SOL    HW225095   3.541   5.922   4.204
 8066SOL     OW25096   0.158   2.063   5.744
 8066SOL    HW125097   0.121   2.141   5.695
 8066SOL    HW225098   0.245   2.088   5.786
 8067SOL     OW25099   4.917   2.792   1.952
 8067SOL    HW125100   4.856   2.728   1.905
 8067SOL    HW225101   4.868   2.878   1.967
 8068SOL     OW25102   6.597   4.662   0.159
 8068SOL    HW125103   6.606   4.656   0.059
 8068SOL    HW225104   6.686   4.646   0.201
 8069SOL     OW25105   1.769   6.399   0.924
 8069SOL    HW125106   1.682   6.359   0.951
 8069SOL    HW225107   1.760   6.498   0.918
 8070SOL     OW25108   3.026   3.157   0.392
 8070SOL    HW125109   3.011   3.171   0.490
 8070SOL    HW225110   3.123   3.174   0.371
 8071SOL     OW25111   2.911   6.296   4.762
 8071SOL    HW125112   2.925   6.392   4.738
 8071SOL    HW225113   2.953   6.237   4.692
 8072SOL     OW25114   3.454   0.738   7.002
 8072SOL    HW125115   3.473   0.660   6.943
 8072SOL    HW225116   3.417   0.813   6.948
 8073SOL     OW25117   4.185   6.028   5.246
 8073SOL    HW125118   4.179   6.108   5.186
 8073SOL    HW225119   4.122   5.957   5.213
 8074SOL     OW25120   3.762   2.610   0.730
 8074SOL    HW125121   3.662   2.613   0.729
 8074SOL    HW225122   3.793   2.523   0.692
 8075SOL     OW25123   6.359   1.145   0.338
 8075SOL    HW125124   6.455   1.172   0.335
 8075SOL    HW225125   6.308   1.192   0.266
 8076SOL     OW25126   5.071   2.469   5.632
 8076SOL    HW125127   5.062   2.548   5.572
 8076SOL    HW225128   5.122   2.494   5.714
 8077SOL     OW25129   1.703   5.873   1.867
 8077SOL    HW125130   1.734   5.791   1.916
 8077SOL    HW225131   1.674   5.942   1.933
 8078SOL     OW25132   5.961   1.264   0.416
 8078SOL    HW125133   6.013   1.325   0.356
 8078SOL    HW225134   5.922   1.317   0.491
 8079SOL     OW25135   4.631   1.712   3.356
 8079SOL    HW125136   4.634   1.719   3.256
 8079SOL    HW225137   4.538   1.730   3.388
 8080SOL     OW25138   0.461   2.991   0.254
 8080SOL    HW125139   0.538   3.019   0.312
 8080SOL    HW225140   0.414   2.914   0.296
 8081SOL     OW25141   5.059   6.747   4.397
 8081SOL    HW125142   5.150   6.719   4.427
 8081SOL    HW225143   5.047   6.845   4.414
 8082SOL     OW25144   5.654   0.129   1.812
 8082SOL    HW125145   5.620   0.136   1.905
 8082SOL    HW225146   5.579   0.145   1.747
 8083SOL     OW25147   5.247   3.852   2.446
 8083SOL    HW125148   5.346   3.857   2.463
 8083SOL    HW225149   5.224   3.762   2.409
 8084SOL     OW25150   5.343   6.926   0.027
 8084SOL    HW125151   5.306   6.968   0.110
 8084SOL    HW225152   5.425   6.975   7.014
 8085SOL     OW25153   5.836   6.929   2.677
 8085SOL    HW125154   5.899   6.989   2.726
 8085SOL    HW225155   5.846   6.944   2.579
 8086SOL     OW25156   4.627   0.786   3.887
 8086SOL    HW125157   4.719   0.778   3.850
 8086SOL    HW225158   4.559   0.775   3.814
 8087SOL     OW25159   2.957   1.242   1.046
 8087SOL    HW125160   2.861   1.271   1.044
 8087SOL    HW225161   2.996   1.246   0.954
 8088SOL     OW25162   5.365   2.738   1.176
 8088SOL    HW125163   5.265   2.737   1.183
 8088SOL    HW225164   5.398   2.831   1.192
 8089SOL     OW25165   5.112   2.778   0.180
 8089SOL    HW125166   5.079   2.719   0.254
 8089SOL    HW225167   5.168   2.724   0.117
 8090SOL     OW25168   3.812   2.692   6.881
 8090SOL    HW125169   3.714   2.690   6.859
 8090SOL    HW225170   3.860   2.623   6.827
 8091SOL     OW25171   2.624   4.115   6.214
 8091SOL    HW125172   2.625   4.087   6.118
 8091SOL    HW225173   2.671   4.047   6.270
 8092SOL     OW25174   0.067   2.654   5.441
 8092SOL    HW125175   7.010   2.721   5.449
 8092SOL    HW225176   0.071   2.599   5.524
 8093SOL     OW25177   5.001   5.741   2.785
 8093SOL    HW125178   5.081   5.752   2.844
 8093SOL    HW225179   4.919   5.771   2.834
 8094SOL     OW25180   1.381   3.859   4.928
 8094SOL    HW125181   1.480   3.846   4.934
 8094SOL    HW225182   1.362   3.955   4.906
 8095SOL     OW25183   6.304   4.024   4.632
 8095SOL    HW125184   6.275   3.929   4.625
 8095SOL    HW225185   6.343   4.053   4.544
 8096SOL     OW25186   2.961   5.608   4.011
 8096SOL    HW125187   2.971   5.692   3.957
 8096SOL    HW225188   3.015   5.615   4.094
 8097SOL     OW25189   4.797   6.495   3.555
 8097SOL    HW125190   4.800   6.497   3.455
 8097SOL    HW225191   4.714   6.540   3.586
 8098SOL     OW25192   2.438   6.373   3.782
 8098SOL    HW125193   2.387   6.395   3.865
 8098SOL    HW225194   2.455   6.275   3.777
 8099SOL     OW25195   4.449   6.800   3.871
 8099SOL    HW125196   4.430   6.707   3.900
 8099SOL    HW225197   4.363   6.852   3.868
 8100SOL     OW25198   6.486   0.314   0.234
 8100SOL    HW125199   6.441   0.293   0.148
 8100SOL    HW225200   6.424   0.297   0.310
 8101SOL     OW25201   1.971   6.906   3.997
 8101SOL    HW125202   1.883   6.866   4.023
 8101SOL    HW225203   2.043   6.839   4.012
 8102SOL     OW25204   0.451   4.864   4.398
 8102SOL    HW125205   0.463   4.960   4.424
 8102SOL    HW225206   0.363   4.831   4.434
 8103SOL     OW25207   4.764   0.396   1.128
 8103SOL    HW125208   4.845   0.337   1.130
 8103SOL    HW225209   4.725   0.402   1.220
 8104SOL     OW25210   2.641   6.659   5.818
 8104SOL    HW125211   2.597   6.613   5.741
 8104SOL    HW225212   2.718   6.713   5.784
 8105SOL     OW25213   1.102   2.439   3.485
 8105SOL    HW125214   1.195   2.427   3.450
 8105SOL    HW225215   1.054   2.352   3.481
 8106SOL     OW25216   2.412   5.972   3.028
 8106SOL    HW125217   2.336   5.913   3.001
 8106SOL    HW225218   2.442   6.025   2.948
 8107SOL     OW25219   0.252   5.492   5.192
 8107SOL    HW125220   0.242   5.517   5.096
 8107SOL    HW225221   0.170   5.521   5.242
 8108SOL     OW25222   6.247   3.686   4.749
 8108SOL    HW125223   6.212   3.713   4.838
 8108SOL    HW225224   6.171   3.663   4.688
 8109SOL     OW25225   1.265   3.635   4.399
 8109SOL    HW125226   1.341   3.684   4.442
 8109SOL    HW225227   1.183   3.691   4.403
 8110SOL     OW25228   3.088   6.248   0.941
 8110SOL    HW125229   3.097   6.193   0.857
 8110SOL    HW225230   3.029   6.327   0.922
 8111SOL     OW25231   4.126   0.743   5.055
 8111SOL    HW125232   4.064   0.669   5.030
 8111SOL    HW225233   4.220   0.718   5.030
 8112SOL     OW25234   2.146   2.002   4.567
 8112SOL    HW125235   2.143   2.094   4.606
 8112SOL    HW225236   2.197   2.005   4.480
 8113SOL     OW25237   3.355   3.320   0.977
 8113SOL    HW125238   3.314   3.345   1.065
 8113SOL    HW225239   3.293   3.261   0.926
 8114SOL     OW25240   2.107   3.930   1.290
 8114SOL    HW125241   2.140   3.924   1.196
 8114SOL    HW225242   2.125   3.844   1.338
 8115SOL     OW25243   4.176   0.303   1.213
 8115SOL    HW125244   4.079   0.282   1.219
 8115SOL    HW225245   4.219   0.243   1.146
 8116SOL     OW25246   4.554   6.737   4.859
 8116SOL    HW125247   4.598   6.671   4.798
 8116SOL    HW225248   4.573   6.713   4.954
 8117SOL     OW25249   1.702   1.006   3.668
 8117SOL    HW125250   1.641   0.930   3.644
 8117SOL    HW225251   1.795   0.972   3.678
 8118SOL     OW25252   6.215   2.750   5.487
 8118SOL    HW125253   6.115   2.741   5.491
 8118SOL    HW225254   6.249   2.704   5.405
 8119SOL     OW25255   6.280   5.829   5.614
 8119SOL    HW125256   6.310   5.735   5.599
 8119SOL    HW225257   6.357   5.883   5.649
 8120SOL     OW25258   3.655   4.589   6.927
 8120SOL    HW125259   3.705   4.626   6.848
 8120SOL    HW225260   3.692   4.499   6.950
 8121SOL     OW25261   0.075   5.791   1.694
 8121SOL    HW125262   0.128   5.707   1.683
 8121SOL    HW225263   0.124   5.867   1.650
 8122SOL     OW25264   1.527   5.718   2.415
 8122SOL    HW125265   1.590   5.644   2.393
 8122SOL    HW225266   1.571   5.783   2.477
 8123SOL     OW25267   6.905   0.397   0.073
 8123SOL    HW125268   6.959   0.338   0.013
 8123SOL    HW225269   6.965   0.464   0.117
 8124SOL     OW25270   6.974   6.421   0.399
 8124SOL    HW125271   0.042   6.465   0.429
 8124SOL    HW225272   6.935   6.368   0.475
 8125SOL     OW25273   1.530   0.411   3.165
 8125SOL    HW125274   1.579   0.403   3.079
 8125SOL    HW225275   1.575   0.354   3.235
 8126SOL     OW25276   5.961   4.624   2.360
 8126SOL    HW125277   5.968   4.723   2.364
 8126SOL    HW225278   5.865   4.596   2.364
 8127SOL     OW25279   3.245   5.734   7.013
 8127SOL    HW125280   3.170   5.730   6.947
 8127SOL    HW225281   3.223   5.802   0.067
 8128SOL     OW25282   3.274   3.125   1.235
 8128SOL    HW125283   3.294   3.103   1.140
 8128SOL    HW225284   3.308   3.052   1.294
 8129SOL     OW25285   4.188   0.868   6.046
 8129SOL    HW125286   4.170   0.776   6.082
 8129SOL    HW225287   4.272   0.865   5.991
 8130SOL     OW25288   0.200   4.562   6.534
 8130SOL    HW125289   0.211   4.501   6.455
 8130SOL    HW225290   0.257   4.530   6.609
 8131SOL     OW25291   3.660   0.947   0.921
 8131SOL    HW125292   3.572   0.938   0.966
 8131SOL    HW225293   3.655   0.906   0.830
 8132SOL     OW25294   5.234   5.798   6.414
 8132SOL    HW125295   5.317   5.794   6.359
 8132SOL    HW225296   5.255   5.836   6.504
 8133SOL     OW25297   3.302   5.020   1.570
 8133SOL    HW125298   3.358   5.026   1.653
 8133SOL    HW225299   3.304   4.926   1.535
 8134SOL     OW25300   0.840   2.002   4.990
 8134SOL    HW125301   0.776   1.933   5.023
 8134SOL    HW225302   0.831   2.012   4.891
 8135SOL     OW25303   2.022   6.004   1.095
 8135SOL    HW125304   2.092   6.074   1.093
 8135SOL    HW225305   1.934   6.044   1.122
 8136SOL     OW25306   4.957   4.663   2.876
 8136SOL    HW125307   4.882   4.604   2.843
 8136SOL    HW225308   4.942   4.685   2.972
 8137SOL     OW25309   2.855   1.329   4.352
 8137SOL    HW125310   2.867   1.251   4.291
 8137SOL    HW225311   2.938   1.343   4.406
 8138SOL     OW25312   5.862   2.429   0.345
 8138SOL    HW125313   5.789   2.479   0.299
 8138SOL    HW225314   5.908   2.370   0.279
 8139SOL     OW25315   1.818   1.993   4.041
 8139SOL    HW125316   1.841   2.090   4.036
 8139SOL    HW225317   1.890   1.945   4.091
 8140SOL     OW25318   4.375   6.680   6.903
 8140SOL    HW125319   4.293   6.727   6.937
 8140SOL    HW225320   4.360   6.650   6.809
 8141SOL     OW25321   4.166   6.867   5.454
 8141SOL    HW125322   4.169   6.819   5.542
 8141SOL    HW225323   4.222   6.817   5.388
 8142SOL     OW25324   2.130   5.234   0.287
 8142SOL    HW125325   2.206   5.197   0.340
 8142SOL    HW225326   2.134   5.334   0.286
 8143SOL     OW25327   5.793   5.223   0.055
 8143SOL    HW125328   5.884   5.187   0.075
 8143SOL    HW225329   5.757   5.179   6.989
 8144SOL     OW25330   0.556   6.249   5.835
 8144SOL    HW125331   0.539   6.157   5.871
 8144SOL    HW225332   0.633   6.245   5.771
 8145SOL     OW25333   5.623   5.531   0.576
 8145SOL    HW125334   5.570   5.512   0.494
 8145SOL    HW225335   5.600   5.466   0.648
 8146SOL     OW25336   5.266   0.177   5.076
 8146SOL    HW125337   5.269   0.182   4.976
 8146SOL    HW225338   5.273   0.082   5.105
 8147SOL     OW25339   6.470   0.955   1.196
 8147SOL    HW125340   6.488   0.901   1.278
 8147SOL    HW225341   6.474   0.895   1.116
 8148SOL     OW25342   5.251   4.999   0.244
 8148SOL    HW125343   5.291   5.091   0.250
 8148SOL    HW225344   5.152   5.005   0.247
 8149SOL     OW25345   1.249   6.718   3.397
 8149SOL    HW125346   1.325   6.755   3.451
 8149SOL    HW225347   1.264   6.621   3.380
 8150SOL     OW25348   1.690   4.415   0.912
 8150SOL    HW125349   1.742   4.492   0.875
 8150SOL    HW225350   1.596   4.418   0.877
 8151SOL     OW25351   6.168   5.294   3.410
 8151SOL    HW125352   6.267   5.286   3.405
 8151SOL    HW225353   6.139   5.286   3.505
 8152SOL     OW25354   6.176   3.244   3.126
 8152SOL    HW125355   6.186   3.294   3.040
 8152SOL    HW225356   6.225   3.157   3.119
 8153SOL     OW25357   1.365   1.537   3.813
 8153SOL    HW125358   1.323   1.539   3.723
 8153SOL    HW225359   1.456   1.578   3.809
 8154SOL     OW25360   3.696   6.171   2.635
 8154SOL    HW125361   3.623   6.205   2.576
 8154SOL    HW225362   3.777   6.228   2.625
 8155SOL     OW25363   1.366   3.819   2.031
 8155SOL    HW125364   1.388   3.798   2.126
 8155SOL    HW225365   1.425   3.765   1.970
 8156SOL     OW25366   4.269   6.230   0.744
 8156SOL    HW125367   4.211   6.308   0.766
 8156SOL    HW225368   4.362   6.263   0.727
 8157SOL     OW25369   6.236   3.906   6.479
 8157SOL    HW125370   6.151   3.956   6.458
 8157SOL    HW225371   6.262   3.924   6.574
 8158SOL     OW25372   5.127   3.904   0.406
 8158SOL    HW125373   5.165   3.825   0.358
 8158SOL    HW225374   5.037   3.925   0.370
 8159SOL     OW25375   2.438   5.345   3.414
 8159SOL    HW125376   2.454   5.323   3.317
 8159SOL    HW225377   2.477   5.273   3.471
 8160SOL     OW25378   5.207   0.510   3.841
 8160SOL    HW125379   5.130   0.447   3.852
 8160SOL    HW225380   5.251   0.494   3.752
 8161SOL     OW25381   5.856   2.706   5.811
 8161SOL    HW125382   5.909   2.736   5.890
 8161SOL    HW225383   5.824   2.786   5.760
 8162SOL     OW25384   6.397   6.532   0.016
 8162SOL    HW125385   6.405   6.632   0.013
 8162SOL    HW225386   6.446   6.497   0.095
 8163SOL     OW25387   2.241   4.624   5.208
 8163SOL    HW125388   2.315   4.575   5.162
 8163SOL    HW225389   2.200   4.690   5.145
 8164SOL     OW25390   4.867   1.746   0.316
 8164SOL    HW125391   4.778   1.759   0.358
 8164SOL    HW225392   4.855   1.727   0.218
 8165SOL     OW25393   6.956   3.754   5.605
 8165SOL    HW125394   6.888   3.764   5.533
 8165SOL    HW225395   6.917   3.783   5.692
 8166SOL     OW25396   1.342   0.314   3.438
 8166SOL    HW125397   1.411   0.241   3.442
 8166SOL    HW225398   1.283   0.299   3.359
 8167SOL     OW25399   0.105   1.212   3.627
 8167SOL    HW125400   0.135   1.242   3.717
 8167SOL    HW225401   0.022   1.157   3.635
 8168SOL     OW25402   2.604   1.191   1.636
 8168SOL    HW125403   2.666   1.129   1.685
 8168SOL    HW225404   2.636   1.203   1.542
 8169SOL     OW25405   4.844   2.214   0.243
 8169SOL    HW125406   4.924   2.161   0.270
 8169SOL    HW225407   4.816   2.274   0.318
 8170SOL     OW25408   1.634   5.499   1.702
 8170SOL    HW125409   1.598   5.593   1.702
 8170SOL    HW225410   1.651   5.470   1.607
 8171SOL     OW25411   1.745   1.586   6.828
 8171SOL    HW125412   1.671   1.635   6.782
 8171SOL    HW225413   1.803   1.652   6.876
 8172SOL     OW25414   6.835   1.920   2.343
 8172SOL    HW125415   6.863   1.843   2.400
 8172SOL    HW225416   6.832   2.003   2.399
 8173SOL     OW25417   5.483   2.070   1.988
 8173SOL    HW125418   5.471   2.010   2.067
 8173SOL    HW225419   5.433   2.155   2.003
 8174SOL     OW25420   6.736   0.428   2.334
 8174SOL    HW125421   6.718   0.509   2.280
 8174SOL    HW225422   6.833   0.405   2.330
 8175SOL     OW25423   0.211   3.373   5.385
 8175SOL    HW125424   0.300   3.373   5.429
 8175SOL    HW225425   0.150   3.437   5.433
 8176SOL     OW25426   2.615   5.089   1.626
 8176SOL    HW125427   2.604   5.034   1.709
 8176SOL    HW225428   2.671   5.169   1.646
 8177SOL     OW25429   4.234   0.171   4.026
 8177SOL    HW125430   4.226   0.222   3.940
 8177SOL    HW225431   4.212   0.232   4.102
 8178SOL     OW25432   3.394   6.952   0.496
 8178SOL    HW125433   3.354   0.014   0.448
 8178SOL    HW225434   3.363   6.953   0.591
 8179SOL     OW25435   4.883   1.208   4.630
 8179SOL    HW125436   4.950   1.144   4.590
 8179SOL    HW225437   4.914   1.235   4.721
 8180SOL     OW25438   6.048   1.020   5.758
 8180SOL    HW125439   6.071   0.928   5.791
 8180SOL    HW225440   6.123   1.082   5.779
 8181SOL     OW25441   1.092   1.728   0.568
 8181SOL    HW125442   1.143   1.732   0.482
 8181SOL    HW225443   1.010   1.673   0.555
 8182SOL     OW25444   3.146   3.291   6.016
 8182SOL    HW125445   3.118   3.208   5.968
 8182SOL    HW225446   3.202   3.347   5.955
 8183SOL     OW25447   6.559   2.340   4.828
 8183SOL    HW125448   6.490   2.410   4.847
 8183SOL    HW225449   6.631   2.379   4.770
 8184SOL     OW25450   6.953   7.012   0.480
 8184SOL    HW125451   7.001   0.061   0.421
 8184SOL    HW225452   6.960   6.920   0.442
 8185SOL     OW25453   1.854   0.455   6.783
 8185SOL    HW125454   1.860   0.494   6.875
 8185SOL    HW225455   1.858   0.356   6.789
 8186SOL     OW25456   3.338   4.805   5.281
 8186SOL    HW125457   3.297   4.893   5.257
 8186SOL    HW225458   3.437   4.809   5.266
 8187SOL     OW25459   2.017   1.464   5.067
 8187SOL    HW125460   2.017   1.550   5.016
 8187SOL    HW225461   1.957   1.399   5.022
 8188SOL     OW25462   4.909   3.503   3.618
 8188SOL    HW125463   4.988   3.531   3.672
 8188SOL    HW225464   4.861   3.584   3.584
 8189SOL     OW25465   5.346   5.316   2.960
 8189SOL    HW125466   5.307   5.405   2.984
 8189SOL    HW225467   5.340   5.302   2.862
 8190SOL     OW25468   4.752   4.060   4.488
 8190SOL    HW125469   4.766   3.989   4.556
 8190SOL    HW225470   4.759   4.150   4.531
 8191SOL     OW25471   4.025   6.223   1.594
 8191SOL    HW125472   3.983   6.257   1.510
 8191SOL    HW225473   4.032   6.123   1.590
 8192SOL     OW25474   3.303   5.398   0.978
 8192SOL    HW125475   3.244   5.413   1.057
 8192SOL    HW225476   3.360   5.478   0.963
 8193SOL     OW25477   5.868   5.658   5.952
 8193SOL    HW125478   5.783   5.698   5.987
 8193SOL    HW225479   5.847   5.598   5.874
 8194SOL     OW25480   4.782   1.587   0.723
 8194SOL    HW125481   4.761   1.670   0.775
 8194SOL    HW225482   4.880   1.569   0.728
 8195SOL     OW25483   0.661   6.796   3.145
 8195SOL    HW125484   0.587   6.859   3.168
 8195SOL    HW225485   0.623   6.706   3.126
 8196SOL     OW25486   4.295   5.873   6.573
 8196SOL    HW125487   4.300   5.799   6.505
 8196SOL    HW225488   4.332   5.840   6.660
 8197SOL     OW25489   4.038   1.407   0.555
 8197SOL    HW125490   3.960   1.419   0.616
 8197SOL    HW225491   4.121   1.390   0.609
 8198SOL     OW25492   3.028   6.193   2.971
 8198SOL    HW125493   2.970   6.120   3.007
 8198SOL    HW225494   3.122   6.178   3.000
 8199SOL     OW25495   5.789   2.308   6.114
 8199SOL    HW125496   5.848   2.321   6.194
 8199SOL    HW225497   5.812   2.222   6.070
 8200SOL     OW25498   5.638   5.036   2.141
 8200SOL    HW125499   5.621   4.963   2.075
 8200SOL    HW225500   5.688   5.110   2.097
 8201SOL     OW25501   5.558   0.806   4.188
 8201SOL    HW125502   5.525   0.897   4.213
 8201SOL    HW225503   5.592   0.760   4.270
 8202SOL     OW25504   0.077   5.716   4.054
 8202SOL    HW125505   0.148   5.706   4.124
 8202SOL    HW225506   0.120   5.736   3.966
 8203SOL     OW25507   3.233   2.197   6.950
 8203SOL    HW125508   3.324   2.179   6.914
 8203SOL    HW225509   3.168   2.130   6.913
 8204SOL     OW25510   3.499   4.983   6.904
 8204SOL    HW125511   3.518   5.039   6.823
 8204SOL    HW225512   3.400   4.976   6.918
 8205SOL     OW25513   0.187   4.602   0.531
 8205SOL    HW125514   0.265   4.568   0.583
 8205SOL    HW225515   0.122   4.646   0.593
 8206SOL     OW25516   5.113   1.913   6.580
 8206SOL    HW125517   5.185   1.897   6.648
 8206SOL    HW225518   5.049   1.981   6.615
 8207SOL     OW25519   2.909   3.667   4.235
 8207SOL    HW125520   2.996   3.618   4.236
 8207SOL    HW225521   2.834   3.602   4.218
 8208SOL     OW25522   1.327   0.251   1.472
 8208SOL    HW125523   1.236   0.263   1.433
 8208SOL    HW225524   1.370   0.170   1.431
 8209SOL     OW25525   0.777   1.531   4.799
 8209SOL    HW125526   0.701   1.474   4.829
 8209SOL    HW225527   0.858   1.512   4.856
 8210SOL     OW25528   1.915   1.138   1.498
 8210SOL    HW125529   1.921   1.123   1.399
 8210SOL    HW225530   1.823   1.170   1.522
 8211SOL     OW25531   3.779   4.335   1.710
 8211SOL    HW125532   3.723   4.309   1.789
 8211SOL    HW225533   3.818   4.426   1.725
 8212SOL     OW25534   2.251   2.262   1.961
 8212SOL    HW125535   2.173   2.299   2.010
 8212SOL    HW225536   2.236   2.165   1.942
 8213SOL     OW25537   6.621   4.411   2.105
 8213SOL    HW125538   6.636   4.418   2.006
 8213SOL    HW225539   6.682   4.475   2.152
 8214SOL     OW25540   5.725   5.861   4.619
 8214SOL    HW125541   5.808   5.827   4.575
 8214SOL    HW225542   5.645   5.829   4.569
 8215SOL     OW25543   2.769   5.350   5.908
 8215SOL    HW125544   2.713   5.329   5.989
 8215SOL    HW225545   2.724   5.422   5.855
 8216SOL     OW25546   5.603   5.032   3.908
 8216SOL    HW125547   5.578   5.091   3.831
 8216SOL    HW225548   5.569   5.071   3.993
 8217SOL     OW25549   1.884   4.049   0.547
 8217SOL    HW125550   1.871   4.118   0.618
 8217SOL    HW225551   1.961   3.990   0.573
 8218SOL     OW25552   6.896   6.755   5.346
 8218SOL    HW125553   6.990   6.763   5.378
 8218SOL    HW225554   6.894   6.759   5.246
 8219SOL     OW25555   4.459   2.943   0.518
 8219SOL    HW125556   4.374   2.891   0.515
 8219SOL    HW225557   4.494   2.945   0.611
 8220SOL     OW25558   3.178   3.077   3.756
 8220SOL    HW125559   3.150   3.071   3.851
 8220SOL    HW225560   3.101   3.106   3.700
 8221SOL     OW25561   5.934   6.805   3.757
 8221SOL    HW125562   5.907   6.890   3.803
 8221SOL    HW225563   5.905   6.727   3.812
 8222SOL     OW25564   6.082   1.340   1.401
 8222SOL    HW125565   6.067   1.299   1.310
 8222SOL    HW225566   6.177   1.372   1.408
 8223SOL     OW25567   0.602   4.564   5.179
 8223SOL    HW125568   0.581   4.468   5.164
 8223SOL    HW225569   0.615   4.581   5.276
 8224SOL     OW25570   5.654   1.162   2.253
 8224SOL    HW125571   5.750   1.190   2.254
 8224SOL    HW225572   5.596   1.243   2.266
 8225SOL     OW25573   3.114   1.463   1.026
 8225SOL    HW125574   3.063   1.541   1.061
 8225SOL    HW225575   3.055   1.382   1.026
 8226SOL     OW25576   3.897   0.372   0.601
 8226SOL    HW125577   3.994   0.396   0.594
 8226SOL    HW225578   3.856   0.371   0.510
 8227SOL     OW25579   6.778   1.063   2.721
 8227SOL    HW125580   6.843   0.995   2.686
 8227SOL    HW225581   6.827   1.145   2.749
 8228SOL     OW25582   6.864   1.578   5.679
 8228SOL    HW125583   6.849   1.598   5.582
 8228SOL    HW225584   6.943   1.518   5.688
 8229SOL     OW25585   4.881   2.792   0.575
 8229SOL    HW125586   4.786   2.796   0.607
 8229SOL    HW225587   4.926   2.712   0.614
 8230SOL     OW25588   3.449   0.006   5.255
 8230SOL    HW125589   3.424   0.100   5.231
 8230SOL    HW225590   3.527   0.008   5.318
 8231SOL     OW25591   3.169   3.979   0.776
 8231SOL    HW125592   3.102   3.947   0.710
 8231SOL    HW225593   3.216   3.901   0.818
 8232SOL     OW25594   4.591   1.467   1.249
 8232SOL    HW125595   4.674   1.414   1.266
 8232SOL    HW225596   4.614   1.564   1.244
 8233SOL     OW25597   1.099   6.248   6.123
 8233SOL    HW125598   1.056   6.172   6.074
 8233SOL    HW225599   1.030   6.296   6.177
 8234SOL     OW25600   2.815   3.951   6.622
 8234SOL    HW125601   2.765   3.873   6.660
 8234SOL    HW225602   2.912   3.928   6.613
 8235SOL     OW25603   0.334   2.701   0.163
 8235SOL    HW125604   0.283   2.735   0.242
 8235SOL    HW225605   0.318   2.604   0.151
 8236SOL     OW25606   0.446   4.536   0.694
 8236SOL    HW125607   0.532   4.575   0.726
 8236SOL    HW225608   0.392   4.504   0.772
 8237SOL     OW25609   4.260   6.397   4.838
 8237SOL    HW125610   4.223   6.465   4.901
 8237SOL    HW225611   4.219   6.308   4.857
 8238SOL     OW25612   0.580   5.382   6.356
 8238SOL    HW125613   0.664   5.420   6.316
 8238SOL    HW225614   0.604   5.323   6.433
 8239SOL     OW25615   6.695   0.703   5.826
 8239SOL    HW125616   6.646   0.722   5.911
 8239SOL    HW225617   6.784   0.749   5.828
 8240SOL     OW25618   3.172   4.047   2.176
 8240SOL    HW125619   3.075   4.024   2.190
 8240SOL    HW225620   3.212   4.073   2.263
 8241SOL     OW25621   3.820   6.153   5.567
 8241SOL    HW125622   3.725   6.182   5.556
 8241SOL    HW225623   3.875   6.231   5.597
 8242SOL     OW25624   0.694   4.505   6.319
 8242SOL    HW125625   0.632   4.463   6.253
 8242SOL    HW225626   0.650   4.584   6.361
 8243SOL     OW25627   0.231   2.647   0.637
 8243SOL    HW125628   0.178   2.656   0.720
 8243SOL    HW225629   0.305   2.581   0.651
 8244SOL     OW25630   0.238   0.820   4.474
 8244SOL    HW125631   0.320   0.795   4.526
 8244SOL    HW225632   0.264   0.845   4.381
 8245SOL     OW25633   4.339   1.772   1.981
 8245SOL    HW125634   4.350   1.722   2.066
 8245SOL    HW225635   4.283   1.853   1.997
 8246SOL     OW25636   1.222   3.146   5.919
 8246SOL    HW125637   1.129   3.109   5.930
 8246SOL    HW225638   1.219   3.227   5.861
 8247SOL     OW25639   1.737   0.534   2.683
 8247SOL    HW125640   1.754   0.532   2.585
 8247SOL    HW225641   1.732   0.629   2.713
 8248SOL     OW25642   6.910   5.560   4.893
 8248SOL    HW125643   6.899   5.507   4.809
 8248SOL    HW225644   6.903   5.498   4.972
 8249SOL     OW25645   1.955   2.380   5.880
 8249SOL    HW125646   1.950   2.389   5.780
 8249SOL    HW225647   1.908   2.297   5.909
 8250SOL     OW25648   3.219   3.927   1.526
 8250SOL    HW125649   3.212   3.958   1.431
 8250SOL    HW225650   3.193   3.831   1.532
 8251SOL     OW25651   4.886   3.523   4.533
 8251SOL    HW125652   4.982   3.505   4.510
 8251SOL    HW225653   4.842   3.571   4.456
 8252SOL     OW25654   3.141   1.703   5.304
 8252SOL    HW125655   3.054   1.674   5.342
 8252SOL    HW225656   3.200   1.737   5.378
 8253SOL     OW25657   4.375   5.293   5.926
 8253SOL    HW125658   4.416   5.377   5.961
 8253SOL    HW225659   4.304   5.316   5.860
 8254SOL     OW25660   4.603   4.355   5.214
 8254SOL    HW125661   4.595   4.301   5.130
 8254SOL    HW225662   4.700   4.372   5.233
 8255SOL     OW25663   1.900   0.071   5.248
 8255SOL    HW125664   1.828   0.023   5.297
 8255SOL    HW225665   1.928   0.018   5.168
 8256SOL     OW25666   6.474   6.364   1.644
 8256SOL    HW125667   6.571   6.383   1.629
 8256SOL    HW225668   6.420   6.441   1.610
 8257SOL     OW25669   5.194   4.509   3.041
 8257SOL    HW125670   5.244   4.422   3.047
 8257SOL    HW225671   5.222   4.558   2.959
 8258SOL     OW25672   5.527   2.188   1.102
 8258SOL    HW125673   5.581   2.221   1.024
 8258SOL    HW225674   5.480   2.265   1.145
 8259SOL     OW25675   3.832   1.705   4.142
 8259SOL    HW125676   3.759   1.650   4.184
 8259SOL    HW225677   3.860   1.664   4.056
 8260SOL     OW25678   2.410   6.646   0.676
 8260SOL    HW125679   2.320   6.675   0.708
 8260SOL    HW225680   2.416   6.546   0.679
 8261SOL     OW25681   6.118   6.813   1.843
 8261SOL    HW125682   6.146   6.898   1.888
 8261SOL    HW225683   6.149   6.815   1.747
 8262SOL     OW25684   0.995   2.703   0.319
 8262SOL    HW125685   0.997   2.747   0.409
 8262SOL    HW225686   0.950   2.764   0.253
 8263SOL     OW25687   0.460   2.749   6.255
 8263SOL    HW125688   0.546   2.794   6.230
 8263SOL    HW225689   0.392   2.819   6.278
 8264SOL     OW25690   2.147   6.174   2.221
 8264SOL    HW125691   2.076   6.105   2.234
 8264SOL    HW225692   2.117   6.260   2.262
 8265SOL     OW25693   6.579   1.181   1.278
 8265SOL    HW125694   6.551   1.267   1.235
 8265SOL    HW225695   6.515   1.109   1.254
 8266SOL     OW25696   2.248   1.425   3.817
 8266SOL    HW125697   2.303   1.508   3.820
 8266SOL    HW225698   2.293   1.353   3.871
 8267SOL     OW25699   1.906   3.460   0.986
 8267SOL    HW125700   1.880   3.516   0.907
 8267SOL    HW225701   1.832   3.460   1.053
 8268SOL     OW25702   1.952   6.577   5.962
 8268SOL    HW125703   1.903   6.643   5.905
 8268SOL    HW225704   1.980   6.621   6.047
 8269SOL     OW25705   4.653   1.029   2.144
 8269SOL    HW125706   4.693   0.943   2.112
 8269SOL    HW225707   4.641   1.026   2.243
 8270SOL     OW25708   3.087   6.208   5.076
 8270SOL    HW125709   3.006   6.263   5.093
 8270SOL    HW225710   3.130   6.185   5.164
 8271SOL     OW25711   0.299   0.255   3.987
 8271SOL    HW125712   0.364   0.325   4.018
 8271SOL    HW225713   0.213   0.299   3.962
 8272SOL     OW25714   6.319   2.128   2.722
 8272SOL    HW125715   6.332   2.226   2.707
 8272SOL    HW225716   6.258   2.114   2.800
 8273SOL     OW25717   2.667   1.099   0.807
 8273SOL    HW125718   2.609   1.136   0.880
 8273SOL    HW225719   2.745   1.160   0.792
 8274SOL     OW25720   4.337   4.983   3.972
 8274SOL    HW125721   4.378   5.055   4.028
 8274SOL    HW225722   4.321   4.902   4.030
 8275SOL     OW25723   5.816   1.157   4.619
 8275SOL    HW125724   5.851   1.079   4.671
 8275SOL    HW225725   5.891   1.219   4.596
 8276SOL     OW25726   0.957   2.474   4.280
 8276SOL    HW125727   0.982   2.557   4.331
 8276SOL    HW225728   0.903   2.414   4.339
 8277SOL     OW25729   0.434   5.968   6.551
 8277SOL    HW125730   0.525   5.996   6.582
 8277SOL    HW225731   0.420   5.999   6.457
 8278SOL     OW25732   3.129   1.468   6.448
 8278SOL    HW125733   3.036   1.451   6.414
 8278SOL    HW225734   3.194   1.464   6.372
 8279SOL     OW25735   1.137   6.113   4.674
 8279SOL    HW125736   1.138   6.201   4.627
 8279SOL    HW225737   1.125   6.129   4.772
 8280SOL     OW25738   2.181   3.122   0.331
 8280SOL    HW125739   2.190   3.200   0.269
 8280SOL    HW225740   2.169   3.038   0.278
 8281SOL     OW25741   2.835   4.269   1.713
 8281SOL    HW125742   2.928   4.261   1.678
 8281SOL    HW225743   2.830   4.343   1.780
 8282SOL     OW25744   5.015   3.475   0.089
 8282SOL    HW125745   4.992   3.460   0.185
 8282SOL    HW225746   5.114   3.486   0.080
 8283SOL     OW25747   1.434   5.321   5.561
 8283SOL    HW125748   1.435   5.222   5.568
 8283SOL    HW225749   1.518   5.359   5.602
 8284SOL     OW25750   1.014   3.773   1.697
 8284SOL    HW125751   1.041   3.685   1.736
 8284SOL    HW225752   1.088   3.839   1.710
 8285SOL     OW25753   3.156   3.927   5.288
 8285SOL    HW125754   3.224   3.996   5.311
 8285SOL    HW225755   3.081   3.969   5.236
 8286SOL     OW25756   5.455   1.799   5.500
 8286SOL    HW125757   5.529   1.745   5.459
 8286SOL    HW225758   5.435   1.878   5.442
 8287SOL     OW25759   1.294   4.894   4.292
 8287SOL    HW125760   1.338   4.983   4.304
 8287SOL    HW225761   1.267   4.883   4.196
 8288SOL     OW25762   3.080   2.088   1.990
 8288SOL    HW125763   3.118   2.092   2.083
 8288SOL    HW225764   3.022   2.168   1.974
 8289SOL     OW25765   0.697   6.290   7.005
 8289SOL    HW125766   0.605   6.252   6.999
 8289SOL    HW225767   0.753   6.233   0.048
 8290SOL     OW25768   5.111   1.611   0.841
 8290SOL    HW125769   5.161   1.667   0.774
 8290SOL    HW225770   5.114   1.515   0.812
 8291SOL     OW25771   4.359   6.053   4.932
 8291SOL    HW125772   4.449   6.095   4.946
 8291SOL    HW225773   4.295   6.090   5.000
 8292SOL     OW25774   3.193   6.810   6.616
 8292SOL    HW125775   3.197   6.903   6.653
 8292SOL    HW225776   3.247   6.749   6.674
 8293SOL     OW25777   2.480   5.602   0.575
 8293SOL    HW125778   2.536   5.568   0.650
 8293SOL    HW225779   2.509   5.561   0.489
 8294SOL     OW25780   5.620   3.842   5.218
 8294SOL    HW125781   5.690   3.882   5.276
 8294SOL    HW225782   5.581   3.762   5.264
 8295SOL     OW25783   5.280   5.327   1.751
 8295SOL    HW125784   5.374   5.352   1.728
 8295SOL    HW225785   5.276   5.292   1.844
 8296SOL     OW25786   1.908   4.481   6.540
 8296SOL    HW125787   1.892   4.386   6.566
 8296SOL    HW225788   2.006   4.494   6.523
 8297SOL     OW25789   0.126   3.145   2.907
 8297SOL    HW125790   0.104   3.241   2.888
 8297SOL    HW225791   0.048   3.102   2.952
 8298SOL     OW25792   6.209   1.524   1.065
 8298SOL    HW125793   6.123   1.571   1.082
 8298SOL    HW225794   6.190   1.437   1.018
 8299SOL     OW25795   0.625   2.600   2.347
 8299SOL    HW125796   0.564   2.631   2.421
 8299SOL    HW225797   0.695   2.540   2.385
 8300SOL     OW25798   0.173   5.581   4.292
 8300SOL    HW125799   0.137   5.650   4.354
 8300SOL    HW225800   0.148   5.490   4.325
 8301SOL     OW25801   3.710   1.596   0.771
 8301SOL    HW125802   3.724   1.497   0.765
 8301SOL    HW225803   3.799   1.642   0.775
 8302SOL     OW25804   5.417   7.002   6.657
 8302SOL    HW125805   5.395   6.904   6.651
 8302SOL    HW225806   5.487   7.016   6.727
 8303SOL     OW25807   6.163   0.708   3.700
 8303SOL    HW125808   6.256   0.744   3.693
 8303SOL    HW225809   6.098   0.783   3.708
 8304SOL     OW25810   6.258   3.271   1.233
 8304SOL    HW125811   6.296   3.182   1.260
 8304SOL    HW225812   6.326   3.321   1.179
 8305SOL     OW25813   4.477   5.025   3.754
 8305SOL    HW125814   4.559   4.975   3.784
 8305SOL    HW225815   4.407   5.019   3.825
 8306SOL     OW25816   5.089   1.241   5.154
 8306SOL    HW125817   5.081   1.160   5.213
 8306SOL    HW225818   5.170   1.293   5.181
 8307SOL     OW25819   3.629   5.157   1.430
 8307SOL    HW125820   3.549   5.149   1.371
 8307SOL    HW225821   3.650   5.068   1.471
 8308SOL     OW25822   2.953   5.580   1.363
 8308SOL    HW125823   2.879   5.513   1.357
 8308SOL    HW225824   2.931   5.660   1.308
 8309SOL     OW25825   6.637   5.770   4.034
 8309SOL    HW125826   6.620   5.685   4.085
 8309SOL    HW225827   6.732   5.798   4.047
 8310SOL     OW25828   0.337   5.429   1.320
 8310SOL    HW125829   0.297   5.378   1.244
 8310SOL    HW225830   0.389   5.506   1.284
 8311SOL     OW25831   0.796   2.289   5.248
 8311SOL    HW125832   0.799   2.240   5.161
 8311SOL    HW225833   0.888   2.321   5.272
 8312SOL     OW25834   4.784   0.380   6.927
 8312SOL    HW125835   4.732   0.312   6.875
 8312SOL    HW225836   4.763   0.371   0.008
 8313SOL     OW25837   5.078   6.780   0.294
 8313SOL    HW125838   5.112   6.688   0.313
 8313SOL    HW225839   5.155   6.838   0.266
 8314SOL     OW25840   4.731   0.378   0.163
 8314SOL    HW125841   4.740   0.303   0.230
 8314SOL    HW225842   4.675   0.451   0.202
 8315SOL     OW25843   4.722   2.924   0.861
 8315SOL    HW125844   4.723   3.008   0.807
 8315SOL    HW225845   4.670   2.938   0.945
 8316SOL     OW25846   1.389   2.158   1.808
 8316SOL    HW125847   1.428   2.138   1.718
 8316SOL    HW225848   1.298   2.198   1.796
 8317SOL     OW25849   1.612   2.817   2.409
 8317SOL    HW125850   1.577   2.779   2.494
 8317SOL    HW225851   1.578   2.763   2.331
 8318SOL     OW25852   4.026   1.620   5.918
 8318SOL    HW125853   4.052   1.547   5.981
 8318SOL    HW225854   4.018   1.706   5.968
 8319SOL     OW25855   1.480   1.946   0.789
 8319SOL    HW125856   1.552   1.879   0.811
 8319SOL    HW225857   1.395   1.898   0.770
 8320SOL     OW25858   3.188   3.486   2.504
 8320SOL    HW125859   3.108   3.493   2.564
 8320SOL    HW225860   3.252   3.418   2.540
 8321SOL     OW25861   0.081   0.507   6.470
 8321SOL    HW125862   0.057   0.481   6.377
 8321SOL    HW225863   0.152   0.444   6.504
 8322SOL     OW25864   6.702   0.440   0.943
 8322SOL    HW125865   6.629   0.372   0.943
 8322SOL    HW225866   6.789   0.396   0.922
 8323SOL     OW25867   5.566   5.808   2.101
 8323SOL    HW125868   5.531   5.901   2.115
 8323SOL    HW225869   5.574   5.762   2.189
 8324SOL     OW25870   5.872   6.697   1.228
 8324SOL    HW125871   5.878   6.766   1.300
 8324SOL    HW225872   5.779   6.660   1.226
 8325SOL     OW25873   1.958   3.958   5.393
 8325SOL    HW125874   1.997   3.868   5.413
 8325SOL    HW225875   1.942   3.966   5.295
 8326SOL     OW25876   5.154   3.099   5.740
 8326SOL    HW125877   5.091   3.174   5.764
 8326SOL    HW225878   5.121   3.014   5.781
 8327SOL     OW25879   6.465   0.674   5.650
 8327SOL    HW125880   6.393   0.743   5.647
 8327SOL    HW225881   6.534   0.700   5.718
 8328SOL     OW25882   2.898   6.333   6.197
 8328SOL    HW125883   2.863   6.240   6.192
 8328SOL    HW225884   2.868   6.384   6.116
 8329SOL     OW25885   1.400   3.055   6.131
 8329SOL    HW125886   1.496   3.081   6.120
 8329SOL    HW225887   1.350   3.080   6.048
 8330SOL     OW25888   2.706   1.289   6.601
 8330SOL    HW125889   2.806   1.292   6.612
 8330SOL    HW225890   2.679   1.199   6.568
 8331SOL     OW25891   3.229   0.727   1.419
 8331SOL    HW125892   3.262   0.804   1.365
 8331SOL    HW225893   3.220   0.754   1.514
 8332SOL     OW25894   5.237   5.460   2.466
 8332SOL    HW125895   5.151   5.510   2.463
 8332SOL    HW225896   5.280   5.460   2.376
 8333SOL     OW25897   0.064   5.611   6.103
 8333SOL    HW125898   0.158   5.578   6.102
 8333SOL    HW225899   0.048   5.663   6.187
 8334SOL     OW25900   3.808   1.063   4.226
 8334SOL    HW125901   3.823   0.998   4.152
 8334SOL    HW225902   3.711   1.084   4.233
 8335SOL     OW25903   5.038   0.333   0.046
 8335SOL    HW125904   5.115   0.394   0.027
 8335SOL    HW225905   4.957   0.365   7.013
 8336SOL     OW25906   0.286   4.687   3.143
 8336SOL    HW125907   0.321   4.781   3.145
 8336SOL    HW225908   0.202   4.682   3.197
 8337SOL     OW25909   2.195   6.754   3.014
 8337SOL    HW125910   2.152   6.668   2.983
 8337SOL    HW225911   2.201   6.817   2.937
 8338SOL     OW25912   3.768   5.202   2.038
 8338SOL    HW125913   3.695   5.230   1.977
 8338SOL    HW225914   3.737   5.124   2.093
 8339SOL     OW25915   6.369   0.244   1.894
 8339SOL    HW125916   6.329   0.313   1.834
 8339SOL    HW225917   6.453   0.280   1.936
 8340SOL     OW25918   4.920   2.997   0.437
 8340SOL    HW125919   4.894   2.913   0.484
 8340SOL    HW225920   5.020   3.000   0.426
 8341SOL     OW25921   3.281   6.749   0.297
 8341SOL    HW125922   3.224   6.823   0.334
 8341SOL    HW225923   3.359   6.734   0.356
 8342SOL     OW25924   4.324   6.601   0.602
 8342SOL    HW125925   4.403   6.571   0.655
 8342SOL    HW225926   4.241   6.586   0.656
 8343SOL     OW25927   1.148   5.404   4.895
 8343SOL    HW125928   1.213   5.331   4.873
 8343SOL    HW225929   1.195   5.475   4.948
 8344SOL     OW25930   4.890   5.767   4.895
 8344SOL    HW125931   4.946   5.709   4.836
 8344SOL    HW225932   4.817   5.809   4.842
 8345SOL     OW25933   4.334   1.126   2.776
 8345SOL    HW125934   4.420   1.154   2.734
 8345SOL    HW225935   4.259   1.143   2.712
 8346SOL     OW25936   3.994   5.079   0.313
 8346SOL    HW125937   3.980   5.096   0.216
 8346SOL    HW225938   3.905   5.071   0.358
 8347SOL     OW25939   3.739   5.608   4.038
 8347SOL    HW125940   3.730   5.613   4.137
 8347SOL    HW225941   3.692   5.526   4.004
 8348SOL     OW25942   2.448   0.835   1.765
 8348SOL    HW125943   2.421   0.888   1.684
 8348SOL    HW225944   2.547   0.841   1.776
 8349SOL     OW25945   6.013   6.544   1.882
 8349SOL    HW125946   6.066   6.629   1.883
 8349SOL    HW225947   6.067   6.472   1.927
 8350SOL     OW25948   3.286   6.890   6.299
 8350SOL    HW125949   3.270   6.848   6.209
 8350SOL    HW225950   3.310   6.819   6.365
 8351SOL     OW25951   5.811   4.921   4.087
 8351SOL    HW125952   5.874   4.990   4.051
 8351SOL    HW225953   5.737   4.905   4.022
 8352SOL     OW25954   0.432   0.337   3.564
 8352SOL    HW125955   0.513   0.279   3.578
 8352SOL    HW225956   0.355   0.298   3.614
 8353SOL     OW25957   6.861   3.564   1.505
 8353SOL    HW125958   6.782   3.565   1.566
 8353SOL    HW225959   6.887   3.658   1.483
 8354SOL     OW25960   4.313   6.764   5.266
 8354SOL    HW125961   4.308   6.664   5.265
 8354SOL    HW225962   4.293   6.799   5.174
 8355SOL     OW25963   2.358   0.722   5.883
 8355SOL    HW125964   2.344   0.626   5.907
 8355SOL    HW225965   2.435   0.759   5.936
 8356SOL     OW25966   1.068   6.924   1.032
 8356SOL    HW125967   1.140   6.893   0.970
 8356SOL    HW225968   1.037   6.847   1.088
 8357SOL     OW25969   3.612   6.633   4.785
 8357SOL    HW125970   3.622   6.686   4.869
 8357SOL    HW225971   3.576   6.691   4.713
 8358SOL     OW25972   1.427   4.182   4.832
 8358SOL    HW125973   1.490   4.259   4.844
 8358SOL    HW225974   1.475   4.104   4.792
 8359SOL     OW25975   3.112   0.676   4.993
 8359SOL    HW125976   3.148   0.762   4.957
 8359SOL    HW225977   3.164   0.599   4.954
 8360SOL     OW25978   3.810   6.373   0.795
 8360SOL    HW125979   3.786   6.415   0.883
 8360SOL    HW225980   3.728   6.361   0.740
 8361SOL     OW25981   3.295   0.281   2.610
 8361SOL    HW125982   3.320   0.320   2.698
 8361SOL    HW225983   3.364   0.305   2.542
 8362SOL     OW25984   4.011   2.375   0.863
 8362SOL    HW125985   4.033   2.302   0.928
 8362SOL    HW225986   4.080   2.376   0.790
 8363SOL     OW25987   6.382   2.822   6.174
 8363SOL    HW125988   6.433   2.881   6.237
 8363SOL    HW225989   6.376   2.730   6.211
 8364SOL     OW25990   1.076   2.704   3.598
 8364SOL    HW125991   1.036   2.692   3.689
 8364SOL    HW225992   1.072   2.617   3.548
 8365SOL     OW25993   1.744   3.407   1.777
 8365SOL    HW125994   1.659   3.436   1.734
 8365SOL    HW225995   1.821   3.454   1.734
 8366SOL     OW25996   2.084   5.786   1.758
 8366SOL    HW125997   2.156   5.796   1.689
 8366SOL    HW225998   1.995   5.787   1.713
 8367SOL     OW25999   4.230   5.959   4.218
 8367SOL    HW126000   4.177   6.019   4.158
 8367SOL    HW226001   4.256   5.877   4.167
 8368SOL     OW26002   2.003   5.660   6.172
 8368SOL    HW126003   1.943   5.646   6.093
 8368SOL    HW226004   1.963   5.618   6.253
 8369SOL     OW26005   1.134   0.041   6.403
 8369SOL    HW126006   1.221   0.081   6.376
 8369SOL    HW226007   1.060   0.083   6.349
 8370SOL     OW26008   2.913   1.467   5.917
 8370SOL    HW126009   2.923   1.376   5.956
 8370SOL    HW226010   2.964   1.473   5.832
 8371SOL     OW26011   2.235   4.789   1.168
 8371SOL    HW126012   2.235   4.880   1.126
 8371SOL    HW226013   2.330   4.757   1.177
 8372SOL     OW26014   2.005   5.267   1.882
 8372SOL    HW126015   1.921   5.217   1.862
 8372SOL    HW226016   2.004   5.297   1.977
 8373SOL     OW26017   1.683   0.201   4.434
 8373SOL    HW126018   1.749   0.233   4.501
 8373SOL    HW226019   1.662   0.275   4.369
 8374SOL     OW26020   6.864   0.684   5.322
 8374SOL    HW126021   6.937   0.662   5.387
 8374SOL    HW226022   6.777   0.653   5.359
 8375SOL     OW26023   3.187   6.369   4.882
 8375SOL    HW126024   3.151   6.306   4.951
 8375SOL    HW226025   3.216   6.454   4.926
 8376SOL     OW26026   1.533   1.275   4.271
 8376SOL    HW126027   1.497   1.192   4.313
 8376SOL    HW226028   1.492   1.355   4.315
 8377SOL     OW26029   5.192   6.717   0.844
 8377SOL    HW126030   5.209   6.814   0.823
 8377SOL    HW226031   5.145   6.674   0.767
 8378SOL     OW26032   4.689   5.787   2.729
 8378SOL    HW126033   4.695   5.695   2.689
 8378SOL    HW226034   4.613   5.790   2.794
 8379SOL     OW26035   5.453   2.958   1.274
 8379SOL    HW126036   5.487   2.897   1.346
 8379SOL    HW226037   5.488   3.050   1.289
 8380SOL     OW26038   0.553   0.290   2.843
 8380SOL    HW126039   0.609   0.245   2.774
 8380SOL    HW226040   0.490   0.223   2.883
 8381SOL     OW26041   0.431   3.014   5.023
 8381SOL    HW126042   0.499   3.082   5.050
 8381SOL    HW226043   0.340   3.056   5.021
 8382SOL     OW26044   2.981   0.516   2.940
 8382SOL    HW126045   2.888   0.488   2.916
 8382SOL    HW226046   3.037   0.521   2.857
 8383SOL     OW26047   2.712   6.976   5.924
 8383SOL    HW126048   2.787   0.023   5.902
 8383SOL    HW226049   2.660   7.012   6.002
 8384SOL     OW26050   6.530   0.726   1.355
 8384SOL    HW126051   6.601   0.734   1.285
 8384SOL    HW226052   6.509   0.630   1.370
 8385SOL     OW26053   5.665   2.305   0.865
 8385SOL    HW126054   5.712   2.231   0.818
 8385SOL    HW226055   5.635   2.373   0.798
 8386SOL     OW26056   2.356   5.554   1.918
 8386SOL    HW126057   2.262   5.568   1.950
 8386SOL    HW226058   2.400   5.642   1.902
 8387SOL     OW26059   1.326   1.290   1.689
 8387SOL    HW126060   1.274   1.359   1.739
 8387SOL    HW226061   1.354   1.327   1.601
 8388SOL     OW26062   2.161   6.229   0.344
 8388SOL    HW126063   2.252   6.258   0.374
 8388SOL    HW226064   2.169   6.148   0.285
 8389SOL     OW26065   0.206   3.843   2.587
 8389SOL    HW126066   0.122   3.817   2.635
 8389SOL    HW226067   0.263   3.898   2.648
 8390SOL     OW26068   4.695   1.097   0.302
 8390SOL    HW126069   4.641   1.017   0.325
 8390SOL    HW226070   4.651   1.147   0.227
 8391SOL     OW26071   6.556   5.165   1.017
 8391SOL    HW126072   6.518   5.230   1.082
 8391SOL    HW226073   6.534   5.195   0.924
 8392SOL     OW26074   6.493   3.968   4.854
 8392SOL    HW126075   6.399   3.995   4.874
 8392SOL    HW226076   6.556   4.027   4.905
 8393SOL     OW26077   0.113   6.329   2.870
 8393SOL    HW126078   0.144   6.251   2.817
 8393SOL    HW226079   0.185   6.398   2.875
 8394SOL     OW26080   6.642   2.601   1.726
 8394SOL    HW126081   6.708   2.616   1.799
 8394SOL    HW226082   6.643   2.679   1.663
 8395SOL     OW26083   2.060   6.753   5.157
 8395SOL    HW126084   2.036   6.842   5.119
 8395SOL    HW226085   2.160   6.742   5.157
 8396SOL     OW26086   5.111   5.325   2.032
 8396SOL    HW126087   5.088   5.404   1.975
 8396SOL    HW226088   5.106   5.351   2.128
 8397SOL     OW26089   1.986   0.460   2.746
 8397SOL    HW126090   2.018   0.454   2.841
 8397SOL    HW226091   1.890   0.490   2.746
 8398SOL     OW26092   3.883   1.700   6.830
 8398SOL    HW126093   3.817   1.724   6.902
 8398SOL    HW226094   3.975   1.695   6.869
 8399SOL     OW26095   5.458   6.205   6.611
 8399SOL    HW126096   5.398   6.281   6.586
 8399SOL    HW226097   5.549   6.220   6.573
 8400SOL     OW26098   1.777   1.077   4.190
 8400SOL    HW126099   1.687   1.100   4.227
 8400SOL    HW226100   1.783   1.110   4.096
 8401SOL     OW26101   2.504   1.456   5.567
 8401SOL    HW126102   2.479   1.524   5.636
 8401SOL    HW226103   2.478   1.365   5.600
 8402SOL     OW26104   4.448   1.726   5.899
 8402SOL    HW126105   4.482   1.808   5.852
 8402SOL    HW226106   4.359   1.701   5.861
 8403SOL     OW26107   1.061   2.935   4.885
 8403SOL    HW126108   1.094   2.970   4.973
 8403SOL    HW226109   0.984   2.991   4.854
 8404SOL     OW26110   3.931   0.037   5.768
 8404SOL    HW126111   4.026   0.051   5.740
 8404SOL    HW226112   3.874   0.108   5.726
 8405SOL     OW26113   1.458   1.051   5.575
 8405SOL    HW126114   1.432   1.106   5.655
 8405SOL    HW226115   1.505   0.969   5.605
 8406SOL     OW26116   4.653   0.402   0.583
 8406SOL    HW126117   4.718   0.479   0.588
 8406SOL    HW226118   4.622   0.380   0.676
 8407SOL     OW26119   3.578   6.507   3.466
 8407SOL    HW126120   3.645   6.490   3.538
 8407SOL    HW226121   3.486   6.485   3.501
 8408SOL     OW26122   5.868   4.411   1.535
 8408SOL    HW126123   5.828   4.475   1.469
 8408SOL    HW226124   5.967   4.408   1.522
 8409SOL     OW26125   5.595   2.170   3.333
 8409SOL    HW126126   5.531   2.107   3.376
 8409SOL    HW226127   5.654   2.211   3.403
 8410SOL     OW26128   5.233   0.840   2.036
 8410SOL    HW126129   5.295   0.770   2.070
 8410SOL    HW226130   5.182   0.804   1.958
 8411SOL     OW26131   0.662   4.652   0.290
 8411SOL    HW126132   0.562   4.650   0.286
 8411SOL    HW226133   0.699   4.640   0.198
 8412SOL     OW26134   3.303   1.894   1.269
 8412SOL    HW126135   3.279   1.843   1.352
 8412SOL    HW226136   3.305   1.991   1.290
 8413SOL     OW26137   4.161   5.545   6.575
 8413SOL    HW126138   4.222   5.560   6.497
 8413SOL    HW226139   4.106   5.463   6.559
 8414SOL     OW26140   3.938   5.359   3.393
 8414SOL    HW126141   3.862   5.353   3.328
 8414SOL    HW226142   3.988   5.444   3.378
 8415SOL     OW26143   6.877   6.398   3.991
 8415SOL    HW126144   6.827   6.430   4.071
 8415SOL    HW226145   6.976   6.407   4.007
 8416SOL     OW26146   5.669   3.633   2.458
 8416SOL    HW126147   5.614   3.673   2.532
 8416SOL    HW226148   5.614   3.627   2.375
 8417SOL     OW26149   1.235   4.298   5.509
 8417SOL    HW126150   1.316   4.335   5.463
 8417SOL    HW226151   1.260   4.271   5.602
 8418SOL     OW26152   5.826   5.188   0.994
 8418SOL    HW126153   5.925   5.200   0.999
 8418SOL    HW226154   5.800   5.168   0.899
 8419SOL     OW26155   5.607   0.073   2.078
 8419SOL    HW126156   5.704   0.048   2.075
 8419SOL    HW226157   5.596   0.155   2.134
 8420SOL     OW26158   4.283   0.236   6.716
 8420SOL    HW126159   4.356   0.170   6.730
 8420SOL    HW226160   4.289   0.308   6.786
 8421SOL     OW26161   2.294   5.434   6.818
 8421SOL    HW126162   2.347   5.372   6.762
 8421SOL    HW226163   2.213   5.464   6.768
 8422SOL     OW26164   4.060   1.183   1.596
 8422SOL    HW126165   4.031   1.117   1.666
 8422SOL    HW226166   4.018   1.160   1.509
 8423SOL     OW26167   3.108   4.933   5.527
 8423SOL    HW126168   3.118   5.012   5.586
 8423SOL    HW226169   3.158   4.947   5.442
 8424SOL     OW26170   2.359   1.998   2.456
 8424SOL    HW126171   2.415   2.021   2.376
 8424SOL    HW226172   2.284   2.063   2.464
 8425SOL     OW26173   4.959   5.088   5.918
 8425SOL    HW126174   5.006   5.085   6.006
 8425SOL    HW226175   4.898   5.168   5.916
 8426SOL     OW26176   3.567   3.334   3.251
 8426SOL    HW126177   3.572   3.254   3.192
 8426SOL    HW226178   3.565   3.305   3.347
 8427SOL     OW26179   3.564   4.198   5.048
 8427SOL    HW126180   3.488   4.192   4.984
 8427SOL    HW226181   3.650   4.176   5.001
 8428SOL     OW26182   0.951   5.651   1.586
 8428SOL    HW126183   0.859   5.612   1.580
 8428SOL    HW226184   0.946   5.740   1.632
 8429SOL     OW26185   0.789   6.042   4.168
 8429SOL    HW126186   0.865   6.057   4.232
 8429SOL    HW226187   0.733   5.966   4.201
 8430SOL     OW26188   3.497   5.241   3.236
 8430SOL    HW126189   3.405   5.277   3.250
 8430SOL    HW226190   3.508   5.155   3.286
 8431SOL     OW26191   3.068   4.746   0.689
 8431SOL    HW126192   3.001   4.678   0.660
 8431SOL    HW226193   3.152   4.734   0.636
 8432SOL     OW26194   5.915   6.353   5.979
 8432SOL    HW126195   5.835   6.297   5.961
 8432SOL    HW226196   5.907   6.393   6.070
 8433SOL     OW26197   5.249   2.631   0.520
 8433SOL    HW126198   5.327   2.692   0.512
 8433SOL    HW226199   5.179   2.657   0.453
 8434SOL     OW26200   2.766   6.528   5.015
 8434SOL    HW126201   2.710   6.565   4.941
 8434SOL    HW226202   2.847   6.585   5.027
 8435SOL     OW26203   6.067   0.804   1.515
 8435SOL    HW126204   6.106   0.796   1.423
 8435SOL    HW226205   6.076   0.898   1.547
 8436SOL     OW26206   3.239   6.091   3.273
 8436SOL    HW126207   3.156   6.141   3.297
 8436SOL    HW226208   3.299   6.151   3.220
 8437SOL     OW26209   2.436   1.183   4.380
 8437SOL    HW126210   2.454   1.152   4.473
 8437SOL    HW226211   2.508   1.247   4.352
 8438SOL     OW26212   2.067   4.935   2.556
 8438SOL    HW126213   2.108   4.856   2.602
 8438SOL    HW226214   2.137   4.984   2.504
 8439SOL     OW26215   6.548   4.748   2.871
 8439SOL    HW126216   6.555   4.676   2.802
 8439SOL    HW226217   6.480   4.816   2.842
 8440SOL     OW26218   1.684   2.055   3.618
 8440SOL    HW126219   1.737   2.139   3.610
 8440SOL    HW226220   1.658   2.042   3.714
 8441SOL     OW26221   6.008   6.406   0.424
 8441SOL    HW126222   6.100   6.435   0.451
 8441SOL    HW226223   5.997   6.309   0.445
 8442SOL     OW26224   3.114   2.036   5.183
 8442SOL    HW126225   3.134   2.128   5.148
 8442SOL    HW226226   3.028   2.038   5.234
 8443SOL     OW26227   2.182   4.637   3.376
 8443SOL    HW126228   2.238   4.695   3.317
 8443SOL    HW226229   2.237   4.562   3.412
 8444SOL     OW26230   3.040   5.838   3.877
 8444SOL    HW126231   2.957   5.864   3.827
 8444SOL    HW226232   3.104   5.794   3.814
 8445SOL     OW26233   3.469   6.703   1.259
 8445SOL    HW126234   3.508   6.791   1.231
 8445SOL    HW226235   3.416   6.715   1.343
 8446SOL     OW26236   4.736   4.927   6.919
 8446SOL    HW126237   4.773   4.835   6.927
 8446SOL    HW226238   4.638   4.926   6.940
 8447SOL     OW26239   5.110   1.568   2.514
 8447SOL    HW126240   5.107   1.656   2.562
 8447SOL    HW226241   5.204   1.549   2.486
 8448SOL     OW26242   4.551   5.684   4.326
 8448SOL    HW126243   4.531   5.756   4.392
 8448SOL    HW226244   4.559   5.723   4.234
 8449SOL     OW26245   0.256   2.830   3.680
 8449SOL    HW126246   0.348   2.808   3.646
 8449SOL    HW226247   0.189   2.814   3.608
 8450SOL     OW26248   0.365   6.458   1.070
 8450SOL    HW126249   0.317   6.540   1.101
 8450SOL    HW226250   0.346   6.443   0.973
 8451SOL     OW26251   3.921   1.631   0.209
 8451SOL    HW126252   4.007   1.681   0.205
 8451SOL    HW226253   3.888   1.629   0.304
 8452SOL     OW26254   5.954   1.762   2.829
 8452SOL    HW126255   5.970   1.835   2.895
 8452SOL    HW226256   5.860   1.766   2.796
 8453SOL     OW26257   0.727   4.352   6.691
 8453SOL    HW126258   0.826   4.346   6.679
 8453SOL    HW226259   0.683   4.272   6.650
 8454SOL     OW26260   6.626   6.688   1.615
 8454SOL    HW126261   6.548   6.626   1.604
 8454SOL    HW226262   6.629   6.751   1.537
 8455SOL     OW26263   6.490   2.514   2.047
 8455SOL    HW126264   6.426   2.467   2.108
 8455SOL    HW226265   6.520   2.451   1.976
 8456SOL     OW26266   3.694   5.662   3.270
 8456SOL    HW126267   3.761   5.736   3.258
 8456SOL    HW226268   3.613   5.681   3.214
 8457SOL     OW26269   6.413   6.868   4.586
 8457SOL    HW126270   6.376   6.879   4.493
 8457SOL    HW226271   6.488   6.802   4.584
 8458SOL     OW26272   3.165   0.728   6.814
 8458SOL    HW126273   3.140   0.812   6.766
 8458SOL    HW226274   3.223   0.671   6.755
 8459SOL     OW26275   2.649   6.056   2.187
 8459SOL    HW126276   2.620   5.974   2.139
 8459SOL    HW226277   2.725   6.099   2.137
 8460SOL     OW26278   4.077   4.274   5.286
 8460SOL    HW126279   4.119   4.346   5.231
 8460SOL    HW226280   4.031   4.209   5.226
 8461SOL     OW26281   0.888   4.234   4.829
 8461SOL    HW126282   0.891   4.315   4.887
 8461SOL    HW226283   0.981   4.204   4.808
 8462SOL     OW26284   2.499   2.653   6.822
 8462SOL    HW126285   2.523   2.594   6.899
 8462SOL    HW226286   2.527   2.610   6.737
 8463SOL     OW26287   0.052   6.793   0.905
 8463SOL    HW126288   0.069   6.704   0.948
 8463SOL    HW226289   6.988   6.788   0.846
 8464SOL     OW26290   5.652   3.632   3.907
 8464SOL    HW126291   5.747   3.599   3.908
 8464SOL    HW226292   5.637   3.691   3.986
 8465SOL     OW26293   1.018   3.156   0.555
 8465SOL    HW126294   0.972   3.155   0.644
 8465SOL    HW226295   1.117   3.157   0.568
 8466SOL     OW26296   0.842   6.335   3.912
 8466SOL    HW126297   0.758   6.379   3.881
 8466SOL    HW226298   0.919   6.370   3.859
 8467SOL     OW26299   3.952   7.007   6.427
 8467SOL    HW126300   3.946   0.023   6.332
 8467SOL    HW226301   4.010   6.925   6.430
 8468SOL     OW26302   3.696   2.122   6.709
 8468SOL    HW126303   3.787   2.103   6.745
 8468SOL    HW226304   3.698   2.120   6.609
 8469SOL     OW26305   3.386   1.740   6.971
 8469SOL    HW126306   3.468   1.797   6.981
 8469SOL    HW226307   3.305   1.794   6.993
 8470SOL     OW26308   1.671   4.165   0.010
 8470SOL    HW126309   1.746   4.192   0.071
 8470SOL    HW226310   1.584   4.183   0.055
 8471SOL     OW26311   3.262   1.308   3.540
 8471SOL    HW126312   3.246   1.246   3.617
 8471SOL    HW226313   3.236   1.401   3.567
 8472SOL     OW26314   6.753   1.163   4.887
 8472SOL    HW126315   6.808   1.086   4.921
 8472SOL    HW226316   6.660   1.132   4.869
 8473SOL     OW26317   6.448   6.214   6.769
 8473SOL    HW126318   6.375   6.282   6.766
 8473SOL    HW226319   6.461   6.174   6.678
 8474SOL     OW26320   3.324   3.178   1.943
 8474SOL    HW126321   3.358   3.272   1.932
 8474SOL    HW226322   3.400   3.118   1.969
 8475SOL     OW26323   0.470   2.752   3.550
 8475SOL    HW126324   0.559   2.772   3.591
 8475SOL    HW226325   0.474   2.768   3.451
 8476SOL     OW26326   0.085   2.064   0.872
 8476SOL    HW126327   7.008   2.100   0.869
 8476SOL    HW226328   0.103   2.024   0.962
 8477SOL     OW26329   5.089   6.799   1.577
 8477SOL    HW126330   5.137   6.796   1.664
 8477SOL    HW226331   5.110   6.717   1.524
 8478SOL     OW26332   1.214   6.592   6.197
 8478SOL    HW126333   1.266   6.521   6.243
 8478SOL    HW226334   1.273   6.637   6.129
 8479SOL     OW26335   0.216   3.026   1.138
 8479SOL    HW126336   0.302   3.049   1.183
 8479SOL    HW226337   0.207   3.078   1.053
 8480SOL     OW26338   4.532   1.575   6.902
 8480SOL    HW126339   4.479   1.660   6.902
 8480SOL    HW226340   4.521   1.528   6.989
 8481SOL     OW26341   4.424   2.105   3.749
 8481SOL    HW126342   4.340   2.054   3.728
 8481SOL    HW226343   4.461   2.074   3.837
 8482SOL     OW26344   4.681   5.670   2.163
 8482SOL    HW126345   4.699   5.757   2.116
 8482SOL    HW226346   4.711   5.594   2.106
 8483SOL     OW26347   4.247   6.214   2.181
 8483SOL    HW126348   4.191   6.240   2.102
 8483SOL    HW226349   4.220   6.123   2.212
 8484SOL     OW26350   0.615   5.652   3.268
 8484SOL    HW126351   0.599   5.708   3.349
 8484SOL    HW226352   0.545   5.581   3.262
 8485SOL     OW26353   3.477   2.971   0.476
 8485SOL    HW126354   3.575   2.952   0.467
 8485SOL    HW226355   3.425   2.887   0.459
 8486SOL     OW26356   4.071   0.908   3.090
 8486SOL    HW126357   4.106   0.854   3.166
 8486SOL    HW226358   3.976   0.882   3.072
 8487SOL     OW26359   5.117   2.152   6.066
 8487SOL    HW126360   5.090   2.158   5.970
 8487SOL    HW226361   5.200   2.097   6.074
 8488SOL     OW26362   5.897   5.493   6.241
 8488SOL    HW126363   5.823   5.494   6.174
 8488SOL    HW226364   5.979   5.535   6.201
 8489SOL     OW26365   6.453   1.617   1.371
 8489SOL    HW126366   6.401   1.694   1.335
 8489SOL    HW226367   6.520   1.650   1.437
 8490SOL     OW26368   3.730   6.694   4.075
 8490SOL    HW126369   3.710   6.722   3.982
 8490SOL    HW226370   3.703   6.598   4.088
 8491SOL     OW26371   1.861   6.624   0.411
 8491SOL    HW126372   1.804   6.543   0.394
 8491SOL    HW226373   1.930   6.632   0.339
 8492SOL     OW26374   4.726   4.098   6.306
 8492SOL    HW126375   4.674   4.182   6.290
 8492SOL    HW226376   4.824   4.118   6.302
 8493SOL     OW26377   2.897   2.532   6.228
 8493SOL    HW126378   2.837   2.474   6.172
 8493SOL    HW226379   2.991   2.524   6.195
 8494SOL     OW26380   2.986   5.005   1.534
 8494SOL    HW126381   3.079   4.972   1.553
 8494SOL    HW226382   2.930   4.929   1.501
 8495SOL     OW26383   6.707   4.812   1.617
 8495SOL    HW126384   6.629   4.799   1.679
 8495SOL    HW226385   6.729   4.910   1.612
 8496SOL     OW26386   0.857   2.099   2.333
 8496SOL    HW126387   0.854   2.172   2.265
 8496SOL    HW226388   0.952   2.083   2.360
 8497SOL     OW26389   6.312   1.124   3.576
 8497SOL    HW126390   6.242   1.065   3.535
 8497SOL    HW226391   6.268   1.204   3.616
 8498SOL     OW26392   0.570   5.983   2.811
 8498SOL    HW126393   0.501   6.002   2.881
 8498SOL    HW226394   0.661   6.001   2.849
 8499SOL     OW26395   2.597   4.922   6.535
 8499SOL    HW126396   2.663   4.997   6.534
 8499SOL    HW226397   2.642   4.838   6.504
 8500SOL     OW26398   2.240   6.543   4.948
 8500SOL    HW126399   2.298   6.468   4.914
 8500SOL    HW226400   2.284   6.585   5.027
 8501SOL     OW26401   0.559   1.470   6.784
 8501SOL    HW126402   0.495   1.524   6.728
 8501SOL    HW226403   0.586   1.524   6.863
 8502SOL     OW26404   1.975   5.107   1.387
 8502SOL    HW126405   2.042   5.114   1.313
 8502SOL    HW226406   1.999   5.031   1.447
 8503SOL     OW26407   1.542   0.049   4.104
 8503SOL    HW126408   1.558   0.047   4.202
 8503SOL    HW226409   1.473   6.997   4.079
 8504SOL     OW26410   2.862   5.163   2.856
 8504SOL    HW126411   2.824   5.094   2.795
 8504SOL    HW226412   2.803   5.173   2.937
 8505SOL     OW26413   4.903   3.810   3.546
 8505SOL    HW126414   4.841   3.878   3.508
 8505SOL    HW226415   4.962   3.774   3.473
 8506SOL     OW26416   6.410   1.330   6.808
 8506SOL    HW126417   6.470   1.292   6.738
 8506SOL    HW226418   6.462   1.395   6.864
 8507SOL     OW26419   3.417   0.739   5.643
 8507SOL    HW126420   3.428   0.809   5.572
 8507SOL    HW226421   3.487   0.752   5.713
 8508SOL     OW26422   5.652   1.759   4.761
 8508SOL    HW126423   5.592   1.679   4.759
 8508SOL    HW226424   5.716   1.755   4.685
 8509SOL     OW26425   4.373   1.756   3.241
 8509SOL    HW126426   4.325   1.669   3.233
 8509SOL    HW226427   4.308   1.829   3.263
 8510SOL     OW26428   5.636   4.498   2.691
 8510SOL    HW126429   5.670   4.437   2.620
 8510SOL    HW226430   5.712   4.549   2.730
 8511SOL     OW26431   6.597   3.807   1.622
 8511SOL    HW126432   6.653   3.845   1.696
 8511SOL    HW226433   6.609   3.708   1.618
 8512SOL     OW26434   3.679   1.878   1.418
 8512SOL    HW126435   3.694   1.976   1.429
 8512SOL    HW226436   3.636   1.841   1.500
 8513SOL     OW26437   4.612   4.333   1.686
 8513SOL    HW126438   4.692   4.274   1.679
 8513SOL    HW226439   4.539   4.284   1.733
 8514SOL     OW26440   2.635   2.468   3.984
 8514SOL    HW126441   2.682   2.388   3.946
 8514SOL    HW226442   2.656   2.474   4.082
 8515SOL     OW26443   5.282   1.480   0.549
 8515SOL    HW126444   5.262   1.414   0.622
 8515SOL    HW226445   5.222   1.462   0.471
 8516SOL     OW26446   7.015   1.798   1.444
 8516SOL    HW126447   6.921   1.830   1.430
 8516SOL    HW226448   0.018   1.723   1.381
 8517SOL     OW26449   1.494   3.359   6.655
 8517SOL    HW126450   1.481   3.319   6.746
 8517SOL    HW226451   1.570   3.423   6.658
 8518SOL     OW26452   5.417   4.073   0.340
 8518SOL    HW126453   5.427   4.060   0.241
 8518SOL    HW226454   5.341   4.017   0.373
 8519SOL     OW26455   1.268   4.190   1.158
 8519SOL    HW126456   1.343   4.147   1.208
 8519SOL    HW226457   1.181   4.162   1.197
 8520SOL     OW26458   3.329   3.145   0.312
 8520SOL    HW126459   3.353   3.148   0.215
 8520SOL    HW226460   3.383   3.075   0.358
 8521SOL     OW26461   2.026   5.276   5.624
 8521SOL    HW126462   1.976   5.329   5.692
 8521SOL    HW226463   2.124   5.293   5.633
 8522SOL     OW26464   1.214   6.411   1.647
 8522SOL    HW126465   1.193   6.467   1.727
 8522SOL    HW226466   1.160   6.442   1.569
 8523SOL     OW26467   1.906   6.188   6.658
 8523SOL    HW126468   1.904   6.224   6.751
 8523SOL    HW226469   1.955   6.253   6.599
 8524SOL     OW26470   0.117   2.940   5.233
 8524SOL    HW126471   0.179   2.927   5.310
 8524SOL    HW226472   0.136   3.027   5.188
 8525SOL     OW26473   6.434   4.572   2.681
 8525SOL    HW126474   6.418   4.480   2.717
 8525SOL    HW226475   6.346   4.616   2.663
 8526SOL     OW26476   4.271   6.048   6.198
 8526SOL    HW126477   4.225   6.100   6.127
 8526SOL    HW226478   4.242   6.081   6.288
 8527SOL     OW26479   2.450   0.985   6.065
 8527SOL    HW126480   2.518   0.944   6.127
 8527SOL    HW226481   2.428   1.077   6.097
 8528SOL     OW26482   3.281   1.109   6.539
 8528SOL    HW126483   3.326   1.193   6.570
 8528SOL    HW226484   3.208   1.132   6.475
 8529SOL     OW26485   0.777   0.447   0.920
 8529SOL    HW126486   0.825   0.364   0.894
 8529SOL    HW226487   0.783   0.514   0.846
 8530SOL     OW26488   3.933   4.149   5.496
 8530SOL    HW126489   3.835   4.142   5.480
 8530SOL    HW226490   3.977   4.195   5.419
 8531SOL     OW26491   6.515   5.235   2.848
 8531SOL    HW126492   6.554   5.317   2.806
 8531SOL    HW226493   6.453   5.262   2.921
 8532SOL     OW26494   4.335   5.189   5.049
 8532SOL    HW126495   4.431   5.172   5.070
 8532SOL    HW226496   4.286   5.102   5.041
 8533SOL     OW26497   1.055   0.300   6.580
 8533SOL    HW126498   0.997   0.225   6.614
 8533SOL    HW226499   1.118   0.327   6.652
 8534SOL     OW26500   6.827   3.235   4.212
 8534SOL    HW126501   6.779   3.203   4.294
 8534SOL    HW226502   6.788   3.323   4.184
 8535SOL     OW26503   6.122   1.828   4.420
 8535SOL    HW126504   6.071   1.894   4.364
 8535SOL    HW226505   6.193   1.876   4.472
 8536SOL     OW26506   0.519   2.442   4.967
 8536SOL    HW126507   0.468   2.506   4.909
 8536SOL    HW226508   0.607   2.422   4.925
 8537SOL     OW26509   5.088   1.057   2.275
 8537SOL    HW126510   5.134   0.978   2.235
 8537SOL    HW226511   5.023   1.095   2.210
 8538SOL     OW26512   0.424   0.589   0.212
 8538SOL    HW126513   0.445   0.686   0.204
 8538SOL    HW226514   0.505   0.535   0.189
 8539SOL     OW26515   4.802   0.598   2.943
 8539SOL    HW126516   4.743   0.561   3.014
 8539SOL    HW226517   4.882   0.641   2.985
 8540SOL     OW26518   4.397   0.076   6.305
 8540SOL    HW126519   4.348   0.056   6.220
 8540SOL    HW226520   4.461   0.151   6.290
 8541SOL     OW26521   2.537   1.708   4.039
 8541SOL    HW126522   2.635   1.724   4.047
 8541SOL    HW226523   2.517   1.612   4.058
 8542SOL     OW26524   4.124   4.885   6.838
 8542SOL    HW126525   4.102   4.804   6.784
 8542SOL    HW226526   4.112   4.967   6.782
 8543SOL     OW26527   3.027   0.795   1.092
 8543SOL    HW126528   3.084   0.876   1.082
 8543SOL    HW226529   2.994   0.788   1.186
 8544SOL     OW26530   5.251   3.482   4.881
 8544SOL    HW126531   5.163   3.448   4.915
 8544SOL    HW226532   5.286   3.552   4.943
 8545SOL     OW26533   4.590   6.909   5.144
 8545SOL    HW126534   4.663   6.958   5.191
 8545SOL    HW226535   4.534   6.974   5.092
 8546SOL     OW26536   6.849   1.742   3.688
 8546SOL    HW126537   6.894   1.768   3.773
 8546SOL    HW226538   6.918   1.719   3.620
 8547SOL     OW26539   1.629   0.047   6.167
 8547SOL    HW126540   1.664   0.112   6.235
 8547SOL    HW226541   1.622   0.092   6.078
 8548SOL     OW26542   5.651   2.465   5.353
 8548SOL    HW126543   5.620   2.493   5.262
 8548SOL    HW226544   5.669   2.366   5.352
 8549SOL     OW26545   1.464   2.823   4.251
 8549SOL    HW126546   1.534   2.834   4.322
 8549SOL    HW226547   1.376   2.854   4.287
 8550SOL     OW26548   1.748   4.903   0.216
 8550SOL    HW126549   1.781   4.997   0.218
 8550SOL    HW226550   1.781   4.858   0.133
 8551SOL     OW26551   3.519   3.886   6.616
 8551SOL    HW126552   3.528   3.828   6.698
 8551SOL    HW226553   3.587   3.959   6.620
 8552SOL     OW26554   2.429   0.563   4.000
 8552SOL    HW126555   2.344   0.533   3.957
 8552SOL    HW226556   2.502   0.500   3.977
 8553SOL     OW26557   4.149   4.415   6.833
 8553SOL    HW126558   4.215   4.356   6.788
 8553SOL    HW226559   4.071   4.360   6.863
 8554SOL     OW26560   0.994   4.744   0.665
 8554SOL    HW126561   1.015   4.841   0.676
 8554SOL    HW226562   1.076   4.690   0.682
 8555SOL     OW26563   2.065   1.222   3.257
 8555SOL    HW126564   1.991   1.161   3.284
 8555SOL    HW226565   2.138   1.169   3.214
 8556SOL     OW26566   1.505   5.982   5.041
 8556SOL    HW126567   1.544   5.892   5.020
 8556SOL    HW226568   1.426   5.970   5.102
 8557SOL     OW26569   5.688   6.709   3.366
 8557SOL    HW126570   5.718   6.698   3.272
 8557SOL    HW226571   5.660   6.803   3.381
 8558SOL     OW26572   3.262   4.954   3.272
 8558SOL    HW126573   3.166   4.958   3.301
 8558SOL    HW226574   3.267   4.943   3.173
 8559SOL     OW26575   0.652   0.092   2.557
 8559SOL    HW126576   0.707   0.139   2.488
 8559SOL    HW226577   0.711   0.061   2.631
 8560SOL     OW26578   6.427   6.308   1.925
 8560SOL    HW126579   6.459   6.325   1.832
 8560SOL    HW226580   6.505   6.285   1.983
 8561SOL     OW26581   3.175   0.916   2.590
 8561SOL    HW126582   3.215   1.004   2.566
 8561SOL    HW226583   3.208   0.887   2.680
 8562SOL     OW26584   3.789   5.574   5.730
 8562SOL    HW126585   3.869   5.559   5.672
 8562SOL    HW226586   3.706   5.555   5.678
 8563SOL     OW26587   2.009   4.280   6.816
 8563SOL    HW126588   1.969   4.310   6.902
 8563SOL    HW226589   2.096   4.329   6.800
 8564SOL     OW26590   2.907   0.964   5.111
 8564SOL    HW126591   2.989   0.952   5.056
 8564SOL    HW226592   2.932   0.977   5.207
 8565SOL     OW26593   4.155   5.392   1.105
 8565SOL    HW126594   4.167   5.427   1.012
 8565SOL    HW226595   4.177   5.294   1.107
 8566SOL     OW26596   1.835   0.637   1.554
 8566SOL    HW126597   1.885   0.586   1.484
 8566SOL    HW226598   1.898   0.695   1.605
 8567SOL     OW26599   0.466   2.234   2.432
 8567SOL    HW126600   0.471   2.216   2.530
 8567SOL    HW226601   0.459   2.148   2.382
 8568SOL     OW26602   5.494   1.482   6.048
 8568SOL    HW126603   5.521   1.461   6.142
 8568SOL    HW226604   5.430   1.414   6.015
 8569SOL     OW26605   5.006   0.916   6.166
 8569SOL    HW126606   5.061   0.955   6.240
 8569SOL    HW226607   4.913   0.952   6.171
 8570SOL     OW26608   1.618   2.314   5.292
 8570SOL    HW126609   1.587   2.350   5.203
 8570SOL    HW226610   1.639   2.217   5.283
 8571SOL     OW26611   0.921   5.735   5.454
 8571SOL    HW126612   1.013   5.701   5.434
 8571SOL    HW226613   0.895   5.802   5.384
 8572SOL     OW26614   2.837   4.960   6.728
 8572SOL    HW126615   2.782   4.877   6.742
 8572SOL    HW226616   2.848   4.976   6.630
 8573SOL     OW26617   3.394   6.256   6.071
 8573SOL    HW126618   3.446   6.282   5.989
 8573SOL    HW226619   3.417   6.319   6.146
 8574SOL     OW26620   6.529   5.343   5.592
 8574SOL    HW126621   6.522   5.321   5.690
 8574SOL    HW226622   6.579   5.271   5.545
 8575SOL     OW26623   2.690   2.431   5.139
 8575SOL    HW126624   2.724   2.464   5.228
 8575SOL    HW226625   2.758   2.371   5.098
 8576SOL     OW26626   1.571   5.159   6.389
 8576SOL    HW126627   1.584   5.160   6.488
 8576SOL    HW226628   1.509   5.233   6.362
 8577SOL     OW26629   6.659   6.656   4.258
 8577SOL    HW126630   6.632   6.561   4.275
 8577SOL    HW226631   6.670   6.671   4.160
 8578SOL     OW26632   5.483   1.062   4.257
 8578SOL    HW126633   5.565   1.078   4.312
 8578SOL    HW226634   5.471   1.138   4.193
 8579SOL     OW26635   1.399   0.179   2.567
 8579SOL    HW126636   1.447   0.173   2.479
 8579SOL    HW226637   1.306   0.145   2.556
 8580SOL     OW26638   2.429   6.867   2.197
 8580SOL    HW126639   2.427   6.772   2.228
 8580SOL    HW226640   2.371   6.922   2.256
 8581SOL     OW26641   3.212   3.737   1.895
 8581SOL    HW126642   3.283   3.669   1.915
 8581SOL    HW226643   3.202   3.747   1.796
 8582SOL     OW26644   4.657   4.703   3.229
 8582SOL    HW126645   4.608   4.733   3.148
 8582SOL    HW226646   4.606   4.630   3.275
 8583SOL     OW26647   5.463   0.442   4.439
 8583SOL    HW126648   5.451   0.442   4.538
 8583SOL    HW226649   5.528   0.513   4.412
 8584SOL     OW26650   1.167   4.234   5.814
 8584SOL    HW126651   1.139   4.316   5.763
 8584SOL    HW226652   1.097   4.163   5.805
 8585SOL     OW26653   0.398   6.020   6.269
 8585SOL    HW126654   0.330   6.023   6.195
 8585SOL    HW226655   0.460   5.943   6.254
 8586SOL     OW26656   2.705   0.249   2.613
 8586SOL    HW126657   2.773   0.228   2.542
 8586SOL    HW226658   2.675   0.164   2.657
 8587SOL     OW26659   1.636   6.563   3.862
 8587SOL    HW126660   1.657   6.628   3.789
 8587SOL    HW226661   1.599   6.612   3.941
 8588SOL     OW26662   2.801   0.611   0.555
 8588SOL    HW126663   2.779   0.589   0.460
 8588SOL    HW226664   2.900   0.610   0.567
 8589SOL     OW26665   4.897   2.835   4.887
 8589SOL    HW126666   4.822   2.797   4.833
 8589SOL    HW226667   4.869   2.842   4.983
 8590SOL     OW26668   6.901   6.246   4.271
 8590SOL    HW126669   6.889   6.147   4.281
 8590SOL    HW226670   6.977   6.276   4.328
 8591SOL     OW26671   0.437   4.162   7.004
 8591SOL    HW126672   0.447   4.161   0.087
 8591SOL    HW226673   0.400   4.075   6.974
 8592SOL     OW26674   0.075   2.492   6.386
 8592SOL    HW126675   0.018   2.567   6.353
 8592SOL    HW226676   0.111   2.516   6.477
 8593SOL     OW26677   3.129   0.112   0.742
 8593SOL    HW126678   3.107   0.135   0.647
 8593SOL    HW226679   3.045   0.112   0.797
 8594SOL     OW26680   4.224   2.301   5.463
 8594SOL    HW126681   4.184   2.286   5.554
 8594SOL    HW226682   4.322   2.315   5.472
 8595SOL     OW26683   1.267   2.856   3.185
 8595SOL    HW126684   1.325   2.783   3.218
 8595SOL    HW226685   1.254   2.847   3.086
 8596SOL     OW26686   0.252   5.237   3.323
 8596SOL    HW126687   0.208   5.184   3.395
 8596SOL    HW226688   0.187   5.256   3.250
 8597SOL     OW26689   4.302   1.392   0.688
 8597SOL    HW126690   4.289   1.373   0.785
 8597SOL    HW226691   4.342   1.484   0.678
 8598SOL     OW26692   5.890   6.457   0.866
 8598SOL    HW126693   5.919   6.537   0.918
 8598SOL    HW226694   5.816   6.482   0.805
 8599SOL     OW26695   0.953   2.732   4.372
 8599SOL    HW126696   0.880   2.748   4.439
 8599SOL    HW226697   0.958   2.810   4.310
 8600SOL     OW26698   4.590   5.138   5.826
 8600SOL    HW126699   4.587   5.120   5.728
 8600SOL    HW226700   4.511   5.194   5.852
 8601SOL     OW26701   0.842   1.216   5.081
 8601SOL    HW126702   0.927   1.163   5.085
 8601SOL    HW226703   0.808   1.231   5.173
 8602SOL     OW26704   2.756   5.279   2.567
 8602SOL    HW126705   2.700   5.237   2.495
 8602SOL    HW226706   2.852   5.252   2.554
 8603SOL     OW26707   4.131   5.667   0.155
 8603SOL    HW126708   4.101   5.590   0.099
 8603SOL    HW226709   4.091   5.752   0.120
 8604SOL     OW26710   0.814   2.587   4.055
 8604SOL    HW126711   0.739   2.525   4.032
 8604SOL    HW226712   0.857   2.557   4.141
 8605SOL     OW26713   2.875   5.533   4.549
 8605SOL    HW126714   2.958   5.479   4.562
 8605SOL    HW226715   2.894   5.629   4.572
 8606SOL     OW26716   1.625   3.254   6.251
 8606SOL    HW126717   1.630   3.352   6.268
 8606SOL    HW226718   1.668   3.233   6.163
 8607SOL     OW26719   3.639   6.058   0.677
 8607SOL    HW126720   3.591   6.144   0.659
 8607SOL    HW226721   3.737   6.075   0.678
 8608SOL     OW26722   4.455   5.769   2.911
 8608SOL    HW126723   4.379   5.787   2.849
 8608SOL    HW226724   4.443   5.679   2.952
 8609SOL     OW26725   5.635   0.980   3.093
 8609SOL    HW126726   5.659   0.968   2.997
 8609SOL    HW226727   5.538   1.000   3.101
 8610SOL     OW26728   1.937   2.197   2.641
 8610SOL    HW126729   1.851   2.159   2.607
 8610SOL    HW226730   1.922   2.291   2.671
 8611SOL     OW26731   2.860   1.740   4.455
 8611SOL    HW126732   2.927   1.699   4.516
 8611SOL    HW226733   2.906   1.797   4.388
 8612SOL     OW26734   3.733   3.067   1.327
 8612SOL    HW126735   3.704   3.099   1.417
 8612SOL    HW226736   3.696   2.975   1.312
 8613SOL     OW26737   2.407   1.797   0.882
 8613SOL    HW126738   2.319   1.776   0.924
 8613SOL    HW226739   2.469   1.720   0.895
 8614SOL     OW26740   1.475   3.053   2.132
 8614SOL    HW126741   1.469   2.954   2.126
 8614SOL    HW226742   1.388   3.090   2.167
 8615SOL     OW26743   4.502   1.457   4.933
 8615SOL    HW126744   4.470   1.518   4.861
 8615SOL    HW226745   4.601   1.462   4.940
 8616SOL     OW26746   2.999   4.733   1.736
 8616SOL    HW126747   3.057   4.772   1.808
 8616SOL    HW226748   2.949   4.654   1.773
 8617SOL     OW26749   6.820   1.097   6.561
 8617SOL    HW126750   6.733   1.054   6.539
 8617SOL    HW226751   6.875   1.033   6.615
 8618SOL     OW26752   6.077   5.958   0.649
 8618SOL    HW126753   6.166   6.002   0.664
 8618SOL    HW226754   6.083   5.862   0.678
 8619SOL     OW26755   3.719   4.935   2.156
 8619SOL    HW126756   3.811   4.933   2.195
 8619SOL    HW226757   3.710   4.862   2.089
 8620SOL     OW26758   0.987   0.034   4.213
 8620SOL    HW126759   0.989   0.019   4.312
 8620SOL    HW226760   1.027   6.972   4.166
 8621SOL     OW26761   5.578   1.335   3.061
 8621SOL    HW126762   5.661   1.280   3.071
 8621SOL    HW226763   5.587   1.395   2.981
 8622SOL     OW26764   4.940   3.177   0.110
 8622SOL    HW126765   4.901   3.258   0.065
 8622SOL    HW226766   4.934   3.189   0.209
 8623SOL     OW26767   0.671   3.422   3.883
 8623SOL    HW126768   0.585   3.381   3.913
 8623SOL    HW226769   0.744   3.354   3.887
 8624SOL     OW26770   0.999   3.887   4.804
 8624SOL    HW126771   0.980   3.911   4.709
 8624SOL    HW226772   0.914   3.886   4.857
 8625SOL     OW26773   4.404   6.928   5.746
 8625SOL    HW126774   4.435   6.936   5.651
 8625SOL    HW226775   4.483   6.929   5.807
 8626SOL     OW26776   3.893   3.251   5.507
 8626SOL    HW126777   3.831   3.176   5.529
 8626SOL    HW226778   3.968   3.217   5.450
 8627SOL     OW26779   0.285   1.377   3.182
 8627SOL    HW126780   0.304   1.475   3.181
 8627SOL    HW226781   0.195   1.359   3.143
 8628SOL     OW26782   6.337   6.039   0.768
 8628SOL    HW126783   6.273   6.093   0.822
 8628SOL    HW226784   6.413   6.098   0.739
 8629SOL     OW26785   1.406   4.759   5.099
 8629SOL    HW126786   1.473   4.831   5.079
 8629SOL    HW226787   1.315   4.790   5.075
 8630SOL     OW26788   5.510   4.290   3.341
 8630SOL    HW126789   5.510   4.212   3.403
 8630SOL    HW226790   5.485   4.373   3.391
 8631SOL     OW26791   2.379   5.466   6.006
 8631SOL    HW126792   2.301   5.475   6.068
 8631SOL    HW226793   2.388   5.550   5.952
 8632SOL     OW26794   3.638   6.100   3.694
 8632SOL    HW126795   3.736   6.100   3.712
 8632SOL    HW226796   3.607   6.006   3.678
 8633SOL     OW26797   4.869   1.877   5.392
 8633SOL    HW126798   4.811   1.824   5.330
 8633SOL    HW226799   4.886   1.824   5.475
 8634SOL     OW26800   5.859   3.444   0.256
 8634SOL    HW126801   5.878   3.377   0.184
 8634SOL    HW226802   5.803   3.519   0.218
 8635SOL     OW26803   5.654   4.230   6.481
 8635SOL    HW126804   5.687   4.311   6.431
 8635SOL    HW226805   5.560   4.245   6.511
 8636SOL     OW26806   5.012   6.027   0.628
 8636SOL    HW126807   4.958   6.050   0.547
 8636SOL    HW226808   5.109   6.045   0.610
 8637SOL     OW26809   2.018   1.002   0.227
 8637SOL    HW126810   1.922   1.011   0.255
 8637SOL    HW226811   2.075   0.992   0.308
 8638SOL     OW26812   2.860   3.100   6.817
 8638SOL    HW126813   2.876   3.004   6.841
 8638SOL    HW226814   2.887   3.116   6.723
 8639SOL     OW26815   5.751   2.452   1.908
 8639SOL    HW126816   5.700   2.422   1.989
 8639SOL    HW226817   5.693   2.446   1.828
 8640SOL     OW26818   4.898   3.963   0.306
 8640SOL    HW126819   4.833   3.909   0.361
 8640SOL    HW226820   4.853   4.047   0.276
 8641SOL     OW26821   5.840   5.233   4.607
 8641SOL    HW126822   5.915   5.226   4.542
 8641SOL    HW226823   5.756   5.198   4.566
 8642SOL     OW26824   2.650   6.694   3.190
 8642SOL    HW126825   2.614   6.781   3.224
 8642SOL    HW226826   2.733   6.671   3.241
 8643SOL     OW26827   2.774   0.188   6.396
 8643SOL    HW126828   2.757   0.093   6.369
 8643SOL    HW226829   2.786   0.193   6.495
 8644SOL     OW26830   4.745   2.119   5.311
 8644SOL    HW126831   4.768   2.187   5.380
 8644SOL    HW226832   4.786   2.031   5.335
 8645SOL     OW26833   4.347   4.793   1.379
 8645SOL    HW126834   4.308   4.703   1.399
 8645SOL    HW226835   4.426   4.782   1.319
 8646SOL     OW26836   6.528   1.030   1.614
 8646SOL    HW126837   6.541   0.937   1.581
 8646SOL    HW226838   6.613   1.081   1.604
 8647SOL     OW26839   2.568   5.304   6.082
 8647SOL    HW126840   2.483   5.355   6.073
 8647SOL    HW226841   2.556   5.231   6.150
 8648SOL     OW26842   6.338   0.854   3.311
 8648SOL    HW126843   6.415   0.863   3.374
 8648SOL    HW226844   6.372   0.847   3.217
 8649SOL     OW26845   5.705   4.970   5.842
 8649SOL    HW126846   5.684   4.887   5.790
 8649SOL    HW226847   5.626   4.996   5.898
 8650SOL     OW26848   2.115   5.197   4.949
 8650SOL    HW126849   2.031   5.234   4.989
 8650SOL    HW226850   2.182   5.179   5.021
 8651SOL     OW26851   3.624   0.434   0.557
 8651SOL    HW126852   3.597   0.528   0.536
 8651SOL    HW226853   3.717   0.418   0.524
 8652SOL     OW26854   2.074   4.407   4.009
 8652SOL    HW126855   1.974   4.402   4.020
 8652SOL    HW226856   2.115   4.322   4.042
 8653SOL     OW26857   6.065   0.409   6.090
 8653SOL    HW126858   6.097   0.356   6.011
 8653SOL    HW226859   6.142   0.457   6.132
 8654SOL     OW26860   0.920   5.102   1.233
 8654SOL    HW126861   0.830   5.083   1.273
 8654SOL    HW226862   0.990   5.065   1.294
 8655SOL     OW26863   6.448   1.699   3.529
 8655SOL    HW126864   6.365   1.729   3.481
 8655SOL    HW226865   6.463   1.602   3.513
 8656SOL     OW26866   6.755   0.999   1.093
 8656SOL    HW126867   6.704   1.051   1.161
 8656SOL    HW226868   6.758   0.903   1.120
 8657SOL     OW26869   5.252   4.654   0.512
 8657SOL    HW126870   5.324   4.652   0.443
 8657SOL    HW226871   5.265   4.579   0.576
 8658SOL     OW26872   5.092   6.567   0.018
 8658SOL    HW126873   4.994   6.551   0.010
 8658SOL    HW226874   5.130   6.506   0.087
 8659SOL     OW26875   4.589   1.786   3.099
 8659SOL    HW126876   4.562   1.788   3.003
 8659SOL    HW226877   4.508   1.780   3.157
 8660SOL     OW26878   5.777   4.107   1.320
 8660SOL    HW126879   5.748   4.014   1.298
 8660SOL    HW226880   5.776   4.163   1.237
 8661SOL     OW26881   5.472   4.044   1.383
 8661SOL    HW126882   5.556   4.017   1.335
 8661SOL    HW226883   5.442   3.969   1.442
 8662SOL     OW26884   4.553   6.217   0.960
 8662SOL    HW126885   4.494   6.217   1.041
 8662SOL    HW226886   4.610   6.135   0.960
 8663SOL     OW26887   3.190   5.878   1.795
 8663SOL    HW126888   3.138   5.801   1.756
 8663SOL    HW226889   3.142   5.913   1.876
 8664SOL     OW26890   2.253   6.168   1.029
 8664SOL    HW126891   2.243   6.157   0.930
 8664SOL    HW226892   2.333   6.225   1.048
 8665SOL     OW26893   5.079   6.393   4.877
 8665SOL    HW126894   4.989   6.362   4.846
 8665SOL    HW226895   5.145   6.318   4.869
 8666SOL     OW26896   5.044   1.697   4.039
 8666SOL    HW126897   4.995   1.782   4.058
 8666SOL    HW226898   5.056   1.645   4.123
 8667SOL     OW26899   4.369   2.394   3.032
 8667SOL    HW126900   4.341   2.372   3.125
 8667SOL    HW226901   4.447   2.337   3.006
 8668SOL     OW26902   5.275   3.820   3.555
 8668SOL    HW126903   5.207   3.871   3.608
 8668SOL    HW226904   5.279   3.726   3.587
 8669SOL     OW26905   1.928   6.303   6.917
 8669SOL    HW126906   1.911   6.280   7.013
 8669SOL    HW226907   2.015   6.352   6.908
 8670SOL     OW26908   3.892   4.101   5.161
 8670SOL    HW126909   3.843   4.154   5.230
 8670SOL    HW226910   3.847   4.111   5.073
 8671SOL     OW26911   5.277   1.729   3.673
 8671SOL    HW126912   5.294   1.655   3.738
 8671SOL    HW226913   5.313   1.815   3.710
 8672SOL     OW26914   1.759   4.802   3.675
 8672SOL    HW126915   1.856   4.826   3.669
 8672SOL    HW226916   1.704   4.880   3.644
 8673SOL     OW26917   5.965   2.528   0.647
 8673SOL    HW126918   6.065   2.539   0.646
 8673SOL    HW226919   5.937   2.477   0.566
 8674SOL     OW26920   5.992   5.996   3.689
 8674SOL    HW126921   6.016   5.908   3.730
 8674SOL    HW226922   6.049   6.012   3.608
 8675SOL     OW26923   2.754   2.133   4.267
 8675SOL    HW126924   2.695   2.210   4.245
 8675SOL    HW226925   2.715   2.081   4.343
 8676SOL     OW26926   4.635   0.468   2.629
 8676SOL    HW126927   4.692   0.480   2.549
 8676SOL    HW226928   4.683   0.502   2.710
 8677SOL     OW26929   2.271   6.023   5.142
 8677SOL    HW126930   2.175   6.034   5.117
 8677SOL    HW226931   2.323   5.992   5.063
 8678SOL     OW26932   6.719   0.740   1.151
 8678SOL    HW126933   6.669   0.711   1.069
 8678SOL    HW226934   6.813   0.706   1.146
 8679SOL     OW26935   0.082   2.487   2.951
 8679SOL    HW126936   0.112   2.505   3.045
 8679SOL    HW226937   0.053   2.392   2.944
 8680SOL     OW26938   1.469   4.029   1.263
 8680SOL    HW126939   1.477   3.942   1.216
 8680SOL    HW226940   1.559   4.072   1.269
 8681SOL     OW26941   4.932   5.061   0.232
 8681SOL    HW126942   4.923   5.055   0.332
 8681SOL    HW226943   4.845   5.091   0.193
 8682SOL     OW26944   5.089   0.152   2.123
 8682SOL    HW126945   5.058   0.111   2.037
 8682SOL    HW226946   5.011   0.161   2.185
 8683SOL     OW26947   1.602   2.408   2.874
 8683SOL    HW126948   1.626   2.474   2.945
 8683SOL    HW226949   1.613   2.315   2.910
 8684SOL     OW26950   0.635   2.909   4.835
 8684SOL    HW126951   0.577   2.925   4.914
 8684SOL    HW226952   0.702   2.838   4.857
 8685SOL     OW26953   0.358   1.744   6.025
 8685SOL    HW126954   0.381   1.683   5.949
 8685SOL    HW226955   0.380   1.838   6.000
 8686SOL     OW26956   0.586   1.591   1.591
 8686SOL    HW126957   0.537   1.644   1.660
 8686SOL    HW226958   0.520   1.555   1.525
 8687SOL     OW26959   4.664   5.480   1.921
 8687SOL    HW126960   4.666   5.396   1.975
 8687SOL    HW226961   4.750   5.490   1.871
 8688SOL     OW26962   2.526   6.084   0.406
 8688SOL    HW126963   2.491   6.018   0.340
 8688SOL    HW226964   2.623   6.099   0.391
 8689SOL     OW26965   3.793   4.063   1.683
 8689SOL    HW126966   3.856   4.005   1.735
 8689SOL    HW226967   3.821   4.159   1.693
 8690SOL     OW26968   1.554   3.193   3.286
 8690SOL    HW126969   1.492   3.202   3.208
 8690SOL    HW226970   1.609   3.110   3.276
 8691SOL     OW26971   3.015   2.082   6.004
 8691SOL    HW126972   2.981   2.170   5.970
 8691SOL    HW226973   2.939   2.024   6.031
 8692SOL     OW26974   2.234   1.755   4.362
 8692SOL    HW126975   2.183   1.759   4.448
 8692SOL    HW226976   2.303   1.684   4.367
 8693SOL     OW26977   6.113   0.822   0.268
 8693SOL    HW126978   6.127   0.890   0.340
 8693SOL    HW226979   6.188   0.756   0.270
 8694SOL     OW26980   4.522   0.945   5.063
 8694SOL    HW126981   4.439   0.905   5.101
 8694SOL    HW226982   4.560   0.884   4.994
 8695SOL     OW26983   4.194   2.469   6.178
 8695SOL    HW126984   4.155   2.378   6.196
 8695SOL    HW226985   4.138   2.539   6.223
 8696SOL     OW26986   2.493   5.029   0.007
 8696SOL    HW126987   2.527   4.939   6.997
 8696SOL    HW226988   2.395   5.034   7.004
 8697SOL     OW26989   0.097   2.526   6.665
 8697SOL    HW126990   0.109   2.544   6.762
 8697SOL    HW226991   0.002   2.546   6.639
 8698SOL     OW26992   5.513   6.005   5.093
 8698SOL    HW126993   5.597   5.999   5.040
 8698SOL    HW226994   5.502   5.922   5.149
 8699SOL     OW26995   2.473   2.437   5.827
 8699SOL    HW126996   2.436   2.373   5.894
 8699SOL    HW226997   2.554   2.482   5.866
 8700SOL     OW26998   0.675   0.917   5.014
 8700SOL    HW126999   0.660   0.953   5.106
 8700SOL    HW227000   0.589   0.921   4.963
 8701SOL     OW27001   0.174   1.521   0.624
 8701SOL    HW127002   0.186   1.607   0.674
 8701SOL    HW227003   0.250   1.459   0.646
 8702SOL     OW27004   5.213   5.243   1.493
 8702SOL    HW127005   5.213   5.309   1.418
 8702SOL    HW227006   5.215   5.292   1.580
 8703SOL     OW27007   2.861   4.646   0.180
 8703SOL    HW127008   2.888   4.601   0.094
 8703SOL    HW227009   2.901   4.596   0.257
 8704SOL     OW27010   0.216   3.644   3.125
 8704SOL    HW127011   0.271   3.574   3.170
 8704SOL    HW227012   0.119   3.624   3.139
 8705SOL     OW27013   5.123   1.542   6.399
 8705SOL    HW127014   5.133   1.640   6.414
 8705SOL    HW227015   5.097   1.497   6.484
 8706SOL     OW27016   4.830   2.323   6.772
 8706SOL    HW127017   4.771   2.401   6.754
 8706SOL    HW227018   4.800   2.278   6.857
 8707SOL     OW27019   0.385   2.283   6.428
 8707SOL    HW127020   0.353   2.337   6.350
 8707SOL    HW227021   0.370   2.186   6.410
 8708SOL     OW27022   4.462   2.284   2.683
 8708SOL    HW127023   4.454   2.220   2.606
 8708SOL    HW227024   4.373   2.295   2.727
 8709SOL     OW27025   0.174   6.090   6.908
 8709SOL    HW127026   0.124   6.069   6.992
 8709SOL    HW227027   0.129   6.166   6.861
 8710SOL     OW27028   2.087   3.489   4.209
 8710SOL    HW127029   2.112   3.496   4.113
 8710SOL    HW227030   2.066   3.393   4.231
 8711SOL     OW27031   0.907   6.761   3.024
 8711SOL    HW127032   0.979   6.767   3.093
 8711SOL    HW227033   0.818   6.771   3.069
 8712SOL     OW27034   4.111   2.188   4.885
 8712SOL    HW127035   4.017   2.190   4.921
 8712SOL    HW227036   4.163   2.264   4.923
 8713SOL     OW27037   0.096   2.698   4.412
 8713SOL    HW127038   0.160   2.707   4.488
 8713SOL    HW227039   0.040   2.780   4.406
 8714SOL     OW27040   1.243   1.151   6.683
 8714SOL    HW127041   1.314   1.080   6.692
 8714SOL    HW227042   1.155   1.114   6.712
 8715SOL     OW27043   5.008   0.275   1.069
 8715SOL    HW127044   5.035   0.369   1.089
 8715SOL    HW227045   5.033   0.216   1.146
 8716SOL     OW27046   6.711   6.829   1.350
 8716SOL    HW127047   6.626   6.873   1.322
 8716SOL    HW227048   6.780   6.898   1.369
 8717SOL     OW27049   3.853   3.536   4.044
 8717SOL    HW127050   3.947   3.556   4.070
 8717SOL    HW227051   3.818   3.610   3.986
 8718SOL     OW27052   0.987   3.621   5.176
 8718SOL    HW127053   0.973   3.719   5.160
 8718SOL    HW227054   1.033   3.581   5.097
 8719SOL     OW27055   3.316   0.355   6.210
 8719SOL    HW127056   3.386   0.426   6.200
 8719SOL    HW227057   3.355   0.278   6.260
 8720SOL     OW27058   6.407   4.778   5.953
 8720SOL    HW127059   6.360   4.852   6.002
 8720SOL    HW227060   6.429   4.704   6.016
 8721SOL     OW27061   0.005   2.971   2.515
 8721SOL    HW127062   6.930   2.980   2.476
 8721SOL    HW227063   0.001   2.917   2.599
 8722SOL     OW27064   4.226   1.437   6.995
 8722SOL    HW127065   4.150   1.491   6.959
 8722SOL    HW227066   4.284   1.495   0.037
 8723SOL     OW27067   5.024   5.836   0.879
 8723SOL    HW127068   5.014   5.908   0.810
 8723SOL    HW227069   5.063   5.875   0.962
 8724SOL     OW27070   4.722   0.035   5.354
 8724SOL    HW127071   4.661   0.002   5.426
 8724SOL    HW227072   4.817   0.028   5.385
 8725SOL     OW27073   1.609   6.397   6.010
 8725SOL    HW127074   1.695   6.398   5.958
 8725SOL    HW227075   1.550   6.325   5.975
 8726SOL     OW27076   0.234   0.738   2.537
 8726SOL    HW127077   0.163   0.782   2.482
 8726SOL    HW227078   0.286   0.808   2.586
 8727SOL     OW27079   6.653   6.022   2.579
 8727SOL    HW127080   6.666   6.091   2.508
 8727SOL    HW227081   6.557   5.996   2.583
 8728SOL     OW27082   5.399   0.524   3.113
 8728SOL    HW127083   5.383   0.466   3.193
 8728SOL    HW227084   5.485   0.573   3.125
 8729SOL     OW27085   4.680   5.874   4.752
 8729SOL    HW127086   4.645   5.965   4.775
 8729SOL    HW227087   4.621   5.832   4.684
 8730SOL     OW27088   6.662   3.745   2.206
 8730SOL    HW127089   6.671   3.670   2.271
 8730SOL    HW227090   6.676   3.832   2.252
 8731SOL     OW27091   2.091   2.413   2.791
 8731SOL    HW127092   2.150   2.335   2.809
 8731SOL    HW227093   2.144   2.485   2.745
 8732SOL     OW27094   5.788   5.058   1.602
 8732SOL    HW127095   5.719   4.991   1.629
 8732SOL    HW227096   5.850   5.074   1.679
 8733SOL     OW27097   1.398   5.420   0.730
 8733SOL    HW127098   1.453   5.337   0.731
 8733SOL    HW227099   1.371   5.444   0.824
 8734SOL     OW27100   1.772   4.327   1.885
 8734SOL    HW127101   1.807   4.341   1.977
 8734SOL    HW227102   1.686   4.277   1.889
 8735SOL     OW27103   1.007   2.845   0.562
 8735SOL    HW127104   1.030   2.941   0.552
 8735SOL    HW227105   0.958   2.831   0.649
 8736SOL     OW27106   0.701   5.665   6.539
 8736SOL    HW127107   0.710   5.667   6.639
 8736SOL    HW227108   0.604   5.662   6.514
 8737SOL     OW27109   2.107   0.001   6.457
 8737SOL    HW127110   2.174   6.996   6.528
 8737SOL    HW227111   2.154   0.035   6.376
 8738SOL     OW27112   1.851   5.479   4.452
 8738SOL    HW127113   1.917   5.443   4.517
 8738SOL    HW227114   1.862   5.434   4.364
 8739SOL     OW27115   5.130   5.540   6.474
 8739SOL    HW127116   5.149   5.634   6.447
 8739SOL    HW227117   5.167   5.478   6.405
 8740SOL     OW27118   5.082   0.904   4.336
 8740SOL    HW127119   5.078   0.909   4.435
 8740SOL    HW227120   4.994   0.932   4.297
 8741SOL     OW27121   2.664   1.464   2.036
 8741SOL    HW127122   2.586   1.404   2.053
 8741SOL    HW227123   2.635   1.560   2.045
 8742SOL     OW27124   5.753   6.341   1.076
 8742SOL    HW127125   5.834   6.359   1.020
 8742SOL    HW227126   5.780   6.336   1.173
 8743SOL     OW27127   0.937   6.949   2.225
 8743SOL    HW127128   1.034   6.954   2.200
 8743SOL    HW227129   0.927   6.951   2.324
 8744SOL     OW27130   3.300   2.638   6.362
 8744SOL    HW127131   3.400   2.639   6.358
 8744SOL    HW227132   3.263   2.642   6.269
 8745SOL     OW27133   5.570   2.804   5.963
 8745SOL    HW127134   5.631   2.780   5.888
 8745SOL    HW227135   5.562   2.727   6.026
 8746SOL     OW27136   5.131   4.544   4.482
 8746SOL    HW127137   5.133   4.446   4.464
 8746SOL    HW227138   5.178   4.593   4.409
 8747SOL     OW27139   0.864   2.837   3.014
 8747SOL    HW127140   0.775   2.871   2.983
 8747SOL    HW227141   0.850   2.770   3.087
 8748SOL     OW27142   0.180   2.032   5.061
 8748SOL    HW127143   0.238   1.965   5.109
 8748SOL    HW227144   0.092   2.038   5.106
 8749SOL     OW27145   2.673   0.698   5.792
 8749SOL    HW127146   2.630   0.609   5.809
 8749SOL    HW227147   2.645   0.732   5.703
 8750SOL     OW27148   3.384   3.771   6.011
 8750SOL    HW127149   3.285   3.777   6.004
 8750SOL    HW227150   3.416   3.689   5.964
 8751SOL     OW27151   5.861   1.186   1.908
 8751SOL    HW127152   5.937   1.156   1.849
 8751SOL    HW227153   5.877   1.154   2.001
 8752SOL     OW27154   2.649   3.638   0.385
 8752SOL    HW127155   2.738   3.624   0.343
 8752SOL    HW227156   2.653   3.717   0.447
 8753SOL     OW27157   4.216   1.681   5.736
 8753SOL    HW127158   4.150   1.641   5.800
 8753SOL    HW227159   4.226   1.621   5.657
 8754SOL     OW27160   1.710   3.353   5.451
 8754SOL    HW127161   1.624   3.377   5.406
 8754SOL    HW227162   1.744   3.432   5.503
 8755SOL     OW27163   2.150   0.096   0.823
 8755SOL    HW127164   2.232   0.114   0.768
 8755SOL    HW227165   2.072   0.145   0.783
 8756SOL     OW27166   1.582   2.819   3.475
 8756SOL    HW127167   1.582   2.902   3.532
 8756SOL    HW227168   1.657   2.824   3.409
 8757SOL     OW27169   3.737   5.926   6.106
 8757SOL    HW127170   3.675   5.922   6.027
 8757SOL    HW227171   3.831   5.916   6.074
 8758SOL     OW27172   4.680   6.137   2.721
 8758SOL    HW127173   4.737   6.066   2.678
 8758SOL    HW227174   4.693   6.223   2.672
 8759SOL     OW27175   4.189   2.391   0.007
 8759SOL    HW127176   4.278   2.375   0.051
 8759SOL    HW227177   4.146   2.472   0.047
 8760SOL     OW27178   1.738   1.252   5.305
 8760SOL    HW127179   1.786   1.336   5.330
 8760SOL    HW227180   1.642   1.260   5.331
 8761SOL     OW27181   5.956   2.288   2.000
 8761SOL    HW127182   5.903   2.362   1.959
 8761SOL    HW227183   5.951   2.207   1.942
 8762SOL     OW27184   1.401   4.071   3.171
 8762SOL    HW127185   1.462   4.038   3.243
 8762SOL    HW227186   1.346   4.147   3.206
 8763SOL     OW27187   6.759   6.747   5.934
 8763SOL    HW127188   6.842   6.797   5.957
 8763SOL    HW227189   6.744   6.748   5.835
 8764SOL     OW27190   5.115   0.715   4.789
 8764SOL    HW127191   5.082   0.632   4.744
 8764SOL    HW227192   5.038   0.777   4.803
 8765SOL     OW27193   5.402   6.776   4.099
 8765SOL    HW127194   5.470   6.727   4.154
 8765SOL    HW227195   5.433   6.869   4.082
 8766SOL     OW27196   4.612   4.423   3.490
 8766SOL    HW127197   4.693   4.444   3.435
 8766SOL    HW227198   4.634   4.352   3.556
 8767SOL     OW27199   4.953   6.320   2.699
 8767SOL    HW127200   4.991   6.229   2.713
 8767SOL    HW227201   5.021   6.380   2.657
 8768SOL     OW27202   1.282   2.769   0.452
 8768SOL    HW127203   1.200   2.740   0.502
 8768SOL    HW227204   1.255   2.834   0.380
 8769SOL     OW27205   0.604   0.738   4.278
 8769SOL    HW127206   0.556   0.661   4.319
 8769SOL    HW227207   0.696   0.744   4.317
 8770SOL     OW27208   5.064   4.419   2.548
 8770SOL    HW127209   5.151   4.374   2.567
 8770SOL    HW227210   4.989   4.356   2.565
 8771SOL     OW27211   0.623   1.111   6.677
 8771SOL    HW127212   0.683   1.057   6.734
 8771SOL    HW227213   0.570   1.174   6.734
 8772SOL     OW27214   4.950   0.099   6.684
 8772SOL    HW127215   4.874   0.051   6.727
 8772SOL    HW227216   4.961   0.067   6.590
 8773SOL     OW27217   4.552   2.540   3.434
 8773SOL    HW127218   4.454   2.542   3.415
 8773SOL    HW227219   4.566   2.527   3.532
 8774SOL     OW27220   1.266   1.034   0.050
 8774SOL    HW127221   1.184   1.069   0.004
 8774SOL    HW227222   1.253   0.937   0.070
 8775SOL     OW27223   6.158   0.189   5.285
 8775SOL    HW127224   6.089   0.151   5.224
 8775SOL    HW227225   6.232   0.123   5.298
 8776SOL     OW27226   3.775   3.043   6.475
 8776SOL    HW127227   3.831   3.032   6.393
 8776SOL    HW227228   3.818   3.108   6.537
 8777SOL     OW27229   6.872   4.075   1.520
 8777SOL    HW127230   6.890   4.165   1.559
 8777SOL    HW227231   6.775   4.054   1.529
 8778SOL     OW27232   6.397   2.790   4.806
 8778SOL    HW127233   6.301   2.797   4.781
 8778SOL    HW227234   6.439   2.881   4.801
 8779SOL     OW27235   3.005   5.438   2.145
 8779SOL    HW127236   3.021   5.390   2.231
 8779SOL    HW227237   3.090   5.443   2.093
 8780SOL     OW27238   0.865   5.997   2.336
 8780SOL    HW127239   0.828   5.937   2.407
 8780SOL    HW227240   0.817   5.980   2.250
 8781SOL     OW27241   5.341   1.301   3.166
 8781SOL    HW127242   5.437   1.306   3.140
 8781SOL    HW227243   5.329   1.336   3.259
 8782SOL     OW27244   5.438   6.272   1.592
 8782SOL    HW127245   5.512   6.325   1.550
 8782SOL    HW227246   5.436   6.180   1.554
 8783SOL     OW27247   6.471   3.992   3.119
 8783SOL    HW127248   6.550   4.004   3.180
 8783SOL    HW227249   6.388   4.025   3.165
 8784SOL     OW27250   6.029   4.070   6.458
 8784SOL    HW127251   6.016   4.141   6.528
 8784SOL    HW227252   6.047   4.114   6.370
 8785SOL     OW27253   5.953   3.172   6.837
 8785SOL    HW127254   5.983   3.079   6.814
 8785SOL    HW227255   5.968   3.233   6.759
 8786SOL     OW27256   1.805   0.492   0.029
 8786SOL    HW127257   1.709   0.502   0.001
 8786SOL    HW227258   1.814   0.413   0.089
 8787SOL     OW27259   3.158   2.221   1.489
 8787SOL    HW127260   3.071   2.186   1.454
 8787SOL    HW227261   3.224   2.225   1.414
 8788SOL     OW27262   6.858   1.906   6.007
 8788SOL    HW127263   6.815   1.876   6.092
 8788SOL    HW227264   6.932   1.970   6.029
 8789SOL     OW27265   5.991   6.871   5.599
 8789SOL    HW127266   6.083   6.875   5.561
 8789SOL    HW227267   5.926   6.849   5.526
 8790SOL     OW27268   0.436   0.157   0.137
 8790SOL    HW127269   0.377   0.085   0.103
 8790SOL    HW227270   0.420   0.171   0.235
 8791SOL     OW27271   5.477   0.422   4.696
 8791SOL    HW127272   5.559   0.366   4.701
 8791SOL    HW227273   5.464   0.472   4.782
 8792SOL     OW27274   2.874   6.523   3.364
 8792SOL    HW127275   2.930   6.479   3.294
 8792SOL    HW227276   2.928   6.595   3.409
 8793SOL     OW27277   1.697   4.611   2.941
 8793SOL    HW127278   1.625   4.555   2.983
 8793SOL    HW227279   1.659   4.662   2.864
 8794SOL     OW27280   4.576   6.314   2.036
 8794SOL    HW127281   4.554   6.247   2.107
 8794SOL    HW227282   4.532   6.401   2.058
 8795SOL     OW27283   1.152   5.588   5.495
 8795SOL    HW127284   1.235   5.597   5.440
 8795SOL    HW227285   1.097   5.511   5.462
 8796SOL     OW27286   3.663   2.085   4.607
 8796SOL    HW127287   3.676   2.044   4.517
 8796SOL    HW227288   3.568   2.116   4.616
 8797SOL     OW27289   6.988   6.832   6.605
 8797SOL    HW127290   0.000   6.766   6.674
 8797SOL    HW227291   6.907   6.882   6.638
 8798SOL     OW27292   5.056   6.029   5.888
 8798SOL    HW127293   5.118   5.997   5.960
 8798SOL    HW227294   5.019   6.118   5.913
 8799SOL     OW27295   2.294   5.106   4.026
 8799SOL    HW127296   2.259   5.177   3.964
 8799SOL    HW227297   2.262   5.017   3.996
 8800SOL     OW27298   5.877   3.674   5.505
 8800SOL    HW127299   5.846   3.712   5.418
 8800SOL    HW227300   5.803   3.679   5.572
 8801SOL     OW27301   0.332   2.191   4.798
 8801SOL    HW127302   0.379   2.139   4.727
 8801SOL    HW227303   0.365   2.161   4.888
 8802SOL     OW27304   1.379   6.743   0.453
 8802SOL    HW127305   1.339   6.675   0.515
 8802SOL    HW227306   1.477   6.727   0.445
 8803SOL     OW27307   6.385   5.771   6.702
 8803SOL    HW127308   6.421   5.766   6.795
 8803SOL    HW227309   6.289   5.798   6.704
 8804SOL     OW27310   3.133   0.268   2.240
 8804SOL    HW127311   3.174   0.335   2.178
 8804SOL    HW227312   3.162   0.176   2.213
 8805SOL     OW27313   2.867   0.042   4.258
 8805SOL    HW127314   2.794   0.052   4.190
 8805SOL    HW227315   2.952   0.080   4.222
 8806SOL     OW27316   2.735   5.556   2.673
 8806SOL    HW127317   2.752   5.593   2.582
 8806SOL    HW227318   2.754   5.457   2.673
 8807SOL     OW27319   5.567   0.004   6.887
 8807SOL    HW127320   5.654   6.975   6.902
 8807SOL    HW227321   5.574   0.101   6.912
 8808SOL     OW27322   6.010   2.885   6.838
 8808SOL    HW127323   6.102   2.901   6.803
 8808SOL    HW227324   6.014   2.822   6.915
 8809SOL     OW27325   4.880   5.636   3.751
 8809SOL    HW127326   4.798   5.614   3.804
 8809SOL    HW227327   4.866   5.610   3.655
 8810SOL     OW27328   5.293   0.724   6.077
 8810SOL    HW127329   5.380   0.764   6.051
 8810SOL    HW227330   5.309   0.638   6.125
 8811SOL     OW27331   3.034   1.088   3.286
 8811SOL    HW127332   2.937   1.082   3.308
 8811SOL    HW227333   3.060   1.184   3.277
 8812SOL     OW27334   2.057   6.617   0.661
 8812SOL    HW127335   1.986   6.599   0.593
 8812SOL    HW227336   2.082   6.714   0.658
 8813SOL     OW27337   2.096   4.938   1.584
 8813SOL    HW127338   2.179   4.899   1.544
 8813SOL    HW227339   2.120   5.013   1.645
 8814SOL     OW27340   5.687   0.369   1.505
 8814SOL    HW127341   5.648   0.444   1.451
 8814SOL    HW227342   5.615   0.305   1.531
 8815SOL     OW27343   5.828   0.300   0.743
 8815SOL    HW127344   5.868   0.347   0.664
 8815SOL    HW227345   5.728   0.305   0.738
 8816SOL     OW27346   1.282   6.822   6.707
 8816SOL    HW127347   1.361   6.816   6.768
 8816SOL    HW227348   1.247   6.730   6.688
 8817SOL     OW27349   0.648   5.111   4.600
 8817SOL    HW127350   0.743   5.141   4.611
 8817SOL    HW227351   0.618   5.067   4.685
 8818SOL     OW27352   0.276   4.429   4.824
 8818SOL    HW127353   0.367   4.387   4.816
 8818SOL    HW227354   0.285   4.528   4.823
 8819SOL     OW27355   5.453   5.206   5.079
 8819SOL    HW127356   5.506   5.272   5.027
 8819SOL    HW227357   5.378   5.171   5.022
 8820SOL     OW27358   2.146   1.037   5.278
 8820SOL    HW127359   2.058   1.039   5.327
 8820SOL    HW227360   2.201   1.116   5.305
 8821SOL     OW27361   2.429   6.358   0.379
 8821SOL    HW127362   2.470   6.268   0.397
 8821SOL    HW227363   2.501   6.428   0.381
 8822SOL     OW27364   0.183   0.235   4.666
 8822SOL    HW127365   0.099   0.195   4.703
 8822SOL    HW227366   0.231   0.284   4.738
 8823SOL     OW27367   2.635   0.982   1.352
 8823SOL    HW127368   2.676   0.902   1.307
 8823SOL    HW227369   2.557   0.953   1.407
 8824SOL     OW27370   1.130   2.512   0.702
 8824SOL    HW127371   1.124   2.503   0.802
 8824SOL    HW227372   1.086   2.596   0.673
 8825SOL     OW27373   2.510   0.352   1.985
 8825SOL    HW127374   2.444   0.314   2.050
 8825SOL    HW227375   2.495   0.451   1.977
 8826SOL     OW27376   6.681   3.568   0.816
 8826SOL    HW127377   6.635   3.656   0.820
 8826SOL    HW227378   6.723   3.547   0.905
 8827SOL     OW27379   4.233   1.720   2.282
 8827SOL    HW127380   4.153   1.747   2.228
 8827SOL    HW227381   4.271   1.800   2.328
 8828SOL     OW27382   4.897   5.862   5.707
 8828SOL    HW127383   4.976   5.910   5.746
 8828SOL    HW227384   4.817   5.878   5.765
 8829SOL     OW27385   5.313   2.406   0.887
 8829SOL    HW127386   5.379   2.354   0.834
 8829SOL    HW227387   5.341   2.407   0.983
 8830SOL     OW27388   1.175   1.634   2.373
 8830SOL    HW127389   1.204   1.556   2.318
 8830SOL    HW227390   1.085   1.664   2.343
 8831SOL     OW27391   4.300   1.839   4.214
 8831SOL    HW127392   4.264   1.923   4.254
 8831SOL    HW227393   4.340   1.782   4.286
 8832SOL     OW27394   0.025   5.521   3.249
 8832SOL    HW127395   7.001   5.445   3.298
 8832SOL    HW227396   0.092   5.567   3.307
 8833SOL     OW27397   2.661   5.187   5.287
 8833SOL    HW127398   2.646   5.106   5.230
 8833SOL    HW227399   2.708   5.160   5.371
 8834SOL     OW27400   5.303   3.931   4.941
 8834SOL    HW127401   5.257   3.895   4.860
 8834SOL    HW227402   5.354   3.858   4.986
 8835SOL     OW27403   5.046   0.672   5.966
 8835SOL    HW127404   5.137   0.695   6.001
 8835SOL    HW227405   4.977   0.719   6.021
 8836SOL     OW27406   5.716   3.087   6.968
 8836SOL    HW127407   5.671   3.053   6.885
 8836SOL    HW227408   5.802   3.132   6.943
 8837SOL     OW27409   6.723   5.960   2.829
 8837SOL    HW127410   6.720   6.009   2.742
 8837SOL    HW227411   6.641   5.904   2.839
 8838SOL     OW27412   2.270   5.550   3.154
 8838SOL    HW127413   2.176   5.583   3.169
 8838SOL    HW227414   2.273   5.451   3.166
 8839SOL     OW27415   5.818   5.284   3.446
 8839SOL    HW127416   5.827   5.188   3.422
 8839SOL    HW227417   5.851   5.341   3.371
 8840SOL     OW27418   6.768   2.179   2.478
 8840SOL    HW127419   6.734   2.236   2.403
 8840SOL    HW227420   6.738   2.219   2.565
 8841SOL     OW27421   0.832   1.231   5.334
 8841SOL    HW127422   0.909   1.231   5.398
 8841SOL    HW227423   0.751   1.268   5.379
 8842SOL     OW27424   3.742   2.868   2.582
 8842SOL    HW127425   3.700   2.872   2.673
 8842SOL    HW227426   3.842   2.869   2.592
 8843SOL     OW27427   1.670   3.089   5.525
 8843SOL    HW127428   1.575   3.077   5.497
 8843SOL    HW227429   1.695   3.186   5.523
 8844SOL     OW27430   6.738   2.227   6.238
 8844SOL    HW127431   6.696   2.210   6.149
 8844SOL    HW227432   6.750   2.326   6.251
 8845SOL     OW27433   4.054   3.190   0.375
 8845SOL    HW127434   4.048   3.267   0.311
 8845SOL    HW227435   4.140   3.197   0.427
 8846SOL     OW27436   3.205   5.432   4.060
 8846SOL    HW127437   3.142   5.451   4.135
 8846SOL    HW227438   3.184   5.491   3.982
 8847SOL     OW27439   2.690   0.847   3.288
 8847SOL    HW127440   2.626   0.883   3.220
 8847SOL    HW227441   2.749   0.778   3.246
 8848SOL     OW27442   2.361   1.269   1.690
 8848SOL    HW127443   2.448   1.227   1.662
 8848SOL    HW227444   2.314   1.209   1.755
 8849SOL     OW27445   2.814   6.031   3.394
 8849SOL    HW127446   2.841   6.034   3.298
 8849SOL    HW227447   2.719   5.998   3.401
 8850SOL     OW27448   1.194   2.171   0.363
 8850SOL    HW127449   1.232   2.242   0.423
 8850SOL    HW227450   1.134   2.112   0.417
 8851SOL     OW27451   1.198   4.273   3.472
 8851SOL    HW127452   1.207   4.272   3.373
 8851SOL    HW227453   1.289   4.260   3.514
 8852SOL     OW27454   6.684   2.777   5.187
 8852SOL    HW127455   6.776   2.769   5.225
 8852SOL    HW227456   6.685   2.845   5.113
 8853SOL     OW27457   3.285   1.156   1.385
 8853SOL    HW127458   3.215   1.095   1.424
 8853SOL    HW227459   3.254   1.189   1.295
 8854SOL     OW27460   3.564   2.668   5.917
 8854SOL    HW127461   3.550   2.607   5.995
 8854SOL    HW227462   3.554   2.616   5.832
 8855SOL     OW27463   6.809   5.301   1.601
 8855SOL    HW127464   6.761   5.244   1.535
 8855SOL    HW227465   6.889   5.253   1.635
 8856SOL     OW27466   0.217   6.228   6.329
 8856SOL    HW127467   0.199   6.302   6.264
 8856SOL    HW227468   0.298   6.176   6.299
 8857SOL     OW27469   0.073   1.470   4.460
 8857SOL    HW127470   0.002   1.399   4.458
 8857SOL    HW227471   0.031   1.560   4.445
 8858SOL     OW27472   0.563   3.701   5.054
 8858SOL    HW127473   0.595   3.615   5.095
 8858SOL    HW227474   0.538   3.765   5.127
 8859SOL     OW27475   1.015   0.739   3.436
 8859SOL    HW127476   1.111   0.732   3.411
 8859SOL    HW227477   0.959   0.689   3.370
 8860SOL     OW27478   6.919   2.664   2.412
 8860SOL    HW127479   6.884   2.747   2.370
 8860SOL    HW227480   6.843   2.614   2.455
 8861SOL     OW27481   4.534   1.538   6.308
 8861SOL    HW127482   4.579   1.449   6.314
 8861SOL    HW227483   4.524   1.577   6.400
 8862SOL     OW27484   4.960   0.283   3.524
 8862SOL    HW127485   4.928   0.323   3.438
 8862SOL    HW227486   4.888   0.290   3.593
 8863SOL     OW27487   2.311   4.830   3.742
 8863SOL    HW127488   2.280   4.857   3.833
 8863SOL    HW227489   2.233   4.801   3.687
 8864SOL     OW27490   2.762   5.130   6.446
 8864SOL    HW127491   2.791   5.212   6.495
 8864SOL    HW227492   2.812   5.123   6.359
 8865SOL     OW27493   3.091   0.436   4.623
 8865SOL    HW127494   3.001   0.439   4.666
 8865SOL    HW227495   3.104   0.347   4.580
 8866SOL     OW27496   4.921   0.161   2.658
 8866SOL    HW127497   4.889   0.244   2.703
 8866SOL    HW227498   5.015   0.174   2.628
 8867SOL     OW27499   5.768   4.828   3.255
 8867SOL    HW127500   5.866   4.845   3.238
 8867SOL    HW227501   5.745   4.736   3.223
 8868SOL     OW27502   0.098   3.194   1.536
 8868SOL    HW127503   0.145   3.277   1.507
 8868SOL    HW227504   0.151   3.114   1.510
 8869SOL     OW27505   3.775   5.889   5.190
 8869SOL    HW127506   3.740   5.819   5.253
 8869SOL    HW227507   3.871   5.870   5.170
 8870SOL     OW27508   2.813   6.893   0.711
 8870SOL    HW127509   2.714   6.898   0.695
 8870SOL    HW227510   2.859   6.968   0.664
 8871SOL     OW27511   2.087   1.070   4.059
 8871SOL    HW127512   1.995   1.083   4.023
 8871SOL    HW227513   2.114   1.150   4.113
 8872SOL     OW27514   1.745   4.544   5.292
 8872SOL    HW127515   1.712   4.480   5.361
 8872SOL    HW227516   1.674   4.557   5.222
 8873SOL     OW27517   0.426   6.458   2.171
 8873SOL    HW127518   0.353   6.403   2.131
 8873SOL    HW227519   0.395   6.497   2.258
 8874SOL     OW27520   2.358   6.062   2.507
 8874SOL    HW127521   2.261   6.083   2.520
 8874SOL    HW227522   2.401   6.136   2.456
 8875SOL     OW27523   0.364   3.719   4.460
 8875SOL    HW127524   0.363   3.803   4.514
 8875SOL    HW227525   0.374   3.640   4.520
 8876SOL     OW27526   2.084   6.372   5.640
 8876SOL    HW127527   1.998   6.378   5.690
 8876SOL    HW227528   2.109   6.276   5.628
 8877SOL     OW27529   2.822   1.529   3.844
 8877SOL    HW127530   2.810   1.520   3.943
 8877SOL    HW227531   2.916   1.506   3.820
 8878SOL     OW27532   5.762   4.936   1.095
 8878SOL    HW127533   5.664   4.926   1.114
 8878SOL    HW227534   5.781   5.029   1.064
 8879SOL     OW27535   4.728   4.714   2.444
 8879SOL    HW127536   4.786   4.785   2.484
 8879SOL    HW227537   4.636   4.751   2.429
 8880SOL     OW27538   4.328   5.926   4.658
 8880SOL    HW127539   4.336   5.978   4.743
 8880SOL    HW227540   4.336   5.828   4.677
 8881SOL     OW27541   5.138   6.447   3.743
 8881SOL    HW127542   5.158   6.460   3.840
 8881SOL    HW227543   5.108   6.534   3.703
 8882SOL     OW27544   5.093   1.013   1.435
 8882SOL    HW127545   5.110   1.091   1.496
 8882SOL    HW227546   5.173   0.954   1.432
 8883SOL     OW27547   1.671   6.104   6.262
 8883SOL    HW127548   1.693   6.201   6.277
 8883SOL    HW227549   1.750   6.048   6.286
 8884SOL     OW27550   5.886   3.697   4.977
 8884SOL    HW127551   5.983   3.710   4.953
 8884SOL    HW227552   5.878   3.620   5.041
 8885SOL     OW27553   5.549   4.246   1.562
 8885SOL    HW127554   5.499   4.191   1.495
 8885SOL    HW227555   5.647   4.246   1.538
 8886SOL     OW27556   2.903   5.970   4.780
 8886SOL    HW127557   2.979   5.990   4.841
 8886SOL    HW227558   2.898   6.039   4.708
 8887SOL     OW27559   3.902   0.585   0.859
 8887SOL    HW127560   3.902   0.494   0.816
 8887SOL    HW227561   3.987   0.597   0.910
 8888SOL     OW27562   1.927   1.427   5.657
 8888SOL    HW127563   2.022   1.447   5.681
 8888SOL    HW227564   1.921   1.409   5.559
 8889SOL     OW27565   6.708   0.159   0.307
 8889SOL    HW127566   6.631   0.209   0.268
 8889SOL    HW227567   6.674   0.077   0.354
 8890SOL     OW27568   0.260   6.215   5.197
 8890SOL    HW127569   0.161   6.224   5.185
 8890SOL    HW227570   0.279   6.142   5.263
 8891SOL     OW27571   4.065   3.469   6.950
 8891SOL    HW127572   4.072   3.388   6.892
 8891SOL    HW227573   4.147   3.525   6.939
 8892SOL     OW27574   3.659   5.335   2.470
 8892SOL    HW127575   3.613   5.249   2.489
 8892SOL    HW227576   3.636   5.366   2.377
 8893SOL     OW27577   0.809   5.545   4.015
 8893SOL    HW127578   0.718   5.528   3.978
 8893SOL    HW227579   0.826   5.485   4.093
 8894SOL     OW27580   2.842   1.820   6.888
 8894SOL    HW127581   2.854   1.796   6.791
 8894SOL    HW227582   2.755   1.782   6.920
 8895SOL     OW27583   6.754   2.906   2.329
 8895SOL    HW127584   6.747   3.005   2.319
 8895SOL    HW227585   6.795   2.867   2.246
 8896SOL     OW27586   2.371   2.939   5.394
 8896SOL    HW127587   2.430   2.977   5.323
 8896SOL    HW227588   2.335   2.851   5.364
 8897SOL     OW27589   2.266   2.804   3.896
 8897SOL    HW127590   2.266   2.806   3.796
 8897SOL    HW227591   2.328   2.732   3.927
 8898SOL     OW27592   4.889   3.726   2.332
 8898SOL    HW127593   4.791   3.738   2.317
 8898SOL    HW227594   4.938   3.809   2.305
 8899SOL     OW27595   0.977   4.732   1.238
 8899SOL    HW127596   0.905   4.800   1.224
 8899SOL    HW227597   0.941   4.641   1.217
 8900SOL     OW27598   5.719   3.066   2.906
 8900SOL    HW127599   5.743   3.123   2.985
 8900SOL    HW227600   5.794   3.067   2.840
 8901SOL     OW27601   1.336   1.135   4.832
 8901SOL    HW127602   1.404   1.206   4.852
 8901SOL    HW227603   1.247   1.163   4.868
 8902SOL     OW27604   0.906   5.771   0.781
 8902SOL    HW127605   1.000   5.789   0.752
 8902SOL    HW227606   0.896   5.796   0.878
 8903SOL     OW27607   0.387   1.763   4.285
 8903SOL    HW127608   0.366   1.683   4.340
 8903SOL    HW227609   0.478   1.753   4.245
 8904SOL     OW27610   6.820   0.935   4.994
 8904SOL    HW127611   6.855   0.846   5.021
 8904SOL    HW227612   6.720   0.932   4.990
 8905SOL     OW27613   2.075   3.645   3.388
 8905SOL    HW127614   2.105   3.576   3.454
 8905SOL    HW227615   2.118   3.627   3.300
 8906SOL     OW27616   1.115   6.366   0.100
 8906SOL    HW127617   1.159   6.340   0.185
 8906SOL    HW227618   1.020   6.393   0.118
 8907SOL     OW27619   2.949   2.851   5.553
 8907SOL    HW127620   2.941   2.950   5.559
 8907SOL    HW227621   2.870   2.814   5.504
 8908SOL     OW27622   1.383   5.560   7.001
 8908SOL    HW127623   1.462   5.613   0.016
 8908SOL    HW227624   1.374   5.477   0.039
 8909SOL     OW27625   2.480   1.147   5.412
 8909SOL    HW127626   2.558   1.084   5.413
 8909SOL    HW227627   2.437   1.149   5.502
 8910SOL     OW27628   0.508   2.965   6.014
 8910SOL    HW127629   0.541   2.994   5.924
 8910SOL    HW227630   0.547   3.025   6.084
 8911SOL     OW27631   4.624   2.570   4.262
 8911SOL    HW127632   4.657   2.483   4.226
 8911SOL    HW227633   4.650   2.644   4.199
 8912SOL     OW27634   3.501   3.287   7.005
 8912SOL    HW127635   3.506   3.218   6.933
 8912SOL    HW227636   3.410   3.330   7.004
 8913SOL     OW27637   4.198   5.659   5.788
 8913SOL    HW127638   4.244   5.649   5.700
 8913SOL    HW227639   4.258   5.628   5.861
 8914SOL     OW27640   4.247   6.724   4.630
 8914SOL    HW127641   4.244   6.630   4.664
 8914SOL    HW227642   4.182   6.734   4.555
 8915SOL     OW27643   1.320   2.449   3.730
 8915SOL    HW127644   1.248   2.414   3.671
 8915SOL    HW227645   1.356   2.534   3.692
 8916SOL     OW27646   6.980   3.038   1.229
 8916SOL    HW127647   0.058   3.011   1.207
 8916SOL    HW227648   6.980   3.127   1.275
 8917SOL     OW27649   6.615   2.706   0.768
 8917SOL    HW127650   6.687   2.717   0.700
 8917SOL    HW227651   6.526   2.703   0.723
 8918SOL     OW27652   6.718   4.358   1.444
 8918SOL    HW127653   6.756   4.341   1.353
 8918SOL    HW227654   6.643   4.294   1.462
 8919SOL     OW27655   4.547   4.424   0.177
 8919SOL    HW127656   4.584   4.490   0.111
 8919SOL    HW227657   4.456   4.395   0.146
 8920SOL     OW27658   0.172   1.589   6.819
 8920SOL    HW127659   0.188   1.510   6.877
 8920SOL    HW227660   0.077   1.618   6.828
 8921SOL     OW27661   1.925   2.717   1.697
 8921SOL    HW127662   1.835   2.737   1.735
 8921SOL    HW227663   1.996   2.751   1.759
 8922SOL     OW27664   4.316   5.047   2.000
 8922SOL    HW127665   4.244   5.049   1.930
 8922SOL    HW227666   4.404   5.030   1.957
 8923SOL     OW27667   1.898   1.599   6.538
 8923SOL    HW127668   1.862   1.516   6.579
 8923SOL    HW227669   1.858   1.679   6.583
 8924SOL     OW27670   4.682   5.933   5.069
 8924SOL    HW127671   4.771   5.917   5.112
 8924SOL    HW227672   4.694   5.983   4.984
 8925SOL     OW27673   1.108   0.827   2.979
 8925SOL    HW127674   1.063   0.768   2.912
 8925SOL    HW227675   1.040   0.860   3.045
 8926SOL     OW27676   6.731   2.913   6.097
 8926SOL    HW127677   6.802   2.849   6.068
 8926SOL    HW227678   6.764   2.966   6.176
 8927SOL     OW27679   0.085   0.641   4.831
 8927SOL    HW127680   0.035   0.690   4.760
 8927SOL    HW227681   0.177   0.679   4.839
 8928SOL     OW27682   1.359   0.050   6.020
 8928SOL    HW127683   1.392   0.021   5.930
 8928SOL    HW227684   1.380   6.996   6.088
 8929SOL     OW27685   5.511   1.433   4.985
 8929SOL    HW127686   5.536   1.342   4.952
 8929SOL    HW227687   5.589   1.472   5.034
 8930SOL     OW27688   1.564   2.874   4.949
 8930SOL    HW127689   1.527   2.810   4.881
 8930SOL    HW227690   1.656   2.901   4.922
 8931SOL     OW27691   3.065   3.560   0.886
 8931SOL    HW127692   2.979   3.612   0.894
 8931SOL    HW227693   3.092   3.525   0.975
 8932SOL     OW27694   6.397   2.132   1.783
 8932SOL    HW127695   6.342   2.213   1.763
 8932SOL    HW227696   6.435   2.096   1.697
 8933SOL     OW27697   2.604   2.864   6.304
 8933SOL    HW127698   2.577   2.885   6.398
 8933SOL    HW227699   2.694   2.821   6.304
 8934SOL     OW27700   2.378   5.269   4.692
 8934SOL    HW127701   2.399   5.190   4.750
 8934SOL    HW227702   2.426   5.259   4.605
 8935SOL     OW27703   0.404   4.575   0.330
 8935SOL    HW127704   0.330   4.603   0.391
 8935SOL    HW227705   0.460   4.506   0.376
 8936SOL     OW27706   1.300   3.981   2.583
 8936SOL    HW127707   1.226   3.984   2.651
 8936SOL    HW227708   1.388   3.988   2.630
 8937SOL     OW27709   0.270   0.406   5.824
 8937SOL    HW127710   0.191   0.455   5.860
 8937SOL    HW227711   0.319   0.465   5.760
 8938SOL     OW27712   0.762   6.112   0.458
 8938SOL    HW127713   0.714   6.027   0.480
 8938SOL    HW227714   0.833   6.092   0.390
 8939SOL     OW27715   5.017   4.038   4.379
 8939SOL    HW127716   5.077   3.965   4.411
 8939SOL    HW227717   4.927   4.027   4.420
 8940SOL     OW27718   0.405   1.167   2.132
 8940SOL    HW127719   0.361   1.210   2.054
 8940SOL    HW227720   0.342   1.101   2.174
 8941SOL     OW27721   6.287   2.595   5.282
 8941SOL    HW127722   6.230   2.610   5.201
 8941SOL    HW227723   6.252   2.517   5.333
 8942SOL     OW27724   6.331   4.832   5.359
 8942SOL    HW127725   6.410   4.893   5.367
 8942SOL    HW227726   6.362   4.740   5.336
 8943SOL     OW27727   3.606   5.446   6.023
 8943SOL    HW127728   3.536   5.507   5.985
 8943SOL    HW227729   3.647   5.393   5.949
 8944SOL     OW27730   5.920   5.170   5.819
 8944SOL    HW127731   5.954   5.076   5.821
 8944SOL    HW227732   5.821   5.170   5.836
 8945SOL     OW27733   1.277   0.492   3.110
 8945SOL    HW127734   1.275   0.447   3.020
 8945SOL    HW227735   1.366   0.476   3.153
 8946SOL     OW27736   3.383   1.660   5.130
 8946SOL    HW127737   3.367   1.720   5.208
 8946SOL    HW227738   3.323   1.688   5.055
 8947SOL     OW27739   1.928   3.192   6.384
 8947SOL    HW127740   1.859   3.121   6.371
 8947SOL    HW227741   1.925   3.224   6.479
 8948SOL     OW27742   5.769   6.036   4.968
 8948SOL    HW127743   5.694   6.032   4.902
 8948SOL    HW227744   5.822   6.120   4.953
 8949SOL     OW27745   2.944   6.483   0.936
 8949SOL    HW127746   2.983   6.533   0.858
 8949SOL    HW227747   2.847   6.505   0.944
 8950SOL     OW27748   5.016   4.192   6.315
 8950SOL    HW127749   5.032   4.264   6.248
 8950SOL    HW227750   5.011   4.104   6.269
 8951SOL     OW27751   1.175   1.658   5.303
 8951SOL    HW127752   1.093   1.612   5.270
 8951SOL    HW227753   1.243   1.590   5.330
 8952SOL     OW27754   1.230   6.358   2.891
 8952SOL    HW127755   1.192   6.413   2.965
 8952SOL    HW227756   1.292   6.289   2.930
 8953SOL     OW27757   1.883   4.226   6.601
 8953SOL    HW127758   1.795   4.189   6.630
 8953SOL    HW227759   1.940   4.244   6.680
 8954SOL     OW27760   0.719   0.173   5.146
 8954SOL    HW127761   0.658   0.148   5.221
 8954SOL    HW227762   0.774   0.094   5.120
 8955SOL     OW27763   6.943   5.006   2.276
 8955SOL    HW127764   6.887   5.081   2.312
 8955SOL    HW227765   6.886   4.946   2.219
 8956SOL     OW27766   1.477   1.107   6.860
 8956SOL    HW127767   1.388   1.082   6.901
 8956SOL    HW227768   1.501   1.200   6.888
 8957SOL     OW27769   2.697   4.714   1.113
 8957SOL    HW127770   2.790   4.679   1.112
 8957SOL    HW227771   2.696   4.806   1.152
 8958SOL     OW27772   0.731   1.674   5.101
 8958SOL    HW127773   0.724   1.585   5.055
 8958SOL    HW227774   0.657   1.683   5.168
 8959SOL     OW27775   1.907   4.783   1.991
 8959SOL    HW127776   1.842   4.852   1.962
 8959SOL    HW227777   1.998   4.807   1.957
 8960SOL     OW27778   4.637   4.792   2.741
 8960SOL    HW127779   4.562   4.755   2.686
 8960SOL    HW227780   4.708   4.722   2.751
 8961SOL     OW27781   2.336   0.936   4.228
 8961SOL    HW127782   2.267   0.912   4.296
 8961SOL    HW227783   2.324   1.031   4.199
 8962SOL     OW27784   6.507   5.889   2.282
 8962SOL    HW127785   6.593   5.842   2.261
 8962SOL    HW227786   6.485   5.875   2.379
 8963SOL     OW27787   4.107   6.173   4.063
 8963SOL    HW127788   4.147   6.261   4.086
 8963SOL    HW227789   4.161   6.131   3.990
 8964SOL     OW27790   5.073   3.557   2.996
 8964SOL    HW127791   5.032   3.472   3.031
 8964SOL    HW227792   5.169   3.540   2.973
 8965SOL     OW27793   2.696   4.890   0.270
 8965SOL    HW127794   2.714   4.989   0.269
 8965SOL    HW227795   2.779   4.841   0.243
 8966SOL     OW27796   0.171   4.374   0.101
 8966SOL    HW127797   0.192   4.471   0.088
 8966SOL    HW227798   0.215   4.342   0.185
 8967SOL     OW27799   4.224   0.502   1.558
 8967SOL    HW127800   4.258   0.520   1.651
 8967SOL    HW227801   4.129   0.532   1.552
 8968SOL     OW27802   4.602   5.290   2.965
 8968SOL    HW127803   4.542   5.215   2.937
 8968SOL    HW227804   4.667   5.310   2.891
 8969SOL     OW27805   6.698   1.564   4.694
 8969SOL    HW127806   6.715   1.629   4.768
 8969SOL    HW227807   6.785   1.539   4.651
 8970SOL     OW27808   2.460   2.974   0.382
 8970SOL    HW127809   2.504   3.063   0.368
 8970SOL    HW227810   2.361   2.986   0.384
 8971SOL     OW27811   5.764   5.344   1.219
 8971SOL    HW127812   5.806   5.269   1.269
 8971SOL    HW227813   5.748   5.317   1.124
 8972SOL     OW27814   5.282   4.207   6.933
 8972SOL    HW127815   5.194   4.247   6.959
 8972SOL    HW227816   5.267   4.134   6.866
 8973SOL     OW27817   0.820   3.337   2.520
 8973SOL    HW127818   0.727   3.346   2.556
 8973SOL    HW227819   0.843   3.418   2.466
 8974SOL     OW27820   1.140   4.518   5.385
 8974SOL    HW127821   1.158   4.435   5.438
 8974SOL    HW227822   1.221   4.576   5.384
 8975SOL     OW27823   1.497   6.793   5.484
 8975SOL    HW127824   1.553   6.726   5.434
 8975SOL    HW227825   1.424   6.745   5.532
 8976SOL     OW27826   6.728   4.864   5.879
 8976SOL    HW127827   6.641   4.896   5.841
 8976SOL    HW227828   6.739   4.766   5.860
 8977SOL     OW27829   6.398   2.627   0.093
 8977SOL    HW127830   6.442   2.701   0.143
 8977SOL    HW227831   6.452   2.543   0.104
 8978SOL     OW27832   5.783   0.286   4.181
 8978SOL    HW127833   5.824   0.273   4.090
 8978SOL    HW227834   5.700   0.341   4.172
 8979SOL     OW27835   1.270   3.979   4.548
 8979SOL    HW127836   1.333   4.043   4.504
 8979SOL    HW227837   1.320   3.897   4.575
 8980SOL     OW27838   3.564   2.607   5.503
 8980SOL    HW127839   3.540   2.571   5.593
 8980SOL    HW227840   3.489   2.590   5.439
 8981SOL     OW27841   4.056   1.257   5.775
 8981SOL    HW127842   4.136   1.303   5.814
 8981SOL    HW227843   4.051   1.163   5.808
 8982SOL     OW27844   0.497   2.213   1.665
 8982SOL    HW127845   0.400   2.220   1.690
 8982SOL    HW227846   0.545   2.159   1.734
 8983SOL     OW27847   1.199   5.946   0.058
 8983SOL    HW127848   1.194   6.020   7.006
 8983SOL    HW227849   1.126   5.880   0.040
 8984SOL     OW27850   6.550   6.960   3.946
 8984SOL    HW127851   6.636   7.006   3.924
 8984SOL    HW227852   6.569   6.877   3.999
 8985SOL     OW27853   2.640   2.046   1.114
 8985SOL    HW127854   2.670   1.972   1.174
 8985SOL    HW227855   2.720   2.093   1.076
 8986SOL     OW27856   4.584   5.079   2.333
 8986SOL    HW127857   4.484   5.077   2.335
 8986SOL    HW227858   4.621   5.058   2.424
 8987SOL     OW27859   5.193   0.246   0.865
 8987SOL    HW127860   5.180   0.324   0.805
 8987SOL    HW227861   5.131   0.253   0.943
 8988SOL     OW27862   1.012   3.648   5.830
 8988SOL    HW127863   0.998   3.619   5.925
 8988SOL    HW227864   0.974   3.579   5.768
 8989SOL     OW27865   4.685   4.116   1.499
 8989SOL    HW127866   4.761   4.111   1.564
 8989SOL    HW227867   4.616   4.047   1.523
 8990SOL     OW27868   1.870   6.118   3.040
 8990SOL    HW127869   1.823   6.067   2.968
 8990SOL    HW227870   1.861   6.216   3.024
 8991SOL     OW27871   1.323   1.415   6.703
 8991SOL    HW127872   1.403   1.414   6.765
 8991SOL    HW227873   1.278   1.326   6.706
 8992SOL     OW27874   5.890   1.942   0.055
 8992SOL    HW127875   5.803   1.919   0.011
 8992SOL    HW227876   5.964   1.934   7.005
 8993SOL     OW27877   4.442   2.142   2.430
 8993SOL    HW127878   4.471   2.124   2.336
 8993SOL    HW227879   4.370   2.077   2.456
 8994SOL     OW27880   1.110   4.981   4.574
 8994SOL    HW127881   1.188   5.020   4.623
 8994SOL    HW227882   1.128   4.982   4.476
 8995SOL     OW27883   0.720   2.517   0.117
 8995SOL    HW127884   0.715   2.617   0.122
 8995SOL    HW227885   0.812   2.487   0.143
 8996SOL     OW27886   6.368   4.969   1.099
 8996SOL    HW127887   6.456   4.990   1.057
 8996SOL    HW227888   6.367   4.875   1.131
 8997SOL     OW27889   4.666   1.202   6.090
 8997SOL    HW127890   4.653   1.135   6.017
 8997SOL    HW227891   4.604   1.279   6.075
 8998SOL     OW27892   6.700   3.856   4.735
 8998SOL    HW127893   6.614   3.888   4.775
 8998SOL    HW227894   6.724   3.914   4.657
 8999SOL     OW27895   5.158   6.334   0.216
 8999SOL    HW127896   5.210   6.258   0.254
 8999SOL    HW227897   5.063   6.327   0.245
 9000SOL     OW27898   2.139   4.321   0.872
 9000SOL    HW127899   2.117   4.321   0.969
 9000SOL    HW227900   2.202   4.246   0.852
 9001SOL     OW27901   1.009   5.403   2.476
 9001SOL    HW127902   0.982   5.481   2.420
 9001SOL    HW227903   1.057   5.336   2.419
 9002SOL     OW27904   6.971   4.827   5.199
 9002SOL    HW127905   6.934   4.903   5.252
 9002SOL    HW227906   0.030   4.784   5.250
 9003SOL     OW27907   5.263   2.809   1.576
 9003SOL    HW127908   5.182   2.825   1.633
 9003SOL    HW227909   5.246   2.730   1.517
 9004SOL     OW27910   4.337   6.533   1.447
 9004SOL    HW127911   4.252   6.551   1.398
 9004SOL    HW227912   4.322   6.462   1.515
 9005SOL     OW27913   4.989   2.622   4.211
 9005SOL    HW127914   4.915   2.616   4.277
 9005SOL    HW227915   5.062   2.559   4.237
 9006SOL     OW27916   2.551   6.941   0.655
 9006SOL    HW127917   2.524   6.992   0.573
 9006SOL    HW227918   2.499   6.855   0.659
 9007SOL     OW27919   3.555   1.011   4.291
 9007SOL    HW127920   3.578   0.937   4.354
 9007SOL    HW227921   3.520   0.973   4.206
 9008SOL     OW27922   1.043   5.819   3.081
 9008SOL    HW127923   1.112   5.747   3.093
 9008SOL    HW227924   0.962   5.780   3.037
 9009SOL     OW27925   3.338   0.528   0.732
 9009SOL    HW127926   3.307   0.440   0.767
 9009SOL    HW227927   3.423   0.555   0.777
 9010SOL     OW27928   1.413   6.295   3.874
 9010SOL    HW127929   1.385   6.218   3.931
 9010SOL    HW227930   1.512   6.292   3.859
 9011SOL     OW27931   4.883   2.472   2.185
 9011SOL    HW127932   4.922   2.564   2.189
 9011SOL    HW227933   4.931   2.419   2.115
 9012SOL     OW27934   2.312   4.400   1.242
 9012SOL    HW127935   2.291   4.475   1.306
 9012SOL    HW227936   2.298   4.312   1.288
 9013SOL     OW27937   6.683   6.486   5.270
 9013SOL    HW127938   6.651   6.545   5.344
 9013SOL    HW227939   6.724   6.403   5.309
 9014SOL     OW27940   6.442   2.104   0.265
 9014SOL    HW127941   6.379   2.028   0.245
 9014SOL    HW227942   6.454   2.112   0.364
 9015SOL     OW27943   5.057   1.593   1.109
 9015SOL    HW127944   5.037   1.595   1.011
 9015SOL    HW227945   5.065   1.498   1.139
 9016SOL     OW27946   0.543   7.013   6.361
 9016SOL    HW127947   0.552   6.940   6.428
 9016SOL    HW227948   0.552   0.086   6.406
 9017SOL     OW27949   4.267   2.037   3.230
 9017SOL    HW127950   4.304   2.019   3.139
 9017SOL    HW227951   4.180   2.085   3.222
 9018SOL     OW27952   4.048   2.001   0.195
 9018SOL    HW127953   4.143   1.990   0.223
 9018SOL    HW227954   4.001   2.061   0.259
 9019SOL     OW27955   1.258   6.942   2.190
 9019SOL    HW127956   1.293   6.855   2.153
 9019SOL    HW227957   1.239   7.004   2.114
 9020SOL     OW27958   0.592   4.072   1.554
 9020SOL    HW127959   0.678   4.071   1.503
 9020SOL    HW227960   0.522   4.023   1.501
 9021SOL     OW27961   6.579   0.214   4.098
 9021SOL    HW127962   6.556   0.130   4.050
 9021SOL    HW227963   6.561   0.202   4.196
 9022SOL     OW27964   3.193   2.398   6.743
 9022SOL    HW127965   3.177   2.350   6.829
 9022SOL    HW227966   3.111   2.393   6.686
 9023SOL     OW27967   3.195   3.096   2.525
 9023SOL    HW127968   3.143   3.098   2.440
 9023SOL    HW227969   3.245   3.182   2.535
 9024SOL     OW27970   0.669   4.637   4.792
 9024SOL    HW127971   0.625   4.643   4.703
 9024SOL    HW227972   0.612   4.682   4.861
 9025SOL     OW27973   0.847   5.118   0.141
 9025SOL    HW127974   0.925   5.057   0.155
 9025SOL    HW227975   0.872   5.190   0.076
 9026SOL     OW27976   4.460   3.358   1.348
 9026SOL    HW127977   4.414   3.290   1.405
 9026SOL    HW227978   4.444   3.337   1.252
 9027SOL     OW27979   1.245   2.520   4.327
 9027SOL    HW127980   1.201   2.435   4.299
 9027SOL    HW227981   1.211   2.595   4.270
 9028SOL     OW27982   2.317   3.384   5.319
 9028SOL    HW127983   2.251   3.414   5.250
 9028SOL    HW227984   2.351   3.463   5.370
 9029SOL     OW27985   3.412   6.157   5.023
 9029SOL    HW127986   3.471   6.091   4.977
 9029SOL    HW227987   3.461   6.244   5.033
 9030SOL     OW27988   2.195   1.837   3.334
 9030SOL    HW127989   2.169   1.769   3.402
 9030SOL    HW227990   2.144   1.822   3.250
 9031SOL     OW27991   4.236   5.346   4.433
 9031SOL    HW127992   4.187   5.404   4.368
 9031SOL    HW227993   4.313   5.397   4.471
 9032SOL     OW27994   3.956   2.963   0.498
 9032SOL    HW127995   3.879   2.949   0.435
 9032SOL    HW227996   4.000   3.050   0.477
 9033SOL     OW27997   0.929   3.909   3.110
 9033SOL    HW127998   0.893   4.002   3.098
 9033SOL    HW227999   1.026   3.908   3.086
 9034SOL     OW28000   2.801   0.263   5.592
 9034SOL    HW128001   2.755   0.346   5.559
 9034SOL    HW228002   2.732   0.197   5.622
 9035SOL     OW28003   1.335   5.001   6.353
 9035SOL    HW128004   1.417   5.055   6.333
 9035SOL    HW228005   1.267   5.016   6.281
 9036SOL     OW28006   1.492   1.423   5.647
 9036SOL    HW128007   1.403   1.391   5.680
 9036SOL    HW228008   1.556   1.430   5.723
 9037SOL     OW28009   1.042   4.160   5.374
 9037SOL    HW128010   1.111   4.201   5.434
 9037SOL    HW228011   1.078   4.151   5.282
 9038SOL     OW28012   4.191   6.737   5.691
 9038SOL    HW128013   4.271   6.785   5.727
 9038SOL    HW228014   4.114   6.750   5.753
 9039SOL     OW28015   2.577   5.729   5.191
 9039SOL    HW128016   2.490   5.779   5.198
 9039SOL    HW228017   2.615   5.742   5.100
 9040SOL     OW28018   3.291   1.643   2.407
 9040SOL    HW128019   3.389   1.638   2.390
 9040SOL    HW228020   3.268   1.588   2.487
 9041SOL     OW28021   0.869   2.521   1.538
 9041SOL    HW128022   0.949   2.463   1.529
 9041SOL    HW228023   0.816   2.494   1.617
 9042SOL     OW28024   3.055   0.202   3.916
 9042SOL    HW128025   3.098   0.291   3.902
 9042SOL    HW228026   3.097   0.156   3.995
 9043SOL     OW28027   1.414   0.988   0.285
 9043SOL    HW128028   1.363   1.001   0.200
 9043SOL    HW228029   1.469   1.070   0.303
 9044SOL     OW28030   6.492   0.951   0.452
 9044SOL    HW128031   6.425   1.013   0.412
 9044SOL    HW228032   6.550   1.001   0.516
 9045SOL     OW28033   2.459   1.286   2.381
 9045SOL    HW128034   2.546   1.281   2.429
 9045SOL    HW228035   2.385   1.257   2.443
 9046SOL     OW28036   3.664   3.615   3.382
 9046SOL    HW128037   3.593   3.569   3.330
 9046SOL    HW228038   3.623   3.682   3.444
 9047SOL     OW28039   1.503   3.465   5.844
 9047SOL    HW128040   1.491   3.376   5.799
 9047SOL    HW228041   1.600   3.488   5.845
 9048SOL     OW28042   5.442   3.047   6.064
 9048SOL    HW128043   5.481   2.968   6.016
 9048SOL    HW228044   5.342   3.045   6.054
 9049SOL     OW28045   3.456   0.205   5.832
 9049SOL    HW128046   3.451   0.122   5.887
 9049SOL    HW228047   3.366   0.248   5.826
 9050SOL     OW28048   0.234   3.110   0.556
 9050SOL    HW128049   0.308   3.045   0.574
 9050SOL    HW228050   0.229   3.129   0.458
 9051SOL     OW28051   4.048   6.693   0.810
 9051SOL    HW128052   4.048   6.601   0.772
 9051SOL    HW228053   4.142   6.728   0.814
 9052SOL     OW28054   2.343   2.333   3.796
 9052SOL    HW128055   2.344   2.291   3.705
 9052SOL    HW228056   2.375   2.266   3.863
 9053SOL     OW28057   2.261   1.645   3.003
 9053SOL    HW128058   2.173   1.645   3.051
 9053SOL    HW228059   2.251   1.689   2.914
 9054SOL     OW28060   2.672   6.232   3.020
 9054SOL    HW128061   2.621   6.153   3.055
 9054SOL    HW228062   2.608   6.296   2.977
 9055SOL     OW28063   5.412   2.704   4.220
 9055SOL    HW128064   5.409   2.725   4.318
 9055SOL    HW228065   5.361   2.774   4.170
 9056SOL     OW28066   0.467   1.180   2.503
 9056SOL    HW128067   0.533   1.149   2.434
 9056SOL    HW228068   0.399   1.240   2.460
 9057SOL     OW28069   5.287   4.443   5.786
 9057SOL    HW128070   5.329   4.361   5.748
 9057SOL    HW228071   5.348   4.521   5.774
 9058SOL     OW28072   2.631   2.062   2.503
 9058SOL    HW128073   2.614   2.104   2.592
 9058SOL    HW228074   2.546   2.022   2.468
 9059SOL     OW28075   0.941   2.113   4.259
 9059SOL    HW128076   0.928   2.167   4.342
 9059SOL    HW228077   1.038   2.111   4.235
 9060SOL     OW28078   6.720   3.004   3.672
 9060SOL    HW128079   6.813   2.987   3.640
 9060SOL    HW228080   6.658   3.009   3.594
 9061SOL     OW28081   2.399   5.801   2.396
 9061SOL    HW128082   2.309   5.779   2.434
 9061SOL    HW228083   2.425   5.893   2.424
 9062SOL     OW28084   1.387   6.135   2.190
 9062SOL    HW128085   1.292   6.111   2.207
 9062SOL    HW228086   1.431   6.164   2.275
 9063SOL     OW28087   2.460   0.139   3.044
 9063SOL    HW128088   2.545   0.129   3.095
 9063SOL    HW228089   2.479   0.135   2.946
 9064SOL     OW28090   6.009   1.953   5.098
 9064SOL    HW128091   5.952   1.877   5.070
 9064SOL    HW228092   6.004   1.963   5.198
 9065SOL     OW28093   3.138   0.085   5.664
 9065SOL    HW128094   3.064   0.041   5.613
 9065SOL    HW228095   3.106   0.105   5.757
 9066SOL     OW28096   4.827   6.263   0.741
 9066SOL    HW128097   4.861   6.171   0.724
 9066SOL    HW228098   4.843   6.320   0.661
 9067SOL     OW28099   6.914   0.809   4.707
 9067SOL    HW128100   6.904   0.756   4.622
 9067SOL    HW228101   6.852   0.772   4.776
 9068SOL     OW28102   2.429   6.402   4.436
 9068SOL    HW128103   2.498   6.410   4.364
 9068SOL    HW228104   2.471   6.417   4.525
 9069SOL     OW28105   1.565   3.489   1.579
 9069SOL    HW128106   1.584   3.576   1.534
 9069SOL    HW228107   1.570   3.415   1.512
 9070SOL     OW28108   0.982   4.011   4.566
 9070SOL    HW128109   0.949   4.104   4.584
 9070SOL    HW228110   1.082   4.013   4.560
 9071SOL     OW28111   5.260   0.719   1.598
 9071SOL    HW128112   5.244   0.634   1.648
 9071SOL    HW228113   5.349   0.757   1.625
 9072SOL     OW28114   0.050   1.421   2.103
 9072SOL    HW128115   0.135   1.457   2.143
 9072SOL    HW228116   6.988   1.472   2.139
 9073SOL     OW28117   3.050   6.568   2.897
 9073SOL    HW128118   2.955   6.571   2.926
 9073SOL    HW228119   3.102   6.640   2.942
 9074SOL     OW28120   1.867   2.055   1.955
 9074SOL    HW128121   1.774   2.086   1.933
 9074SOL    HW228122   1.933   2.126   1.930
 9075SOL     OW28123   0.923   1.382   2.322
 9075SOL    HW128124   0.865   1.410   2.245
 9075SOL    HW228125   0.868   1.381   2.405
 9076SOL     OW28126   6.700   1.754   5.840
 9076SOL    HW128127   6.755   1.790   5.917
 9076SOL    HW228128   6.760   1.706   5.776
 9077SOL     OW28129   4.326   0.032   7.006
 9077SOL    HW128130   4.249   6.984   7.008
 9077SOL    HW228131   4.350   0.057   0.084
 9078SOL     OW28132   4.486   3.637   6.338
 9078SOL    HW128133   4.541   3.621   6.256
 9078SOL    HW228134   4.389   3.644   6.313
 9079SOL     OW28135   3.263   0.316   4.194
 9079SOL    HW128136   3.215   0.400   4.169
 9079SOL    HW228137   3.346   0.308   4.140
 9080SOL     OW28138   4.398   2.580   6.584
 9080SOL    HW128139   4.409   2.660   6.525
 9080SOL    HW228140   4.312   2.586   6.634
 9081SOL     OW28141   3.616   6.818   2.417
 9081SOL    HW128142   3.572   6.905   2.393
 9081SOL    HW228143   3.582   6.787   2.506
 9082SOL     OW28144   1.957   0.155   5.588
 9082SOL    HW128145   1.976   0.190   5.496
 9082SOL    HW228146   1.927   0.060   5.582
 9083SOL     OW28147   3.152   5.931   6.152
 9083SOL    HW128148   3.204   5.958   6.071
 9083SOL    HW228149   3.180   5.986   6.231
 9084SOL     OW28150   3.172   4.080   4.666
 9084SOL    HW128151   3.085   4.045   4.700
 9084SOL    HW228152   3.168   4.087   4.566
 9085SOL     OW28153   2.436   6.810   1.903
 9085SOL    HW128154   2.373   6.822   1.980
 9085SOL    HW228155   2.415   6.725   1.855
 9086SOL     OW28156   1.170   4.316   0.601
 9086SOL    HW128157   1.253   4.285   0.646
 9086SOL    HW228158   1.114   4.237   0.576
 9087SOL     OW28159   4.346   2.224   1.627
 9087SOL    HW128160   4.440   2.228   1.662
 9087SOL    HW228161   4.282   2.253   1.698
 9088SOL     OW28162   7.005   6.754   0.431
 9088SOL    HW128163   0.036   6.686   0.488
 9088SOL    HW228164   6.977   6.711   0.345
 9089SOL     OW28165   5.226   5.750   5.842
 9089SOL    HW128166   5.222   5.786   5.935
 9089SOL    HW228167   5.148   5.689   5.826
 9090SOL     OW28168   0.151   1.272   4.154
 9090SOL    HW128169   0.239   1.289   4.197
 9090SOL    HW228170   0.082   1.250   4.224
 9091SOL     OW28171   3.293   4.345   6.835
 9091SOL    HW128172   3.341   4.301   6.911
 9091SOL    HW228173   3.305   4.444   6.840
 9092SOL     OW28174   6.356   0.887   0.003
 9092SOL    HW128175   6.278   0.824   7.010
 9092SOL    HW228176   6.328   0.967   0.056
 9093SOL     OW28177   0.892   5.911   5.669
 9093SOL    HW128178   0.953   5.884   5.743
 9093SOL    HW228179   0.925   5.872   5.583
 9094SOL     OW28180   6.450   4.802   3.158
 9094SOL    HW128181   6.488   4.719   3.117
 9094SOL    HW228182   6.524   4.857   3.197
 9095SOL     OW28183   4.778   4.515   6.066
 9095SOL    HW128184   4.678   4.513   6.075
 9095SOL    HW228185   4.803   4.579   5.994
 9096SOL     OW28186   6.136   5.116   2.839
 9096SOL    HW128187   6.196   5.184   2.882
 9096SOL    HW228188   6.070   5.163   2.781
 9097SOL     OW28189   1.167   1.776   1.021
 9097SOL    HW128190   1.252   1.792   1.071
 9097SOL    HW228191   1.180   1.799   0.925
 9098SOL     OW28192   3.069   2.104   4.622
 9098SOL    HW128193   3.110   2.168   4.687
 9098SOL    HW228194   3.043   2.153   4.539
 9099SOL     OW28195   3.395   3.163   6.019
 9099SOL    HW128196   3.304   3.203   6.030
 9099SOL    HW228197   3.457   3.232   5.983
 9100SOL     OW28198   0.218   3.278   3.318
 9100SOL    HW128199   0.134   3.262   3.369
 9100SOL    HW228200   0.283   3.328   3.376
 9101SOL     OW28201   2.776   2.616   1.684
 9101SOL    HW128202   2.839   2.575   1.750
 9101SOL    HW228203   2.823   2.631   1.597
 9102SOL     OW28204   4.044   6.236   2.012
 9102SOL    HW128205   4.030   6.158   2.073
 9102SOL    HW228206   4.009   6.215   1.921
 9103SOL     OW28207   6.006   2.521   6.666
 9103SOL    HW128208   6.022   2.423   6.655
 9103SOL    HW228209   6.093   2.567   6.683
 9104SOL     OW28210   6.739   6.381   1.547
 9104SOL    HW128211   6.778   6.458   1.497
 9104SOL    HW228212   6.807   6.346   1.612
 9105SOL     OW28213   0.822   1.127   6.292
 9105SOL    HW128214   0.784   1.218   6.277
 9105SOL    HW228215   0.916   1.135   6.325
 9106SOL     OW28216   5.468   3.810   1.563
 9106SOL    HW128217   5.558   3.852   1.575
 9106SOL    HW228218   5.478   3.712   1.551
 9107SOL     OW28219   2.297   0.744   6.734
 9107SOL    HW128220   2.232   0.682   6.690
 9107SOL    HW228221   2.276   0.838   6.708
 9108SOL     OW28222   4.980   4.313   4.943
 9108SOL    HW128223   4.981   4.412   4.956
 9108SOL    HW228224   5.073   4.277   4.954
 9109SOL     OW28225   6.471   3.487   3.152
 9109SOL    HW128226   6.473   3.504   3.251
 9109SOL    HW228227   6.395   3.537   3.111
 9110SOL     OW28228   2.003   5.091   4.397
 9110SOL    HW128229   2.101   5.084   4.379
 9110SOL    HW228230   1.962   5.157   4.335
 9111SOL     OW28231   4.917   2.606   6.994
 9111SOL    HW128232   4.921   2.701   0.009
 9111SOL    HW228233   4.822   2.582   6.972
 9112SOL     OW28234   1.636   5.920   2.548
 9112SOL    HW128235   1.726   5.885   2.575
 9112SOL    HW228236   1.623   6.012   2.587
 9113SOL     OW28237   5.265   2.749   2.627
 9113SOL    HW128238   5.178   2.703   2.642
 9113SOL    HW228239   5.250   2.838   2.584
 9114SOL     OW28240   6.834   5.203   3.213
 9114SOL    HW128241   6.823   5.199   3.113
 9114SOL    HW228242   6.759   5.153   3.256
 9115SOL     OW28243   6.344   5.316   5.102
 9115SOL    HW128244   6.296   5.344   5.185
 9115SOL    HW228245   6.284   5.326   5.023
 9116SOL     OW28246   0.336   6.720   2.868
 9116SOL    HW128247   0.398   6.794   2.840
 9116SOL    HW228248   0.357   6.692   2.961
 9117SOL     OW28249   3.522   2.893   6.071
 9117SOL    HW128250   3.523   2.824   5.998
 9117SOL    HW228251   3.465   2.970   6.043
 9118SOL     OW28252   6.767   3.253   0.135
 9118SOL    HW128253   6.695   3.192   0.168
 9118SOL    HW228254   6.726   3.324   0.077
 9119SOL     OW28255   3.669   0.994   2.143
 9119SOL    HW128256   3.645   0.992   2.046
 9119SOL    HW228257   3.633   1.078   2.184
 9120SOL     OW28258   6.985   1.875   5.760
 9120SOL    HW128259   0.041   1.944   5.772
 9120SOL    HW228260   6.927   1.874   5.841
 9121SOL     OW28261   3.242   5.905   4.611
 9121SOL    HW128262   3.226   6.000   4.638
 9121SOL    HW228263   3.328   5.873   4.650
 9122SOL     OW28264   2.335   4.579   2.004
 9122SOL    HW128265   2.389   4.526   2.070
 9122SOL    HW228266   2.383   4.583   1.917
 9123SOL     OW28267   2.055   0.648   4.421
 9123SOL    HW128268   1.958   0.628   4.404
 9123SOL    HW228269   2.111   0.570   4.394
 9124SOL     OW28270   3.741   5.373   0.497
 9124SOL    HW128271   3.739   5.360   0.398
 9124SOL    HW228272   3.772   5.289   0.542
 9125SOL     OW28273   3.967   4.615   1.238
 9125SOL    HW128274   3.978   4.676   1.159
 9125SOL    HW228275   3.966   4.520   1.208
 9126SOL     OW28276   5.137   4.023   1.804
 9126SOL    HW128277   5.194   4.103   1.788
 9126SOL    HW228278   5.192   3.940   1.794
 9127SOL     OW28279   6.878   1.555   5.983
 9127SOL    HW128280   6.909   1.525   5.893
 9127SOL    HW228281   6.951   1.606   6.028
 9128SOL     OW28282   6.506   2.287   5.112
 9128SOL    HW128283   6.522   2.279   5.013
 9128SOL    HW228284   6.483   2.382   5.134
 9129SOL     OW28285   6.301   1.855   0.222
 9129SOL    HW128286   6.309   1.832   0.125
 9129SOL    HW228287   6.261   1.778   0.271
 9130SOL     OW28288   1.660   4.489   6.485
 9130SOL    HW128289   1.624   4.566   6.432
 9130SOL    HW228290   1.760   4.488   6.478
 9131SOL     OW28291   5.067   3.314   6.034
 9131SOL    HW128292   5.089   3.401   6.079
 9131SOL    HW228293   5.066   3.326   5.935
 9132SOL     OW28294   0.941   5.256   4.268
 9132SOL    HW128295   1.039   5.238   4.257
 9132SOL    HW228296   0.923   5.353   4.256
 9133SOL     OW28297   3.637   0.006   0.662
 9133SOL    HW128298   3.549   7.009   0.615
 9133SOL    HW228299   3.631   0.086   0.722
 9134SOL     OW28300   4.081   5.107   1.172
 9134SOL    HW128301   4.010   5.095   1.103
 9134SOL    HW228302   4.071   5.038   1.243
 9135SOL     OW28303   0.699   6.828   1.462
 9135SOL    HW128304   0.756   6.822   1.544
 9135SOL    HW228305   0.739   6.894   1.398
 9136SOL     OW28306   4.806   6.253   5.489
 9136SOL    HW128307   4.851   6.283   5.406
 9136SOL    HW228308   4.754   6.169   5.471
 9137SOL     OW28309   3.762   0.391   6.740
 9137SOL    HW128310   3.843   0.449   6.739
 9137SOL    HW228311   3.734   0.370   6.646
 9138SOL     OW28312   1.079   3.841   6.496
 9138SOL    HW128313   1.022   3.921   6.518
 9138SOL    HW228314   1.134   3.861   6.416
 9139SOL     OW28315   1.166   1.412   2.195
 9139SOL    HW128316   1.208   1.332   2.154
 9139SOL    HW228317   1.083   1.385   2.245
 9140SOL     OW28318   1.131   4.361   1.770
 9140SOL    HW128319   1.097   4.280   1.818
 9140SOL    HW228320   1.056   4.425   1.755
 9141SOL     OW28321   6.417   6.734   0.559
 9141SOL    HW128322   6.368   6.751   0.473
 9141SOL    HW228323   6.509   6.701   0.539
 9142SOL     OW28324   0.709   3.796   1.227
 9142SOL    HW128325   0.641   3.835   1.165
 9142SOL    HW228326   0.747   3.713   1.187
 9143SOL     OW28327   6.630   3.687   1.182
 9143SOL    HW128328   6.581   3.600   1.188
 9143SOL    HW228329   6.701   3.680   1.111
 9144SOL     OW28330   3.776   5.441   4.530
 9144SOL    HW128331   3.720   5.364   4.563
 9144SOL    HW228332   3.872   5.412   4.527
 9145SOL     OW28333   1.042   6.091   6.366
 9145SOL    HW128334   1.081   6.115   6.277
 9145SOL    HW228335   1.043   6.171   6.426
 9146SOL     OW28336   5.170   3.947   2.759
 9146SOL    HW128337   5.217   3.886   2.696
 9146SOL    HW228338   5.073   3.951   2.735
 9147SOL     OW28339   6.633   0.613   5.074
 9147SOL    HW128340   6.634   0.519   5.110
 9147SOL    HW228341   6.727   0.645   5.062
 9148SOL     OW28342   5.820   6.639   2.212
 9148SOL    HW128343   5.899   6.692   2.183
 9148SOL    HW228344   5.757   6.697   2.264
 9149SOL     OW28345   5.717   3.015   1.892
 9149SOL    HW128346   5.631   2.990   1.846
 9149SOL    HW228347   5.792   3.009   1.827
 9150SOL     OW28348   3.379   4.605   0.497
 9150SOL    HW128349   3.373   4.599   0.398
 9150SOL    HW228350   3.471   4.579   0.527
 9151SOL     OW28351   2.203   4.268   3.055
 9151SOL    HW128352   2.177   4.175   3.081
 9151SOL    HW228353   2.260   4.264   2.973
 9152SOL     OW28354   1.748   4.470   4.494
 9152SOL    HW128355   1.793   4.519   4.568
 9152SOL    HW228356   1.805   4.394   4.465
 9153SOL     OW28357   0.304   2.366   6.688
 9153SOL    HW128358   0.352   2.352   6.601
 9153SOL    HW228359   0.222   2.422   6.672
 9154SOL     OW28360   4.691   4.161   4.196
 9154SOL    HW128361   4.716   4.145   4.292
 9154SOL    HW228362   4.595   4.186   4.191
 9155SOL     OW28363   2.389   4.784   2.874
 9155SOL    HW128364   2.334   4.818   2.951
 9155SOL    HW228365   2.412   4.861   2.814
 9156SOL     OW28366   6.600   2.294   1.946
 9156SOL    HW128367   6.690   2.249   1.944
 9156SOL    HW228368   6.528   2.225   1.935
 9157SOL     OW28369   3.430   4.239   6.585
 9157SOL    HW128370   3.351   4.294   6.614
 9157SOL    HW228371   3.425   4.223   6.487
 9158SOL     OW28372   6.565   3.961   4.213
 9158SOL    HW128373   6.529   4.022   4.283
 9158SOL    HW228374   6.528   3.869   4.226
 9159SOL     OW28375   2.108   0.081   3.846
 9159SOL    HW128376   2.084   0.004   3.905
 9159SOL    HW228377   2.207   0.084   3.833
 9160SOL     OW28378   7.000   6.080   6.017
 9160SOL    HW128379   6.944   6.138   6.076
 9160SOL    HW228380   6.960   5.989   6.010
 9161SOL     OW28381   6.555   4.807   3.495
 9161SOL    HW128382   6.581   4.761   3.579
 9161SOL    HW228383   6.484   4.753   3.448
 9162SOL     OW28384   3.431   0.342   2.830
 9162SOL    HW128385   3.452   0.342   2.928
 9162SOL    HW228386   3.515   0.359   2.778
 9163SOL     OW28387   6.953   3.545   3.187
 9163SOL    HW128388   6.865   3.591   3.174
 9163SOL    HW228389   6.979   3.550   3.284
 9164SOL     OW28390   1.787   1.134   6.708
 9164SOL    HW128391   1.697   1.164   6.740
 9164SOL    HW228392   1.840   1.214   6.680
 9165SOL     OW28393   4.632   1.732   6.124
 9165SOL    HW128394   4.611   1.678   6.206
 9165SOL    HW228395   4.555   1.728   6.061
 9166SOL     OW28396   4.608   5.424   1.277
 9166SOL    HW128397   4.618   5.357   1.204
 9166SOL    HW228398   4.518   5.467   1.270
 9167SOL     OW28399   1.552   2.640   6.147
 9167SOL    HW128400   1.584   2.658   6.054
 9167SOL    HW228401   1.605   2.565   6.187
 9168SOL     OW28402   6.868   6.446   6.923
 9168SOL    HW128403   6.915   6.427   7.009
 9168SOL    HW228404   6.777   6.405   6.925
 9169SOL     OW28405   6.288   6.067   6.356
 9169SOL    HW128406   6.267   6.122   6.275
 9169SOL    HW228407   6.215   6.002   6.373
 9170SOL     OW28408   1.938   0.641   6.371
 9170SOL    HW128409   1.915   0.731   6.334
 9170SOL    HW228410   1.857   0.601   6.414
 9171SOL     OW28411   3.417   5.601   0.646
 9171SOL    HW128412   3.338   5.540   0.650
 9171SOL    HW228413   3.387   5.695   0.630
 9172SOL     OW28414   4.437   2.184   4.667
 9172SOL    HW128415   4.453   2.155   4.761
 9172SOL    HW228416   4.481   2.272   4.651
 9173SOL     OW28417   5.958   2.973   4.505
 9173SOL    HW128418   5.979   3.026   4.423
 9173SOL    HW228419   5.868   2.932   4.497
 9174SOL     OW28420   1.091   6.011   6.785
 9174SOL    HW128421   1.006   6.001   6.837
 9174SOL    HW228422   1.147   6.082   6.826
 9175SOL     OW28423   1.324   7.007   7.003
 9175SOL    HW128424   1.356   0.085   7.014
 9175SOL    HW228425   1.373   6.964   6.927
 9176SOL     OW28426   2.519   6.786   1.157
 9176SOL    HW128427   2.555   6.868   1.112
 9176SOL    HW228428   2.527   6.708   1.095
 9177SOL     OW28429   1.589   2.763   4.003
 9177SOL    HW128430   1.614   2.667   4.013
 9177SOL    HW228431   1.510   2.783   4.061
 9178SOL     OW28432   2.194   5.436   6.194
 9178SOL    HW128433   2.239   5.358   6.237
 9178SOL    HW228434   2.170   5.504   6.264
 9179SOL     OW28435   1.762   5.958   5.367
 9179SOL    HW128436   1.829   5.978   5.295
 9179SOL    HW228437   1.683   6.018   5.357
 9180SOL     OW28438   6.505   2.576   3.519
 9180SOL    HW128439   6.439   2.617   3.582
 9180SOL    HW228440   6.596   2.616   3.537
 9181SOL     OW28441   4.881   2.839   3.852
 9181SOL    HW128442   4.968   2.801   3.881
 9181SOL    HW228443   4.845   2.786   3.775
 9182SOL     OW28444   3.114   0.922   3.509
 9182SOL    HW128445   3.055   0.847   3.480
 9182SOL    HW228446   3.119   0.991   3.437
 9183SOL     OW28447   5.128   3.959   6.145
 9183SOL    HW128448   5.137   3.861   6.164
 9183SOL    HW228449   5.215   4.004   6.164
 9184SOL     OW28450   3.790   2.019   0.816
 9184SOL    HW128451   3.809   1.921   0.809
 9184SOL    HW228452   3.745   2.050   0.732
 9185SOL     OW28453   0.492   6.508   5.583
 9185SOL    HW128454   0.437   6.528   5.502
 9185SOL    HW228455   0.441   6.449   5.645
 9186SOL     OW28456   4.695   0.432   5.190
 9186SOL    HW128457   4.758   0.507   5.208
 9186SOL    HW228458   4.601   0.465   5.193
 9187SOL     OW28459   4.390   2.235   6.684
 9187SOL    HW128460   4.377   2.157   6.623
 9187SOL    HW228461   4.394   2.319   6.630
 9188SOL     OW28462   0.988   0.601   1.552
 9188SOL    HW128463   1.059   0.575   1.617
 9188SOL    HW228464   0.899   0.565   1.582
 9189SOL     OW28465   2.653   0.077   3.232
 9189SOL    HW128466   2.736   0.062   3.287
 9189SOL    HW228467   2.590   0.001   3.247
 9190SOL     OW28468   6.935   3.183   5.004
 9190SOL    HW128469   6.946   3.140   4.914
 9190SOL    HW228470   0.010   3.198   5.044
 9191SOL     OW28471   4.972   6.798   6.544
 9191SOL    HW128472   4.953   6.721   6.483
 9191SOL    HW228473   4.952   6.884   6.497
 9192SOL     OW28474   6.086   3.240   5.838
 9192SOL    HW128475   6.089   3.200   5.746
 9192SOL    HW228476   6.082   3.167   5.906
 9193SOL     OW28477   3.483   3.845   4.066
 9193SOL    HW128478   3.444   3.938   4.065
 9193SOL    HW228479   3.409   3.778   4.058
 9194SOL     OW28480   3.481   5.720   1.740
 9194SOL    HW128481   3.440   5.677   1.660
 9194SOL    HW228482   3.433   5.689   1.823
 9195SOL     OW28483   2.281   2.464   4.399
 9195SOL    HW128484   2.281   2.451   4.498
 9195SOL    HW228485   2.310   2.380   4.354
 9196SOL     OW28486   5.737   0.277   3.637
 9196SOL    HW128487   5.775   0.212   3.703
 9196SOL    HW228488   5.698   0.355   3.685
 9197SOL     OW28489   3.755   5.052   0.442
 9197SOL    HW128490   3.706   5.078   0.525
 9197SOL    HW228491   3.697   5.069   0.363
 9198SOL     OW28492   5.623   4.347   5.888
 9198SOL    HW128493   5.684   4.286   5.938
 9198SOL    HW228494   5.571   4.294   5.821
 9199SOL     OW28495   0.282   2.946   6.396
 9199SOL    HW128496   0.218   3.008   6.351
 9199SOL    HW228497   0.359   2.999   6.433
 9200SOL     OW28498   1.897   5.743   6.602
 9200SOL    HW128499   1.959   5.821   6.589
 9200SOL    HW228500   1.813   5.758   6.549
 9201SOL     OW28501   0.736   3.661   0.976
 9201SOL    HW128502   0.809   3.592   0.979
 9201SOL    HW228503   0.739   3.707   0.887
 9202SOL     OW28504   1.007   5.733   4.250
 9202SOL    HW128505   0.980   5.815   4.201
 9202SOL    HW228506   1.070   5.757   4.324
 9203SOL     OW28507   5.114   2.109   6.331
 9203SOL    HW128508   5.027   2.135   6.374
 9203SOL    HW228509   5.106   2.121   6.232
 9204SOL     OW28510   5.049   3.724   3.337
 9204SOL    HW128511   5.006   3.634   3.329
 9204SOL    HW228512   5.137   3.723   3.290
 9205SOL     OW28513   5.257   4.119   2.487
 9205SOL    HW128514   5.230   4.156   2.576
 9205SOL    HW228515   5.212   4.031   2.471
 9206SOL     OW28516   3.128   0.075   4.138
 9206SOL    HW128517   3.160   7.001   4.166
 9206SOL    HW228518   3.185   0.145   4.180
 9207SOL     OW28519   3.535   6.182   5.760
 9207SOL    HW128520   3.614   6.216   5.811
 9207SOL    HW228521   3.475   6.258   5.737
 9208SOL     OW28522   5.661   4.560   2.350
 9208SOL    HW128523   5.607   4.590   2.272
 9208SOL    HW228524   5.600   4.521   2.419
 9209SOL     OW28525   4.312   0.624   1.848
 9209SOL    HW128526   4.265   0.590   1.930
 9209SOL    HW228527   4.411   0.617   1.862
 9210SOL     OW28528   0.785   0.932   1.728
 9210SOL    HW128529   0.737   0.983   1.799
 9210SOL    HW228530   0.719   0.894   1.663
 9211SOL     OW28531   5.191   2.520   5.873
 9211SOL    HW128532   5.285   2.488   5.861
 9211SOL    HW228533   5.145   2.463   5.941
 9212SOL     OW28534   4.740   4.205   5.016
 9212SOL    HW128535   4.722   4.131   4.951
 9212SOL    HW228536   4.829   4.245   4.996
 9213SOL     OW28537   4.897   5.856   4.354
 9213SOL    HW128538   4.799   5.874   4.342
 9213SOL    HW228539   4.933   5.812   4.272
 9214SOL     OW28540   0.001   2.335   5.330
 9214SOL    HW128541   0.047   2.333   5.241
 9214SOL    HW228542   6.942   2.401   5.327
 9215SOL     OW28543   0.622   4.684   2.513
 9215SOL    HW128544   0.585   4.747   2.445
 9215SOL    HW228545   0.667   4.735   2.586
 9216SOL     OW28546   2.722   6.666   4.759
 9216SOL    HW128547   2.682   6.587   4.712
 9216SOL    HW228548   2.784   6.714   4.698
 9217SOL     OW28549   5.494   1.652   6.691
 9217SOL    HW128550   5.572   1.590   6.699
 9217SOL    HW228551   5.485   1.682   6.597
 9218SOL     OW28552   4.422   1.332   6.773
 9218SOL    HW128553   4.334   1.287   6.763
 9218SOL    HW228554   4.413   1.409   6.836
 9219SOL     OW28555   4.405   3.395   5.628
 9219SOL    HW128556   4.484   3.399   5.690
 9219SOL    HW228557   4.412   3.312   5.572
 9220SOL     OW28558   2.129   5.830   2.472
 9220SOL    HW128559   2.101   5.798   2.562
 9220SOL    HW228560   2.113   5.929   2.465
 9221SOL     OW28561   2.451   7.006   5.488
 9221SOL    HW128562   2.523   6.993   5.556
 9221SOL    HW228563   2.387   6.929   5.494
 9222SOL     OW28564   2.624   4.691   4.959
 9222SOL    HW128565   2.599   4.694   4.862
 9222SOL    HW228566   2.723   4.692   4.968
 9223SOL     OW28567   1.374   2.376   3.977
 9223SOL    HW128568   1.289   2.381   4.029
 9223SOL    HW228569   1.371   2.440   3.901
 9224SOL     OW28570   1.233   3.126   3.676
 9224SOL    HW128571   1.312   3.170   3.633
 9224SOL    HW228572   1.186   3.070   3.609
 9225SOL     OW28573   3.828   6.213   6.142
 9225SOL    HW128574   3.840   6.142   6.073
 9225SOL    HW228575   3.768   6.180   6.215
 9226SOL     OW28576   1.347   0.506   1.344
 9226SOL    HW128577   1.300   0.458   1.270
 9226SOL    HW228578   1.382   0.440   1.410
 9227SOL     OW28579   1.974   6.042   1.447
 9227SOL    HW128580   1.891   6.026   1.499
 9227SOL    HW228581   2.004   5.956   1.404
 9228SOL     OW28582   1.978   2.489   6.794
 9228SOL    HW128583   1.935   2.565   6.844
 9228SOL    HW228584   2.030   2.433   6.859
 9229SOL     OW28585   0.903   4.838   6.221
 9229SOL    HW128586   0.817   4.792   6.199
 9229SOL    HW228587   0.884   4.926   6.265
 9230SOL     OW28588   4.684   2.802   2.965
 9230SOL    HW128589   4.632   2.732   3.014
 9230SOL    HW228590   4.698   2.772   2.870
 9231SOL     OW28591   0.919   4.432   5.084
 9231SOL    HW128592   0.925   4.501   5.012
 9231SOL    HW228593   0.898   4.478   5.171
 9232SOL     OW28594   2.837   5.795   1.231
 9232SOL    HW128595   2.845   5.894   1.214
 9232SOL    HW228596   2.741   5.771   1.242
 9233SOL     OW28597   1.041   6.972   0.298
 9233SOL    HW128598   1.089   0.028   0.249
 9233SOL    HW228599   1.096   6.889   0.297
 9234SOL     OW28600   2.306   6.009   0.553
 9234SOL    HW128601   2.398   6.010   0.514
 9234SOL    HW228602   2.251   5.939   0.507
 9235SOL     OW28603   2.278   2.920   3.150
 9235SOL    HW128604   2.266   3.009   3.105
 9235SOL    HW228605   2.253   2.847   3.086
 9236SOL     OW28606   2.641   3.285   6.704
 9236SOL    HW128607   2.692   3.367   6.731
 9236SOL    HW228608   2.700   3.205   6.712
 9237SOL     OW28609   0.102   5.887   2.637
 9237SOL    HW128610   0.022   5.923   2.589
 9237SOL    HW228611   0.090   5.790   2.656
 9238SOL     OW28612   2.699   2.360   6.139
 9238SOL    HW128613   2.631   2.318   6.199
 9238SOL    HW228614   2.664   2.446   6.104
 9239SOL     OW28615   6.829   4.667   6.685
 9239SOL    HW128616   6.771   4.661   6.604
 9239SOL    HW228617   6.883   4.751   6.681
 9240SOL     OW28618   5.193   2.996   2.551
 9240SOL    HW128619   5.176   3.034   2.460
 9240SOL    HW228620   5.257   3.055   2.601
 9241SOL     OW28621   0.621   5.477   0.671
 9241SOL    HW128622   0.587   5.517   0.756
 9241SOL    HW228623   0.568   5.511   0.594
 9242SOL     OW28624   2.315   3.326   1.583
 9242SOL    HW128625   2.217   3.345   1.590
 9242SOL    HW228626   2.360   3.354   1.668
 9243SOL     OW28627   0.511   0.190   2.017
 9243SOL    HW128628   0.465   0.267   2.060
 9243SOL    HW228629   0.452   0.109   2.020
 9244SOL     OW28630   2.573   6.496   6.340
 9244SOL    HW128631   2.477   6.470   6.331
 9244SOL    HW228632   2.619   6.487   6.252
 9245SOL     OW28633   0.242   4.571   3.739
 9245SOL    HW128634   0.334   4.533   3.736
 9245SOL    HW228635   0.234   4.632   3.817
 9246SOL     OW28636   6.082   0.454   3.839
 9246SOL    HW128637   6.137   0.422   3.917
 9246SOL    HW228638   6.117   0.542   3.808
 9247SOL     OW28639   3.841   5.097   3.416
 9247SOL    HW128640   3.893   5.182   3.431
 9247SOL    HW228641   3.848   5.071   3.319
 9248SOL     OW28642   2.984   1.801   5.044
 9248SOL    HW128643   3.072   1.845   5.059
 9248SOL    HW228644   2.937   1.790   5.132
 9249SOL     OW28645   4.697   5.548   1.537
 9249SOL    HW128646   4.724   5.482   1.467
 9249SOL    HW228647   4.610   5.519   1.578
 9250SOL     OW28648   6.851   3.080   3.976
 9250SOL    HW128649   6.821   3.152   4.039
 9250SOL    HW228650   6.923   3.026   4.020
 9251SOL     OW28651   4.578   1.952   1.837
 9251SOL    HW128652   4.483   1.921   1.849
 9251SOL    HW228653   4.606   1.935   1.742
 9252SOL     OW28654   5.834   0.496   4.800
 9252SOL    HW128655   5.849   0.426   4.870
 9252SOL    HW228656   5.917   0.506   4.745
 9253SOL     OW28657   5.172   5.300   5.783
 9253SOL    HW128658   5.098   5.257   5.835
 9253SOL    HW228659   5.242   5.232   5.761
 9254SOL     OW28660   4.862   5.215   2.611
 9254SOL    HW128661   4.815   5.208   2.699
 9254SOL    HW228662   4.808   5.274   2.550
 9255SOL     OW28663   5.274   3.296   6.403
 9255SOL    HW128664   5.210   3.364   6.367
 9255SOL    HW228665   5.345   3.277   6.335
 9256SOL     OW28666   2.151   0.166   1.770
 9256SOL    HW128667   2.057   0.148   1.800
 9256SOL    HW228668   2.194   0.080   1.744
 9257SOL     OW28669   5.859   5.853   3.295
 9257SOL    HW128670   5.794   5.812   3.231
 9257SOL    HW228671   5.817   5.860   3.386
 9258SOL     OW28672   4.060   3.640   1.492
 9258SOL    HW128673   4.132   3.596   1.545
 9258SOL    HW228674   3.971   3.617   1.530
 9259SOL     OW28675   1.891   0.963   0.552
 9259SOL    HW128676   1.989   0.973   0.541
 9259SOL    HW228677   1.844   1.036   0.503
 9260SOL     OW28678   6.876   3.019   5.616
 9260SOL    HW128679   6.906   3.006   5.710
 9260SOL    HW228680   6.822   2.940   5.587
 9261SOL     OW28681   4.549   0.897   6.415
 9261SOL    HW128682   4.474   0.885   6.350
 9261SOL    HW228683   4.632   0.924   6.366
 9262SOL     OW28684   1.043   6.370   5.238
 9262SOL    HW128685   0.974   6.305   5.205
 9262SOL    HW228686   1.072   6.429   5.163
 9263SOL     OW28687   3.071   5.078   2.289
 9263SOL    HW128688   3.103   5.149   2.352
 9263SOL    HW228689   3.145   5.013   2.272
 9264SOL     OW28690   4.799   3.398   0.337
 9264SOL    HW128691   4.807   3.330   0.410
 9264SOL    HW228692   4.729   3.369   0.272
 9265SOL     OW28693   3.674   2.748   6.532
 9265SOL    HW128694   3.735   2.823   6.508
 9265SOL    HW228695   3.640   2.761   6.625
 9266SOL     OW28696   0.509   5.956   1.099
 9266SOL    HW128697   0.451   6.031   1.132
 9266SOL    HW228698   0.595   5.956   1.150
 9267SOL     OW28699   0.835   1.934   4.044
 9267SOL    HW128700   0.849   1.835   4.048
 9267SOL    HW228701   0.879   1.977   4.123
 9268SOL     OW28702   1.101   6.611   2.298
 9268SOL    HW128703   1.187   6.651   2.267
 9268SOL    HW228704   1.035   6.684   2.318
 9269SOL     OW28705   3.885   0.083   6.155
 9269SOL    HW128706   3.818   0.151   6.185
 9269SOL    HW228707   3.838   7.015   6.128
 9270SOL     OW28708   3.801   0.452   5.224
 9270SOL    HW128709   3.851   0.365   5.229
 9270SOL    HW228710   3.785   0.486   5.316
 9271SOL     OW28711   6.287   0.240   0.407
 9271SOL    HW128712   6.258   0.335   0.422
 9271SOL    HW228713   6.224   0.178   0.454
 9272SOL     OW28714   0.540   6.296   6.463
 9272SOL    HW128715   0.485   6.282   6.545
 9272SOL    HW228716   0.631   6.257   6.476
 9273SOL     OW28717   5.958   6.026   3.128
 9273SOL    HW128718   5.905   6.082   3.064
 9273SOL    HW228719   5.896   5.966   3.179
 9274SOL     OW28720   6.846   2.593   6.680
 9274SOL    HW128721   6.769   2.540   6.644
 9274SOL    HW228722   6.836   2.689   6.653
 9275SOL     OW28723   0.001   6.667   0.159
 9275SOL    HW128724   0.042   6.576   0.166
 9275SOL    HW228725   0.046   6.718   0.086
 9276SOL     OW28726   1.876   5.101   6.576
 9276SOL    HW128727   1.863   5.161   6.497
 9276SOL    HW228728   1.875   5.155   6.659
 9277SOL     OW28729   4.024   4.786   2.404
 9277SOL    HW128730   4.117   4.792   2.440
 9277SOL    HW228731   4.023   4.814   2.308
 9278SOL     OW28732   1.320   0.528   5.732
 9278SOL    HW128733   1.342   0.562   5.640
 9278SOL    HW228734   1.262   0.448   5.724
 9279SOL     OW28735   4.013   6.934   1.918
 9279SOL    HW128736   4.015   6.990   2.001
 9279SOL    HW228737   3.918   6.911   1.895
 9280SOL     OW28738   2.505   1.577   2.329
 9280SOL    HW128739   2.604   1.594   2.334
 9280SOL    HW228740   2.488   1.479   2.336
 9281SOL     OW28741   3.716   4.212   6.369
 9281SOL    HW128742   3.811   4.221   6.341
 9281SOL    HW228743   3.657   4.209   6.288
 9282SOL     OW28744   4.313   0.793   4.406
 9282SOL    HW128745   4.226   0.794   4.456
 9282SOL    HW228746   4.383   0.837   4.461
 9283SOL     OW28747   5.062   0.478   5.404
 9283SOL    HW128748   5.133   0.548   5.399
 9283SOL    HW228749   5.071   0.416   5.327
 9284SOL     OW28750   2.904   3.524   5.533
 9284SOL    HW128751   2.865   3.488   5.618
 9284SOL    HW228752   2.877   3.466   5.457
 9285SOL     OW28753   5.204   3.295   0.824
 9285SOL    HW128754   5.242   3.373   0.873
 9285SOL    HW228755   5.278   3.243   0.782
 9286SOL     OW28756   5.092   5.200   0.688
 9286SOL    HW128757   5.174   5.148   0.713
 9286SOL    HW228758   5.110   5.250   0.603
 9287SOL     OW28759   3.546   4.606   5.629
 9287SOL    HW128760   3.618   4.632   5.694
 9287SOL    HW228761   3.512   4.514   5.652
 9288SOL     OW28762   4.644   1.958   2.674
 9288SOL    HW128763   4.549   1.928   2.678
 9288SOL    HW228764   4.701   1.887   2.634
 9289SOL     OW28765   4.201   0.943   0.161
 9289SOL    HW128766   4.273   0.914   0.098
 9289SOL    HW228767   4.162   1.029   0.128
 9290SOL     OW28768   6.143   1.190   3.898
 9290SOL    HW128769   6.214   1.261   3.891
 9290SOL    HW228770   6.072   1.208   3.830
 9291SOL     OW28771   1.598   5.726   6.188
 9291SOL    HW128772   1.508   5.750   6.152
 9291SOL    HW228773   1.649   5.674   6.119
 9292SOL     OW28774   1.905   1.382   6.705
 9292SOL    HW128775   1.997   1.382   6.745
 9292SOL    HW228776   1.846   1.442   6.758
 9293SOL     OW28777   5.746   3.416   6.166
 9293SOL    HW128778   5.708   3.480   6.233
 9293SOL    HW228779   5.673   3.360   6.128
 9294SOL     OW28780   5.015   0.973   6.637
 9294SOL    HW128781   5.094   0.956   6.696
 9294SOL    HW228782   5.047   0.989   6.543
 9295SOL     OW28783   6.553   0.959   5.058
 9295SOL    HW128784   6.495   0.889   5.097
 9295SOL    HW228785   6.496   1.029   5.015
 9296SOL     OW28786   2.088   5.240   0.615
 9296SOL    HW128787   2.162   5.282   0.668
 9296SOL    HW228788   2.081   5.285   0.527
 9297SOL     OW28789   0.451   6.599   3.124
 9297SOL    HW128790   0.386   6.617   3.197
 9297SOL    HW228791   0.452   6.502   3.102
 9298SOL     OW28792   1.344   6.189   6.514
 9298SOL    HW128793   1.431   6.147   6.539
 9298SOL    HW228794   1.350   6.226   6.421
 9299SOL     OW28795   0.846   1.643   4.037
 9299SOL    HW128796   0.925   1.593   4.072
 9299SOL    HW228797   0.836   1.626   3.939
 9300SOL     OW28798   0.055   5.204   5.301
 9300SOL    HW128799   0.149   5.231   5.322
 9300SOL    HW228800   0.002   5.286   5.277
 9301SOL     OW28801   6.518   4.240   5.177
 9301SOL    HW128802   6.559   4.223   5.088
 9301SOL    HW228803   6.575   4.303   5.229
 9302SOL     OW28804   1.804   3.555   4.637
 9302SOL    HW128805   1.889   3.538   4.586
 9302SOL    HW228806   1.731   3.498   4.600
 9303SOL     OW28807   2.731   4.163   0.077
 9303SOL    HW128808   2.708   4.253   0.039
 9303SOL    HW228809   2.690   4.092   0.019
 9304SOL     OW28810   4.466   5.114   0.505
 9304SOL    HW128811   4.416   5.157   0.580
 9304SOL    HW228812   4.479   5.182   0.432
 9305SOL     OW28813   3.834   0.806   0.653
 9305SOL    HW128814   3.735   0.815   0.663
 9305SOL    HW228815   3.869   0.746   0.725
 9306SOL     OW28816   0.649   4.609   5.449
 9306SOL    HW128817   0.692   4.696   5.474
 9306SOL    HW228818   0.636   4.554   5.532
 9307SOL     OW28819   1.657   4.316   0.582
 9307SOL    HW128820   1.723   4.341   0.653
 9307SOL    HW228821   1.702   4.258   0.514
 9308SOL     OW28822   1.377   4.733   1.740
 9308SOL    HW128823   1.417   4.645   1.716
 9308SOL    HW228824   1.294   4.719   1.795
 9309SOL     OW28825   3.978   6.349   5.643
 9309SOL    HW128826   4.018   6.382   5.557
 9309SOL    HW228827   4.042   6.365   5.717
 9310SOL     OW28828   5.512   6.423   5.449
 9310SOL    HW128829   5.576   6.419   5.526
 9310SOL    HW228830   5.512   6.335   5.401
 9311SOL     OW28831   5.324   4.566   1.431
 9311SOL    HW128832   5.312   4.536   1.337
 9311SOL    HW228833   5.396   4.635   1.435
 9312SOL     OW28834   1.265   2.169   0.866
 9312SOL    HW128835   1.338   2.101   0.880
 9312SOL    HW228836   1.284   2.222   0.784
 9313SOL     OW28837   0.129   6.870   1.366
 9313SOL    HW128838   0.179   6.945   1.409
 9313SOL    HW228839   0.079   6.819   1.436
 9314SOL     OW28840   6.885   3.556   0.632
 9314SOL    HW128841   6.908   3.466   0.596
 9314SOL    HW228842   6.829   3.545   0.715
 9315SOL     OW28843   5.802   0.282   5.874
 9315SOL    HW128844   5.901   0.287   5.884
 9315SOL    HW228845   5.762   0.257   5.962
 9316SOL     OW28846   5.605   6.920   5.168
 9316SOL    HW128847   5.700   6.941   5.188
 9316SOL    HW228848   5.549   7.002   5.183
 9317SOL     OW28849   3.914   5.561   2.987
 9317SOL    HW128850   3.886   5.490   2.923
 9317SOL    HW228851   3.861   5.554   3.071
 9318SOL     OW28852   4.601   6.748   0.101
 9318SOL    HW128853   4.582   6.680   0.172
 9318SOL    HW228854   4.519   6.762   0.046
 9319SOL     OW28855   2.790   3.079   0.748
 9319SOL    HW128856   2.715   3.123   0.698
 9319SOL    HW228857   2.752   3.022   0.821
 9320SOL     OW28858   4.386   0.649   5.522
 9320SOL    HW128859   4.470   0.595   5.509
 9320SOL    HW228860   4.310   0.587   5.541
 9321SOL     OW28861   1.119   1.310   6.017
 9321SOL    HW128862   1.088   1.238   6.079
 9321SOL    HW228863   1.209   1.343   6.048
 9322SOL     OW28864   0.188   4.129   6.106
 9322SOL    HW128865   0.176   4.094   6.199
 9322SOL    HW228866   0.098   4.139   6.063
 9323SOL     OW28867   2.467   1.891   4.921
 9323SOL    HW128868   2.511   1.877   4.833
 9323SOL    HW228869   2.399   1.820   4.937
 9324SOL     OW28870   2.025   3.748   2.511
 9324SOL    HW128871   1.990   3.656   2.523
 9324SOL    HW228872   2.063   3.758   2.419
 9325SOL     OW28873   0.425   6.526   0.643
 9325SOL    HW128874   0.503   6.580   0.674
 9325SOL    HW228875   0.457   6.454   0.581
 9326SOL     OW28876   3.159   4.858   6.635
 9326SOL    HW128877   3.121   4.797   6.566
 9326SOL    HW228878   3.124   4.831   6.725
 9327SOL     OW28879   4.383   6.870   2.936
 9327SOL    HW128880   4.444   6.948   2.919
 9327SOL    HW228881   4.356   6.830   2.848
 9328SOL     OW28882   1.915   0.750   4.945
 9328SOL    HW128883   1.847   0.823   4.949
 9328SOL    HW228884   1.893   0.687   4.871
 9329SOL     OW28885   6.726   5.875   0.669
 9329SOL    HW128886   6.710   5.777   0.675
 9329SOL    HW228887   6.756   5.909   0.758
 9330SOL     OW28888   0.212   0.274   6.230
 9330SOL    HW128889   0.193   0.194   6.174
 9330SOL    HW228890   0.145   0.279   6.304
 9331SOL     OW28891   2.016   1.649   6.129
 9331SOL    HW128892   2.092   1.670   6.191
 9331SOL    HW228893   1.991   1.730   6.078
 9332SOL     OW28894   4.422   5.673   0.849
 9332SOL    HW128895   4.484   5.731   0.797
 9332SOL    HW228896   4.376   5.609   0.787
 9333SOL     OW28897   3.498   5.608   6.594
 9333SOL    HW128898   3.596   5.612   6.573
 9333SOL    HW228899   3.473   5.689   6.647
 9334SOL     OW28900   4.956   0.019   4.447
 9334SOL    HW128901   5.000   0.101   4.481
 9334SOL    HW228902   4.863   0.012   4.485
 9335SOL     OW28903   1.837   1.312   0.510
 9335SOL    HW128904   1.739   1.325   0.494
 9335SOL    HW228905   1.889   1.353   0.435
 9336SOL     OW28906   5.545   0.021   4.137
 9336SOL    HW128907   5.533   0.099   4.075
 9336SOL    HW228908   5.564   0.055   4.229
 9337SOL     OW28909   5.342   0.893   6.533
 9337SOL    HW128910   5.336   0.795   6.514
 9337SOL    HW228911   5.438   0.920   6.531
 9338SOL     OW28912   6.860   6.329   1.053
 9338SOL    HW128913   6.890   6.343   0.959
 9338SOL    HW228914   6.817   6.412   1.087
 9339SOL     OW28915   5.584   5.975   0.657
 9339SOL    HW128916   5.644   6.055   0.671
 9339SOL    HW228917   5.533   5.986   0.571
 9340SOL     OW28918   4.384   4.697   2.623
 9340SOL    HW128919   4.419   4.609   2.590
 9340SOL    HW228920   4.370   4.758   2.545
 9341SOL     OW28921   6.739   4.094   0.646
 9341SOL    HW128922   6.826   4.125   0.609
 9341SOL    HW228923   6.693   4.171   0.691
 9342SOL     OW28924   2.626   0.484   4.626
 9342SOL    HW128925   2.620   0.576   4.665
 9342SOL    HW228926   2.706   0.478   4.566
 9343SOL     OW28927   4.974   3.541   1.889
 9343SOL    HW128928   4.918   3.568   1.810
 9343SOL    HW228929   5.002   3.445   1.878
 9344SOL     OW28930   5.107   5.689   6.777
 9344SOL    HW128931   5.028   5.688   6.838
 9344SOL    HW228932   5.081   5.727   6.689
 9345SOL     OW28933   6.997   4.442   1.135
 9345SOL    HW128934   6.978   4.479   1.225
 9345SOL    HW228935   6.915   4.444   1.079
 9346SOL     OW28936   5.265   6.785   1.784
 9346SOL    HW128937   5.334   6.835   1.836
 9346SOL    HW228938   5.291   6.688   1.779
 9347SOL     OW28939   3.196   5.443   0.641
 9347SOL    HW128940   3.135   5.400   0.575
 9347SOL    HW228941   3.143   5.477   0.719
 9348SOL     OW28942   2.621   5.429   2.970
 9348SOL    HW128943   2.617   5.375   2.887
 9348SOL    HW228944   2.604   5.525   2.948
 9349SOL     OW28945   6.359   6.106   2.186
 9349SOL    HW128946   6.384   6.012   2.164
 9349SOL    HW228947   6.438   6.166   2.173
 9350SOL     OW28948   0.255   1.980   4.170
 9350SOL    HW128949   0.155   1.982   4.167
 9350SOL    HW228950   0.285   1.897   4.218
 9351SOL     OW28951   2.409   0.486   6.155
 9351SOL    HW128952   2.364   0.515   6.239
 9351SOL    HW228953   2.504   0.515   6.155
 9352SOL     OW28954   2.846   3.043   5.881
 9352SOL    HW128955   2.818   3.096   5.801
 9352SOL    HW228956   2.790   3.068   5.959
 9353SOL     OW28957   1.803   3.924   1.719
 9353SOL    HW128958   1.882   3.920   1.780
 9353SOL    HW228959   1.721   3.893   1.769
 9354SOL     OW28960   6.497   1.900   0.655
 9354SOL    HW128961   6.421   1.964   0.670
 9354SOL    HW228962   6.572   1.947   0.608
 9355SOL     OW28963   6.411   1.437   4.233
 9355SOL    HW128964   6.427   1.345   4.268
 9355SOL    HW228965   6.400   1.501   4.310
 9356SOL     OW28966   4.516   5.297   1.490
 9356SOL    HW128967   4.545   5.343   1.406
 9356SOL    HW228968   4.438   5.237   1.470
 9357SOL     OW28969   3.204   3.413   6.537
 9357SOL    HW128970   3.160   3.438   6.623
 9357SOL    HW228971   3.295   3.375   6.555
 9358SOL     OW28972   6.435   3.846   2.027
 9358SOL    HW128973   6.497   3.783   2.075
 9358SOL    HW228974   6.408   3.920   2.089
 9359SOL     OW28975   1.213   3.424   5.855
 9359SOL    HW128976   1.265   3.461   5.778
 9359SOL    HW228977   1.242   3.470   5.939
 9360SOL     OW28978   0.959   6.854   6.021
 9360SOL    HW128979   1.022   6.808   5.957
 9360SOL    HW228980   0.938   6.945   5.986
 9361SOL     OW28981   2.762   6.260   3.827
 9361SOL    HW128982   2.847   6.263   3.774
 9361SOL    HW228983   2.706   6.340   3.806
 9362SOL     OW28984   1.237   1.906   1.809
 9362SOL    HW128985   1.299   1.830   1.828
 9362SOL    HW228986   1.289   1.989   1.792
 9363SOL     OW28987   4.254   5.229   1.774
 9363SOL    HW128988   4.162   5.232   1.736
 9363SOL    HW228989   4.318   5.273   1.711
 9364SOL     OW28990   4.419   3.671   6.007
 9364SOL    HW128991   4.518   3.662   6.018
 9364SOL    HW228992   4.372   3.612   6.074
 9365SOL     OW28993   2.855   1.985   5.339
 9365SOL    HW128994   2.790   2.061   5.345
 9365SOL    HW228995   2.818   1.915   5.277
 9366SOL     OW28996   2.867   0.940   6.907
 9366SOL    HW128997   2.830   0.854   6.942
 9366SOL    HW228998   2.948   0.920   6.851
 9367SOL     OW28999   0.228   5.745   3.340
 9367SOL    HW129000   0.275   5.666   3.301
 9367SOL    HW229001   0.289   5.825   3.337
 9368SOL     OW29002   2.430   1.927   3.522
 9368SOL    HW129003   2.361   1.887   3.461
 9368SOL    HW229004   2.519   1.888   3.501
 9369SOL     OW29005   7.015   0.583   5.528
 9369SOL    HW129006   6.995   0.630   5.615
 9369SOL    HW229007   0.064   0.509   5.544
 9370SOL     OW29008   4.888   0.543   2.498
 9370SOL    HW129009   4.895   0.643   2.492
 9370SOL    HW229010   4.919   0.513   2.588
 9371SOL     OW29011   2.470   4.921   0.964
 9371SOL    HW129012   2.486   4.832   0.921
 9371SOL    HW229013   2.372   4.934   0.980
 9372SOL     OW29014   5.688   6.149   3.291
 9372SOL    HW129015   5.656   6.088   3.219
 9372SOL    HW229016   5.726   6.095   3.366
 9373SOL     OW29017   3.957   2.119   2.567
 9373SOL    HW129018   3.868   2.149   2.601
 9373SOL    HW229019   4.013   2.199   2.546
 9374SOL     OW29020   0.140   3.642   0.556
 9374SOL    HW129021   0.080   3.564   0.572
 9374SOL    HW229022   0.175   3.675   0.643
 9375SOL     OW29023   6.292   1.784   2.965
 9375SOL    HW129024   6.215   1.839   2.997
 9375SOL    HW229025   6.259   1.699   2.925
 9376SOL     OW29026   2.691   4.331   1.375
 9376SOL    HW129027   2.636   4.355   1.295
 9376SOL    HW229028   2.639   4.270   1.434
 9377SOL     OW29029   1.928   5.591   4.080
 9377SOL    HW129030   1.948   5.662   4.148
 9377SOL    HW229031   1.834   5.601   4.049
 9378SOL     OW29032   1.051   0.386   5.594
 9378SOL    HW129033   1.031   0.294   5.561
 9378SOL    HW229034   0.971   0.424   5.640
 9379SOL     OW29035   4.785   5.319   5.472
 9379SOL    HW129036   4.740   5.366   5.396
 9379SOL    HW229037   4.884   5.323   5.458
 9380SOL     OW29038   5.676   4.758   4.801
 9380SOL    HW129039   5.687   4.795   4.893
 9380SOL    HW229040   5.692   4.659   4.803
 9381SOL     OW29041   2.878   2.783   5.963
 9381SOL    HW129042   2.957   2.786   6.024
 9381SOL    HW229043   2.874   2.866   5.908
 9382SOL     OW29044   3.220   1.345   3.277
 9382SOL    HW129045   3.310   1.316   3.243
 9382SOL    HW229046   3.213   1.325   3.375
 9383SOL     OW29047   1.714   5.789   4.706
 9383SOL    HW129048   1.717   5.873   4.760
 9383SOL    HW229049   1.802   5.776   4.660
 9384SOL     OW29050   2.954   6.001   1.704
 9384SOL    HW129051   3.002   5.939   1.642
 9384SOL    HW229052   3.017   6.031   1.776
 9385SOL     OW29053   4.188   0.735   3.264
 9385SOL    HW129054   4.219   0.641   3.280
 9385SOL    HW229055   4.267   0.797   3.263
 9386SOL     OW29056   2.601   6.115   4.282
 9386SOL    HW129057   2.630   6.070   4.198
 9386SOL    HW229058   2.636   6.065   4.361
 9387SOL     OW29059   3.150   1.826   0.097
 9387SOL    HW129060   3.072   1.769   0.123
 9387SOL    HW229061   3.116   1.909   0.052
 9388SOL     OW29062   1.967   5.562   2.950
 9388SOL    HW129063   1.879   5.596   2.983
 9388SOL    HW229064   2.029   5.546   3.027
 9389SOL     OW29065   1.312   6.611   5.202
 9389SOL    HW129066   1.288   6.621   5.299
 9389SOL    HW229067   1.399   6.561   5.195
 9390SOL     OW29068   3.632   5.217   4.606
 9390SOL    HW129069   3.533   5.234   4.604
 9390SOL    HW229070   3.651   5.125   4.573
 9391SOL     OW29071   2.342   0.729   4.865
 9391SOL    HW129072   2.438   0.711   4.844
 9391SOL    HW229073   2.287   0.712   4.783
 9392SOL     OW29074   0.103   0.207   5.219
 9392SOL    HW129075   0.044   0.137   5.179
 9392SOL    HW229076   0.179   0.226   5.156
 9393SOL     OW29077   2.607   6.822   5.226
 9393SOL    HW129078   2.633   6.851   5.134
 9393SOL    HW229079   2.590   6.903   5.283
 9394SOL     OW29080   0.277   1.524   2.212
 9394SOL    HW129081   0.366   1.568   2.207
 9394SOL    HW229082   0.270   1.470   2.296
 9395SOL     OW29083   2.441   1.416   0.099
 9395SOL    HW129084   2.521   1.421   0.039
 9395SOL    HW229085   2.366   1.470   0.060
 9396SOL     OW29086   1.643   5.409   3.472
 9396SOL    HW129087   1.665   5.369   3.383
 9396SOL    HW229088   1.727   5.445   3.513
 9397SOL     OW29089   3.248   0.289   7.011
 9397SOL    HW129090   3.233   0.210   0.054
 9397SOL    HW229091   3.198   0.277   6.925
 9398SOL     OW29092   0.527   0.179   5.605
 9398SOL    HW129093   0.523   0.263   5.551
 9398SOL    HW229094   0.434   0.147   5.625
 9399SOL     OW29095   6.742   2.030   6.421
 9399SOL    HW129096   6.768   2.054   6.515
 9399SOL    HW229097   6.758   2.108   6.361
 9400SOL     OW29098   4.307   1.616   1.727
 9400SOL    HW129099   4.304   1.653   1.820
 9400SOL    HW229100   4.402   1.596   1.702
 9401SOL     OW29101   5.283   6.863   3.739
 9401SOL    HW129102   5.382   6.877   3.727
 9401SOL    HW229103   5.254   6.909   3.823
 9402SOL     OW29104   1.182   4.625   3.590
 9402SOL    HW129105   1.139   4.599   3.676
 9402SOL    HW229106   1.230   4.546   3.552
 9403SOL     OW29107   6.060   1.605   2.593
 9403SOL    HW129108   6.007   1.593   2.509
 9403SOL    HW229109   6.020   1.678   2.648
 9404SOL     OW29110   1.135   3.403   6.225
 9404SOL    HW129111   1.085   3.377   6.307
 9404SOL    HW229112   1.079   3.464   6.169
 9405SOL     OW29113   0.953   5.741   1.968
 9405SOL    HW129114   0.975   5.782   1.879
 9405SOL    HW229115   0.877   5.677   1.956
 9406SOL     OW29116   6.793   2.693   5.868
 9406SOL    HW129117   6.793   2.635   5.786
 9406SOL    HW229118   6.703   2.736   5.878
 9407SOL     OW29119   2.571   5.205   3.587
 9407SOL    HW129120   2.579   5.185   3.685
 9407SOL    HW229121   2.639   5.152   3.537
 9408SOL     OW29122   4.094   2.256   6.502
 9408SOL    HW129123   4.118   2.233   6.596
 9408SOL    HW229124   4.068   2.173   6.453
 9409SOL     OW29125   6.039   4.281   6.628
 9409SOL    HW129126   5.955   4.278   6.681
 9409SOL    HW229127   6.035   4.357   6.563
 9410SOL     OW29128   3.190   6.285   2.044
 9410SOL    HW129129   3.197   6.341   2.126
 9410SOL    HW229130   3.260   6.313   1.978
 9411SOL     OW29131   3.411   3.402   2.171
 9411SOL    HW129132   3.313   3.391   2.186
 9411SOL    HW229133   3.459   3.389   2.258
 9412SOL     OW29134   0.341   2.894   1.718
 9412SOL    HW129135   0.276   2.929   1.786
 9412SOL    HW229136   0.314   2.925   1.627
 9413SOL     OW29137   3.133   6.029   4.037
 9413SOL    HW129138   3.087   5.952   3.992
 9413SOL    HW229139   3.219   6.049   3.990
 9414SOL     OW29140   2.971   0.718   3.412
 9414SOL    HW129141   2.999   0.720   3.316
 9414SOL    HW229142   2.893   0.658   3.423
 9415SOL     OW29143   2.680   0.033   1.599
 9415SOL    HW129144   2.753   6.981   1.600
 9415SOL    HW229145   2.668   0.069   1.692
 9416SOL     OW29146   0.607   1.859   0.835
 9416SOL    HW129147   0.705   1.876   0.850
 9416SOL    HW229148   0.561   1.946   0.818
 9417SOL     OW29149   3.848   6.579   5.715
 9417SOL    HW129150   3.872   6.620   5.803
 9417SOL    HW229151   3.904   6.498   5.698
 9418SOL     OW29152   3.861   6.276   1.376
 9418SOL    HW129153   3.826   6.186   1.401
 9418SOL    HW229154   3.786   6.342   1.374
 9419SOL     OW29155   3.358   5.472   5.731
 9419SOL    HW129156   3.337   5.524   5.814
 9419SOL    HW229157   3.426   5.401   5.753
 9420SOL     OW29158   6.593   3.000   5.278
 9420SOL    HW129159   6.494   2.986   5.277
 9420SOL    HW229160   6.639   2.910   5.279
 9421SOL     OW29161   1.980   6.652   4.891
 9421SOL    HW129162   2.069   6.619   4.859
 9421SOL    HW229163   1.991   6.694   4.982
 9422SOL     OW29164   4.948   6.155   3.264
 9422SOL    HW129165   5.021   6.208   3.308
 9422SOL    HW229166   4.895   6.216   3.205
 9423SOL     OW29167   3.856   0.644   3.881
 9423SOL    HW129168   3.797   0.618   3.958
 9423SOL    HW229169   3.818   0.608   3.796
 9424SOL     OW29170   4.819   0.427   4.888
 9424SOL    HW129171   4.847   0.345   4.837
 9424SOL    HW229172   4.900   0.473   4.923
 9425SOL     OW29173   6.262   3.227   6.759
 9425SOL    HW129174   6.185   3.287   6.738
 9425SOL    HW229175   6.307   3.199   6.674
 9426SOL     OW29176   3.169   2.152   0.196
 9426SOL    HW129177   3.205   2.169   0.105
 9426SOL    HW229178   3.070   2.139   0.192
 9427SOL     OW29179   2.765   5.724   4.257
 9427SOL    HW129180   2.861   5.750   4.272
 9427SOL    HW229181   2.755   5.626   4.271
 9428SOL     OW29182   5.744   1.014   1.195
 9428SOL    HW129183   5.798   0.930   1.182
 9428SOL    HW229184   5.806   1.092   1.202
 9429SOL     OW29185   2.076   3.390   2.215
 9429SOL    HW129186   2.004   3.327   2.187
 9429SOL    HW229187   2.126   3.422   2.134
 9430SOL     OW29188   0.221   4.464   2.442
 9430SOL    HW129189   0.174   4.391   2.491
 9430SOL    HW229190   0.291   4.505   2.501
 9431SOL     OW29191   5.854   4.160   1.688
 9431SOL    HW129192   5.844   4.171   1.787
 9431SOL    HW229193   5.887   4.246   1.649
 9432SOL     OW29194   4.100   0.297   3.636
 9432SOL    HW129195   4.008   0.271   3.664
 9432SOL    HW229196   4.150   0.334   3.715
 9433SOL     OW29197   3.473   4.946   3.056
 9433SOL    HW129198   3.409   4.894   2.999
 9433SOL    HW229199   3.456   4.926   3.152
 9434SOL     OW29200   5.264   5.383   3.634
 9434SOL    HW129201   5.359   5.380   3.606
 9434SOL    HW229202   5.239   5.298   3.680
 9435SOL     OW29203   0.704   2.744   4.559
 9435SOL    HW129204   0.678   2.840   4.562
 9435SOL    HW229205   0.756   2.721   4.641
 9436SOL     OW29206   1.251   2.955   1.881
 9436SOL    HW129207   1.326   2.897   1.915
 9436SOL    HW229208   1.179   2.958   1.950
 9437SOL     OW29209   2.390   6.390   3.346
 9437SOL    HW129210   2.454   6.313   3.339
 9437SOL    HW229211   2.343   6.386   3.434
 9438SOL     OW29212   0.104   0.197   1.932
 9438SOL    HW129213   0.013   0.222   1.898
 9438SOL    HW229214   0.172   0.212   1.860
 9439SOL     OW29215   0.236   3.423   1.550
 9439SOL    HW129216   0.173   3.500   1.545
 9439SOL    HW229217   0.245   3.393   1.644
 9440SOL     OW29218   3.870   4.901   3.647
 9440SOL    HW129219   3.964   4.868   3.634
 9440SOL    HW229220   3.861   4.994   3.610
 9441SOL     OW29221   1.324   3.550   5.104
 9441SOL    HW129222   1.324   3.640   5.148
 9441SOL    HW229223   1.230   3.524   5.081
 9442SOL     OW29224   4.535   3.593   0.253
 9442SOL    HW129225   4.561   3.497   0.244
 9442SOL    HW229226   4.584   3.647   0.184
 9443SOL     OW29227   2.698   5.385   1.321
 9443SOL    HW129228   2.599   5.389   1.332
 9443SOL    HW229229   2.723   5.299   1.278
 9444SOL     OW29230   1.656   3.879   6.644
 9444SOL    HW129231   1.728   3.877   6.575
 9444SOL    HW229232   1.576   3.829   6.610
 9445SOL     OW29233   5.623   3.549   3.184
 9445SOL    HW129234   5.553   3.504   3.239
 9445SOL    HW229235   5.631   3.645   3.212
 9446SOL     OW29236   6.364   6.337   4.366
 9446SOL    HW129237   6.336   6.426   4.331
 9446SOL    HW229238   6.305   6.310   4.442
 9447SOL     OW29239   5.957   3.394   4.553
 9447SOL    HW129240   6.003   3.365   4.469
 9447SOL    HW229241   5.973   3.327   4.625
 9448SOL     OW29242   0.037   6.653   6.805
 9448SOL    HW129243   0.047   6.578   6.740
 9448SOL    HW229244   6.995   6.624   6.881
 9449SOL     OW29245   6.713   5.705   0.129
 9449SOL    HW129246   6.722   5.704   0.229
 9449SOL    HW229247   6.732   5.614   0.093
 9450SOL     OW29248   2.914   5.793   5.209
 9450SOL    HW129249   2.869   5.727   5.269
 9450SOL    HW229250   2.923   5.754   5.117
 9451SOL     OW29251   4.218   6.191   5.936
 9451SOL    HW129252   4.201   6.269   5.875
 9451SOL    HW229253   4.267   6.120   5.886
 9452SOL     OW29254   1.666   4.053   0.378
 9452SOL    HW129255   1.754   4.061   0.426
 9452SOL    HW229256   1.671   3.978   0.312
 9453SOL     OW29257   1.931   4.958   3.129
 9453SOL    HW129258   1.883   4.905   3.199
 9453SOL    HW229259   1.874   5.036   3.102
 9454SOL     OW29260   2.815   3.511   6.756
 9454SOL    HW129261   2.761   3.581   6.710
 9454SOL    HW229262   2.797   3.515   6.855
 9455SOL     OW29263   3.581   1.718   2.982
 9455SOL    HW129264   3.548   1.646   2.921
 9455SOL    HW229265   3.659   1.764   2.940
 9456SOL     OW29266   1.377   3.617   0.772
 9456SOL    HW129267   1.320   3.683   0.723
 9456SOL    HW229268   1.319   3.548   0.815
 9457SOL     OW29269   2.125   3.786   5.084
 9457SOL    HW129270   2.075   3.770   4.999
 9457SOL    HW229271   2.193   3.858   5.071
 9458SOL     OW29272   1.587   3.325   0.227
 9458SOL    HW129273   1.600   3.329   0.127
 9458SOL    HW229274   1.643   3.252   0.264
 9459SOL     OW29275   5.168   4.766   3.430
 9459SOL    HW129276   5.125   4.810   3.351
 9459SOL    HW229277   5.246   4.712   3.400
 9460SOL     OW29278   0.723   2.193   4.051
 9460SOL    HW129279   0.761   2.103   4.070
 9460SOL    HW229280   0.701   2.239   4.137
 9461SOL     OW29281   6.236   1.510   2.346
 9461SOL    HW129282   6.299   1.450   2.395
 9461SOL    HW229283   6.181   1.562   2.411
 9462SOL     OW29284   2.071   3.536   2.861
 9462SOL    HW129285   1.975   3.547   2.833
 9462SOL    HW229286   2.108   3.453   2.820
 9463SOL     OW29287   0.271   0.795   2.006
 9463SOL    HW129288   0.297   0.880   1.961
 9463SOL    HW229289   0.318   0.788   2.094
 9464SOL     OW29290   6.135   0.495   1.302
 9464SOL    HW129291   6.097   0.579   1.340
 9464SOL    HW229292   6.088   0.416   1.341
 9465SOL     OW29293   1.511   5.448   2.731
 9465SOL    HW129294   1.427   5.430   2.782
 9465SOL    HW229295   1.532   5.371   2.672
 9466SOL     OW29296   4.607   4.677   5.848
 9466SOL    HW129297   4.599   4.683   5.748
 9466SOL    HW229298   4.613   4.769   5.887
 9467SOL     OW29299   0.592   2.353   1.463
 9467SOL    HW129300   0.540   2.295   1.525
 9467SOL    HW229301   0.632   2.430   1.514
 9468SOL     OW29302   6.252   2.547   5.726
 9468SOL    HW129303   6.348   2.522   5.715
 9468SOL    HW229304   6.238   2.640   5.690
 9469SOL     OW29305   6.105   6.476   1.593
 9469SOL    HW129306   6.063   6.533   1.664
 9469SOL    HW229307   6.045   6.474   1.513
 9470SOL     OW29308   4.319   3.956   5.300
 9470SOL    HW129309   4.362   3.868   5.283
 9470SOL    HW229310   4.389   4.025   5.315
 9471SOL     OW29311   6.317   1.614   4.398
 9471SOL    HW129312   6.394   1.649   4.451
 9471SOL    HW229313   6.238   1.676   4.410
 9472SOL     OW29314   5.637   3.435   4.626
 9472SOL    HW129315   5.674   3.488   4.549
 9472SOL    HW229316   5.592   3.498   4.690
 9473SOL     OW29317   2.807   5.582   5.382
 9473SOL    HW129318   2.800   5.488   5.415
 9473SOL    HW229319   2.724   5.632   5.406
 9474SOL     OW29320   0.246   2.798   0.428
 9474SOL    HW129321   0.264   2.775   0.523
 9474SOL    HW229322   0.158   2.845   0.421
 9475SOL     OW29323   3.374   3.517   6.770
 9475SOL    HW129324   3.400   3.512   6.673
 9475SOL    HW229325   3.287   3.469   6.783
 9476SOL     OW29326   2.827   3.575   5.131
 9476SOL    HW129327   2.782   3.557   5.044
 9476SOL    HW229328   2.894   3.503   5.149
 9477SOL     OW29329   0.700   3.679   1.997
 9477SOL    HW129330   0.763   3.744   1.955
 9477SOL    HW229331   0.622   3.664   1.938
 9478SOL     OW29332   5.569   2.994   6.765
 9478SOL    HW129333   5.480   2.960   6.796
 9478SOL    HW229334   5.558   3.042   6.679
 9479SOL     OW29335   4.264   6.200   6.485
 9479SOL    HW129336   4.206   6.159   6.555
 9479SOL    HW229337   4.358   6.166   6.495
 9480SOL     OW29338   4.927   3.758   0.945
 9480SOL    HW129339   4.860   3.700   0.900
 9480SOL    HW229340   4.948   3.836   0.886
 9481SOL     OW29341   5.251   3.584   2.325
 9481SOL    HW129342   5.188   3.546   2.258
 9481SOL    HW229343   5.345   3.570   2.294
 9482SOL     OW29344   6.800   0.811   3.204
 9482SOL    HW129345   6.886   0.760   3.202
 9482SOL    HW229346   6.779   0.844   3.112
 9483SOL     OW29347   0.801   1.674   1.739
 9483SOL    HW129348   0.739   1.618   1.685
 9483SOL    HW229349   0.854   1.615   1.801
 9484SOL     OW29350   3.270   1.049   3.689
 9484SOL    HW129351   3.234   1.022   3.779
 9484SOL    HW229352   3.222   0.999   3.618
 9485SOL     OW29353   0.863   0.129   1.454
 9485SOL    HW129354   0.830   0.074   1.377
 9485SOL    HW229355   0.788   0.186   1.488
 9486SOL     OW29356   2.843   6.084   1.194
 9486SOL    HW129357   2.797   6.147   1.132
 9486SOL    HW229358   2.927   6.127   1.229
 9487SOL     OW29359   3.192   2.969   3.272
 9487SOL    HW129360   3.228   3.025   3.198
 9487SOL    HW229361   3.099   2.998   3.294
 9488SOL     OW29362   1.307   6.108   0.743
 9488SOL    HW129363   1.251   6.190   0.731
 9488SOL    HW229364   1.297   6.074   0.837
 9489SOL     OW29365   4.328   4.334   1.430
 9489SOL    HW129366   4.272   4.413   1.455
 9489SOL    HW229367   4.423   4.363   1.418
 9490SOL     OW29368   0.073   5.381   0.949
 9490SOL    HW129369   0.040   5.425   1.033
 9490SOL    HW229370   0.020   5.298   0.932
 9491SOL     OW29371   6.769   4.253   3.808
 9491SOL    HW129372   6.714   4.317   3.756
 9491SOL    HW229373   6.711   4.208   3.877
 9492SOL     OW29374   3.421   2.893   3.164
 9492SOL    HW129375   3.333   2.891   3.210
 9492SOL    HW229376   3.490   2.933   3.226
 9493SOL     OW29377   3.492   5.293   4.014
 9493SOL    HW129378   3.577   5.307   3.962
 9493SOL    HW229379   3.431   5.370   3.998
 9494SOL     OW29380   4.414   4.636   1.832
 9494SOL    HW129381   4.370   4.554   1.796
 9494SOL    HW229382   4.497   4.611   1.881
 9495SOL     OW29383   6.656   1.797   3.329
 9495SOL    HW129384   6.583   1.780   3.395
 9495SOL    HW229385   6.709   1.877   3.358
 9496SOL     OW29386   6.181   4.948   1.289
 9496SOL    HW129387   6.253   4.991   1.235
 9496SOL    HW229388   6.116   4.902   1.228
 9497SOL     OW29389   5.576   6.152   6.879
 9497SOL    HW129390   5.520   6.083   6.925
 9497SOL    HW229391   5.519   6.207   6.818
 9498SOL     OW29392   5.385   6.738   4.757
 9498SOL    HW129393   5.329   6.723   4.838
 9498SOL    HW229394   5.461   6.799   4.780
 9499SOL     OW29395   1.943   4.891   6.423
 9499SOL    HW129396   1.919   4.968   6.482
 9499SOL    HW229397   1.899   4.904   6.334
 9500SOL     OW29398   5.530   0.687   0.898
 9500SOL    HW129399   5.601   0.651   0.958
 9500SOL    HW229400   5.543   0.650   0.806
 9501SOL     OW29401   3.137   1.401   5.106
 9501SOL    HW129402   3.227   1.439   5.128
 9501SOL    HW229403   3.075   1.416   5.183
 9502SOL     OW29404   6.909   2.556   5.084
 9502SOL    HW129405   7.000   2.543   5.123
 9502SOL    HW229406   6.916   2.605   4.997
 9503SOL     OW29407   0.364   1.584   1.421
 9503SOL    HW129408   0.357   1.649   1.345
 9503SOL    HW229409   0.299   1.610   1.492
 9504SOL     OW29410   6.859   2.174   0.922
 9504SOL    HW129411   6.862   2.213   1.014
 9504SOL    HW229412   6.763   2.162   0.894
 9505SOL     OW29413   5.455   4.706   3.385
 9505SOL    HW129414   5.506   4.785   3.419
 9505SOL    HW229415   5.482   4.687   3.291
 9506SOL     OW29416   0.630   2.386   6.256
 9506SOL    HW129417   0.671   2.474   6.233
 9506SOL    HW229418   0.561   2.398   6.327
 9507SOL     OW29419   1.125   1.876   2.897
 9507SOL    HW129420   1.077   1.898   2.812
 9507SOL    HW229421   1.066   1.820   2.955
 9508SOL     OW29422   6.791   3.987   1.157
 9508SOL    HW129423   6.741   4.071   1.137
 9508SOL    HW229424   6.765   3.953   1.247
 9509SOL     OW29425   0.300   0.734   5.150
 9509SOL    HW129426   0.254   0.814   5.114
 9509SOL    HW229427   0.287   0.729   5.249
 9510SOL     OW29428   1.185   3.706   2.329
 9510SOL    HW129429   1.126   3.636   2.369
 9510SOL    HW229430   1.137   3.793   2.329
 9511SOL     OW29431   0.194   1.220   0.276
 9511SOL    HW129432   0.167   1.302   0.326
 9511SOL    HW229433   0.118   1.155   0.277
 9512SOL     OW29434   5.742   1.559   1.640
 9512SOL    HW129435   5.842   1.564   1.642
 9512SOL    HW229436   5.703   1.651   1.635
 9513SOL     OW29437   1.645   3.569   6.216
 9513SOL    HW129438   1.555   3.527   6.207
 9513SOL    HW229439   1.647   3.656   6.166
 9514SOL     OW29440   2.232   4.520   6.510
 9514SOL    HW129441   2.225   4.574   6.594
 9514SOL    HW229442   2.287   4.438   6.528
 9515SOL     OW29443   1.452   6.370   1.542
 9515SOL    HW129444   1.362   6.366   1.585
 9515SOL    HW229445   1.510   6.299   1.582
 9516SOL     OW29446   5.337   4.185   4.876
 9516SOL    HW129447   5.346   4.194   4.777
 9516SOL    HW229448   5.322   4.089   4.900
 9517SOL     OW29449   0.597   4.561   1.160
 9517SOL    HW129450   0.578   4.608   1.246
 9517SOL    HW229451   0.691   4.525   1.162
 9518SOL     OW29452   1.572   1.472   0.136
 9518SOL    HW129453   1.646   1.539   0.146
 9518SOL    HW229454   1.496   1.497   0.196
 9519SOL     OW29455   3.412   4.167   4.379
 9519SOL    HW129456   3.440   4.081   4.423
 9519SOL    HW229457   3.413   4.240   4.446
 9520SOL     OW29458   1.032   1.310   3.310
 9520SOL    HW129459   1.073   1.266   3.230
 9520SOL    HW229460   1.065   1.267   3.393
 9521SOL     OW29461   4.714   5.143   1.418
 9521SOL    HW129462   4.719   5.083   1.497
 9521SOL    HW229463   4.641   5.210   1.430
 9522SOL     OW29464   3.991   4.976   1.407
 9522SOL    HW129465   3.918   4.928   1.358
 9522SOL    HW229466   4.046   4.909   1.457
 9523SOL     OW29467   2.606   5.018   4.646
 9523SOL    HW129468   2.571   5.019   4.740
 9523SOL    HW229469   2.671   5.094   4.634
 9524SOL     OW29470   3.007   3.212   0.665
 9524SOL    HW129471   2.932   3.160   0.706
 9524SOL    HW229472   2.988   3.309   0.673
 9525SOL     OW29473   2.236   2.024   6.101
 9525SOL    HW129474   2.280   1.942   6.065
 9525SOL    HW229475   2.225   2.016   6.200
 9526SOL     OW29476   5.966   4.813   1.200
 9526SOL    HW129477   5.883   4.835   1.148
 9526SOL    HW229478   5.969   4.715   1.218
 9527SOL     OW29479   0.725   1.101   4.474
 9527SOL    HW129480   0.823   1.114   4.464
 9527SOL    HW229481   0.678   1.189   4.461
 9528SOL     OW29482   0.105   1.995   1.134
 9528SOL    HW129483   0.067   2.083   1.164
 9528SOL    HW229484   0.167   1.959   1.204
 9529SOL     OW29485   6.215   3.352   6.279
 9529SOL    HW129486   6.258   3.292   6.212
 9529SOL    HW229487   6.116   3.351   6.267
 9530SOL     OW29488   1.866   2.739   3.324
 9530SOL    HW129489   1.878   2.683   3.243
 9530SOL    HW229490   1.949   2.737   3.380
 9531SOL     OW29491   4.988   4.790   2.589
 9531SOL    HW129492   4.967   4.748   2.678
 9531SOL    HW229493   5.087   4.796   2.578
 9532SOL     OW29494   0.326   6.147   1.205
 9532SOL    HW129495   0.229   6.156   1.182
 9532SOL    HW229496   0.362   6.236   1.232
 9533SOL     OW29497   0.073   5.664   5.333
 9533SOL    HW129498   0.029   5.751   5.312
 9533SOL    HW229499   0.125   5.673   5.419
 9534SOL     OW29500   6.748   3.837   5.461
 9534SOL    HW129501   6.681   3.895   5.416
 9534SOL    HW229502   6.710   3.801   5.546
 9535SOL     OW29503   1.529   0.498   5.975
 9535SOL    HW129504   1.460   0.471   5.908
 9535SOL    HW229505   1.620   0.494   5.933
 9536SOL     OW29506   2.845   3.938   5.594
 9536SOL    HW129507   2.844   3.901   5.501
 9536SOL    HW229508   2.868   4.035   5.591
 9537SOL     OW29509   2.696   0.076   4.619
 9537SOL    HW129510   2.629   0.043   4.685
 9537SOL    HW229511   2.723   0.169   4.643
 9538SOL     OW29512   5.655   1.047   3.372
 9538SOL    HW129513   5.696   1.131   3.407
 9538SOL    HW229514   5.663   1.045   3.272
 9539SOL     OW29515   3.371   3.631   4.354
 9539SOL    HW129516   3.332   3.669   4.270
 9539SOL    HW229517   3.467   3.607   4.339
 9540SOL     OW29518   6.351   4.461   4.352
 9540SOL    HW129519   6.257   4.429   4.355
 9540SOL    HW229520   6.375   4.504   4.440
 9541SOL     OW29521   2.876   0.410   5.927
 9541SOL    HW129522   2.964   0.445   5.958
 9541SOL    HW229523   2.852   0.453   5.839
 9542SOL     OW29524   4.891   4.211   4.695
 9542SOL    HW129525   4.907   4.279   4.623
 9542SOL    HW229526   4.921   4.249   4.783
 9543SOL     OW29527   3.608   0.418   5.986
 9543SOL    HW129528   3.644   0.482   5.919
 9543SOL    HW229529   3.565   0.341   5.939
 9544SOL     OW29530   6.760   2.060   3.365
 9544SOL    HW129531   6.794   2.099   3.279
 9544SOL    HW229532   6.782   2.122   3.441
 9545SOL     OW29533   5.555   6.029   4.804
 9545SOL    HW129534   5.610   5.960   4.756
 9545SOL    HW229535   5.521   6.096   4.738
 9546SOL     OW29536   4.147   1.898   4.914
 9546SOL    HW129537   4.099   1.985   4.904
 9546SOL    HW229538   4.131   1.861   5.005
 9547SOL     OW29539   2.906   5.346   3.984
 9547SOL    HW129540   2.896   5.444   4.003
 9547SOL    HW229541   2.884   5.328   3.888
 9548SOL     OW29542   6.097   4.620   6.106
 9548SOL    HW129543   6.029   4.693   6.099
 9548SOL    HW229544   6.186   4.654   6.075
 9549SOL     OW29545   2.753   3.217   1.089
 9549SOL    HW129546   2.759   3.316   1.105
 9549SOL    HW229547   2.657   3.191   1.076
 9550SOL     OW29548   6.601   1.242   0.052
 9550SOL    HW129549   6.667   1.211   0.120
 9550SOL    HW229550   6.594   1.175   6.994
 9551SOL     OW29551   5.794   1.797   5.750
 9551SOL    HW129552   5.886   1.822   5.780
 9551SOL    HW229553   5.777   1.700   5.770
 9552SOL     OW29554   1.731   6.843   4.098
 9552SOL    HW129555   1.661   6.906   4.066
 9552SOL    HW229556   1.729   6.838   4.198
 9553SOL     OW29557   6.141   2.810   6.523
 9553SOL    HW129558   6.044   2.832   6.532
 9553SOL    HW229559   6.170   2.823   6.428
 9554SOL     OW29560   2.684   0.136   1.319
 9554SOL    HW129561   2.771   0.127   1.367
 9554SOL    HW229562   2.612   0.161   1.384
 9555SOL     OW29563   0.823   0.568   2.974
 9555SOL    HW129564   0.765   0.649   2.968
 9555SOL    HW229565   0.896   0.574   2.906
 9556SOL     OW29566   1.571   3.806   1.830
 9556SOL    HW129567   1.496   3.802   1.764
 9556SOL    HW229568   1.573   3.720   1.882
 9557SOL     OW29569   7.000   6.113   1.945
 9557SOL    HW129570   6.944   6.195   1.955
 9557SOL    HW229571   6.991   6.078   1.852
 9558SOL     OW29572   6.157   6.231   4.969
 9558SOL    HW129573   6.121   6.170   4.898
 9558SOL    HW229574   6.254   6.246   4.954
 9559SOL     OW29575   0.535   4.894   1.732
 9559SOL    HW129576   0.560   4.901   1.635
 9559SOL    HW229577   0.471   4.967   1.755
 9560SOL     OW29578   1.726   1.682   3.257
 9560SOL    HW129579   1.733   1.776   3.289
 9560SOL    HW229580   1.763   1.621   3.327
 9561SOL     OW29581   2.191   0.350   0.533
 9561SOL    HW129582   2.110   0.339   0.591
 9561SOL    HW229583   2.208   0.447   0.518
 9562SOL     OW29584   2.375   0.472   5.226
 9562SOL    HW129585   2.363   0.432   5.317
 9562SOL    HW229586   2.288   0.512   5.195
 9563SOL     OW29587   6.545   6.235   0.460
 9563SOL    HW129588   6.538   6.149   0.409
 9563SOL    HW229589   6.602   6.221   0.541
 9564SOL     OW29590   2.880   0.126   0.583
 9564SOL    HW129591   2.826   0.184   0.644
 9564SOL    HW229592   2.836   0.122   0.493
 9565SOL     OW29593   3.558   0.067   4.739
 9565SOL    HW129594   3.638   0.062   4.799
 9565SOL    HW229595   3.475   0.068   4.794
 9566SOL     OW29596   1.836   4.684   7.003
 9566SOL    HW129597   1.857   4.772   6.959
 9566SOL    HW229598   1.803   4.620   6.934
 9567SOL     OW29599   5.210   4.817   1.235
 9567SOL    HW129600   5.154   4.741   1.268
 9567SOL    HW229601   5.155   4.873   1.173
 9568SOL     OW29602   3.899   2.517   6.711
 9568SOL    HW129603   3.857   2.501   6.622
 9568SOL    HW229604   3.994   2.546   6.699
 9569SOL     OW29605   0.335   1.423   2.496
 9569SOL    HW129606   0.260   1.391   2.553
 9569SOL    HW229607   0.394   1.484   2.549
 9570SOL     OW29608   1.038   3.228   2.194
 9570SOL    HW129609   0.948   3.229   2.238
 9570SOL    HW229610   1.066   3.321   2.171
 9571SOL     OW29611   3.900   4.148   5.957
 9571SOL    HW129612   3.955   4.198   5.891
 9571SOL    HW229613   3.803   4.168   5.943
 9572SOL     OW29614   2.395   5.245   1.525
 9572SOL    HW129615   2.319   5.242   1.590
 9572SOL    HW229616   2.479   5.216   1.571
 9573SOL     OW29617   0.745   2.346   6.568
 9573SOL    HW129618   0.719   2.422   6.628
 9573SOL    HW229619   0.742   2.377   6.473
 9574SOL     OW29620   4.129   3.413   3.286
 9574SOL    HW129621   4.031   3.397   3.278
 9574SOL    HW229622   4.155   3.490   3.228
 9575SOL     OW29623   0.305   1.233   1.390
 9575SOL    HW129624   0.344   1.318   1.425
 9575SOL    HW229625   0.314   1.231   1.291
 9576SOL     OW29626   1.693   0.487   2.111
 9576SOL    HW129627   1.682   0.422   2.036
 9576SOL    HW229628   1.679   0.580   2.076
 9577SOL     OW29629   1.119   0.753   6.090
 9577SOL    HW129630   1.045   0.762   6.156
 9577SOL    HW229631   1.206   0.746   6.139
 9578SOL     OW29632   0.631   4.230   3.809
 9578SOL    HW129633   0.594   4.159   3.749
 9578SOL    HW229634   0.633   4.196   3.903
 9579SOL     OW29635   1.769   5.261   2.503
 9579SOL    HW129636   1.690   5.217   2.547
 9579SOL    HW229637   1.763   5.248   2.404
 9580SOL     OW29638   4.810   3.211   0.548
 9580SOL    HW129639   4.885   3.271   0.575
 9580SOL    HW229640   4.847   3.125   0.514
 9581SOL     OW29641   0.342   5.380   5.994
 9581SOL    HW129642   0.310   5.391   6.087
 9581SOL    HW229643   0.434   5.341   5.995
 9582SOL     OW29644   4.826   5.400   6.383
 9582SOL    HW129645   4.891   5.359   6.319
 9582SOL    HW229646   4.873   5.425   6.468
 9583SOL     OW29647   3.991   4.338   1.127
 9583SOL    HW129648   3.917   4.292   1.078
 9583SOL    HW229649   4.069   4.350   1.065
 9584SOL     OW29650   6.711   5.451   0.058
 9584SOL    HW129651   6.709   5.365   0.109
 9584SOL    HW229652   6.750   5.435   6.983
 9585SOL     OW29653   6.622   0.775   4.570
 9585SOL    HW129654   6.528   0.805   4.582
 9585SOL    HW229655   6.656   0.735   4.655
 9586SOL     OW29656   5.683   4.828   2.530
 9586SOL    HW129657   5.631   4.853   2.449
 9586SOL    HW229658   5.779   4.817   2.507
 9587SOL     OW29659   6.800   0.989   1.969
 9587SOL    HW129660   6.705   1.014   1.949
 9587SOL    HW229661   6.848   0.971   1.883
 9588SOL     OW29662   6.751   1.489   1.610
 9588SOL    HW129663   6.715   1.411   1.559
 9588SOL    HW229664   6.730   1.574   1.561
 9589SOL     OW29665   2.454   4.981   5.873
 9589SOL    HW129666   2.430   5.078   5.871
 9589SOL    HW229667   2.433   4.944   5.964
 9590SOL     OW29668   6.700   3.454   1.892
 9590SOL    HW129669   6.751   3.507   1.960
 9590SOL    HW229670   6.617   3.417   1.934
 9591SOL     OW29671   3.457   6.486   6.243
 9591SOL    HW129672   3.511   6.421   6.296
 9591SOL    HW229673   3.405   6.545   6.305
 9592SOL     OW29674   3.847   4.178   0.980
 9592SOL    HW129675   3.758   4.190   0.936
 9592SOL    HW229676   3.879   4.084   0.967
 9593SOL     OW29677   0.067   1.082   5.232
 9593SOL    HW129678   0.085   1.006   5.169
 9593SOL    HW229679   6.988   1.112   5.221
 9594SOL     OW29680   1.346   6.177   3.064
 9594SOL    HW129681   1.260   6.134   3.089
 9594SOL    HW229682   1.376   6.237   3.138
 9595SOL     OW29683   1.104   4.213   5.128
 9595SOL    HW129684   1.122   4.183   5.034
 9595SOL    HW229685   1.063   4.304   5.127
 9596SOL     OW29686   0.137   5.464   6.943
 9596SOL    HW129687   0.206   5.407   6.898
 9596SOL    HW229688   0.179   5.513   0.004
 9597SOL     OW29689   0.567   4.596   1.449
 9597SOL    HW129690   0.618   4.510   1.451
 9597SOL    HW229691   0.472   4.579   1.473
 9598SOL     OW29692   0.950   3.420   4.088
 9598SOL    HW129693   0.897   3.335   4.081
 9598SOL    HW229694   1.035   3.411   4.036
 9599SOL     OW29695   3.853   6.644   4.678
 9599SOL    HW129696   3.762   6.629   4.715
 9599SOL    HW229697   3.877   6.568   4.617
 9600SOL     OW29698   2.303   0.135   6.812
 9600SOL    HW129699   2.375   0.175   6.755
 9600SOL    HW229700   2.261   0.207   6.867
 9601SOL     OW29701   5.293   3.770   1.761
 9601SOL    HW129702   5.258   3.676   1.769
 9601SOL    HW229703   5.346   3.778   1.676
 9602SOL     OW29704   6.819   5.062   6.586
 9602SOL    HW129705   6.890   5.024   6.646
 9602SOL    HW229706   6.782   4.989   6.528
 9603SOL     OW29707   3.717   1.952   4.147
 9603SOL    HW129708   3.729   1.854   4.130
 9603SOL    HW229709   3.643   1.965   4.214
 9604SOL     OW29710   4.207   0.483   6.863
 9604SOL    HW129711   4.117   0.519   6.838
 9604SOL    HW229712   4.197   0.413   6.934
 9605SOL     OW29713   0.844   5.618   3.598
 9605SOL    HW129714   0.892   5.548   3.651
 9605SOL    HW229715   0.748   5.621   3.627
 9606SOL     OW29716   2.306   6.465   6.326
 9606SOL    HW129717   2.288   6.497   6.233
 9606SOL    HW229718   2.248   6.386   6.346
 9607SOL     OW29719   1.504   1.531   0.733
 9607SOL    HW129720   1.414   1.561   0.766
 9607SOL    HW229721   1.570   1.534   0.808
 9608SOL     OW29722   6.537   6.428   2.440
 9608SOL    HW129723   6.564   6.406   2.534
 9608SOL    HW229724   6.552   6.348   2.382
 9609SOL     OW29725   2.073   4.031   6.443
 9609SOL    HW129726   2.023   4.075   6.517
 9609SOL    HW229727   2.154   4.085   6.421
 9610SOL     OW29728   1.986   5.087   4.018
 9610SOL    HW129729   1.891   5.121   4.017
 9610SOL    HW229730   2.048   5.163   3.998
 9611SOL     OW29731   0.101   6.211   6.590
 9611SOL    HW129732   0.173   6.209   6.520
 9611SOL    HW229733   0.050   6.297   6.583
 9612SOL     OW29734   0.857   3.886   1.884
 9612SOL    HW129735   0.910   3.855   1.805
 9612SOL    HW229736   0.906   3.866   1.968
 9613SOL     OW29737   4.488   6.271   3.463
 9613SOL    HW129738   4.440   6.211   3.399
 9613SOL    HW229739   4.506   6.359   3.419
 9614SOL     OW29740   4.296   2.552   0.566
 9614SOL    HW129741   4.237   2.618   0.520
 9614SOL    HW229742   4.341   2.595   0.644
 9615SOL     OW29743   0.596   6.760   1.049
 9615SOL    HW129744   0.515   6.718   1.088
 9615SOL    HW229745   0.571   6.844   1.000
 9616SOL     OW29746   4.561   3.414   1.005
 9616SOL    HW129747   4.484   3.371   1.053
 9616SOL    HW229748   4.536   3.431   0.910
 9617SOL     OW29749   1.771   3.266   3.712
 9617SOL    HW129750   1.728   3.227   3.793
 9617SOL    HW229751   1.743   3.361   3.701
 9618SOL     OW29752   3.596   0.196   5.492
 9618SOL    HW129753   3.624   0.255   5.567
 9618SOL    HW229754   3.664   0.124   5.478
 9619SOL     OW29755   0.726   6.700   0.186
 9619SOL    HW129756   0.771   6.667   0.269
 9619SOL    HW229757   0.762   6.789   0.161
 9620SOL     OW29758   4.185   2.621   6.772
 9620SOL    HW129759   4.186   2.714   6.809
 9620SOL    HW229760   4.209   2.556   6.844
 9621SOL     OW29761   0.930   0.887   2.596
 9621SOL    HW129762   0.928   0.985   2.616
 9621SOL    HW229763   0.966   0.838   2.675
 9622SOL     OW29764   6.693   0.831   0.251
 9622SOL    HW129765   6.619   0.809   0.314
 9622SOL    HW229766   6.659   0.829   0.157
 9623SOL     OW29767   3.753   4.958   5.084
 9623SOL    HW129768   3.715   4.929   4.996
 9623SOL    HW229769   3.819   5.032   5.069
 9624SOL     OW29770   5.968   4.462   3.493
 9624SOL    HW129771   5.997   4.366   3.486
 9624SOL    HW229772   5.978   4.492   3.588
 9625SOL     OW29773   5.110   5.276   6.894
 9625SOL    HW129774   5.032   5.284   6.831
 9625SOL    HW229775   5.195   5.292   6.844
 9626SOL     OW29776   2.291   6.531   0.191
 9626SOL    HW129777   2.360   6.599   0.214
 9626SOL    HW229778   2.294   6.457   0.259
 9627SOL     OW29779   0.068   4.407   3.239
 9627SOL    HW129780   0.167   4.407   3.252
 9627SOL    HW229781   0.047   4.401   3.142
 9628SOL     OW29782   6.189   4.673   6.973
 9628SOL    HW129783   6.116   4.646   6.910
 9628SOL    HW229784   6.277   4.660   6.928
 9629SOL     OW29785   6.807   6.627   2.773
 9629SOL    HW129786   6.875   6.653   2.841
 9629SOL    HW229787   6.809   6.692   2.697
 9630SOL     OW29788   6.043   6.554   5.254
 9630SOL    HW129789   6.058   6.653   5.254
 9630SOL    HW229790   5.945   6.535   5.244
 9631SOL     OW29791   5.882   0.781   6.922
 9631SOL    HW129792   5.809   0.841   6.954
 9631SOL    HW229793   5.847   0.723   6.848
 9632SOL     OW29794   2.163   5.382   2.587
 9632SOL    HW129795   2.098   5.335   2.646
 9632SOL    HW229796   2.223   5.439   2.642
 9633SOL     OW29797   5.244   4.815   6.913
 9633SOL    HW129798   5.154   4.858   6.906
 9633SOL    HW229799   5.311   4.883   6.943
 9634SOL     OW29800   0.987   6.898   4.778
 9634SOL    HW129801   0.890   6.877   4.768
 9634SOL    HW229802   0.997   6.985   4.827
 9635SOL     OW29803   1.950   4.470   5.689
 9635SOL    HW129804   1.966   4.424   5.601
 9635SOL    HW229805   1.933   4.401   5.759
 9636SOL     OW29806   4.060   1.853   6.045
 9636SOL    HW129807   4.088   1.911   5.969
 9636SOL    HW229808   4.134   1.848   6.112
 9637SOL     OW29809   2.357   2.078   0.321
 9637SOL    HW129810   2.387   2.172   0.339
 9637SOL    HW229811   2.435   2.025   0.288
 9638SOL     OW29812   0.011   3.638   0.003
 9638SOL    HW129813   0.028   3.555   0.057
 9638SOL    HW229814   6.931   3.664   0.011
 9639SOL     OW29815   4.862   1.755   1.944
 9639SOL    HW129816   4.797   1.830   1.934
 9639SOL    HW229817   4.939   1.769   1.882
 9640SOL     OW29818   3.112   1.377   3.021
 9640SOL    HW129819   3.141   1.375   3.117
 9640SOL    HW229820   3.012   1.384   3.016
 9641SOL     OW29821   5.131   6.357   0.821
 9641SOL    HW129822   5.103   6.425   0.889
 9641SOL    HW229823   5.064   6.284   0.818
 9642SOL     OW29824   2.158   6.106   4.513
 9642SOL    HW129825   2.139   6.012   4.485
 9642SOL    HW229826   2.098   6.168   4.462
 9643SOL     OW29827   6.326   4.592   3.794
 9643SOL    HW129828   6.367   4.670   3.842
 9643SOL    HW229829   6.336   4.606   3.696
 9644SOL     OW29830   0.092   5.311   4.609
 9644SOL    HW129831   0.123   5.260   4.529
 9644SOL    HW229832   0.164   5.311   4.678
 9645SOL     OW29833   3.031   4.915   3.509
 9645SOL    HW129834   3.108   4.900   3.570
 9645SOL    HW229835   2.954   4.858   3.536
 9646SOL     OW29836   2.661   4.602   2.242
 9646SOL    HW129837   2.720   4.607   2.162
 9646SOL    HW229838   2.595   4.527   2.232
 9647SOL     OW29839   0.699   5.500   1.606
 9647SOL    HW129840   0.616   5.484   1.660
 9647SOL    HW229841   0.680   5.479   1.510
 9648SOL     OW29842   3.505   2.182   6.878
 9648SOL    HW129843   3.587   2.176   6.820
 9648SOL    HW229844   3.488   2.277   6.903
 9649SOL     OW29845   2.656   4.790   6.962
 9649SOL    HW129846   2.720   4.767   0.019
 9649SOL    HW229847   2.701   4.775   6.873
 9650SOL     OW29848   4.849   4.485   3.382
 9650SOL    HW129849   4.830   4.476   3.284
 9650SOL    HW229850   4.943   4.517   3.395
 9651SOL     OW29851   6.280   0.624   0.243
 9651SOL    HW129852   6.246   0.558   0.177
 9651SOL    HW229853   6.377   0.609   0.260
 9652SOL     OW29854   2.462   4.363   1.021
 9652SOL    HW129855   2.475   4.444   0.963
 9652SOL    HW229856   2.403   4.388   1.098
 9653SOL     OW29857   4.247   5.390   5.310
 9653SOL    HW129858   4.150   5.370   5.307
 9653SOL    HW229859   4.283   5.395   5.217
 9654SOL     OW29860   3.676   3.162   2.580
 9654SOL    HW129861   3.750   3.145   2.645
 9654SOL    HW229862   3.598   3.103   2.602
 9655SOL     OW29863   6.597   1.539   6.850
 9655SOL    HW129864   6.656   1.459   6.841
 9655SOL    HW229865   6.653   1.618   6.878
 9656SOL     OW29866   4.710   2.024   1.037
 9656SOL    HW129867   4.735   1.928   1.029
 9656SOL    HW229868   4.715   2.068   0.948
 9657SOL     OW29869   5.986   2.252   3.995
 9657SOL    HW129870   6.046   2.174   3.978
 9657SOL    HW229871   5.999   2.320   3.924
 9658SOL     OW29872   5.612   1.966   2.436
 9658SOL    HW129873   5.690   2.026   2.418
 9658SOL    HW229874   5.606   1.947   2.534
 9659SOL     OW29875   6.925   3.064   0.522
 9659SOL    HW129876   6.980   3.012   0.456
 9659SOL    HW229877   6.830   3.033   0.518
 9660SOL     OW29878   0.010   6.467   2.149
 9660SOL    HW129879   0.043   6.561   2.139
 9660SOL    HW229880   0.028   6.435   2.242
 9661SOL     OW29881   3.457   6.313   1.911
 9661SOL    HW129882   3.442   6.250   1.835
 9661SOL    HW229883   3.541   6.288   1.959
 9662SOL     OW29884   4.438   2.856   5.306
 9662SOL    HW129885   4.516   2.886   5.251
 9662SOL    HW229886   4.434   2.756   5.305
 9663SOL     OW29887   6.559   6.414   3.589
 9663SOL    HW129888   6.466   6.416   3.553
 9663SOL    HW229889   6.622   6.386   3.516
 9664SOL     OW29890   5.500   6.375   4.396
 9664SOL    HW129891   5.542   6.460   4.364
 9664SOL    HW229892   5.514   6.303   4.328
 9665SOL     OW29893   5.603   6.480   0.215
 9665SOL    HW129894   5.533   6.471   0.144
 9665SOL    HW229895   5.574   6.429   0.296
 9666SOL     OW29896   6.008   4.014   1.422
 9666SOL    HW129897   5.959   3.982   1.503
 9666SOL    HW229898   5.954   4.083   1.374
 9667SOL     OW29899   3.866   3.527   5.405
 9667SOL    HW129900   3.808   3.587   5.461
 9667SOL    HW229901   3.871   3.437   5.447
 9668SOL     OW29902   0.008   0.782   6.342
 9668SOL    HW129903   6.936   0.820   6.316
 9668SOL    HW229904   7.016   0.683   6.351
 9669SOL     OW29905   1.713   0.003   2.448
 9669SOL    HW129906   1.743   0.032   2.539
 9669SOL    HW229907   1.643   0.065   2.414
 9670SOL     OW29908   6.371   4.326   6.685
 9670SOL    HW129909   6.286   4.336   6.634
 9670SOL    HW229910   6.351   4.307   6.781
 9671SOL     OW29911   6.193   4.743   0.220
 9671SOL    HW129912   6.102   4.720   0.256
 9671SOL    HW229913   6.192   4.732   0.121
 9672SOL     OW29914   1.420   5.910   3.853
 9672SOL    HW129915   1.467   5.821   3.855
 9672SOL    HW229916   1.427   5.949   3.761
 9673SOL     OW29917   5.442   3.760   0.609
 9673SOL    HW129918   5.346   3.734   0.603
 9673SOL    HW229919   5.484   3.753   0.519
 9674SOL     OW29920   2.540   6.804   2.986
 9674SOL    HW129921   2.443   6.804   3.011
 9674SOL    HW229922   2.593   6.768   3.063
 9675SOL     OW29923   5.612   2.471   0.626
 9675SOL    HW129924   5.673   2.459   0.548
 9675SOL    HW229925   5.614   2.567   0.655
 9676SOL     OW29926   1.323   3.691   5.666
 9676SOL    HW129927   1.236   3.726   5.698
 9676SOL    HW229928   1.309   3.634   5.584
 9677SOL     OW29929   0.668   5.296   5.036
 9677SOL    HW129930   0.604   5.286   5.113
 9677SOL    HW229931   0.620   5.278   4.950
 9678SOL     OW29932   2.947   3.676   3.052
 9678SOL    HW129933   2.925   3.705   2.959
 9678SOL    HW229934   2.903   3.738   3.117
 9679SOL     OW29935   2.701   1.219   2.556
 9679SOL    HW129936   2.760   1.161   2.612
 9679SOL    HW229937   2.706   1.314   2.589
 9680SOL     OW29938   4.923   1.022   2.967
 9680SOL    HW129939   4.908   1.011   2.869
 9680SOL    HW229940   4.934   1.119   2.989
 9681SOL     OW29941   3.133   1.466   0.368
 9681SOL    HW129942   3.067   1.400   0.332
 9681SOL    HW229943   3.193   1.498   0.295
 9682SOL     OW29944   5.271   4.949   3.689
 9682SOL    HW129945   5.340   4.891   3.733
 9682SOL    HW229946   5.251   5.027   3.749
 9683SOL     OW29947   3.078   5.363   0.218
 9683SOL    HW129948   3.060   5.359   0.316
 9683SOL    HW229949   3.158   5.307   0.196
 9684SOL     OW29950   0.349   3.112   5.415
 9684SOL    HW129951   0.341   3.180   5.488
 9684SOL    HW229952   0.341   3.020   5.454
 9685SOL     OW29953   2.870   4.778   1.369
 9685SOL    HW129954   2.801   4.848   1.353
 9685SOL    HW229955   2.908   4.748   1.281
 9686SOL     OW29956   6.527   1.582   6.600
 9686SOL    HW129957   6.518   1.682   6.593
 9686SOL    HW229958   6.551   1.558   6.694
 9687SOL     OW29959   1.790   0.454   3.896
 9687SOL    HW129960   1.808   0.549   3.919
 9687SOL    HW229961   1.803   0.397   3.978
 9688SOL     OW29962   0.335   3.336   2.535
 9688SOL    HW129963   0.427   3.366   2.562
 9688SOL    HW229964   0.304   3.265   2.597
 9689SOL     OW29965   1.246   5.051   6.605
 9689SOL    HW129966   1.283   5.057   6.512
 9689SOL    HW229967   1.219   4.957   6.624
 9690SOL     OW29968   5.856   5.448   0.167
 9690SOL    HW129969   5.830   5.369   0.110
 9690SOL    HW229970   5.902   5.415   0.250
 9691SOL     OW29971   3.043   5.151   1.206
 9691SOL    HW129972   3.048   5.092   1.126
 9691SOL    HW229973   3.127   5.140   1.261
 9692SOL     OW29974   3.876   5.328   2.826
 9692SOL    HW129975   3.925   5.284   2.751
 9692SOL    HW229976   3.814   5.263   2.869
 9693SOL     OW29977   6.069   5.182   1.687
 9693SOL    HW129978   6.087   5.100   1.633
 9693SOL    HW229979   6.073   5.160   1.784
 9694SOL     OW29980   2.341   1.070   0.440
 9694SOL    HW129981   2.343   1.169   0.427
 9694SOL    HW229982   2.429   1.031   0.413
 9695SOL     OW29983   0.017   3.391   2.990
 9695SOL    HW129984   0.061   3.459   2.931
 9695SOL    HW229985   7.007   3.433   3.077
 9696SOL     OW29986   5.257   3.524   0.995
 9696SOL    HW129987   5.215   3.579   1.067
 9696SOL    HW229988   5.317   3.582   0.939
 9697SOL     OW29989   0.632   5.301   6.777
 9697SOL    HW129990   0.721   5.330   6.741
 9697SOL    HW229991   0.634   5.203   6.797
 9698SOL     OW29992   4.511   1.436   6.057
 9698SOL    HW129993   4.535   1.489   6.138
 9698SOL    HW229994   4.545   1.482   5.976
 9699SOL     OW29995   6.980   4.920   6.760
 9699SOL    HW129996   0.030   4.990   6.784
 9699SOL    HW229997   6.920   4.902   6.839
 9700SOL     OW29998   4.763   5.496   4.953
 9700SOL    HW129999   4.807   5.507   4.864
 9700SOL    HW230000   4.781   5.405   4.989
 9701SOL     OW30001   4.090   5.146   5.556
 9701SOL    HW130002   3.994   5.153   5.582
 9701SOL    HW230003   4.099   5.079   5.482
 9702SOL     OW30004   4.616   0.693   6.921
 9702SOL    HW130005   4.675   0.760   6.874
 9702SOL    HW230006   4.670   0.612   6.944
 9703SOL     OW30007   4.440   4.529   3.308
 9703SOL    HW130008   4.380   4.463   3.262
 9703SOL    HW230009   4.511   4.479   3.358
 9704SOL     OW30010   3.583   1.079   2.823
 9704SOL    HW130011   3.665   1.133   2.845
 9704SOL    HW230012   3.554   1.029   2.905
 9705SOL     OW30013   6.104   4.236   6.252
 9705SOL    HW130014   6.088   4.209   6.157
 9705SOL    HW230015   6.083   4.333   6.263
 9706SOL     OW30016   0.766   3.543   0.623
 9706SOL    HW130017   0.765   3.489   0.707
 9706SOL    HW230018   0.692   3.514   0.563
 9707SOL     OW30019   6.903   4.721   2.171
 9707SOL    HW130020   6.851   4.771   2.102
 9707SOL    HW230021   6.998   4.711   2.139
 9708SOL     OW30022   1.476   2.191   2.499
 9708SOL    HW130023   1.509   2.282   2.475
 9708SOL    HW230024   1.385   2.198   2.540
 9709SOL     OW30025   6.067   6.493   3.373
 9709SOL    HW130026   5.993   6.529   3.430
 9709SOL    HW230027   6.116   6.569   3.329
 9710SOL     OW30028   0.133   0.570   1.941
 9710SOL    HW130029   0.082   0.517   2.009
 9710SOL    HW230030   0.170   0.653   1.984
 9711SOL     OW30031   2.082   4.966   5.688
 9711SOL    HW130032   2.163   5.021   5.668
 9711SOL    HW230033   2.090   4.878   5.642
 9712SOL     OW30034   5.873   3.576   6.764
 9712SOL    HW130035   5.827   3.554   6.850
 9712SOL    HW230036   5.810   3.625   6.704
 9713SOL     OW30037   0.858   4.923   3.505
 9713SOL    HW130038   0.854   5.016   3.467
 9713SOL    HW230039   0.857   4.928   3.604
 9714SOL     OW30040   3.184   0.109   0.170
 9714SOL    HW130041   3.138   0.106   0.259
 9714SOL    HW230042   3.160   0.027   0.118
 9715SOL     OW30043   5.157   3.612   6.550
 9715SOL    HW130044   5.256   3.609   6.558
 9715SOL    HW230045   5.124   3.701   6.582
 9716SOL     OW30046   4.054   3.385   0.233
 9716SOL    HW130047   3.964   3.429   0.244
 9716SOL    HW230048   4.116   3.449   0.187
 9717SOL     OW30049   5.391   6.197   6.262
 9717SOL    HW130050   5.312   6.186   6.202
 9717SOL    HW230051   5.367   6.256   6.339
 9718SOL     OW30052   4.981   2.600   0.333
 9718SOL    HW130053   5.010   2.507   0.309
 9718SOL    HW230054   4.881   2.605   0.334
 9719SOL     OW30055   6.583   1.746   5.486
 9719SOL    HW130056   6.641   1.819   5.523
 9719SOL    HW230057   6.627   1.657   5.503
 9720SOL     OW30058   6.730   5.342   2.183
 9720SOL    HW130059   6.820   5.312   2.216
 9720SOL    HW230060   6.742   5.416   2.116
 9721SOL     OW30061   0.251   1.872   1.353
 9721SOL    HW130062   0.334   1.899   1.404
 9721SOL    HW230063   0.176   1.857   1.418
 9722SOL     OW30064   6.430   0.717   4.339
 9722SOL    HW130065   6.342   0.732   4.384
 9722SOL    HW230066   6.504   0.753   4.395
 9723SOL     OW30067   1.973   6.931   2.621
 9723SOL    HW130068   1.955   6.846   2.570
 9723SOL    HW230069   1.975   7.008   2.557
 9724SOL     OW30070   1.757   4.739   0.437
 9724SOL    HW130071   1.726   4.808   0.372
 9724SOL    HW230072   1.812   4.671   0.390
 9725SOL     OW30073   3.864   4.861   6.271
 9725SOL    HW130074   3.782   4.846   6.327
 9725SOL    HW230075   3.944   4.824   6.318
 9726SOL     OW30076   5.260   0.802   4.147
 9726SOL    HW130077   5.192   0.859   4.193
 9726SOL    HW230078   5.316   0.859   4.086
 9727SOL     OW30079   1.042   3.931   5.960
 9727SOL    HW130080   1.101   3.976   5.893
 9727SOL    HW230081   0.973   3.877   5.912
 9728SOL     OW30082   0.033   0.721   5.754
 9728SOL    HW130083   0.026   0.650   5.824
 9728SOL    HW230084   0.004   0.809   5.793
 9729SOL     OW30085   1.192   3.950   3.512
 9729SOL    HW130086   1.148   4.019   3.570
 9729SOL    HW230087   1.288   3.976   3.496
 9730SOL     OW30088   0.971   3.593   3.732
 9730SOL    HW130089   0.900   3.635   3.788
 9730SOL    HW230090   1.019   3.523   3.786
 9731SOL     OW30091   4.870   4.471   1.078
 9731SOL    HW130092   4.952   4.431   1.119
 9731SOL    HW230093   4.828   4.535   1.144
 9732SOL     OW30094   6.147   5.723   3.757
 9732SOL    HW130095   6.186   5.632   3.749
 9732SOL    HW230096   6.220   5.790   3.770
 9733SOL     OW30097   5.766   5.109   0.730
 9733SOL    HW130098   5.749   5.011   0.737
 9733SOL    HW230099   5.825   5.127   0.651
 9734SOL     OW30100   6.492   1.535   2.195
 9734SOL    HW130101   6.509   1.436   2.196
 9734SOL    HW230102   6.410   1.555   2.249
 9735SOL     OW30103   2.487   4.637   3.791
 9735SOL    HW130104   2.562   4.638   3.724
 9735SOL    HW230105   2.417   4.702   3.763
 9736SOL     OW30106   6.546   1.863   6.582
 9736SOL    HW130107   6.625   1.876   6.643
 9736SOL    HW230108   6.548   1.933   6.510
 9737SOL     OW30109   5.785   2.836   3.498
 9737SOL    HW130110   5.740   2.806   3.582
 9737SOL    HW230111   5.753   2.780   3.421
 9738SOL     OW30112   1.448   7.013   1.437
 9738SOL    HW130113   1.410   6.920   1.432
 9738SOL    HW230114   1.499   0.016   1.353
 9739SOL     OW30115   6.197   4.739   2.128
 9739SOL    HW130116   6.103   4.705   2.136
 9739SOL    HW230117   6.246   4.724   2.214
 9740SOL     OW30118   6.566   1.758   2.984
 9740SOL    HW130119   6.603   1.776   3.075
 9740SOL    HW230120   6.470   1.784   2.981
 9741SOL     OW30121   4.020   1.211   3.204
 9741SOL    HW130122   4.015   1.176   3.110
 9741SOL    HW230123   3.930   1.208   3.246
 9742SOL     OW30124   4.435   0.055   0.660
 9742SOL    HW130125   4.446   0.127   0.591
 9742SOL    HW230126   4.506   0.064   0.730
 9743SOL     OW30127   0.573   2.128   5.287
 9743SOL    HW130128   0.649   2.192   5.291
 9743SOL    HW230129   0.609   2.034   5.283
 9744SOL     OW30130   0.172   6.981   2.742
 9744SOL    HW130131   0.223   6.911   2.693
 9744SOL    HW230132   0.167   0.047   2.685
 9745SOL     OW30133   5.933   2.275   5.260
 9745SOL    HW130134   5.854   2.221   5.289
 9745SOL    HW230135   5.925   2.296   5.162
 9746SOL     OW30136   6.325   0.918   5.588
 9746SOL    HW130137   6.298   1.001   5.540
 9746SOL    HW230138   6.243   0.869   5.619
 9747SOL     OW30139   2.426   0.929   1.479
 9747SOL    HW130140   2.384   0.861   1.419
 9747SOL    HW230141   2.383   1.018   1.464
 9748SOL     OW30142   0.532   1.222   3.268
 9748SOL    HW130143   0.603   1.268   3.320
 9748SOL    HW230144   0.450   1.280   3.265
 9749SOL     OW30145   2.224   1.340   5.223
 9749SOL    HW130146   2.291   1.286   5.172
 9749SOL    HW230147   2.162   1.385   5.159
 9750SOL     OW30148   5.653   4.581   3.674
 9750SOL    HW130149   5.602   4.495   3.685
 9750SOL    HW230150   5.686   4.588   3.579
 9751SOL     OW30151   0.485   1.071   0.914
 9751SOL    HW130152   0.509   1.112   0.826
 9751SOL    HW230153   0.464   0.974   0.902
 9752SOL     OW30154   4.644   1.770   5.598
 9752SOL    HW130155   4.742   1.750   5.602
 9752SOL    HW230156   4.611   1.794   5.690
 9753SOL     OW30157   5.511   5.971   5.621
 9753SOL    HW130158   5.473   6.062   5.639
 9753SOL    HW230159   5.539   5.965   5.525
 9754SOL     OW30160   1.053   1.204   6.420
 9754SOL    HW130161   1.057   1.300   6.444
 9754SOL    HW230162   1.064   1.148   6.502
 9755SOL     OW30163   4.098   3.284   4.841
 9755SOL    HW130164   4.177   3.226   4.823
 9755SOL    HW230165   4.100   3.314   4.937
 9756SOL     OW30166   6.452   3.484   0.717
 9756SOL    HW130167   6.451   3.507   0.619
 9756SOL    HW230168   6.539   3.512   0.757
 9757SOL     OW30169   6.007   3.616   3.721
 9757SOL    HW130170   6.013   3.714   3.739
 9757SOL    HW230171   6.086   3.569   3.761
 9758SOL     OW30172   2.491   0.217   6.642
 9758SOL    HW130173   2.589   0.201   6.627
 9758SOL    HW230174   2.443   0.214   6.554
 9759SOL     OW30175   1.788   6.722   6.820
 9759SOL    HW130176   1.857   6.792   6.837
 9759SOL    HW230177   1.814   6.637   6.866
 9760SOL     OW30178   4.693   2.878   5.175
 9760SOL    HW130179   4.738   2.800   5.132
 9760SOL    HW230180   4.729   2.891   5.267
 9761SOL     OW30181   5.917   0.841   2.352
 9761SOL    HW130182   5.948   0.899   2.428
 9761SOL    HW230183   5.846   0.779   2.385
 9762SOL     OW30184   3.612   1.592   4.257
 9762SOL    HW130185   3.644   1.569   4.349
 9762SOL    HW230186   3.518   1.625   4.261
 9763SOL     OW30187   5.041   2.295   2.000
 9763SOL    HW130188   4.990   2.246   1.929
 9763SOL    HW230189   5.135   2.260   2.004
 9764SOL     OW30190   0.328   2.818   2.816
 9764SOL    HW130191   0.336   2.880   2.738
 9764SOL    HW230192   0.279   2.735   2.788
 9765SOL     OW30193   6.706   1.451   3.105
 9765SOL    HW130194   6.727   1.357   3.076
 9765SOL    HW230195   6.753   1.470   3.191
 9766SOL     OW30196   2.720   0.386   2.878
 9766SOL    HW130197   2.707   0.352   2.785
 9766SOL    HW230198   2.768   0.317   2.933
 9767SOL     OW30199   4.854   1.354   5.512
 9767SOL    HW130200   4.825   1.263   5.541
 9767SOL    HW230201   4.775   1.416   5.511
 9768SOL     OW30202   5.955   2.091   3.282
 9768SOL    HW130203   5.857   2.107   3.272
 9768SOL    HW230204   6.005   2.148   3.217
 9769SOL     OW30205   2.955   0.831   2.930
 9769SOL    HW130206   2.893   0.759   2.962
 9769SOL    HW230207   2.990   0.807   2.840
 9770SOL     OW30208   5.791   6.803   6.786
 9770SOL    HW130209   5.872   6.750   6.811
 9770SOL    HW230210   5.739   6.754   6.716
 9771SOL     OW30211   2.751   5.168   1.180
 9771SOL    HW130212   2.705   5.187   1.093
 9771SOL    HW230213   2.849   5.157   1.165
 9772SOL     OW30214   1.094   5.947   2.850
 9772SOL    HW130215   1.079   5.888   2.770
 9772SOL    HW230216   1.098   5.890   2.932
 9773SOL     OW30217   5.495   5.778   4.496
 9773SOL    HW130218   5.524   5.843   4.425
 9773SOL    HW230219   5.395   5.767   4.491
 9774SOL     OW30220   0.036   4.885   1.914
 9774SOL    HW130221   6.955   4.869   1.930
 9774SOL    HW230222   0.063   4.973   1.952
 9775SOL     OW30223   2.119   0.717   3.631
 9775SOL    HW130224   2.137   0.814   3.615
 9775SOL    HW230225   2.024   0.706   3.662
 9776SOL     OW30226   1.010   4.586   4.168
 9776SOL    HW130227   0.918   4.585   4.130
 9776SOL    HW230228   1.008   4.549   4.261
 9777SOL     OW30229   5.935   4.431   6.077
 9777SOL    HW130230   5.885   4.438   5.990
 9777SOL    HW230231   6.005   4.503   6.081
 9778SOL     OW30232   0.363   0.849   3.452
 9778SOL    HW130233   0.447   0.903   3.444
 9778SOL    HW230234   0.374   0.763   3.403
 9779SOL     OW30235   1.681   1.153   5.043
 9779SOL    HW130236   1.712   1.190   5.131
 9779SOL    HW230237   1.603   1.205   5.011
 9780SOL     OW30238   2.907   1.634   1.181
 9780SOL    HW130239   2.895   1.732   1.201
 9780SOL    HW230240   2.895   1.581   1.265
 9781SOL     OW30241   1.688   3.788   4.341
 9781SOL    HW130242   1.678   3.733   4.258
 9781SOL    HW230243   1.725   3.877   4.318
 9782SOL     OW30244   6.716   0.849   1.511
 9782SOL    HW130245   6.642   0.794   1.473
 9782SOL    HW230246   6.804   0.813   1.481
 9783SOL     OW30247   4.990   2.059   3.068
 9783SOL    HW130248   5.031   2.022   3.151
 9783SOL    HW230249   5.006   2.158   3.064
 9784SOL     OW30250   4.124   1.382   4.449
 9784SOL    HW130251   4.059   1.363   4.375
 9784SOL    HW230252   4.130   1.303   4.509
 9785SOL     OW30253   0.782   3.406   5.881
 9785SOL    HW130254   0.770   3.486   5.940
 9785SOL    HW230255   0.773   3.434   5.785
 9786SOL     OW30256   2.599   4.552   0.295
 9786SOL    HW130257   2.671   4.619   0.313
 9786SOL    HW230258   2.516   4.578   0.344
 9787SOL     OW30259   4.819   3.626   1.692
 9787SOL    HW130260   4.842   3.710   1.643
 9787SOL    HW230261   4.803   3.552   1.626
 9788SOL     OW30262   0.691   0.535   3.486
 9788SOL    HW130263   0.768   0.523   3.548
 9788SOL    HW230264   0.725   0.560   3.395
 9789SOL     OW30265   1.245   5.309   0.468
 9789SOL    HW130266   1.323   5.332   0.526
 9789SOL    HW230267   1.178   5.384   0.471
 9790SOL     OW30268   5.856   4.091   5.819
 9790SOL    HW130269   5.873   4.187   5.799
 9790SOL    HW230270   5.807   4.083   5.906
 9791SOL     OW30271   0.447   0.772   3.055
 9791SOL    HW130272   0.527   0.820   3.092
 9791SOL    HW230273   0.460   0.755   2.958
 9792SOL     OW30274   5.460   5.604   1.948
 9792SOL    HW130275   5.493   5.686   1.994
 9792SOL    HW230276   5.511   5.591   1.863
 9793SOL     OW30277   5.399   5.745   3.495
 9793SOL    HW130278   5.424   5.701   3.409
 9793SOL    HW230279   5.312   5.793   3.484
 9794SOL     OW30280   6.600   3.892   0.491
 9794SOL    HW130281   6.635   3.945   0.569
 9794SOL    HW230282   6.668   3.892   0.418
 9795SOL     OW30283   2.137   2.054   4.256
 9795SOL    HW130284   2.078   1.984   4.217
 9795SOL    HW230285   2.226   2.052   4.212
 9796SOL     OW30286   4.451   2.264   1.348
 9796SOL    HW130287   4.381   2.231   1.412
 9796SOL    HW230288   4.451   2.207   1.266
 9797SOL     OW30289   2.630   5.172   6.810
 9797SOL    HW130290   2.727   5.149   6.803
 9797SOL    HW230291   2.593   5.133   6.895
 9798SOL     OW30292   2.934   0.418   1.259
 9798SOL    HW130293   2.901   0.339   1.310
 9798SOL    HW230294   3.002   0.468   1.313
 9799SOL     OW30295   3.348   4.114   3.229
 9799SOL    HW130296   3.298   4.106   3.143
 9799SOL    HW230297   3.404   4.032   3.242
 9800SOL     OW30298   3.568   6.171   4.542
 9800SOL    HW130299   3.511   6.213   4.471
 9800SOL    HW230300   3.556   6.219   4.629
 9801SOL     OW30301   4.621   3.880   0.170
 9801SOL    HW130302   4.643   3.860   0.266
 9801SOL    HW230303   4.545   3.946   0.167
 9802SOL     OW30304   1.069   3.102   1.470
 9802SOL    HW130305   1.104   3.009   1.466
 9802SOL    HW230306   1.064   3.140   1.377
 9803SOL     OW30307   6.917   2.192   6.756
 9803SOL    HW130308   6.914   2.253   6.677
 9803SOL    HW230309   6.994   2.217   6.815
 9804SOL     OW30310   0.911   6.404   2.941
 9804SOL    HW130311   0.957   6.466   3.005
 9804SOL    HW230312   0.959   6.405   2.853
 9805SOL     OW30313   0.848   6.812   5.680
 9805SOL    HW130314   0.869   6.894   5.733
 9805SOL    HW230315   0.885   6.732   5.727
 9806SOL     OW30316   1.324   1.049   1.254
 9806SOL    HW130317   1.342   1.066   1.157
 9806SOL    HW230318   1.300   0.953   1.268
 9807SOL     OW30319   2.531   3.202   0.268
 9807SOL    HW130320   2.601   3.204   0.196
 9807SOL    HW230321   2.483   3.290   0.271
 9808SOL     OW30322   4.619   0.729   5.341
 9808SOL    HW130323   4.717   0.721   5.323
 9808SOL    HW230324   4.567   0.699   5.261
 9809SOL     OW30325   1.032   2.209   6.534
 9809SOL    HW130326   1.004   2.259   6.452
 9809SOL    HW230327   0.971   2.132   6.549
 9810SOL     OW30328   2.432   2.635   4.043
 9810SOL    HW130329   2.369   2.557   4.043
 9810SOL    HW230330   2.523   2.604   4.013
 9811SOL     OW30331   5.921   5.097   3.769
 9811SOL    HW130332   5.872   5.183   3.754
 9811SOL    HW230333   5.946   5.089   3.866
 9812SOL     OW30334   3.207   2.444   5.741
 9812SOL    HW130335   3.173   2.454   5.835
 9812SOL    HW230336   3.168   2.516   5.685
 9813SOL     OW30337   5.925   0.889   6.615
 9813SOL    HW130338   5.932   0.794   6.585
 9813SOL    HW230339   5.899   0.891   6.712
 9814SOL     OW30340   0.418   0.857   0.333
 9814SOL    HW130341   0.424   0.952   0.365
 9814SOL    HW230342   0.343   0.811   0.381
 9815SOL     OW30343   5.923   4.103   2.983
 9815SOL    HW130344   5.897   4.116   2.888
 9815SOL    HW230345   5.871   4.028   3.023
 9816SOL     OW30346   0.101   1.704   6.091
 9816SOL    HW130347   0.068   1.763   6.165
 9816SOL    HW230348   0.182   1.745   6.050
 9817SOL     OW30349   2.576   5.870   2.645
 9817SOL    HW130350   2.605   5.903   2.555
 9817SOL    HW230351   2.478   5.848   2.643
 9818SOL     OW30352   1.786   0.825   4.267
 9818SOL    HW130353   1.782   0.864   4.358
 9818SOL    HW230354   1.769   0.897   4.199
 9819SOL     OW30355   4.800   2.964   4.347
 9819SOL    HW130356   4.845   3.033   4.404
 9819SOL    HW230357   4.772   3.005   4.261
 9820SOL     OW30358   3.568   3.385   5.989
 9820SOL    HW130359   3.601   3.397   6.083
 9820SOL    HW230360   3.624   3.317   5.943
 9821SOL     OW30361   4.950   0.826   0.686
 9821SOL    HW130362   4.902   0.871   0.611
 9821SOL    HW230363   4.887   0.765   0.735
 9822SOL     OW30364   2.484   5.684   3.524
 9822SOL    HW130365   2.487   5.664   3.426
 9822SOL    HW230366   2.542   5.619   3.573
 9823SOL     OW30367   2.493   0.297   1.452
 9823SOL    HW130368   2.403   0.274   1.487
 9823SOL    HW230369   2.491   0.387   1.409
 9824SOL     OW30370   1.609   5.612   4.477
 9824SOL    HW130371   1.627   5.711   4.475
 9824SOL    HW230372   1.696   5.563   4.490
 9825SOL     OW30373   5.235   6.551   4.031
 9825SOL    HW130374   5.252   6.637   4.080
 9825SOL    HW230375   5.310   6.487   4.049
 9826SOL     OW30376   3.789   6.294   5.304
 9826SOL    HW130377   3.860   6.250   5.359
 9826SOL    HW230378   3.701   6.286   5.351
 9827SOL     OW30379   1.661   3.944   3.275
 9827SOL    HW130380   1.714   3.939   3.360
 9827SOL    HW230381   1.707   4.006   3.211
 9828SOL     OW30382   3.335   2.552   5.360
 9828SOL    HW130383   3.294   2.496   5.288
 9828SOL    HW230384   3.270   2.621   5.390
 9829SOL     OW30385   4.958   5.849   6.589
 9829SOL    HW130386   4.934   5.789   6.512
 9829SOL    HW230387   4.885   5.916   6.603
 9830SOL     OW30388   5.464   1.467   2.025
 9830SOL    HW130389   5.538   1.423   1.974
 9830SOL    HW230390   5.432   1.548   1.975
 9831SOL     OW30391   0.971   4.890   2.653
 9831SOL    HW130392   1.061   4.906   2.693
 9831SOL    HW230393   0.945   4.970   2.598
 9832SOL     OW30394   5.197   5.604   1.834
 9832SOL    HW130395   5.285   5.595   1.878
 9832SOL    HW230396   5.210   5.612   1.735
 9833SOL     OW30397   3.429   3.579   3.220
 9833SOL    HW130398   3.497   3.513   3.186
 9833SOL    HW230399   3.347   3.530   3.250
 9834SOL     OW30400   2.042   4.455   5.266
 9834SOL    HW130401   1.969   4.486   5.205
 9834SOL    HW230402   2.113   4.525   5.270
 9835SOL     OW30403   3.648   3.169   4.340
 9835SOL    HW130404   3.734   3.136   4.299
 9835SOL    HW230405   3.578   3.098   4.332
 9836SOL     OW30406   0.639   4.158   4.398
 9836SOL    HW130407   0.659   4.156   4.300
 9836SOL    HW230408   0.625   4.064   4.430
 9837SOL     OW30409   4.637   0.753   2.787
 9837SOL    HW130410   4.709   0.711   2.842
 9837SOL    HW230411   4.610   0.840   2.828
 9838SOL     OW30412   1.429   6.944   0.241
 9838SOL    HW130413   1.369   6.947   0.162
 9838SOL    HW230414   1.383   6.895   0.316
 9839SOL     OW30415   4.823   6.468   3.301
 9839SOL    HW130416   4.789   6.554   3.265
 9839SOL    HW230417   4.784   6.392   3.249
 9840SOL     OW30418   5.388   2.067   0.786
 9840SOL    HW130419   5.348   2.129   0.719
 9840SOL    HW230420   5.402   2.115   0.872
 9841SOL     OW30421   1.315   4.400   4.241
 9841SOL    HW130422   1.343   4.488   4.280
 9841SOL    HW230423   1.240   4.361   4.295
 9842SOL     OW30424   3.585   3.439   1.471
 9842SOL    HW130425   3.640   3.435   1.555
 9842SOL    HW230426   3.488   3.440   1.495
 9843SOL     OW30427   6.455   0.071   1.641
 9843SOL    HW130428   6.359   0.078   1.615
 9843SOL    HW230429   6.512   0.061   1.560
 9844SOL     OW30430   6.256   1.594   3.868
 9844SOL    HW130431   6.308   1.515   3.900
 9844SOL    HW230432   6.318   1.662   3.830
 9845SOL     OW30433   1.594   1.666   3.602
 9845SOL    HW130434   1.657   1.615   3.544
 9845SOL    HW230435   1.500   1.639   3.582
 9846SOL     OW30436   4.663   2.200   0.802
 9846SOL    HW130437   4.656   2.143   0.720
 9846SOL    HW230438   4.574   2.204   0.848
 9847SOL     OW30439   4.011   3.629   2.299
 9847SOL    HW130440   3.922   3.675   2.307
 9847SOL    HW230441   4.046   3.609   2.391
 9848SOL     OW30442   4.377   4.733   6.073
 9848SOL    HW130443   4.471   4.752   6.044
 9848SOL    HW230444   4.360   4.777   6.162
 9849SOL     OW30445   0.880   0.325   6.375
 9849SOL    HW130446   0.952   0.295   6.438
 9849SOL    HW230447   0.885   0.270   6.291
 9850SOL     OW30448   0.288   0.874   3.962
 9850SOL    HW130449   0.348   0.860   3.883
 9850SOL    HW230450   0.222   0.946   3.941
 9851SOL     OW30451   2.193   0.412   4.392
 9851SOL    HW130452   2.278   0.388   4.440
 9851SOL    HW230453   2.186   0.358   4.308
 9852SOL     OW30454   1.526   1.615   4.941
 9852SOL    HW130455   1.497   1.658   4.856
 9852SOL    HW230456   1.623   1.633   4.956
 9853SOL     OW30457   6.671   3.280   4.997
 9853SOL    HW130458   6.673   3.292   5.096
 9853SOL    HW230459   6.762   3.251   4.965
 9854SOL     OW30460   0.294   5.971   4.133
 9854SOL    HW130461   0.366   5.905   4.109
 9854SOL    HW230462   0.238   5.989   4.052
 9855SOL     OW30463   2.360   3.679   0.389
 9855SOL    HW130464   2.457   3.675   0.365
 9855SOL    HW230465   2.350   3.715   0.481
 9856SOL     OW30466   5.197   4.748   3.891
 9856SOL    HW130467   5.114   4.793   3.923
 9856SOL    HW230468   5.276   4.806   3.910
 9857SOL     OW30469   5.255   2.456   2.741
 9857SOL    HW130470   5.256   2.523   2.815
 9857SOL    HW230471   5.188   2.483   2.673
 9858SOL     OW30472   0.329   6.692   1.201
 9858SOL    HW130473   0.394   6.737   1.262
 9858SOL    HW230474   0.236   6.719   1.225
 9859SOL     OW30475   6.822   5.367   3.848
 9859SOL    HW130476   6.733   5.378   3.803
 9859SOL    HW230477   6.809   5.366   3.947
 9860SOL     OW30478   1.803   2.361   4.912
 9860SOL    HW130479   1.723   2.396   4.961
 9860SOL    HW230480   1.872   2.331   4.978
 9861SOL     OW30481   2.823   0.163   3.011
 9861SOL    HW130482   2.919   0.171   3.035
 9861SOL    HW230483   2.769   0.145   3.093
 9862SOL     OW30484   2.453   4.201   0.195
 9862SOL    HW130485   2.548   4.170   0.203
 9862SOL    HW230486   2.392   4.125   0.215
 9863SOL     OW30487   3.321   5.837   1.470
 9863SOL    HW130488   3.303   5.909   1.402
 9863SOL    HW230489   3.363   5.877   1.551
 9864SOL     OW30490   3.210   0.464   4.890
 9864SOL    HW130491   3.162   0.454   4.802
 9864SOL    HW230492   3.306   0.485   4.872
 9865SOL     OW30493   1.217   6.521   4.017
 9865SOL    HW130494   1.249   6.442   3.964
 9865SOL    HW230495   1.290   6.552   4.077
 9866SOL     OW30496   6.186   4.389   5.782
 9866SOL    HW130497   6.214   4.311   5.726
 9866SOL    HW230498   6.263   4.418   5.839
 9867SOL     OW30499   6.320   1.698   2.631
 9867SOL    HW130500   6.302   1.795   2.616
 9867SOL    HW230501   6.233   1.650   2.641
 9868SOL     OW30502   0.990   3.175   4.423
 9868SOL    HW130503   1.007   3.271   4.401
 9868SOL    HW230504   1.071   3.136   4.467
 9869SOL     OW30505   0.485   2.639   1.067
 9869SOL    HW130506   0.464   2.567   1.000
 9869SOL    HW230507   0.563   2.610   1.123
 9870SOL     OW30508   4.355   6.262   2.730
 9870SOL    HW130509   4.270   6.209   2.730
 9870SOL    HW230510   4.425   6.214   2.783
 9871SOL     OW30511   6.523   3.757   5.629
 9871SOL    HW130512   6.423   3.754   5.620
 9871SOL    HW230513   6.562   3.681   5.577
 9872SOL     OW30514   2.781   5.559   4.829
 9872SOL    HW130515   2.791   5.470   4.873
 9872SOL    HW230516   2.782   5.549   4.730
 9873SOL     OW30517   2.318   2.355   0.315
 9873SOL    HW130518   2.224   2.383   0.293
 9873SOL    HW230519   2.359   2.422   0.377
 9874SOL     OW30520   0.462   3.181   5.678
 9874SOL    HW130521   0.381   3.164   5.735
 9874SOL    HW230522   0.525   3.104   5.687
 9875SOL     OW30523   6.260   5.771   2.775
 9875SOL    HW130524   6.209   5.789   2.859
 9875SOL    HW230525   6.234   5.682   2.739
 9876SOL     OW30526   5.503   1.096   3.740
 9876SOL    HW130527   5.438   1.071   3.668
 9876SOL    HW230528   5.588   1.045   3.726
 9877SOL     OW30529   0.111   4.909   4.485
 9877SOL    HW130530   0.129   4.811   4.481
 9877SOL    HW230531   0.169   4.958   4.420
 9878SOL     OW30532   2.483   3.608   5.720
 9878SOL    HW130533   2.505   3.705   5.715
 9878SOL    HW230534   2.559   3.559   5.764
 9879SOL     OW30535   6.480   4.551   5.487
 9879SOL    HW130536   6.430   4.465   5.474
 9879SOL    HW230537   6.442   4.600   5.566
 9880SOL     OW30538   2.107   0.952   0.917
 9880SOL    HW130539   2.148   1.002   0.841
 9880SOL    HW230540   2.135   0.994   1.003
 9881SOL     OW30541   6.899   1.710   4.436
 9881SOL    HW130542   6.831   1.742   4.370
 9881SOL    HW230543   6.899   1.770   4.516
 9882SOL     OW30544   3.259   3.878   5.729
 9882SOL    HW130545   3.216   3.941   5.794
 9882SOL    HW230546   3.193   3.807   5.702
 9883SOL     OW30547   1.035   6.755   1.347
 9883SOL    HW130548   1.035   6.836   1.406
 9883SOL    HW230549   0.943   6.742   1.309
 9884SOL     OW30550   4.172   2.000   0.823
 9884SOL    HW130551   4.188   1.918   0.877
 9884SOL    HW230552   4.163   2.079   0.884
 9885SOL     OW30553   0.828   3.128   4.782
 9885SOL    HW130554   0.774   3.051   4.815
 9885SOL    HW230555   0.771   3.210   4.778
 9886SOL     OW30556   6.864   6.110   2.204
 9886SOL    HW130557   6.888   6.097   2.108
 9886SOL    HW230558   6.947   6.127   2.257
 9887SOL     OW30559   3.504   0.102   0.246
 9887SOL    HW130560   3.417   0.091   0.199
 9887SOL    HW230561   3.531   0.198   0.245
 9888SOL     OW30562   5.702   5.627   3.769
 9888SOL    HW130563   5.666   5.720   3.780
 9888SOL    HW230564   5.771   5.626   3.696
 9889SOL     OW30565   0.701   5.084   2.308
 9889SOL    HW130566   0.712   5.120   2.401
 9889SOL    HW230567   0.784   5.034   2.281
 9890SOL     OW30568   0.438   3.304   0.960
 9890SOL    HW130569   0.398   3.364   1.029
 9890SOL    HW230570   0.492   3.232   1.004
 9891SOL     OW30571   5.970   4.722   1.590
 9891SOL    HW130572   5.991   4.659   1.664
 9891SOL    HW230573   5.876   4.755   1.599
 9892SOL     OW30574   2.018   5.607   3.231
 9892SOL    HW130575   2.012   5.703   3.258
 9892SOL    HW230576   1.937   5.558   3.263
 9893SOL     OW30577   6.442   6.866   2.339
 9893SOL    HW130578   6.490   6.842   2.255
 9893SOL    HW230579   6.508   6.879   2.413
 9894SOL     OW30580   2.866   1.661   6.121
 9894SOL    HW130581   2.802   1.611   6.180
 9894SOL    HW230582   2.886   1.606   6.040
 9895SOL     OW30583   6.463   2.358   5.420
 9895SOL    HW130584   6.365   2.340   5.414
 9895SOL    HW230585   6.514   2.278   5.391
 9896SOL     OW30586   5.327   1.965   0.279
 9896SOL    HW130587   5.354   1.985   0.184
 9896SOL    HW230588   5.363   2.037   0.339
 9897SOL     OW30589   4.920   0.816   2.458
 9897SOL    HW130590   4.969   0.824   2.371
 9897SOL    HW230591   4.932   0.900   2.511
 9898SOL     OW30592   0.259   5.044   4.917
 9898SOL    HW130593   0.261   5.033   4.817
 9898SOL    HW230594   0.183   5.104   4.942
 9899SOL     OW30595   6.653   4.888   2.323
 9899SOL    HW130596   6.682   4.944   2.401
 9899SOL    HW230597   6.667   4.791   2.346
 9900SOL     OW30598   1.929   2.465   3.016
 9900SOL    HW130599   1.973   2.444   2.929
 9900SOL    HW230600   1.853   2.402   3.031
 9901SOL     OW30601   2.037   1.301   0.102
 9901SOL    HW130602   2.092   1.305   0.019
 9901SOL    HW230603   2.027   1.206   0.131
 9902SOL     OW30604   4.093   3.662   1.104
 9902SOL    HW130605   4.164   3.660   1.174
 9902SOL    HW230606   4.125   3.615   1.022
 9903SOL     OW30607   4.826   6.592   2.284
 9903SOL    HW130608   4.861   6.680   2.253
 9903SOL    HW230609   4.741   6.606   2.334
 9904SOL     OW30610   0.015   3.988   6.915
 9904SOL    HW130611   6.972   4.003   6.994
 9904SOL    HW230612   0.023   4.074   6.864
 9905SOL     OW30613   1.500   6.188   0.148
 9905SOL    HW130614   1.555   6.214   0.069
 9905SOL    HW230615   1.475   6.092   0.141
 9906SOL     OW30616   1.911   3.624   6.793
 9906SOL    HW130617   1.888   3.643   6.888
 9906SOL    HW230618   1.977   3.549   6.789
 9907SOL     OW30619   1.947   6.944   3.626
 9907SOL    HW130620   1.917   0.003   3.567
 9907SOL    HW230621   2.018   6.977   3.689
 9908SOL     OW30622   0.557   4.236   5.542
 9908SOL    HW130623   0.565   4.257   5.444
 9908SOL    HW230624   0.475   4.181   5.557
 9909SOL     OW30625   3.373   0.405   3.482
 9909SOL    HW130626   3.384   0.312   3.518
 9909SOL    HW230627   3.290   0.409   3.425
 9910SOL     OW30628   0.956   5.137   1.592
 9910SOL    HW130629   0.953   5.044   1.628
 9910SOL    HW230630   0.893   5.146   1.515
 9911SOL     OW30631   4.636   5.583   2.553
 9911SOL    HW130632   4.542   5.576   2.520
 9911SOL    HW230633   4.692   5.634   2.487
 9912SOL     OW30634   4.394   0.914   1.495
 9912SOL    HW130635   4.298   0.890   1.505
 9912SOL    HW230636   4.441   0.843   1.443
 9913SOL     OW30637   6.481   3.271   2.321
 9913SOL    HW130638   6.475   3.324   2.405
 9913SOL    HW230639   6.435   3.183   2.334
 9914SOL     OW30640   0.811   0.452   5.698
 9914SOL    HW130641   0.760   0.372   5.730
 9914SOL    HW230642   0.753   0.534   5.704
 9915SOL     OW30643   4.690   2.778   4.087
 9915SOL    HW130644   4.757   2.730   4.030
 9915SOL    HW230645   4.704   2.877   4.078
 9916SOL     OW30646   2.034   2.406   3.579
 9916SOL    HW130647   2.060   2.322   3.628
 9916SOL    HW230648   1.944   2.394   3.538
 9917SOL     OW30649   3.127   3.498   4.279
 9917SOL    HW130650   3.201   3.481   4.214
 9917SOL    HW230651   3.153   3.466   4.370
 9918SOL     OW30652   0.738   2.324   0.951
 9918SOL    HW130653   0.744   2.367   1.041
 9918SOL    HW230654   0.830   2.304   0.917
 9919SOL     OW30655   2.281   6.044   1.334
 9919SOL    HW130656   2.364   6.092   1.307
 9919SOL    HW230657   2.244   5.995   1.256
 9920SOL     OW30658   3.495   0.975   3.086
 9920SOL    HW130659   3.399   1.001   3.074
 9920SOL    HW230660   3.499   0.880   3.119
 9921SOL     OW30661   5.226   6.274   4.420
 9921SOL    HW130662   5.219   6.174   4.412
 9921SOL    HW230663   5.321   6.302   4.407
 9922SOL     OW30664   4.947   4.300   0.792
 9922SOL    HW130665   4.896   4.258   0.717
 9922SOL    HW230666   4.992   4.230   0.846
 9923SOL     OW30667   6.973   3.421   0.211
 9923SOL    HW130668   6.966   3.424   0.311
 9923SOL    HW230669   6.899   3.364   0.175
 9924SOL     OW30670   5.513   2.484   3.262
 9924SOL    HW130671   5.462   2.541   3.198
 9924SOL    HW230672   5.489   2.388   3.246
 9925SOL     OW30673   1.909   4.635   4.650
 9925SOL    HW130674   1.867   4.712   4.698
 9925SOL    HW230675   1.962   4.581   4.715
 9926SOL     OW30676   3.226   2.202   1.207
 9926SOL    HW130677   3.157   2.142   1.166
 9926SOL    HW230678   3.313   2.189   1.161
 9927SOL     OW30679   0.945   2.379   1.258
 9927SOL    HW130680   0.867   2.321   1.281
 9927SOL    HW230681   1.014   2.325   1.210
 9928SOL     OW30682   5.837   3.929   2.677
 9928SOL    HW130683   5.896   3.859   2.717
 9928SOL    HW230684   5.744   3.917   2.711
 9929SOL     OW30685   3.201   4.567   5.337
 9929SOL    HW130686   3.237   4.655   5.304
 9929SOL    HW230687   3.124   4.539   5.280
 9930SOL     OW30688   0.473   0.286   5.990
 9930SOL    HW130689   0.424   0.351   5.932
 9930SOL    HW230690   0.409   0.217   6.023
 9931SOL     OW30691   6.907   5.426   5.138
 9931SOL    HW130692   6.843   5.496   5.169
 9931SOL    HW230693   6.860   5.337   5.132
 9932SOL     OW30694   1.535   1.778   6.758
 9932SOL    HW130695   1.463   1.770   6.690
 9932SOL    HW230696   1.522   1.862   6.811
 9933SOL     OW30697   1.538   0.651   4.091
 9933SOL    HW130698   1.485   0.569   4.110
 9933SOL    HW230699   1.634   0.637   4.116
 9934SOL     OW30700   6.353   1.950   6.768
 9934SOL    HW130701   6.326   2.022   6.705
 9934SOL    HW230702   6.415   1.886   6.721
 9935SOL     OW30703   2.134   0.918   0.441
 9935SOL    HW130704   2.216   0.972   0.459
 9935SOL    HW230705   2.155   0.821   0.452
 9936SOL     OW30706   6.526   5.159   6.578
 9936SOL    HW130707   6.498   5.088   6.643
 9936SOL    HW230708   6.626   5.163   6.575
 9937SOL     OW30709   1.603   0.668   3.200
 9937SOL    HW130710   1.549   0.586   3.182
 9937SOL    HW230711   1.544   0.748   3.201
 9938SOL     OW30712   5.583   0.470   4.110
 9938SOL    HW130713   5.489   0.505   4.112
 9938SOL    HW230714   5.638   0.527   4.050
 9939SOL     OW30715   2.480   3.140   1.081
 9939SOL    HW130716   2.452   3.116   1.174
 9939SOL    HW230717   2.406   3.119   1.018
 9940SOL     OW30718   0.781   0.836   3.636
 9940SOL    HW130719   0.843   0.771   3.590
 9940SOL    HW230720   0.698   0.787   3.664
 9941SOL     OW30721   2.801   5.367   5.579
 9941SOL    HW130722   2.725   5.414   5.623
 9941SOL    HW230723   2.887   5.400   5.618
 9942SOL     OW30724   4.583   5.257   2.075
 9942SOL    HW130725   4.625   5.188   2.134
 9942SOL    HW230726   4.496   5.286   2.115
 9943SOL     OW30727   0.941   4.094   6.486
 9943SOL    HW130728   1.031   4.120   6.519
 9943SOL    HW230729   0.948   4.061   6.392
 9944SOL     OW30730   6.707   5.565   6.449
 9944SOL    HW130731   6.635   5.614   6.399
 9944SOL    HW230732   6.667   5.521   6.529
 9945SOL     OW30733   5.568   3.843   6.722
 9945SOL    HW130734   5.528   3.762   6.680
 9945SOL    HW230735   5.545   3.845   6.819
 9946SOL     OW30736   6.197   0.163   3.234
 9946SOL    HW130737   6.162   0.096   3.300
 9946SOL    HW230738   6.291   0.187   3.257
 9947SOL     OW30739   1.957   1.513   3.751
 9947SOL    HW130740   2.042   1.494   3.799
 9947SOL    HW230741   1.932   1.609   3.764
 9948SOL     OW30742   6.725   5.531   5.513
 9948SOL    HW130743   6.677   5.462   5.567
 9948SOL    HW230744   6.823   5.526   5.532
 9949SOL     OW30745   6.967   5.232   4.190
 9949SOL    HW130746   0.024   5.245   4.256
 9949SOL    HW230747   6.991   5.157   4.128
 9950SOL     OW30748   6.870   5.251   5.673
 9950SOL    HW130749   6.804   5.313   5.715
 9950SOL    HW230750   6.938   5.305   5.621
 9951SOL     OW30751   1.710   2.061   2.574
 9951SOL    HW130752   1.629   2.093   2.525
 9951SOL    HW230753   1.768   2.008   2.512
 9952SOL     OW30754   1.647   4.378   1.308
 9952SOL    HW130755   1.573   4.402   1.246
 9952SOL    HW230756   1.627   4.412   1.400
 9953SOL     OW30757   5.390   2.736   3.892
 9953SOL    HW130758   5.419   2.716   3.986
 9953SOL    HW230759   5.306   2.686   3.872
 9954SOL     OW30760   1.559   0.521   4.789
 9954SOL    HW130761   1.541   0.423   4.797
 9954SOL    HW230762   1.475   0.572   4.811
 9955SOL     OW30763   4.303   3.803   6.594
 9955SOL    HW130764   4.257   3.891   6.604
 9955SOL    HW230765   4.253   3.746   6.528
 9956SOL     OW30766   0.743   3.737   2.424
 9956SOL    HW130767   0.645   3.749   2.409
 9956SOL    HW230768   0.792   3.817   2.388
 9957SOL     OW30769   5.422   6.872   2.189
 9957SOL    HW130770   5.421   6.806   2.113
 9957SOL    HW230771   5.488   6.944   2.169
 9958SOL     OW30772   2.960   5.971   5.580
 9958SOL    HW130773   3.006   6.007   5.661
 9958SOL    HW230774   2.983   5.875   5.569
 9959SOL     OW30775   4.054   3.246   2.479
 9959SOL    HW130776   4.018   3.278   2.567
 9959SOL    HW230777   4.154   3.241   2.484
 9960SOL     OW30778   0.599   6.287   1.119
 9960SOL    HW130779   0.519   6.348   1.114
 9960SOL    HW230780   0.610   6.240   1.031
 9961SOL     OW30781   2.426   4.496   2.467
 9961SOL    HW130782   2.342   4.511   2.518
 9961SOL    HW230783   2.490   4.570   2.486
 9962SOL     OW30784   3.638   0.688   2.008
 9962SOL    HW130785   3.706   0.629   2.053
 9962SOL    HW230786   3.685   0.756   1.952
 9963SOL     OW30787   2.664   3.645   6.379
 9963SOL    HW130788   2.654   3.612   6.286
 9963SOL    HW230789   2.573   3.652   6.422
 9964SOL     OW30790   3.778   4.612   5.803
 9964SOL    HW130791   3.854   4.548   5.817
 9964SOL    HW230792   3.759   4.660   5.888
 9965SOL     OW30793   3.109   5.391   4.574
 9965SOL    HW130794   3.187   5.442   4.613
 9965SOL    HW230795   3.142   5.330   4.503
 9966SOL     OW30796   2.529   5.497   1.715
 9966SOL    HW130797   2.598   5.426   1.717
 9966SOL    HW230798   2.460   5.479   1.785
 9967SOL     OW30799   6.363   4.992   2.774
 9967SOL    HW130800   6.436   5.058   2.790
 9967SOL    HW230801   6.275   5.035   2.794
 9968SOL     OW30802   3.938   5.806   6.323
 9968SOL    HW130803   4.015   5.770   6.271
 9968SOL    HW230804   3.859   5.817   6.263
 9969SOL     OW30805   1.641   2.745   4.708
 9969SOL    HW130806   1.698   2.674   4.667
 9969SOL    HW230807   1.699   2.807   4.761
 9970SOL     OW30808   6.993   4.696   1.645
 9970SOL    HW130809   6.898   4.725   1.637
 9970SOL    HW230810   7.006   4.645   1.730
 9971SOL     OW30811   2.537   3.824   1.143
 9971SOL    HW130812   2.635   3.845   1.146
 9971SOL    HW230813   2.504   3.834   1.049
 9972SOL     OW30814   2.878   4.568   0.615
 9972SOL    HW130815   2.802   4.631   0.603
 9972SOL    HW230816   2.848   4.489   0.668
 9973SOL     OW30817   3.922   2.026   4.532
 9973SOL    HW130818   4.006   2.055   4.578
 9973SOL    HW230819   3.844   2.078   4.568
 9974SOL     OW30820   6.912   3.097   3.059
 9974SOL    HW130821   6.815   3.088   3.034
 9974SOL    HW230822   6.929   3.188   3.097
 9975SOL     OW30823   0.309   4.763   6.750
 9975SOL    HW130824   0.370   4.719   6.816
 9975SOL    HW230825   0.289   4.699   6.676
 9976SOL     OW30826   0.405   5.076   5.409
 9976SOL    HW130827   0.321   5.041   5.450
 9976SOL    HW230828   0.475   5.005   5.408
 9977SOL     OW30829   6.063   5.294   6.044
 9977SOL    HW130830   5.970   5.307   6.079
 9977SOL    HW230831   6.061   5.230   5.967
 9978SOL     OW30832   6.335   1.447   5.363
 9978SOL    HW130833   6.325   1.507   5.442
 9978SOL    HW230834   6.372   1.499   5.286
 9979SOL     OW30835   6.932   4.059   6.399
 9979SOL    HW130836   6.999   3.984   6.404
 9979SOL    HW230837   6.883   4.066   6.486
 9980SOL     OW30838   1.692   0.510   0.757
 9980SOL    HW130839   1.671   0.602   0.789
 9980SOL    HW230840   1.619   0.447   0.785
 9981SOL     OW30841   2.970   2.217   0.504
 9981SOL    HW130842   2.994   2.314   0.509
 9981SOL    HW230843   3.024   2.166   0.571
 9982SOL     OW30844   1.127   1.146   3.863
 9982SOL    HW130845   1.223   1.123   3.883
 9982SOL    HW230846   1.078   1.158   3.949
 9983SOL     OW30847   0.645   1.149   2.260
 9983SOL    HW130848   0.562   1.152   2.205
 9983SOL    HW230849   0.718   1.200   2.213
 9984SOL     OW30850   0.651   6.962   0.340
 9984SOL    HW130851   0.614   6.870   0.357
 9984SOL    HW230852   0.622   6.994   0.250
 9985SOL     OW30853   3.147   6.418   1.370
 9985SOL    HW130854   3.233   6.452   1.408
 9985SOL    HW230855   3.114   6.481   1.300
 9986SOL     OW30856   5.933   4.723   0.545
 9986SOL    HW130857   6.020   4.766   0.521
 9986SOL    HW230858   5.885   4.779   0.613
 9987SOL     OW30859   6.517   1.929   2.727
 9987SOL    HW130860   6.509   1.894   2.820
 9987SOL    HW230861   6.451   2.003   2.713
 9988SOL     OW30862   6.846   5.612   4.450
 9988SOL    HW130863   6.756   5.638   4.414
 9988SOL    HW230864   6.911   5.686   4.433
 9989SOL     OW30865   6.157   3.988   2.660
 9989SOL    HW130866   6.085   4.050   2.691
 9989SOL    HW230867   6.222   3.972   2.734
 9990SOL     OW30868   2.361   6.693   3.758
 9990SOL    HW130869   2.269   6.679   3.722
 9990SOL    HW230870   2.376   6.633   3.837
 9991SOL     OW30871   1.981   3.242   4.150
 9991SOL    HW130872   2.028   3.170   4.098
 9991SOL    HW230873   1.988   3.223   4.247
 9992SOL     OW30874   4.225   3.531   0.613
 9992SOL    HW130875   4.216   3.432   0.602
 9992SOL    HW230876   4.320   3.558   0.595
 9993SOL     OW30877   3.745   6.454   3.272
 9993SOL    HW130878   3.690   6.461   3.355
 9993SOL    HW230879   3.824   6.515   3.278
 9994SOL     OW30880   6.988   3.948   2.897
 9994SOL    HW130881   7.015   3.852   2.887
 9994SOL    HW230882   6.981   3.990   2.806
 9995SOL     OW30883   3.305   6.961   3.734
 9995SOL    HW130884   3.247   6.890   3.694
 9995SOL    HW230885   3.333   6.932   3.826
 9996SOL     OW30886   2.882   3.488   1.468
 9996SOL    HW130887   2.862   3.530   1.557
 9996SOL    HW230888   2.886   3.389   1.478
 9997SOL     OW30889   4.909   1.133   1.629
 9997SOL    HW130890   4.883   1.228   1.648
 9997SOL    HW230891   5.004   1.118   1.656
 9998SOL     OW30892   5.541   3.925   2.363
 9998SOL    HW130893   5.633   3.891   2.346
 9998SOL    HW230894   5.545   4.021   2.388
 9999SOL     OW30895   0.212   5.915   5.023
 9999SOL    HW130896   0.310   5.899   5.015
 9999SOL    HW230897   0.187   5.997   4.971
10000SOL     OW30898   5.757   1.979   6.541
10000SOL    HW130899   5.721   1.965   6.448
10000SOL    HW230900   5.848   1.939   6.547
10001SOL     OW30901   4.140   0.785   1.471
10001SOL    HW130902   4.046   0.791   1.505
10001SOL    HW230903   4.150   0.704   1.413
10002SOL     OW30904   1.408   1.051   1.792
10002SOL    HW130905   1.396   1.118   1.719
10002SOL    HW230906   1.455   1.094   1.870
10003SOL     OW30907   2.978   2.197   2.347
10003SOL    HW130908   3.055   2.142   2.314
10003SOL    HW230909   2.937   2.247   2.271
10004SOL     OW30910   5.557   3.070   5.082
10004SOL    HW130911   5.600   3.053   4.994
10004SOL    HW230912   5.493   3.146   5.075
10005SOL     OW30913   3.154   5.717   2.441
10005SOL    HW130914   3.093   5.644   2.410
10005SOL    HW230915   3.211   5.748   2.365
10006SOL     OW30916   5.818   0.443   5.602
10006SOL    HW130917   5.912   0.413   5.584
10006SOL    HW230918   5.788   0.408   5.691
10007SOL     OW30919   0.803   3.086   4.055
10007SOL    HW130920   0.825   3.141   3.974
10007SOL    HW230921   0.772   2.995   4.027
10008SOL     OW30922   4.301   1.044   3.194
10008SOL    HW130923   4.281   1.062   3.290
10008SOL    HW230924   4.215   1.048   3.141
10009SOL     OW30925   1.747   4.673   1.663
10009SOL    HW130926   1.705   4.738   1.727
10009SOL    HW230927   1.843   4.658   1.689
10010SOL     OW30928   2.156   5.960   0.168
10010SOL    HW130929   2.253   5.939   0.180
10010SOL    HW230930   2.135   5.965   0.070
10011SOL     OW30931   0.687   3.591   6.629
10011SOL    HW130932   0.781   3.607   6.599
10011SOL    HW230933   0.686   3.526   6.706
10012SOL     OW30934   5.298   6.659   2.291
10012SOL    HW130935   5.262   6.616   2.208
10012SOL    HW230936   5.358   6.735   2.266
10013SOL     OW30937   1.727   1.575   4.009
10013SOL    HW130938   1.820   1.608   3.989
10013SOL    HW230939   1.661   1.631   3.960
10014SOL     OW30940   0.691   1.702   1.367
10014SOL    HW130941   0.609   1.735   1.319
10014SOL    HW230942   0.672   1.699   1.465
10015SOL     OW30943   4.338   5.249   6.859
10015SOL    HW130944   4.345   5.341   6.897
10015SOL    HW230945   4.275   5.195   6.915
10016SOL     OW30946   1.292   0.616   4.346
10016SOL    HW130947   1.347   0.640   4.266
10016SOL    HW230948   1.261   0.699   4.392
10017SOL     OW30949   1.655   1.956   2.817
10017SOL    HW130950   1.655   1.999   2.727
10017SOL    HW230951   1.561   1.950   2.851
10018SOL     OW30952   6.736   4.429   6.330
10018SOL    HW130953   6.835   4.424   6.315
10018SOL    HW230954   6.708   4.355   6.391
10019SOL     OW30955   0.799   2.096   3.325
10019SOL    HW130956   0.873   2.137   3.379
10019SOL    HW230957   0.727   2.065   3.386
10020SOL     OW30958   0.248   0.900   1.471
10020SOL    HW130959   0.302   0.939   1.396
10020SOL    HW230960   0.309   0.864   1.541
10021SOL     OW30961   1.030   1.853   2.621
10021SOL    HW130962   0.974   1.775   2.594
10021SOL    HW230963   1.089   1.880   2.545
10022SOL     OW30964   3.825   6.728   0.946
10022SOL    HW130965   3.745   6.753   0.892
10022SOL    HW230966   3.905   6.723   0.887
10023SOL     OW30967   2.148   4.743   4.960
10023SOL    HW130968   2.090   4.677   4.913
10023SOL    HW230969   2.229   4.763   4.904
10024SOL     OW30970   1.876   6.240   1.935
10024SOL    HW130971   1.791   6.192   1.916
10024SOL    HW230972   1.953   6.176   1.932
10025SOL     OW30973   2.145   2.914   1.806
10025SOL    HW130974   2.140   2.917   1.706
10025SOL    HW230975   2.224   2.859   1.834
10026SOL     OW30976   4.863   6.828   3.046
10026SOL    HW130977   4.869   6.757   2.976
10026SOL    HW230978   4.883   6.917   3.006
10027SOL     OW30979   0.654   3.324   4.850
10027SOL    HW130980   0.625   3.388   4.779
10027SOL    HW230981   0.574   3.293   4.901
10028SOL     OW30982   1.511   1.873   2.096
10028SOL    HW130983   1.437   1.826   2.048
10028SOL    HW230984   1.598   1.853   2.051
10029SOL     OW30985   2.271   1.771   4.082
10029SOL    HW130986   2.366   1.767   4.050
10029SOL    HW230987   2.269   1.771   4.181
10030SOL     OW30988   3.077   0.133   4.762
10030SOL    HW130989   3.001   0.189   4.728
10030SOL    HW230990   3.121   0.087   4.686
10031SOL     OW30991   5.735   4.581   4.092
10031SOL    HW130992   5.691   4.503   4.049
10031SOL    HW230993   5.676   4.662   4.084
10032SOL     OW30994   3.625   0.631   5.065
10032SOL    HW130995   3.687   0.582   5.126
10032SOL    HW230996   3.664   0.720   5.042
10033SOL     OW30997   4.271   2.314   4.209
10033SOL    HW130998   4.363   2.311   4.171
10033SOL    HW230999   4.276   2.333   4.307
10034SOL     OW31000   3.524   0.325   4.104
10034SOL    HW131001   3.537   0.229   4.083
10034SOL    HW231002   3.611   0.373   4.098
10035SOL     OW31003   6.770   4.875   1.967
10035SOL    HW131004   6.738   4.966   1.941
10035SOL    HW231005   6.729   4.807   1.906
10036SOL     OW31006   6.395   0.710   1.096
10036SOL    HW131007   6.397   0.762   1.010
10036SOL    HW231008   6.347   0.623   1.081
10037SOL     OW31009   6.074   1.407   0.227
10037SOL    HW131010   6.053   1.448   0.138
10037SOL    HW231011   6.168   1.429   0.252
10038SOL     OW31012   4.315   0.934   6.289
10038SOL    HW131013   4.270   0.909   6.203
10038SOL    HW231014   4.246   0.944   6.361
10039SOL     OW31015   3.944   6.618   5.296
10039SOL    HW131016   3.905   6.665   5.375
10039SOL    HW231017   3.927   6.672   5.214
10040SOL     OW31018   4.206   5.764   6.104
10040SOL    HW131019   4.142   5.838   6.086
10040SOL    HW231020   4.298   5.791   6.075
10041SOL     OW31021   4.049   5.640   6.796
10041SOL    HW131022   4.094   5.630   6.707
10041SOL    HW231023   3.970   5.701   6.787
10042SOL     OW31024   1.362   2.066   5.132
10042SOL    HW131025   1.331   1.992   5.072
10042SOL    HW231026   1.381   2.148   5.078
10043SOL     OW31027   0.636   2.308   4.296
10043SOL    HW131028   0.552   2.257   4.316
10043SOL    HW231029   0.633   2.397   4.342
10044SOL     OW31030   3.013   1.559   4.909
10044SOL    HW131031   3.075   1.518   4.976
10044SOL    HW231032   2.974   1.643   4.947
10045SOL     OW31033   4.989   6.944   3.619
10045SOL    HW131034   4.926   6.888   3.566
10045SOL    HW231035   5.061   6.978   3.559
10046SOL     OW31036   1.801   3.487   1.306
10046SOL    HW131037   1.875   3.550   1.281
10046SOL    HW231038   1.714   3.536   1.307
10047SOL     OW31039   5.997   3.253   4.797
10047SOL    HW131040   6.062   3.317   4.839
10047SOL    HW231041   5.938   3.214   4.868
10048SOL     OW31042   6.110   1.310   2.524
10048SOL    HW131043   6.207   1.325   2.506
10048SOL    HW231044   6.062   1.398   2.521
10049SOL     OW31045   0.128   0.057   6.669
10049SOL    HW131046   0.218   0.032   6.704
10049SOL    HW231047   0.070   6.992   6.664
10050SOL     OW31048   5.774   2.585   4.350
10050SOL    HW131049   5.860   2.619   4.312
10050SOL    HW231050   5.768   2.486   4.335
10051SOL     OW31051   5.913   2.329   4.991
10051SOL    HW131052   5.869   2.277   4.919
10051SOL    HW231053   5.999   2.366   4.957
10052SOL     OW31054   2.522   2.180   2.773
10052SOL    HW131055   2.562   2.270   2.794
10052SOL    HW231056   2.422   2.186   2.780
10053SOL     OW31057   3.396   6.003   2.074
10053SOL    HW131058   3.330   6.072   2.105
10053SOL    HW231059   3.487   6.030   2.104
10054SOL     OW31060   5.132   5.143   6.289
10054SOL    HW131061   5.063   5.210   6.263
10054SOL    HW231062   5.143   5.144   6.389
10055SOL     OW31063   6.125   1.889   4.853
10055SOL    HW131064   6.070   1.938   4.785
10055SOL    HW231065   6.100   1.920   4.945
10056SOL     OW31066   5.661   4.288   3.005
10056SOL    HW131067   5.739   4.232   3.033
10056SOL    HW231068   5.616   4.326   3.086
10057SOL     OW31069   3.954   1.536   4.585
10057SOL    HW131070   3.945   1.620   4.532
10057SOL    HW231071   4.036   1.487   4.556
10058SOL     OW31072   0.346   3.969   4.608
10058SOL    HW131073   0.333   4.040   4.538
10058SOL    HW231074   0.442   3.967   4.635
10059SOL     OW31075   5.283   0.662   1.330
10059SOL    HW131076   5.321   0.751   1.304
10059SOL    HW231077   5.255   0.664   1.426
10060SOL     OW31078   1.434   1.447   1.149
10060SOL    HW131079   1.482   1.492   1.073
10060SOL    HW231080   1.501   1.403   1.209
10061SOL     OW31081   4.684   1.758   4.037
10061SOL    HW131082   4.763   1.814   4.060
10061SOL    HW231083   4.656   1.705   4.117
10062SOL     OW31084   6.348   0.425   4.305
10062SOL    HW131085   6.295   0.355   4.353
10062SOL    HW231086   6.344   0.510   4.356
10063SOL     OW31087   2.264   0.516   3.746
10063SOL    HW131088   2.234   0.587   3.682
10063SOL    HW231089   2.217   0.431   3.726
10064SOL     OW31090   5.126   6.825   6.929
10064SOL    HW131091   5.205   6.867   6.973
10064SOL    HW231092   5.100   6.743   6.979
10065SOL     OW31093   2.159   0.525   1.873
10065SOL    HW131094   2.255   0.499   1.866
10065SOL    HW231095   2.110   0.459   1.929
10066SOL     OW31096   0.945   2.246   3.911
10066SOL    HW131097   0.921   2.279   3.819
10066SOL    HW231098   0.862   2.216   3.958
10067SOL     OW31099   6.570   3.988   5.286
10067SOL    HW131100   6.610   3.925   5.220
10067SOL    HW231101   6.560   4.079   5.244
10068SOL     OW31102   0.491   3.348   3.426
10068SOL    HW131103   0.503   3.249   3.424
10068SOL    HW231104   0.517   3.387   3.338
10069SOL     OW31105   2.366   5.030   2.740
10069SOL    HW131106   2.272   5.062   2.757
10069SOL    HW231107   2.429   5.108   2.747
10070SOL     OW31108   6.354   6.679   5.000
10070SOL    HW131109   6.298   6.621   4.940
10070SOL    HW231110   6.362   6.637   5.090
10071SOL     OW31111   5.934   5.754   4.447
10071SOL    HW131112   5.935   5.695   4.366
10071SOL    HW231113   5.983   5.709   4.521
10072SOL     OW31114   6.977   6.649   3.857
10072SOL    HW131115   0.051   6.607   3.847
10072SOL    HW231116   6.906   6.579   3.851
10073SOL     OW31117   6.141   4.501   5.428
10073SOL    HW131118   6.226   4.448   5.433
10073SOL    HW231119   6.064   4.440   5.447
10074SOL     OW31120   1.435   0.650   5.524
10074SOL    HW131121   1.502   0.697   5.582
10074SOL    HW231122   1.453   0.673   5.429
10075SOL     OW31123   1.573   2.699   2.957
10075SOL    HW131124   1.639   2.705   2.882
10075SOL    HW231125   1.545   2.791   2.985
10076SOL     OW31126   0.160   0.456   4.484
10076SOL    HW131127   0.141   0.378   4.543
10076SOL    HW231128   0.139   0.432   4.389
10077SOL     OW31129   3.939   2.976   6.264
10077SOL    HW131130   3.939   3.056   6.204
10077SOL    HW231131   4.031   2.964   6.303
10078SOL     OW31132   0.568   5.865   3.716
10078SOL    HW131133   0.634   5.913   3.773
10078SOL    HW231134   0.492   5.926   3.693
10079SOL     OW31135   6.664   3.939   3.527
10079SOL    HW131136   6.566   3.942   3.511
10079SOL    HW231137   6.689   4.004   3.598
10080SOL     OW31138   4.296   1.324   5.886
10080SOL    HW131139   4.325   1.354   5.795
10080SOL    HW231140   4.375   1.322   5.948
10081SOL     OW31141   6.960   0.352   0.835
10081SOL    HW131142   7.015   0.386   0.759
10081SOL    HW231143   0.005   0.316   0.906
10082SOL     OW31144   0.418   5.382   1.592
10082SOL    HW131145   0.355   5.425   1.657
10082SOL    HW231146   0.400   5.418   1.500
10083SOL     OW31147   4.243   1.047   3.485
10083SOL    HW131148   4.266   0.959   3.527
10083SOL    HW231149   4.151   1.074   3.511
10084SOL     OW31150   1.927   1.067   5.426
10084SOL    HW131151   1.888   1.145   5.377
10084SOL    HW231152   1.911   1.078   5.524
10085SOL     OW31153   2.551   5.755   1.265
10085SOL    HW131154   2.543   5.816   1.343
10085SOL    HW231155   2.471   5.767   1.206
10086SOL     OW31156   4.275   5.899   2.252
10086SOL    HW131157   4.203   5.926   2.316
10086SOL    HW231158   4.362   5.936   2.282
10087SOL     OW31159   6.780   0.089   3.722
10087SOL    HW131160   6.785   0.123   3.816
10087SOL    HW231161   6.806   0.162   3.659
10088SOL     OW31162   6.625   0.143   1.412
10088SOL    HW131163   6.575   0.208   1.470
10088SOL    HW231164   6.584   0.142   1.321
10089SOL     OW31165   2.906   1.959   2.603
10089SOL    HW131166   2.844   1.978   2.679
10089SOL    HW231167   2.852   1.945   2.520
10090SOL     OW31168   1.093   4.964   1.922
10090SOL    HW131169   0.993   4.972   1.932
10090SOL    HW231170   1.128   5.047   1.879
10091SOL     OW31171   0.512   4.121   6.372
10091SOL    HW131172   0.564   4.136   6.456
10091SOL    HW231173   0.428   4.071   6.392
10092SOL     OW31174   2.195   2.238   5.459
10092SOL    HW131175   2.195   2.273   5.365
10092SOL    HW231176   2.197   2.315   5.523
10093SOL     OW31177   6.497   3.044   4.891
10093SOL    HW131178   6.556   3.110   4.843
10093SOL    HW231179   6.493   3.069   4.988
10094SOL     OW31180   3.373   6.066   1.762
10094SOL    HW131181   3.401   6.076   1.858
10094SOL    HW231182   3.318   5.983   1.752
10095SOL     OW31183   5.682   1.963   5.073
10095SOL    HW131184   5.754   1.911   5.026
10095SOL    HW231185   5.722   2.046   5.111
10096SOL     OW31186   4.425   5.517   3.026
10096SOL    HW131187   4.361   5.488   2.954
10096SOL    HW231188   4.482   5.440   3.054
10097SOL     OW31189   0.923   1.173   0.261
10097SOL    HW131190   0.987   1.243   0.229
10097SOL    HW231191   0.970   1.113   0.326
10098SOL     OW31192   2.542   0.077   5.249
10098SOL    HW131193   2.506   0.123   5.167
10098SOL    HW231194   2.472   0.077   5.320
10099SOL     OW31195   0.356   4.991   0.904
10099SOL    HW131196   0.365   4.912   0.966
10099SOL    HW231197   0.447   5.029   0.888
10100SOL     OW31198   4.438   6.977   4.914
10100SOL    HW131199   4.482   6.894   4.879
10100SOL    HW231200   4.474   0.040   4.865
10101SOL     OW31201   6.341   4.042   2.209
10101SOL    HW131202   6.319   4.105   2.135
10101SOL    HW231203   6.324   4.085   2.297
10102SOL     OW31204   0.561   1.331   2.716
10102SOL    HW131205   0.545   1.279   2.632
10102SOL    HW231206   0.500   1.299   2.787
10103SOL     OW31207   2.569   0.465   5.724
10103SOL    HW131208   2.495   0.398   5.725
10103SOL    HW231209   2.608   0.469   5.632
10104SOL     OW31210   1.999   1.808   4.192
10104SOL    HW131211   1.921   1.764   4.236
10104SOL    HW231212   2.083   1.760   4.219
10105SOL     OW31213   1.413   0.736   0.441
10105SOL    HW131214   1.399   0.825   0.399
10105SOL    HW231215   1.505   0.702   0.419
10106SOL     OW31216   3.541   6.465   0.095
10106SOL    HW131217   3.545   6.505   0.186
10106SOL    HW231218   3.463   6.402   0.089
10107SOL     OW31219   5.933   1.410   5.648
10107SOL    HW131220   6.008   1.454   5.697
10107SOL    HW231221   5.865   1.377   5.714
10108SOL     OW31222   6.374   0.304   6.971
10108SOL    HW131223   6.451   0.344   6.922
10108SOL    HW231224   6.323   0.376   0.001
10109SOL     OW31225   5.577   0.894   0.505
10109SOL    HW131226   5.647   0.848   0.560
10109SOL    HW231227   5.620   0.933   0.424
10110SOL     OW31228   3.960   4.913   4.818
10110SOL    HW131229   3.865   4.885   4.831
10110SOL    HW231230   3.975   4.937   4.722
10111SOL     OW31231   5.754   3.583   3.486
10111SOL    HW131232   5.746   3.484   3.470
10111SOL    HW231233   5.848   3.612   3.470
10112SOL     OW31234   5.609   3.829   3.630
10112SOL    HW131235   5.553   3.780   3.697
10112SOL    HW231236   5.658   3.762   3.573
10113SOL     OW31237   4.043   0.100   7.004
10113SOL    HW131238   3.968   0.067   0.044
10113SOL    HW231239   4.065   0.032   6.934
10114SOL     OW31240   4.754   1.713   1.236
10114SOL    HW131241   4.676   1.770   1.264
10114SOL    HW231242   4.838   1.768   1.239
10115SOL     OW31243   3.436   0.701   5.261
10115SOL    HW131244   3.478   0.643   5.192
10115SOL    HW231245   3.429   0.795   5.226
10116SOL     OW31246   0.530   6.604   0.033
10116SOL    HW131247   0.584   6.652   0.102
10116SOL    HW231248   0.574   6.614   6.960
10117SOL     OW31249   6.772   6.063   6.546
10117SOL    HW131250   6.673   6.061   6.537
10117SOL    HW231251   6.801   6.152   6.582
10118SOL     OW31252   2.298   4.805   2.279
10118SOL    HW131253   2.385   4.789   2.233
10118SOL    HW231254   2.223   4.774   2.221
10119SOL     OW31255   0.140   5.881   4.686
10119SOL    HW131256   0.158   5.960   4.745
10119SOL    HW231257   0.197   5.805   4.715
10120SOL     OW31258   2.132   3.468   4.499
10120SOL    HW131259   2.140   3.376   4.536
10120SOL    HW231260   2.154   3.467   4.401
10121SOL     OW31261   6.010   3.211   0.127
10121SOL    HW131262   6.023   3.188   0.030
10121SOL    HW231263   5.956   3.139   0.171
10122SOL     OW31264   6.006   2.991   2.509
10122SOL    HW131265   5.932   2.993   2.441
10122SOL    HW231266   6.083   2.940   2.473
10123SOL     OW31267   5.231   5.652   0.157
10123SOL    HW131268   5.227   5.618   0.251
10123SOL    HW231269   5.287   5.590   0.101
10124SOL     OW31270   1.474   4.481   0.472
10124SOL    HW131271   1.507   4.538   0.397
10124SOL    HW231272   1.551   4.439   0.519
10125SOL     OW31273   1.772   1.350   1.856
10125SOL    HW131274   1.816   1.273   1.900
10125SOL    HW231275   1.719   1.318   1.777
10126SOL     OW31276   6.825   6.997   6.785
10126SOL    HW131277   6.854   6.999   6.881
10126SOL    HW231278   6.817   0.074   6.751
10127SOL     OW31279   2.777   4.546   6.071
10127SOL    HW131280   2.853   4.481   6.073
10127SOL    HW231281   2.721   4.529   5.990
10128SOL     OW31282   2.766   1.192   0.004
10128SOL    HW131283   2.811   1.123   6.963
10128SOL    HW231284   2.698   1.148   0.062
10129SOL     OW31285   6.150   1.583   2.888
10129SOL    HW131286   6.094   1.661   2.859
10129SOL    HW231287   6.127   1.503   2.833
10130SOL     OW31288   1.452   2.501   1.153
10130SOL    HW131289   1.525   2.452   1.105
10130SOL    HW231290   1.483   2.593   1.175
10131SOL     OW31291   1.256   6.776   4.981
10131SOL    HW131292   1.268   6.736   5.072
10131SOL    HW231293   1.268   6.705   4.912
10132SOL     OW31294   3.366   0.532   3.999
10132SOL    HW131295   3.352   0.596   4.074
10132SOL    HW231296   3.441   0.469   4.022
10133SOL     OW31297   3.776   6.457   0.388
10133SOL    HW131298   3.771   6.554   0.413
10133SOL    HW231299   3.684   6.423   0.368
10134SOL     OW31300   6.627   6.863   2.560
10134SOL    HW131301   6.546   6.820   2.601
10134SOL    HW231302   6.672   6.799   2.498
10135SOL     OW31303   4.905   3.493   3.317
10135SOL    HW131304   4.856   3.424   3.369
10135SOL    HW231305   4.956   3.450   3.242
10136SOL     OW31306   5.390   1.263   2.554
10136SOL    HW131307   5.447   1.331   2.510
10136SOL    HW231308   5.400   1.175   2.506
10137SOL     OW31309   6.969   3.230   4.451
10137SOL    HW131310   6.949   3.261   4.358
10137SOL    HW231311   0.015   3.295   4.495
10138SOL     OW31312   5.765   3.567   0.521
10138SOL    HW131313   5.821   3.533   0.446
10138SOL    HW231314   5.671   3.582   0.488
10139SOL     OW31315   2.886   3.395   3.546
10139SOL    HW131316   2.875   3.453   3.627
10139SOL    HW231317   2.864   3.447   3.464
10140SOL     OW31318   6.544   5.773   6.943
10140SOL    HW131319   6.605   5.752   0.003
10140SOL    HW231320   6.544   5.871   6.926
10141SOL     OW31321   3.974   0.917   5.851
10141SOL    HW131322   4.037   0.903   5.928
10141SOL    HW231323   3.897   0.972   5.881
10142SOL     OW31324   6.412   0.147   5.900
10142SOL    HW131325   6.434   0.242   5.924
10142SOL    HW231326   6.358   0.146   5.816
10143SOL     OW31327   5.263   1.222   0.350
10143SOL    HW131328   5.179   1.277   0.348
10143SOL    HW231329   5.336   1.272   0.303
10144SOL     OW31330   3.580   0.813   5.863
10144SOL    HW131331   3.642   0.804   5.941
10144SOL    HW231332   3.528   0.898   5.872
10145SOL     OW31333   2.888   5.251   3.733
10145SOL    HW131334   2.924   5.262   3.641
10145SOL    HW231335   2.887   5.154   3.757
10146SOL     OW31336   4.537   4.425   4.818
10146SOL    HW131337   4.473   4.480   4.872
10146SOL    HW231338   4.506   4.329   4.818
10147SOL     OW31339   5.200   4.178   5.956
10147SOL    HW131340   5.192   4.085   5.992
10147SOL    HW231341   5.108   4.216   5.943
10148SOL     OW31342   5.091   4.647   6.369
10148SOL    HW131343   5.078   4.591   6.451
10148SOL    HW231344   5.006   4.647   6.315
10149SOL     OW31345   5.826   3.747   1.825
10149SOL    HW131346   5.776   3.796   1.896
10149SOL    HW231347   5.895   3.808   1.784
10150SOL     OW31348   3.583   3.187   1.039
10150SOL    HW131349   3.573   3.165   1.137
10150SOL    HW231350   3.506   3.243   1.009
10151SOL     OW31351   0.693   5.622   6.868
10151SOL    HW131352   0.762   5.587   6.931
10151SOL    HW231353   0.634   5.548   6.838
10152SOL     OW31354   6.630   6.388   4.367
10152SOL    HW131355   6.686   6.314   4.331
10152SOL    HW231356   6.535   6.358   4.375
10153SOL     OW31357   4.589   5.653   3.220
10153SOL    HW131358   4.667   5.607   3.175
10153SOL    HW231359   4.504   5.623   3.177
10154SOL     OW31360   4.023   5.938   4.901
10154SOL    HW131361   4.109   5.895   4.875
10154SOL    HW231362   3.947   5.890   4.856
10155SOL     OW31363   3.711   2.171   6.361
10155SOL    HW131364   3.694   2.236   6.435
10155SOL    HW231365   3.649   2.093   6.369
10156SOL     OW31366   5.787   0.957   2.147
10156SOL    HW131367   5.717   1.020   2.181
10156SOL    HW231368   5.840   0.920   2.224
10157SOL     OW31369   0.510   1.943   0.233
10157SOL    HW131370   0.496   1.914   0.139
10157SOL    HW231371   0.423   1.944   0.282
10158SOL     OW31372   6.256   5.791   1.035
10158SOL    HW131373   6.301   5.878   1.053
10158SOL    HW231374   6.250   5.777   0.936
10159SOL     OW31375   2.498   3.209   0.630
10159SOL    HW131376   2.540   3.270   0.563
10159SOL    HW231377   2.398   3.218   0.625
10160SOL     OW31378   1.425   2.775   2.026
10160SOL    HW131379   1.339   2.760   2.074
10160SOL    HW231380   1.487   2.698   2.043
10161SOL     OW31381   4.237   3.772   0.836
10161SOL    HW131382   4.182   3.708   0.782
10161SOL    HW231383   4.265   3.729   0.921
10162SOL     OW31384   3.979   4.759   0.739
10162SOL    HW131385   4.003   4.666   0.711
10162SOL    HW231386   4.017   4.824   0.674
10163SOL     OW31387   6.488   3.862   0.206
10163SOL    HW131388   6.533   3.893   0.122
10163SOL    HW231389   6.509   3.925   0.281
10164SOL     OW31390   5.902   3.512   3.923
10164SOL    HW131391   5.933   3.417   3.922
10164SOL    HW231392   5.932   3.558   3.839
10165SOL     OW31393   6.581   1.149   3.639
10165SOL    HW131394   6.484   1.135   3.618
10165SOL    HW231395   6.635   1.135   3.557
10166SOL     OW31396   3.567   1.873   2.020
10166SOL    HW131397   3.590   1.925   1.938
10166SOL    HW231398   3.608   1.782   2.016
10167SOL     OW31399   1.472   4.736   0.007
10167SOL    HW131400   1.443   4.695   6.937
10167SOL    HW231401   1.516   4.824   7.006
10168SOL     OW31402   6.117   2.649   6.061
10168SOL    HW131403   6.096   2.710   5.984
10168SOL    HW231404   6.150   2.561   6.026
10169SOL     OW31405   0.294   3.992   3.742
10169SOL    HW131406   0.368   3.943   3.696
10169SOL    HW231407   0.209   3.940   3.732
10170SOL     OW31408   6.361   5.577   5.620
10170SOL    HW131409   6.300   5.531   5.684
10170SOL    HW231410   6.428   5.511   5.585
10171SOL     OW31411   0.376   2.451   5.259
10171SOL    HW131412   0.435   2.426   5.183
10171SOL    HW231413   0.293   2.495   5.225
10172SOL     OW31414   0.799   5.908   5.294
10172SOL    HW131415   0.833   5.993   5.255
10172SOL    HW231416   0.701   5.917   5.315
10173SOL     OW31417   2.267   2.560   0.696
10173SOL    HW131418   2.200   2.529   0.629
10173SOL    HW231419   2.337   2.489   0.708
10174SOL     OW31420   4.930   4.921   3.670
10174SOL    HW131421   4.870   4.919   3.590
10174SOL    HW231422   4.956   5.015   3.689
10175SOL     OW31423   5.250   2.311   3.233
10175SOL    HW131424   5.328   2.271   3.185
10175SOL    HW231425   5.173   2.319   3.170
10176SOL     OW31426   0.462   3.276   5.042
10176SOL    HW131427   0.371   3.319   5.045
10176SOL    HW231428   0.496   3.262   5.134
10177SOL     OW31429   2.013   0.895   1.665
10177SOL    HW131430   2.102   0.898   1.710
10177SOL    HW231431   1.978   0.988   1.655
10178SOL     OW31432   6.936   0.785   0.018
10178SOL    HW131433   6.836   0.780   0.026
10178SOL    HW231434   6.966   0.723   6.962
10179SOL     OW31435   0.674   2.579   6.734
10179SOL    HW131436   0.601   2.591   6.801
10179SOL    HW231437   0.635   2.585   6.642
10180SOL     OW31438   4.057   0.856   6.435
10180SOL    HW131439   4.100   0.776   6.392
10180SOL    HW231440   3.959   0.840   6.446
10181SOL     OW31441   6.467   3.340   1.994
10181SOL    HW131442   6.462   3.303   2.087
10181SOL    HW231443   6.375   3.362   1.962
10182SOL     OW31444   4.595   0.946   1.729
10182SOL    HW131445   4.528   0.948   1.654
10182SOL    HW231446   4.571   1.016   1.796
10183SOL     OW31447   6.514   2.747   5.898
10183SOL    HW131448   6.501   2.782   5.805
10183SOL    HW231449   6.474   2.811   5.963
10184SOL     OW31450   4.222   1.643   6.247
10184SOL    HW131451   4.322   1.640   6.252
10184SOL    HW231452   4.188   1.554   6.217
10185SOL     OW31453   6.324   6.097   3.041
10185SOL    HW131454   6.265   6.110   3.120
10185SOL    HW231455   6.291   6.151   2.964
10186SOL     OW31456   4.898   3.916   4.155
10186SOL    HW131457   4.804   3.948   4.150
10186SOL    HW231458   4.943   3.954   4.236
10187SOL     OW31459   1.186   3.625   6.767
10187SOL    HW131460   1.217   3.554   6.830
10187SOL    HW231461   1.241   3.621   6.683
10188SOL     OW31462   3.953   4.626   0.319
10188SOL    HW131463   3.869   4.680   0.319
10188SOL    HW231464   4.031   4.685   0.341
10189SOL     OW31465   0.559   0.749   6.924
10189SOL    HW131466   0.513   0.817   6.980
10189SOL    HW231467   0.640   0.790   6.882
10190SOL     OW31468   4.549   2.955   1.071
10190SOL    HW131469   4.463   2.953   1.123
10190SOL    HW231470   4.620   2.998   1.127
10191SOL     OW31471   4.411   5.692   6.766
10191SOL    HW131472   4.483   5.630   6.734
10191SOL    HW231473   4.323   5.645   6.765
10192SOL     OW31474   4.082   1.472   5.454
10192SOL    HW131475   3.994   1.446   5.494
10192SOL    HW231476   4.156   1.433   5.507
10193SOL     OW31477   3.891   3.121   2.015
10193SOL    HW131478   3.833   3.046   2.047
10193SOL    HW231479   3.835   3.191   1.970
10194SOL     OW31480   4.523   6.648   5.524
10194SOL    HW131481   4.507   6.576   5.456
10194SOL    HW231482   4.620   6.651   5.549
10195SOL     OW31483   6.604   5.950   0.441
10195SOL    HW131484   6.657   5.909   0.514
10195SOL    HW231485   6.666   5.986   0.371
10196SOL     OW31486   3.967   1.914   3.883
10196SOL    HW131487   3.940   1.825   3.846
10196SOL    HW231488   3.991   1.904   3.980
10197SOL     OW31489   5.287   1.974   4.637
10197SOL    HW131490   5.207   2.033   4.626
10197SOL    HW231491   5.280   1.924   4.723
10198SOL     OW31492   2.990   6.582   2.627
10198SOL    HW131493   2.931   6.662   2.637
10198SOL    HW231494   3.014   6.548   2.718
10199SOL     OW31495   1.354   2.867   0.731
10199SOL    HW131496   1.398   2.858   0.641
10199SOL    HW231497   1.387   2.794   0.791
10200SOL     OW31498   4.714   3.205   5.509
10200SOL    HW131499   4.672   3.250   5.588
10200SOL    HW231500   4.662   3.123   5.486
10201SOL     OW31501   1.635   5.272   0.131
10201SOL    HW131502   1.713   5.254   0.190
10201SOL    HW231503   1.642   5.216   0.048
10202SOL     OW31504   3.234   4.998   6.994
10202SOL    HW131505   3.161   4.978   6.929
10202SOL    HW231506   3.225   4.939   0.057
10203SOL     OW31507   0.211   2.927   2.347
10203SOL    HW131508   0.154   2.958   2.423
10203SOL    HW231509   0.226   2.829   2.355
10204SOL     OW31510   4.329   5.345   6.371
10204SOL    HW131511   4.241   5.335   6.323
10204SOL    HW231512   4.349   5.261   6.421
10205SOL     OW31513   2.484   1.255   2.097
10205SOL    HW131514   2.419   1.182   2.078
10205SOL    HW231515   2.487   1.273   2.195
10206SOL     OW31516   6.795   0.255   6.738
10206SOL    HW131517   6.722   0.318   6.766
10206SOL    HW231518   6.877   0.273   6.792
10207SOL     OW31519   0.895   2.089   6.984
10207SOL    HW131520   0.873   2.000   6.944
10207SOL    HW231521   0.826   2.156   6.957
10208SOL     OW31522   6.421   5.226   4.056
10208SOL    HW131523   6.376   5.152   4.106
10208SOL    HW231524   6.493   5.266   4.113
10209SOL     OW31525   0.047   6.522   6.558
10209SOL    HW131526   6.987   6.558   6.503
10209SOL    HW231527   0.133   6.561   6.525
10210SOL     OW31528   4.537   6.337   0.693
10210SOL    HW131529   4.561   6.427   0.729
10210SOL    HW231530   4.585   6.266   0.744
10211SOL     OW31531   4.927   6.198   4.452
10211SOL    HW131532   4.957   6.149   4.370
10211SOL    HW231533   4.934   6.139   4.531
10212SOL     OW31534   7.016   0.071   5.548
10212SOL    HW131535   6.957   0.081   5.468
10212SOL    HW231536   6.985   0.134   5.620
10213SOL     OW31537   5.443   2.946   1.858
10213SOL    HW131538   5.431   2.854   1.822
10213SOL    HW231539   5.412   2.949   1.953
10214SOL     OW31540   0.350   1.340   1.888
10214SOL    HW131541   0.316   1.284   1.813
10214SOL    HW231542   0.274   1.366   1.948
10215SOL     OW31543   3.673   3.505   3.667
10215SOL    HW131544   3.689   3.471   3.759
10215SOL    HW231545   3.667   3.605   3.668
10216SOL     OW31546   0.185   1.445   0.987
10216SOL    HW131547   0.254   1.512   0.961
10216SOL    HW231548   0.227   1.354   0.992
10217SOL     OW31549   1.869   2.284   3.927
10217SOL    HW131550   1.921   2.364   3.894
10217SOL    HW231551   1.871   2.282   4.027
10218SOL     OW31552   0.736   0.870   1.272
10218SOL    HW131553   0.714   0.963   1.300
10218SOL    HW231554   0.834   0.862   1.257
10219SOL     OW31555   0.012   2.197   2.353
10219SOL    HW131556   0.051   2.274   2.403
10219SOL    HW231557   6.937   2.177   2.388
10220SOL     OW31558   4.487   1.396   1.531
10220SOL    HW131559   4.407   1.338   1.525
10220SOL    HW231560   4.541   1.387   1.447
10221SOL     OW31561   1.910   3.948   4.672
10221SOL    HW131562   1.995   3.983   4.712
10221SOL    HW231563   1.932   3.873   4.609
10222SOL     OW31564   3.356   4.154   5.347
10222SOL    HW131565   3.407   4.233   5.382
10222SOL    HW231566   3.278   4.185   5.294
10223SOL     OW31567   2.975   5.297   0.850
10223SOL    HW131568   3.021   5.236   0.915
10223SOL    HW231569   2.938   5.243   0.774
10224SOL     OW31570   6.767   2.234   5.548
10224SOL    HW131571   6.674   2.235   5.587
10224SOL    HW231572   6.761   2.240   5.448
10225SOL     OW31573   1.635   5.919   5.898
10225SOL    HW131574   1.645   5.915   5.997
10225SOL    HW231575   1.716   5.881   5.854
10226SOL     OW31576   1.926   0.330   6.439
10226SOL    HW131577   2.022   0.323   6.469
10226SOL    HW231578   1.872   0.372   6.512
10227SOL     OW31579   5.067   4.322   0.049
10227SOL    HW131580   5.003   4.336   6.990
10227SOL    HW231581   5.063   4.401   0.110
10228SOL     OW31582   1.140   5.720   2.153
10228SOL    HW131583   1.063   5.726   2.089
10228SOL    HW231584   1.226   5.725   2.101
10229SOL     OW31585   2.025   2.576   4.579
10229SOL    HW131586   1.997   2.660   4.532
10229SOL    HW231587   2.098   2.596   4.643
10230SOL     OW31588   6.494   6.538   3.281
10230SOL    HW131589   6.469   6.505   3.372
10230SOL    HW231590   6.592   6.524   3.266
10231SOL     OW31591   6.508   4.642   5.218
10231SOL    HW131592   6.582   4.679   5.163
10231SOL    HW231593   6.546   4.597   5.299
10232SOL     OW31594   3.320   1.520   3.855
10232SOL    HW131595   3.347   1.605   3.901
10232SOL    HW231596   3.391   1.493   3.790
10233SOL     OW31597   4.000   3.893   5.400
10233SOL    HW131598   4.056   3.898   5.317
10233SOL    HW231599   3.986   3.985   5.437
10234SOL     OW31600   5.540   1.239   0.633
10234SOL    HW131601   5.491   1.207   0.551
10234SOL    HW231602   5.545   1.339   0.631
10235SOL     OW31603   3.023   2.058   1.102
10235SOL    HW131604   3.083   1.985   1.069
10235SOL    HW231605   2.967   2.093   1.027
10236SOL     OW31606   1.664   1.218   1.629
10236SOL    HW131607   1.611   1.146   1.584
10236SOL    HW231608   1.628   1.308   1.603
10237SOL     OW31609   0.177   4.089   6.585
10237SOL    HW131610   0.078   4.103   6.576
10237SOL    HW231611   0.218   4.167   6.632
10238SOL     OW31612   3.874   3.984   2.364
10238SOL    HW131613   3.936   4.032   2.425
10238SOL    HW231614   3.782   4.022   2.374
10239SOL     OW31615   1.976   3.390   5.784
10239SOL    HW131616   2.031   3.413   5.864
10239SOL    HW231617   2.014   3.435   5.703
10240SOL     OW31618   2.233   4.049   2.700
10240SOL    HW131619   2.260   4.072   2.607
10240SOL    HW231620   2.245   3.951   2.715
10241SOL     OW31621   6.988   5.883   3.278
10241SOL    HW131622   0.047   5.820   3.299
10241SOL    HW231623   6.973   5.885   3.179
10242SOL     OW31624   0.652   1.263   1.668
10242SOL    HW131625   0.752   1.268   1.669
10242SOL    HW231626   0.615   1.347   1.627
10243SOL     OW31627   2.435   4.901   2.501
10243SOL    HW131628   2.368   4.843   2.455
10243SOL    HW231629   2.397   4.934   2.588
10244SOL     OW31630   1.938   4.707   0.936
10244SOL    HW131631   1.910   4.796   0.973
10244SOL    HW231632   1.916   4.636   1.002
10245SOL     OW31633   3.724   4.858   0.826
10245SOL    HW131634   3.722   4.863   0.926
10245SOL    HW231635   3.813   4.825   0.796
10246SOL     OW31636   2.980   3.504   3.800
10246SOL    HW131637   2.972   3.456   3.887
10246SOL    HW231638   3.062   3.475   3.752
10247SOL     OW31639   0.257   3.949   6.312
10247SOL    HW131640   0.218   3.914   6.397
10247SOL    HW231641   0.282   3.873   6.252
10248SOL     OW31642   1.839   6.771   2.836
10248SOL    HW131643   1.833   6.826   2.753
10248SOL    HW231644   1.875   6.827   2.911
10249SOL     OW31645   2.451   6.481   6.660
10249SOL    HW131646   2.541   6.449   6.629
10249SOL    HW231647   2.391   6.492   6.581
10250SOL     OW31648   6.405   2.797   2.012
10250SOL    HW131649   6.418   2.708   1.969
10250SOL    HW231650   6.439   2.869   1.950
10251SOL     OW31651   2.413   1.563   4.358
10251SOL    HW131652   2.492   1.548   4.417
10251SOL    HW231653   2.419   1.504   4.278
10252SOL     OW31654   3.874   5.256   6.137
10252SOL    HW131655   3.888   5.167   6.093
10252SOL    HW231656   3.778   5.264   6.165
10253SOL     OW31657   3.082   6.930   0.400
10253SOL    HW131658   3.011   6.871   0.362
10253SOL    HW231659   3.042   6.993   0.466
10254SOL     OW31660   4.671   0.913   5.542
10254SOL    HW131661   4.607   0.893   5.616
10254SOL    HW231662   4.653   0.853   5.465
10255SOL     OW31663   2.205   6.189   0.745
10255SOL    HW131664   2.241   6.132   0.671
10255SOL    HW231665   2.131   6.247   0.710
10256SOL     OW31666   5.275   1.385   1.552
10256SOL    HW131667   5.287   1.303   1.494
10256SOL    HW231668   5.306   1.465   1.502
10257SOL     OW31669   1.877   4.992   4.599
10257SOL    HW131670   1.930   4.972   4.681
10257SOL    HW231671   1.938   5.025   4.527
10258SOL     OW31672   3.217   1.122   4.072
10258SOL    HW131673   3.298   1.177   4.049
10258SOL    HW231674   3.138   1.158   4.022
10259SOL     OW31675   0.632   5.316   3.530
10259SOL    HW131676   0.608   5.386   3.597
10259SOL    HW231677   0.628   5.226   3.574
10260SOL     OW31678   1.399   0.766   3.899
10260SOL    HW131679   1.382   0.864   3.912
10260SOL    HW231680   1.461   0.734   3.970
10261SOL     OW31681   6.903   4.683   2.779
10261SOL    HW131682   6.995   4.643   2.786
10261SOL    HW231683   6.845   4.624   2.724
10262SOL     OW31684   2.216   6.817   5.486
10262SOL    HW131685   2.166   6.744   5.440
10262SOL    HW231686   2.187   6.822   5.582
10263SOL     OW31687   5.419   0.326   6.819
10263SOL    HW131688   5.470   0.326   6.905
10263SOL    HW231689   5.357   0.248   6.816
10264SOL     OW31690   5.877   0.031   6.705
10264SOL    HW131691   5.833   0.103   6.759
10264SOL    HW231692   5.844   6.958   6.735
10265SOL     OW31693   2.429   3.099   1.340
10265SOL    HW131694   2.427   3.097   1.440
10265SOL    HW231695   2.339   3.074   1.304
10266SOL     OW31696   4.095   3.630   4.146
10266SOL    HW131697   4.191   3.610   4.130
10266SOL    HW231698   4.080   3.649   4.243
10267SOL     OW31699   5.580   2.624   6.179
10267SOL    HW131700   5.634   2.549   6.217
10267SOL    HW231701   5.609   2.710   6.219
10268SOL     OW31702   5.974   5.910   2.186
10268SOL    HW131703   5.889   5.914   2.237
10268SOL    HW231704   6.047   5.875   2.245
10269SOL     OW31705   0.325   3.146   0.075
10269SOL    HW131706   0.384   3.111   0.147
10269SOL    HW231707   0.283   3.069   0.026
10270SOL     OW31708   4.038   4.943   2.670
10270SOL    HW131709   4.005   4.938   2.764
10270SOL    HW231710   3.997   4.868   2.617
10271SOL     OW31711   3.315   2.820   5.829
10271SOL    HW131712   3.326   2.860   5.738
10271SOL    HW231713   3.405   2.803   5.869
10272SOL     OW31714   1.478   1.345   4.980
10272SOL    HW131715   1.388   1.334   5.022
10272SOL    HW231716   1.491   1.440   4.954
10273SOL     OW31717   2.942   5.809   2.647
10273SOL    HW131718   2.869   5.832   2.583
10273SOL    HW231719   3.002   5.740   2.605
10274SOL     OW31720   0.744   5.547   4.928
10274SOL    HW131721   0.801   5.508   4.856
10274SOL    HW231722   0.697   5.474   4.977
10275SOL     OW31723   0.264   6.282   1.550
10275SOL    HW131724   0.298   6.335   1.473
10275SOL    HW231725   0.217   6.342   1.614
10276SOL     OW31726   5.197   4.994   5.415
10276SOL    HW131727   5.105   4.955   5.417
10276SOL    HW231728   5.254   4.941   5.353
10277SOL     OW31729   1.378   5.507   3.561
10277SOL    HW131730   1.295   5.466   3.522
10277SOL    HW231731   1.459   5.466   3.519
10278SOL     OW31732   0.322   1.758   4.610
10278SOL    HW131733   0.295   1.741   4.704
10278SOL    HW231734   0.340   1.671   4.564
10279SOL     OW31735   2.266   5.140   4.326
10279SOL    HW131736   2.233   5.102   4.240
10279SOL    HW231737   2.346   5.089   4.357
10280SOL     OW31738   0.405   3.443   0.740
10280SOL    HW131739   0.447   3.403   0.822
10280SOL    HW231740   0.307   3.424   0.741
10281SOL     OW31741   5.885   1.538   2.401
10281SOL    HW131742   5.816   1.607   2.423
10281SOL    HW231743   5.841   1.448   2.395
10282SOL     OW31744   5.155   3.401   4.404
10282SOL    HW131745   5.244   3.429   4.369
10282SOL    HW231746   5.092   3.388   4.328
10283SOL     OW31747   1.411   3.434   0.553
10283SOL    HW131748   1.457   3.347   0.570
10283SOL    HW231749   1.420   3.492   0.634
10284SOL     OW31750   5.383   2.771   5.066
10284SOL    HW131751   5.425   2.797   4.978
10284SOL    HW231752   5.285   2.755   5.053
10285SOL     OW31753   5.806   0.053   2.314
10285SOL    HW131754   5.838   0.003   2.233
10285SOL    HW231755   5.884   0.096   2.360
10286SOL     OW31756   3.044   1.808   3.313
10286SOL    HW131757   3.002   1.886   3.267
10286SOL    HW231758   3.133   1.789   3.272
10287SOL     OW31759   1.697   0.042   1.310
10287SOL    HW131760   1.750   6.976   1.288
10287SOL    HW231761   1.754   0.105   1.362
10288SOL     OW31762   4.700   6.278   3.167
10288SOL    HW131763   4.648   6.198   3.195
10288SOL    HW231764   4.715   6.275   3.068
10289SOL     OW31765   2.004   6.549   0.188
10289SOL    HW131766   1.965   6.460   0.165
10289SOL    HW231767   2.103   6.546   0.178
10290SOL     OW31768   3.028   3.959   2.569
10290SOL    HW131769   2.963   3.999   2.505
10290SOL    HW231770   3.065   3.875   2.531
10291SOL     OW31771   4.425   1.284   3.010
10291SOL    HW131772   4.405   1.200   3.060
10291SOL    HW231773   4.395   1.275   2.915
10292SOL     OW31774   1.610   0.957   5.293
10292SOL    HW131775   1.638   1.051   5.271
10292SOL    HW231776   1.687   0.908   5.333
10293SOL     OW31777   2.181   4.427   2.644
10293SOL    HW131778   2.264   4.391   2.689
10293SOL    HW231779   2.101   4.399   2.696
10294SOL     OW31780   5.900   3.246   3.097
10294SOL    HW131781   5.901   3.296   3.010
10294SOL    HW231782   5.993   3.216   3.119
10295SOL     OW31783   6.398   4.171   5.989
10295SOL    HW131784   6.380   4.137   5.896
10295SOL    HW231785   6.433   4.096   6.045
10296SOL     OW31786   5.080   1.424   0.359
10296SOL    HW131787   4.987   1.389   0.374
10296SOL    HW231788   5.077   1.498   0.293
10297SOL     OW31789   1.904   6.973   6.624
10297SOL    HW131790   1.978   6.975   6.557
10297SOL    HW231791   1.817   6.962   6.578
10298SOL     OW31792   2.763   4.555   1.567
10298SOL    HW131793   2.809   4.559   1.656
10298SOL    HW231794   2.807   4.620   1.505
10299SOL     OW31795   5.100   5.003   3.238
10299SOL    HW131796   5.142   5.059   3.310
10299SOL    HW231797   5.144   5.024   3.150
10300SOL     OW31798   1.212   3.618   3.578
10300SOL    HW131799   1.218   3.679   3.499
10300SOL    HW231800   1.117   3.611   3.607
10301SOL     OW31801   5.121   2.526   4.676
10301SOL    HW131802   5.155   2.619   4.695
10301SOL    HW231803   5.183   2.460   4.717
10302SOL     OW31804   2.290   6.548   3.980
10302SOL    HW131805   2.241   6.624   4.022
10302SOL    HW231806   2.247   6.462   4.007
10303SOL     OW31807   2.002   6.550   2.892
10303SOL    HW131808   1.931   6.617   2.870
10303SOL    HW231809   1.972   6.494   2.969
10304SOL     OW31810   5.238   0.484   1.737
10304SOL    HW131811   5.269   0.402   1.785
10304SOL    HW231812   5.151   0.466   1.692
10305SOL     OW31813   1.078   4.487   0.047
10305SOL    HW131814   1.102   4.414   7.000
10305SOL    HW231815   1.035   4.562   7.014
10306SOL     OW31816   4.528   6.687   6.149
10306SOL    HW131817   4.553   6.599   6.109
10306SOL    HW231818   4.536   6.682   6.248
10307SOL     OW31819   2.596   2.044   5.577
10307SOL    HW131820   2.611   2.125   5.520
10307SOL    HW231821   2.590   2.071   5.673
10308SOL     OW31822   2.591   4.654   3.544
10308SOL    HW131823   2.640   4.626   3.461
10308SOL    HW231824   2.557   4.747   3.533
10309SOL     OW31825   6.917   1.952   5.132
10309SOL    HW131826   6.834   1.992   5.095
10309SOL    HW231827   6.945   2.000   5.215
10310SOL     OW31828   3.286   3.749   0.888
10310SOL    HW131829   3.300   3.778   0.982
10310SOL    HW231830   3.218   3.675   0.886
10311SOL     OW31831   0.020   6.064   0.122
10311SOL    HW131832   7.013   5.967   0.115
10311SOL    HW231833   0.111   6.073   0.163
10312SOL     OW31834   3.801   6.462   2.372
10312SOL    HW131835   3.727   6.412   2.326
10312SOL    HW231836   3.772   6.555   2.390
10313SOL     OW31837   5.110   6.561   1.453
10313SOL    HW131838   5.181   6.519   1.397
10313SOL    HW231839   5.023   6.557   1.405
10314SOL     OW31840   6.508   0.366   1.502
10314SOL    HW131841   6.472   0.404   1.587
10314SOL    HW231842   6.455   0.400   1.425
10315SOL     OW31843   5.000   6.091   4.923
10315SOL    HW131844   4.933   6.158   4.955
10315SOL    HW231845   5.015   6.022   4.993
10316SOL     OW31846   6.435   1.800   4.193
10316SOL    HW131847   6.366   1.866   4.163
10316SOL    HW231848   6.394   1.738   4.260
10317SOL     OW31849   4.110   5.370   4.931
10317SOL    HW131850   4.085   5.460   4.895
10317SOL    HW231851   4.208   5.369   4.953
10318SOL     OW31852   4.818   5.709   6.011
10318SOL    HW131853   4.762   5.682   5.933
10318SOL    HW231854   4.775   5.785   6.060
10319SOL     OW31855   1.347   2.476   5.383
10319SOL    HW131856   1.288   2.422   5.322
10319SOL    HW231857   1.403   2.538   5.328
10320SOL     OW31858   0.577   0.473   3.163
10320SOL    HW131859   0.668   0.498   3.194
10320SOL    HW231860   0.509   0.507   3.227
10321SOL     OW31861   4.006   1.304   2.181
10321SOL    HW131862   4.045   1.359   2.255
10321SOL    HW231863   3.976   1.216   2.218
10322SOL     OW31864   6.436   5.793   5.929
10322SOL    HW131865   6.466   5.877   5.884
10322SOL    HW231866   6.359   5.753   5.878
10323SOL     OW31867   5.956   3.020   5.609
10323SOL    HW131868   5.937   2.945   5.546
10323SOL    HW231869   6.030   3.077   5.573
10324SOL     OW31870   3.379   3.304   2.569
10324SOL    HW131871   3.415   3.221   2.612
10324SOL    HW231872   3.451   3.349   2.517
10325SOL     OW31873   0.330   4.066   2.417
10325SOL    HW131874   0.379   4.095   2.334
10325SOL    HW231875   0.373   4.108   2.497
10326SOL     OW31876   4.273   3.561   0.160
10326SOL    HW131877   4.277   3.577   0.061
10326SOL    HW231878   4.365   3.570   0.199
10327SOL     OW31879   2.424   2.086   1.540
10327SOL    HW131880   2.469   2.060   1.625
10327SOL    HW231881   2.348   2.148   1.560
10328SOL     OW31882   6.067   2.810   1.194
10328SOL    HW131883   5.977   2.770   1.179
10328SOL    HW231884   6.131   2.777   1.124
10329SOL     OW31885   3.525   0.101   3.932
10329SOL    HW131886   3.506   0.178   3.872
10329SOL    HW231887   3.543   0.019   3.877
10330SOL     OW31888   4.217   0.419   2.397
10330SOL    HW131889   4.262   0.477   2.465
10330SOL    HW231890   4.122   0.446   2.388
10331SOL     OW31891   0.199   1.409   5.003
10331SOL    HW131892   0.288   1.392   5.045
10331SOL    HW231893   0.149   1.323   4.994
10332SOL     OW31894   6.446   0.901   0.849
10332SOL    HW131895   6.435   0.834   0.775
10332SOL    HW231896   6.518   0.966   0.824
10333SOL     OW31897   6.241   4.215   4.827
10333SOL    HW131898   6.254   4.165   4.742
10333SOL    HW231899   6.172   4.169   4.883
10334SOL     OW31900   4.148   6.179   3.375
10334SOL    HW131901   4.057   6.220   3.370
10334SOL    HW231902   4.149   6.093   3.324
10335SOL     OW31903   2.933   4.451   6.578
10335SOL    HW131904   2.943   4.401   6.663
10335SOL    HW231905   2.878   4.397   6.514
10336SOL     OW31906   6.409   6.761   2.670
10336SOL    HW131907   6.417   6.749   2.769
10336SOL    HW231908   6.345   6.694   2.633
10337SOL     OW31909   0.086   6.966   5.810
10337SOL    HW131910   0.002   6.967   5.863
10337SOL    HW231911   0.064   6.949   5.713
10338SOL     OW31912   2.445   6.603   2.184
10338SOL    HW131913   2.362   6.626   2.132
10338SOL    HW231914   2.419   6.565   2.272
10339SOL     OW31915   3.637   5.652   0.491
10339SOL    HW131916   3.670   5.558   0.500
10339SOL    HW231917   3.553   5.663   0.544
10340SOL     OW31918   2.011   5.522   1.176
10340SOL    HW131919   2.023   5.489   1.269
10340SOL    HW231920   1.923   5.570   1.169
10341SOL     OW31921   2.008   3.654   1.589
10341SOL    HW131922   1.936   3.686   1.527
10341SOL    HW231923   2.095   3.692   1.560
10342SOL     OW31924   0.703   0.062   5.419
10342SOL    HW131925   0.720   6.984   5.447
10342SOL    HW231926   0.635   0.102   5.481
10343SOL     OW31927   3.590   5.557   0.233
10343SOL    HW131928   3.625   5.587   0.322
10343SOL    HW231929   3.491   5.543   0.240
10344SOL     OW31930   4.289   4.440   1.730
10344SOL    HW131931   4.321   4.350   1.760
10344SOL    HW231932   4.264   4.435   1.633
10345SOL     OW31933   1.529   1.405   6.889
10345SOL    HW131934   1.556   1.424   6.983
10345SOL    HW231935   1.560   1.480   6.830
10346SOL     OW31936   6.309   6.946   1.082
10346SOL    HW131937   6.324   6.930   0.984
10346SOL    HW231938   6.229   7.005   1.094
10347SOL     OW31939   4.777   2.076   2.132
10347SOL    HW131940   4.739   2.149   2.188
10347SOL    HW231941   4.833   2.016   2.189
10348SOL     OW31942   6.554   1.504   0.190
10348SOL    HW131943   6.619   1.579   0.204
10348SOL    HW231944   6.598   1.432   0.137
10349SOL     OW31945   0.017   1.398   1.672
10349SOL    HW131946   0.008   1.355   1.582
10349SOL    HW231947   6.943   1.412   1.712
10350SOL     OW31948   1.933   6.400   5.382
10350SOL    HW131949   2.000   6.378   5.310
10350SOL    HW231950   1.972   6.378   5.471
10351SOL     OW31951   4.597   5.042   6.220
10351SOL    HW131952   4.588   5.141   6.208
10351SOL    HW231953   4.577   4.995   6.134
10352SOL     OW31954   4.825   2.624   6.387
10352SOL    HW131955   4.875   2.544   6.420
10352SOL    HW231956   4.811   2.688   6.462
10353SOL     OW31957   6.959   2.910   5.859
10353SOL    HW131958   0.033   2.895   5.898
10353SOL    HW231959   6.907   2.825   5.862
10354SOL     OW31960   5.626   2.348   2.110
10354SOL    HW131961   5.613   2.255   2.142
10354SOL    HW231962   5.650   2.407   2.187
10355SOL     OW31963   2.346   0.585   2.227
10355SOL    HW131964   2.275   0.655   2.225
10355SOL    HW231965   2.311   0.501   2.184
10356SOL     OW31966   0.369   4.083   5.634
10356SOL    HW131967   0.338   3.988   5.632
10356SOL    HW231968   0.412   4.103   5.722
10357SOL     OW31969   3.074   2.941   6.625
10357SOL    HW131970   3.002   2.872   6.639
10357SOL    HW231971   3.032   3.025   6.591
10358SOL     OW31972   6.149   3.135   3.586
10358SOL    HW131973   6.079   3.206   3.590
10358SOL    HW231974   6.155   3.089   3.674
10359SOL     OW31975   0.226   1.601   1.648
10359SOL    HW131976   0.260   1.604   1.743
10359SOL    HW231977   0.146   1.542   1.644
10360SOL     OW31978   4.448   5.530   1.768
10360SOL    HW131979   4.367   5.510   1.823
10360SOL    HW231980   4.529   5.489   1.811
10361SOL     OW31981   2.694   0.653   2.885
10361SOL    HW131982   2.661   0.563   2.857
10361SOL    HW231983   2.714   0.708   2.804
10362SOL     OW31984   0.589   5.391   3.930
10362SOL    HW131985   0.567   5.437   3.843
10362SOL    HW231986   0.512   5.400   3.993
10363SOL     OW31987   4.504   2.533   0.932
10363SOL    HW131988   4.603   2.539   0.928
10363SOL    HW231989   4.477   2.439   0.956
10364SOL     OW31990   3.793   3.712   2.463
10364SOL    HW131991   3.831   3.805   2.460
10364SOL    HW231992   3.696   3.717   2.489
10365SOL     OW31993   5.307   4.461   5.365
10365SOL    HW131994   5.305   4.474   5.464
10365SOL    HW231995   5.371   4.526   5.324
10366SOL     OW31996   4.335   0.216   4.401
10366SOL    HW131997   4.308   0.128   4.361
10366SOL    HW231998   4.433   0.230   4.388
10367SOL     OW31999   6.788   1.512   1.905
10367SOL    HW132000   6.793   1.529   1.806
10367SOL    HW232001   6.765   1.597   1.952
10368SOL     OW32002   2.310   1.030   2.142
10368SOL    HW132003   2.222   0.986   2.158
10368SOL    HW232004   2.380   0.985   2.198
10369SOL     OW32005   3.837   1.365   5.318
10369SOL    HW132006   3.865   1.288   5.375
10369SOL    HW232007   3.839   1.337   5.221
10370SOL     OW32008   5.514   1.547   5.301
10370SOL    HW132009   5.540   1.455   5.331
10370SOL    HW232010   5.415   1.558   5.310
10371SOL     OW32011   2.120   5.859   4.398
10371SOL    HW132012   2.184   5.785   4.377
10371SOL    HW232013   2.034   5.843   4.350
10372SOL     OW32014   1.421   1.041   0.717
10372SOL    HW132015   1.444   1.138   0.704
10372SOL    HW232016   1.501   0.985   0.694
10373SOL     OW32017   1.599   6.493   4.827
10373SOL    HW132018   1.530   6.423   4.846
10373SOL    HW232019   1.691   6.454   4.838
10374SOL     OW32020   3.498   1.221   3.372
10374SOL    HW132021   3.462   1.262   3.456
10374SOL    HW232022   3.534   1.130   3.393
10375SOL     OW32023   2.887   1.707   6.595
10375SOL    HW132024   2.916   1.623   6.640
10375SOL    HW232025   2.952   1.731   6.523
10376SOL     OW32026   1.137   5.612   3.995
10376SOL    HW132027   1.084   5.596   4.078
10376SOL    HW232028   1.088   5.676   3.936
10377SOL     OW32029   6.869   1.065   3.726
10377SOL    HW132030   6.885   0.966   3.725
10377SOL    HW232031   6.772   1.082   3.706
10378SOL     OW32032   6.060   0.350   5.496
10378SOL    HW132033   6.096   0.293   5.422
10378SOL    HW232034   6.125   0.423   5.516
10379SOL     OW32035   3.186   6.658   3.968
10379SOL    HW132036   3.154   6.568   3.939
10379SOL    HW232037   3.201   6.658   4.067
10380SOL     OW32038   0.676   2.191   4.624
10380SOL    HW132039   0.677   2.118   4.692
10380SOL    HW232040   0.619   2.164   4.546
10381SOL     OW32041   4.302   4.338   0.697
10381SOL    HW132042   4.273   4.245   0.674
10381SOL    HW232043   4.349   4.379   0.618
10382SOL     OW32044   2.159   5.166   1.203
10382SOL    HW132045   2.221   5.238   1.172
10382SOL    HW232046   2.203   5.111   1.273
10383SOL     OW32047   0.320   3.783   0.733
10383SOL    HW132048   0.385   3.788   0.657
10383SOL    HW232049   0.364   3.736   0.810
10384SOL     OW32050   0.106   0.272   1.042
10384SOL    HW132051   0.162   0.334   1.096
10384SOL    HW232052   0.092   0.187   1.094
10385SOL     OW32053   3.512   6.874   5.806
10385SOL    HW132054   3.468   6.927   5.733
10385SOL    HW232055   3.539   6.785   5.771
10386SOL     OW32056   6.397   1.819   5.262
10386SOL    HW132057   6.451   1.792   5.342
10386SOL    HW232058   6.347   1.903   5.283
10387SOL     OW32059   4.627   1.621   2.451
10387SOL    HW132060   4.613   1.702   2.394
10387SOL    HW232061   4.725   1.608   2.468
10388SOL     OW32062   2.238   5.837   2.163
10388SOL    HW132063   2.317   5.828   2.224
10388SOL    HW232064   2.157   5.856   2.217
10389SOL     OW32065   0.088   6.556   1.054
10389SOL    HW132066   0.088   6.529   1.151
10389SOL    HW232067   0.068   6.476   0.997
10390SOL     OW32068   2.282   2.324   1.647
10390SOL    HW132069   2.299   2.312   1.745
10390SOL    HW232070   2.350   2.386   1.609
10391SOL     OW32071   0.419   5.726   4.053
10391SOL    HW132072   0.396   5.751   3.959
10391SOL    HW232073   0.385   5.633   4.071
10392SOL     OW32074   6.893   4.037   6.663
10392SOL    HW132075   6.883   3.953   6.715
10392SOL    HW232076   6.917   4.112   6.725
10393SOL     OW32077   2.258   2.598   2.086
10393SOL    HW132078   2.299   2.644   2.007
10393SOL    HW232079   2.325   2.534   2.125
10394SOL     OW32080   2.615   6.462   4.636
10394SOL    HW132081   2.602   6.401   4.714
10394SOL    HW232082   2.680   6.422   4.572
10395SOL     OW32083   0.217   0.910   3.122
10395SOL    HW132084   0.231   0.975   3.197
10395SOL    HW232085   0.305   0.875   3.091
10396SOL     OW32086   2.653   0.384   4.009
10396SOL    HW132087   2.699   0.409   3.924
10396SOL    HW232088   2.720   0.348   4.074
10397SOL     OW32089   2.954   2.025   4.088
10397SOL    HW132090   2.988   2.092   4.022
10397SOL    HW232091   2.882   2.067   4.143
10398SOL     OW32092   5.374   2.293   0.597
10398SOL    HW132093   5.360   2.283   0.498
10398SOL    HW232094   5.451   2.355   0.613
10399SOL     OW32095   4.266   1.902   4.646
10399SOL    HW132096   4.299   1.995   4.629
10399SOL    HW232097   4.207   1.902   4.727
10400SOL     OW32098   4.008   5.854   0.739
10400SOL    HW132099   4.017   5.950   0.766
10400SOL    HW232100   3.914   5.836   0.711
10401SOL     OW32101   0.286   0.506   2.374
10401SOL    HW132102   0.193   0.484   2.343
10401SOL    HW232103   0.283   0.586   2.434
10402SOL     OW32104   0.082   2.532   5.680
10402SOL    HW132105   0.056   2.436   5.669
10402SOL    HW232106   0.065   2.561   5.774
10403SOL     OW32107   4.543   0.968   2.909
10403SOL    HW132108   4.468   1.024   2.874
10403SOL    HW232109   4.560   0.991   3.004
10404SOL     OW32110   7.003   0.108   4.330
10404SOL    HW132111   0.074   0.101   4.282
10404SOL    HW232112   6.952   0.188   4.296
10405SOL     OW32113   1.139   5.744   5.202
10405SOL    HW132114   1.056   5.717   5.153
10405SOL    HW232115   1.210   5.674   5.188
10406SOL     OW32116   2.212   3.152   5.358
10406SOL    HW132117   2.278   3.079   5.369
10406SOL    HW232118   2.260   3.238   5.340
10407SOL     OW32119   2.151   0.580   6.585
10407SOL    HW132120   2.102   0.611   6.504
10407SOL    HW232121   2.175   0.484   6.575
10408SOL     OW32122   3.848   6.674   2.159
10408SOL    HW132123   3.877   6.653   2.252
10408SOL    HW232124   3.904   6.623   2.094
10409SOL     OW32125   0.871   3.801   0.752
10409SOL    HW132126   0.885   3.720   0.695
10409SOL    HW232127   0.824   3.871   0.698
10410SOL     OW32128   5.677   2.212   1.417
10410SOL    HW132129   5.582   2.236   1.438
10410SOL    HW232130   5.700   2.243   1.324
10411SOL     OW32131   4.082   5.781   4.370
10411SOL    HW132132   3.990   5.818   4.383
10411SOL    HW232133   4.145   5.856   4.348
10412SOL     OW32134   6.728   1.101   0.322
10412SOL    HW132135   6.794   1.122   0.394
10412SOL    HW232136   6.735   1.004   0.297
10413SOL     OW32137   0.162   1.879   1.640
10413SOL    HW132138   0.229   1.807   1.662
10413SOL    HW232139   0.086   1.839   1.589
10414SOL     OW32140   3.969   5.995   5.971
10414SOL    HW132141   3.967   5.922   5.902
10414SOL    HW232142   4.042   6.060   5.949
10415SOL     OW32143   2.249   4.135   3.675
10415SOL    HW132144   2.193   4.184   3.608
10415SOL    HW232145   2.326   4.194   3.703
10416SOL     OW32146   6.415   0.313   4.997
10416SOL    HW132147   6.495   0.300   5.056
10416SOL    HW232148   6.367   0.397   5.023
10417SOL     OW32149   4.774   5.039   4.209
10417SOL    HW132150   4.718   5.106   4.160
10417SOL    HW232151   4.740   4.947   4.193
10418SOL     OW32152   5.977   3.903   6.046
10418SOL    HW132153   6.044   3.866   6.110
10418SOL    HW232154   6.005   3.995   6.017
10419SOL     OW32155   2.787   0.039   5.303
10419SOL    HW132156   2.695   0.067   5.275
10419SOL    HW232157   2.855   0.093   5.252
10420SOL     OW32158   6.794   3.768   4.125
10420SOL    HW132159   6.773   3.761   4.223
10420SOL    HW232160   6.853   3.847   4.109
10421SOL     OW32161   1.533   3.503   4.922
10421SOL    HW132162   1.502   3.480   4.830
10421SOL    HW232163   1.453   3.524   4.979
10422SOL     OW32164   6.842   3.566   5.200
10422SOL    HW132165   6.754   3.591   5.239
10422SOL    HW232166   6.842   3.587   5.102
10423SOL     OW32167   4.665   4.660   5.085
10423SOL    HW132168   4.727   4.594   5.042
10423SOL    HW232169   4.719   4.737   5.119
10424SOL     OW32170   4.178   2.788   0.418
10424SOL    HW132171   4.089   2.834   0.423
10424SOL    HW232172   4.207   2.782   0.323
10425SOL     OW32173   0.835   5.793   2.514
10425SOL    HW132174   0.924   5.768   2.555
10425SOL    HW232175   0.763   5.737   2.556
10426SOL     OW32176   5.424   3.905   5.696
10426SOL    HW132177   5.385   3.904   5.604
10426SOL    HW232178   5.396   3.822   5.745
10427SOL     OW32179   4.986   0.030   0.070
10427SOL    HW132180   5.016   6.969   0.014
10427SOL    HW232181   5.016   0.115   0.026
10428SOL     OW32182   2.774   1.795   4.135
10428SOL    HW132183   2.853   1.856   4.123
10428SOL    HW232184   2.694   1.849   4.160
10429SOL     OW32185   0.828   3.967   2.832
10429SOL    HW132186   0.751   3.987   2.772
10429SOL    HW232187   0.795   3.927   2.918
10430SOL     OW32188   3.659   6.828   4.390
10430SOL    HW132189   3.728   6.900   4.399
10430SOL    HW232190   3.596   6.832   4.468
10431SOL     OW32191   2.949   0.227   4.467
10431SOL    HW132192   2.898   0.163   4.409
10431SOL    HW232193   2.896   0.311   4.478
10432SOL     OW32194   6.998   2.078   5.349
10432SOL    HW132195   0.053   2.047   5.411
10432SOL    HW232196   7.002   2.178   5.340
10433SOL     OW32197   6.893   6.450   2.551
10433SOL    HW132198   6.872   6.357   2.581
10433SOL    HW232199   6.867   6.515   2.622
10434SOL     OW32200   4.038   6.208   4.786
10434SOL    HW132201   4.052   6.114   4.815
10434SOL    HW232202   3.949   6.241   4.820
10435SOL     OW32203   2.215   1.983   6.361
10435SOL    HW132204   2.207   2.039   6.443
10435SOL    HW232205   2.168   1.897   6.374
10436SOL     OW32206   6.356   4.111   4.367
10436SOL    HW132207   6.282   4.045   4.354
10436SOL    HW232208   6.394   4.137   4.278
10437SOL     OW32209   6.443   4.833   4.911
10437SOL    HW132210   6.448   4.912   4.971
10437SOL    HW232211   6.353   4.830   4.867
10438SOL     OW32212   0.594   5.846   6.248
10438SOL    HW132213   0.597   5.757   6.293
10438SOL    HW232214   0.687   5.877   6.228
10439SOL     OW32215   5.362   1.110   4.528
10439SOL    HW132216   5.393   1.127   4.435
10439SOL    HW232217   5.381   1.015   4.553
10440SOL     OW32218   0.225   6.834   6.917
10440SOL    HW132219   0.284   6.880   6.850
10440SOL    HW232220   0.149   6.789   6.869
10441SOL     OW32221   2.820   1.517   1.416
10441SOL    HW132222   2.853   1.423   1.428
10441SOL    HW232223   2.735   1.529   1.466
10442SOL     OW32224   3.920   6.821   5.106
10442SOL    HW132225   4.001   6.878   5.120
10442SOL    HW232226   3.879   6.843   5.017
10443SOL     OW32227   5.957   2.651   3.052
10443SOL    HW132228   6.035   2.648   2.990
10443SOL    HW232229   5.937   2.746   3.077
10444SOL     OW32230   4.244   5.532   1.972
10444SOL    HW132231   4.166   5.469   1.977
10444SOL    HW232232   4.212   5.626   1.987
10445SOL     OW32233   0.683   3.517   2.840
10445SOL    HW132234   0.686   3.586   2.912
10445SOL    HW232235   0.774   3.506   2.801
10446SOL     OW32236   1.819   3.606   6.418
10446SOL    HW132237   1.754   3.593   6.343
10446SOL    HW232238   1.841   3.703   6.428
10447SOL     OW32239   6.987   0.788   2.887
10447SOL    HW132240   0.060   0.752   2.861
10447SOL    HW232241   7.000   0.874   2.938
10448SOL     OW32242   3.517   0.582   2.283
10448SOL    HW132243   3.503   0.643   2.205
10448SOL    HW232244   3.469   0.619   2.363
10449SOL     OW32245   2.633   5.661   6.742
10449SOL    HW132246   2.686   5.742   6.766
10449SOL    HW232247   2.548   5.660   6.796
10450SOL     OW32248   6.932   1.719   6.800
10450SOL    HW132249   6.861   1.758   6.859
10450SOL    HW232250   6.921   1.753   6.707
10451SOL     OW32251   3.026   6.431   3.160
10451SOL    HW132252   3.001   6.380   3.078
10451SOL    HW232253   3.093   6.502   3.137
10452SOL     OW32254   6.485   2.842   3.124
10452SOL    HW132255   6.388   2.863   3.118
10452SOL    HW232256   6.526   2.851   3.033
10453SOL     OW32257   5.044   6.482   1.696
10453SOL    HW132258   4.944   6.478   1.697
10453SOL    HW232259   5.076   6.512   1.606
10454SOL     OW32260   5.403   1.729   0.412
10454SOL    HW132261   5.337   1.673   0.463
10454SOL    HW232262   5.368   1.822   0.403
10455SOL     OW32263   6.878   6.141   3.911
10455SOL    HW132264   6.915   6.139   3.818
10455SOL    HW232265   6.861   6.236   3.938
10456SOL     OW32266   0.881   5.123   0.855
10456SOL    HW132267   0.922   5.214   0.861
10456SOL    HW232268   0.942   5.062   0.803
10457SOL     OW32269   4.538   3.215   0.569
10457SOL    HW132270   4.509   3.120   0.557
10457SOL    HW232271   4.638   3.219   0.576
10458SOL     OW32272   6.230   0.292   6.447
10458SOL    HW132273   6.148   0.317   6.500
10458SOL    HW232274   6.291   0.237   6.504
10459SOL     OW32275   4.353   5.504   1.279
10459SOL    HW132276   4.290   5.466   1.211
10459SOL    HW232277   4.303   5.564   1.341
10460SOL     OW32278   1.565   4.099   1.842
10460SOL    HW132279   1.594   4.118   1.749
10460SOL    HW232280   1.548   4.001   1.852
10461SOL     OW32281   6.073   4.720   5.284
10461SOL    HW132282   6.063   4.631   5.328
10461SOL    HW232283   6.165   4.756   5.303
10462SOL     OW32284   5.894   2.434   3.212
10462SOL    HW132285   5.929   2.511   3.159
10462SOL    HW232286   5.838   2.468   3.288
10463SOL     OW32287   4.068   2.216   6.147
10463SOL    HW132288   4.038   2.151   6.217
10463SOL    HW232289   4.010   2.206   6.066
10464SOL     OW32290   5.804   6.359   2.268
10464SOL    HW132291   5.792   6.328   2.363
10464SOL    HW232292   5.822   6.457   2.268
10465SOL     OW32293   5.269   5.606   0.958
10465SOL    HW132294   5.318   5.692   0.962
10465SOL    HW232295   5.187   5.611   1.016
10466SOL     OW32296   4.729   4.640   5.394
10466SOL    HW132297   4.769   4.549   5.382
10466SOL    HW232298   4.764   4.701   5.323
10467SOL     OW32299   1.767   1.964   0.663
10467SOL    HW132300   1.701   2.008   0.602
10467SOL    HW232301   1.859   1.994   0.639
10468SOL     OW32302   3.631   4.896   3.295
10468SOL    HW132303   3.696   4.876   3.222
10468SOL    HW232304   3.678   4.896   3.383
10469SOL     OW32305   4.251   4.582   5.870
10469SOL    HW132306   4.258   4.639   5.953
10469SOL    HW232307   4.327   4.604   5.809
10470SOL     OW32308   2.014   2.042   3.436
10470SOL    HW132309   2.092   1.979   3.441
10470SOL    HW232310   1.993   2.075   3.528
10471SOL     OW32311   2.425   0.188   0.463
10471SOL    HW132312   2.509   0.231   0.432
10471SOL    HW232313   2.347   0.245   0.438
10472SOL     OW32314   3.301   6.038   0.461
10472SOL    HW132315   3.355   5.982   0.524
10472SOL    HW232316   3.222   5.986   0.429
10473SOL     OW32317   6.247   6.761   6.388
10473SOL    HW132318   6.277   6.699   6.460
10473SOL    HW232319   6.293   6.849   6.399
10474SOL     OW32320   4.094   0.936   4.500
10474SOL    HW132321   4.135   0.991   4.428
10474SOL    HW232322   4.012   0.891   4.465
10475SOL     OW32323   3.755   6.854   1.832
10475SOL    HW132324   3.786   6.852   1.738
10475SOL    HW232325   3.665   6.811   1.839
10476SOL     OW32326   5.503   6.576   5.893
10476SOL    HW132327   5.566   6.549   5.966
10476SOL    HW232328   5.495   6.676   5.891
10477SOL     OW32329   6.922   1.318   4.766
10477SOL    HW132330   6.959   1.266   4.689
10477SOL    HW232331   6.853   1.264   4.814
10478SOL     OW32332   6.489   6.814   0.105
10478SOL    HW132333   6.577   6.774   0.077
10478SOL    HW232334   6.493   6.914   0.092
10479SOL     OW32335   6.935   1.722   2.498
10479SOL    HW132336   6.850   1.669   2.498
10479SOL    HW232337   6.997   1.686   2.568
10480SOL     OW32338   0.755   0.883   2.346
10480SOL    HW132339   0.778   0.900   2.442
10480SOL    HW232340   0.699   0.958   2.311
10481SOL     OW32341   1.913   6.339   3.715
10481SOL    HW132342   1.948   6.424   3.754
10481SOL    HW232343   1.978   6.265   3.734
10482SOL     OW32344   6.340   5.058   4.406
10482SOL    HW132345   6.311   4.973   4.450
10482SOL    HW232346   6.440   5.058   4.397
10483SOL     OW32347   6.044   5.292   0.740
10483SOL    HW132348   6.125   5.314   0.794
10483SOL    HW232349   6.058   5.205   0.693
10484SOL     OW32350   5.688   1.684   1.966
10484SOL    HW132351   5.666   1.671   2.063
10484SOL    HW232352   5.767   1.627   1.942
10485SOL     OW32353   3.652   4.209   0.498
10485SOL    HW132354   3.666   4.271   0.575
10485SOL    HW232355   3.677   4.116   0.524
10486SOL     OW32356   0.064   0.379   0.580
10486SOL    HW132357   0.044   0.327   0.496
10486SOL    HW232358   0.030   0.472   0.571
10487SOL     OW32359   4.901   0.455   1.693
10487SOL    HW132360   4.891   0.555   1.689
10487SOL    HW232361   4.810   0.413   1.695
10488SOL     OW32362   3.393   1.497   5.942
10488SOL    HW132363   3.367   1.429   5.873
10488SOL    HW232364   3.424   1.581   5.896
10489SOL     OW32365   0.719   6.817   5.455
10489SOL    HW132366   0.757   6.821   5.547
10489SOL    HW232367   0.770   6.751   5.400
10490SOL     OW32368   6.067   1.572   0.705
10490SOL    HW132369   6.022   1.506   0.645
10490SOL    HW232370   6.071   1.536   0.798
10491SOL     OW32371   2.302   2.798   0.586
10491SOL    HW132372   2.226   2.861   0.601
10491SOL    HW232373   2.285   2.713   0.635
10492SOL     OW32374   5.872   4.379   5.746
10492SOL    HW132375   5.954   4.426   5.778
10492SOL    HW232376   5.800   4.447   5.727
10493SOL     OW32377   3.444   0.845   2.132
10493SOL    HW132378   3.490   0.931   2.154
10493SOL    HW232379   3.507   0.786   2.082
10494SOL     OW32380   5.394   4.168   5.753
10494SOL    HW132381   5.328   4.189   5.825
10494SOL    HW232382   5.404   4.069   5.744
10495SOL     OW32383   2.130   6.716   6.914
10495SOL    HW132384   2.224   6.732   6.886
10495SOL    HW232385   2.127   6.639   6.978
10496SOL     OW32386   0.363   3.864   6.646
10496SOL    HW132387   0.280   3.918   6.631
10496SOL    HW232388   0.347   3.771   6.615
10497SOL     OW32389   1.997   6.989   2.100
10497SOL    HW132390   1.952   0.034   2.035
10497SOL    HW232391   2.059   6.927   2.051
10498SOL     OW32392   3.414   5.531   1.443
10498SOL    HW132393   3.427   5.627   1.416
10498SOL    HW232394   3.337   5.493   1.392
10499SOL     OW32395   3.515   6.369   2.547
10499SOL    HW132396   3.450   6.304   2.507
10499SOL    HW232397   3.511   6.362   2.647
10500SOL     OW32398   6.785   1.841   6.251
10500SOL    HW132399   6.764   1.755   6.297
10500SOL    HW232400   6.800   1.913   6.319
10501SOL     OW32401   1.892   5.945   2.769
10501SOL    HW132402   1.805   5.922   2.813
10501SOL    HW232403   1.904   6.044   2.769
10502SOL     OW32404   2.366   0.555   1.211
10502SOL    HW132405   2.331   0.534   1.119
10502SOL    HW232406   2.460   0.520   1.219
10503SOL     OW32407   4.555   2.867   0.253
10503SOL    HW132408   4.534   2.886   0.349
10503SOL    HW232409   4.649   2.833   0.245
10504SOL     OW32410   1.522   1.823   6.232
10504SOL    HW132411   1.461   1.766   6.287
10504SOL    HW232412   1.615   1.817   6.268
10505SOL     OW32413   5.515   5.530   0.313
10505SOL    HW132414   5.432   5.575   0.282
10505SOL    HW232415   5.593   5.592   0.302
10506SOL     OW32416   0.109   4.972   0.359
10506SOL    HW132417   0.187   4.988   0.298
10506SOL    HW232418   0.056   5.056   0.369
10507SOL     OW32419   2.015   0.671   0.012
10507SOL    HW132420   1.956   0.597   0.044
10507SOL    HW232421   1.985   0.701   6.938
10508SOL     OW32422   6.097   6.773   4.796
10508SOL    HW132423   6.080   6.675   4.805
10508SOL    HW232424   6.131   6.793   4.704
10509SOL     OW32425   0.631   5.815   4.216
10509SOL    HW132426   0.554   5.854   4.266
10509SOL    HW232427   0.598   5.764   4.138
10510SOL     OW32428   4.459   5.816   5.965
10510SOL    HW132429   4.418   5.868   5.890
10510SOL    HW232430   4.554   5.845   5.978
10511SOL     OW32431   4.067   1.203   1.923
10511SOL    HW132432   3.990   1.235   1.867
10511SOL    HW232433   4.055   1.236   2.016
10512SOL     OW32434   4.304   0.307   5.583
10512SOL    HW132435   4.253   0.234   5.628
10512SOL    HW232436   4.270   0.319   5.490
10513SOL     OW32437   6.296   2.939   4.256
10513SOL    HW132438   6.361   2.952   4.331
10513SOL    HW232439   6.336   2.876   4.188
10514SOL     OW32440   0.071   3.941   0.612
10514SOL    HW132441   0.052   3.859   0.559
10514SOL    HW232442   0.135   3.920   0.685
10515SOL     OW32443   0.854   3.122   2.906
10515SOL    HW132444   0.862   3.189   2.979
10515SOL    HW232445   0.757   3.109   2.882
10516SOL     OW32446   4.064   0.979   0.663
10516SOL    HW132447   3.969   0.950   0.660
10516SOL    HW232448   4.098   0.992   0.570
10517SOL     OW32449   0.826   2.422   2.508
10517SOL    HW132450   0.850   2.341   2.454
10517SOL    HW232451   0.892   2.435   2.581
10518SOL     OW32452   0.842   5.438   6.668
10518SOL    HW132453   0.910   5.369   6.643
10518SOL    HW232454   0.824   5.497   6.590
10519SOL     OW32455   2.424   3.137   6.793
10519SOL    HW132456   2.496   3.207   6.795
10519SOL    HW232457   2.368   3.149   6.711
10520SOL     OW32458   0.953   2.587   6.731
10520SOL    HW132459   0.858   2.571   6.757
10520SOL    HW232460   0.956   2.632   6.642
10521SOL     OW32461   6.223   6.581   2.166
10521SOL    HW132462   6.322   6.583   2.175
10521SOL    HW232463   6.197   6.506   2.105
10522SOL     OW32464   6.921   0.237   5.747
10522SOL    HW132465   6.908   0.310   5.814
10522SOL    HW232466   6.914   0.149   5.793
10523SOL     OW32467   0.013   5.082   3.714
10523SOL    HW132468   6.938   5.092   3.753
10523SOL    HW232469   0.011   5.016   3.640
10524SOL     OW32470   1.559   0.569   4.495
10524SOL    HW132471   1.577   0.518   4.579
10524SOL    HW232472   1.461   0.587   4.486
10525SOL     OW32473   3.541   6.361   6.480
10525SOL    HW132474   3.609   6.288   6.489
10525SOL    HW232475   3.571   6.441   6.532
10526SOL     OW32476   1.232   6.722   3.828
10526SOL    HW132477   1.190   6.661   3.895
10526SOL    HW232478   1.166   6.741   3.755
10527SOL     OW32479   0.052   1.888   4.851
10527SOL    HW132480   7.002   1.866   4.923
10527SOL    HW232481   0.103   1.970   4.878
10528SOL     OW32482   1.762   3.361   6.001
10528SOL    HW132483   1.764   3.432   6.072
10528SOL    HW232484   1.802   3.397   5.917
10529SOL     OW32485   2.479   5.768   3.971
10529SOL    HW132486   2.421   5.835   4.018
10529SOL    HW232487   2.421   5.699   3.928
10530SOL     OW32488   2.360   0.150   6.403
10530SOL    HW132489   2.349   0.182   6.309
10530SOL    HW232490   2.430   0.078   6.407
10531SOL     OW32491   1.378   3.078   3.930
10531SOL    HW132492   1.472   3.112   3.940
10531SOL    HW232493   1.339   3.113   3.845
10532SOL     OW32494   0.997   5.350   5.353
10532SOL    HW132495   0.964   5.384   5.265
10532SOL    HW232496   1.007   5.251   5.350
10533SOL     OW32497   2.596   1.161   4.886
10533SOL    HW132498   2.545   1.211   4.956
10533SOL    HW232499   2.683   1.207   4.869
10534SOL     OW32500   6.360   6.052   1.396
10534SOL    HW132501   6.330   5.965   1.434
10534SOL    HW232502   6.414   6.102   1.464
10535SOL     OW32503   0.693   2.220   1.260
10535SOL    HW132504   0.725   2.130   1.290
10535SOL    HW232505   0.640   2.263   1.334
10536SOL     OW32506   3.835   0.505   3.068
10536SOL    HW132507   3.791   0.435   3.123
10536SOL    HW232508   3.882   0.463   2.991
10537SOL     OW32509   4.110   5.458   3.944
10537SOL    HW132510   4.078   5.414   3.860
10537SOL    HW232511   4.056   5.425   4.021
10538SOL     OW32512   5.007   1.841   0.527
10538SOL    HW132513   4.931   1.863   0.588
10538SOL    HW232514   4.973   1.797   0.445
10539SOL     OW32515   0.757   3.981   0.555
10539SOL    HW132516   0.721   4.074   0.541
10539SOL    HW232517   0.754   3.931   0.468
10540SOL     OW32518   1.825   2.654   5.116
10540SOL    HW132519   1.834   2.568   5.166
10540SOL    HW232520   1.823   2.730   5.181
10541SOL     OW32521   3.616   4.111   2.370
10541SOL    HW132522   3.588   4.175   2.442
10541SOL    HW232523   3.538   4.089   2.313
10542SOL     OW32524   6.809   0.362   5.500
10542SOL    HW132525   6.895   0.412   5.499
10542SOL    HW232526   6.817   0.282   5.559
10543SOL     OW32527   0.590   0.974   5.265
10543SOL    HW132528   0.605   0.876   5.280
10543SOL    HW232529   0.664   1.025   5.308
10544SOL     OW32530   1.943   6.610   2.189
10544SOL    HW132531   1.872   6.559   2.141
10544SOL    HW232532   1.929   6.708   2.177
10545SOL     OW32533   6.177   1.044   2.366
10545SOL    HW132534   6.148   0.964   2.419
10545SOL    HW232535   6.164   1.127   2.421
10546SOL     OW32536   1.722   0.795   0.102
10546SOL    HW132537   1.645   0.792   0.038
10546SOL    HW232538   1.808   0.796   0.051
10547SOL     OW32539   5.995   2.537   2.501
10547SOL    HW132540   5.972   2.489   2.416
10547SOL    HW232541   5.923   2.602   2.523
10548SOL     OW32542   5.778   4.752   4.352
10548SOL    HW132543   5.830   4.787   4.274
10548SOL    HW232544   5.800   4.805   4.434
10549SOL     OW32545   6.806   6.592   1.803
10549SOL    HW132546   6.830   6.682   1.839
10549SOL    HW232547   6.736   6.602   1.733
10550SOL     OW32548   4.310   5.839   3.445
10550SOL    HW132549   4.257   5.893   3.379
10550SOL    HW232550   4.388   5.893   3.476
10551SOL     OW32551   1.286   2.554   6.114
10551SOL    HW132552   1.233   2.637   6.095
10551SOL    HW232553   1.378   2.580   6.142
10552SOL     OW32554   3.234   1.385   6.672
10552SOL    HW132555   3.198   1.417   6.584
10552SOL    HW232556   3.295   1.455   6.709
10553SOL     OW32557   0.748   4.835   1.510
10553SOL    HW132558   0.729   4.915   1.454
10553SOL    HW232559   0.697   4.756   1.475
10554SOL     OW32560   5.783   4.828   0.118
10554SOL    HW132561   5.707   4.786   0.069
10554SOL    HW232562   5.815   4.908   0.068
10555SOL     OW32563   1.834   3.556   0.369
10555SOL    HW132564   1.872   3.464   0.358
10555SOL    HW232565   1.735   3.551   0.376
10556SOL     OW32566   2.329   1.931   5.287
10556SOL    HW132567   2.327   1.928   5.387
10556SOL    HW232568   2.283   1.850   5.251
10557SOL     OW32569   2.288   2.641   2.984
10557SOL    HW132570   2.379   2.625   2.946
10557SOL    HW232571   2.233   2.558   2.974
10558SOL     OW32572   3.693   1.271   4.002
10558SOL    HW132573   3.759   1.328   3.954
10558SOL    HW232574   3.719   1.175   3.992
10559SOL     OW32575   5.266   0.570   0.908
10559SOL    HW132576   5.346   0.626   0.931
10559SOL    HW232577   5.259   0.494   0.973
10560SOL     OW32578   3.655   5.980   3.138
10560SOL    HW132579   3.614   5.893   3.111
10560SOL    HW232580   3.624   6.005   3.229
10561SOL     OW32581   2.951   4.239   0.420
10561SOL    HW132582   3.033   4.229   0.476
10561SOL    HW232583   2.965   4.195   0.332
10562SOL     OW32584   4.681   5.517   0.214
10562SOL    HW132585   4.654   5.607   0.247
10562SOL    HW232586   4.780   5.515   0.201
10563SOL     OW32587   0.748   1.307   3.430
10563SOL    HW132588   0.781   1.221   3.469
10563SOL    HW232589   0.826   1.360   3.397
10564SOL     OW32590   5.558   6.514   1.377
10564SOL    HW132591   5.626   6.479   1.441
10564SOL    HW232592   5.603   6.535   1.289
10565SOL     OW32593   0.098   0.512   6.200
10565SOL    HW132594   0.168   0.574   6.236
10565SOL    HW232595   0.138   0.422   6.185
10566SOL     OW32596   3.841   2.397   7.009
10566SOL    HW132597   3.931   2.427   6.977
10566SOL    HW232598   3.770   2.438   6.952
10567SOL     OW32599   3.331   2.028   4.236
10567SOL    HW132600   3.345   2.003   4.140
10567SOL    HW232601   3.294   2.121   4.241
10568SOL     OW32602   6.390   2.483   1.603
10568SOL    HW132603   6.405   2.535   1.519
10568SOL    HW232604   6.475   2.482   1.656
10569SOL     OW32605   5.862   1.898   2.001
10569SOL    HW132606   5.847   1.961   1.925
10569SOL    HW232607   5.799   1.820   1.993
10570SOL     OW32608   1.729   5.152   3.105
10570SOL    HW132609   1.687   5.104   3.181
10570SOL    HW232610   1.695   5.114   3.019
10571SOL     OW32611   0.024   4.776   5.841
10571SOL    HW132612   0.011   4.797   5.744
10571SOL    HW232613   6.953   4.757   5.883
10572SOL     OW32614   6.905   3.952   3.801
10572SOL    HW132615   6.883   3.973   3.897
10572SOL    HW232616   6.914   4.037   3.750
10573SOL     OW32617   4.226   6.853   5.021
10573SOL    HW132618   4.284   6.910   4.964
10573SOL    HW232619   4.192   6.776   4.968
10574SOL     OW32620   1.114   0.914   3.656
10574SOL    HW132621   1.107   0.963   3.743
10574SOL    HW232622   1.106   0.816   3.672
10575SOL     OW32623   6.418   1.518   3.224
10575SOL    HW132624   6.418   1.549   3.129
10575SOL    HW232625   6.503   1.545   3.268
10576SOL     OW32626   6.977   6.197   5.217
10576SOL    HW132627   6.971   6.107   5.176
10576SOL    HW232628   6.972   6.189   5.317
10577SOL     OW32629   1.841   3.041   0.516
10577SOL    HW132630   1.841   3.027   0.615
10577SOL    HW232631   1.917   2.991   0.474
10578SOL     OW32632   5.884   0.706   2.937
10578SOL    HW132633   5.924   0.760   3.011
10578SOL    HW232634   5.821   0.763   2.884
10579SOL     OW32635   4.087   2.029   1.267
10579SOL    HW132636   4.100   1.967   1.344
10579SOL    HW232637   4.021   1.989   1.203
10580SOL     OW32638   6.588   0.443   6.836
10580SOL    HW132639   6.582   0.467   6.933
10580SOL    HW232640   6.572   0.525   6.780
10581SOL     OW32641   6.909   6.880   3.671
10581SOL    HW132642   6.868   6.804   3.721
10581SOL    HW232643   6.870   6.966   3.703
10582SOL     OW32644   5.636   4.690   6.698
10582SOL    HW132645   5.572   4.628   6.652
10582SOL    HW232646   5.722   4.643   6.716
10583SOL     OW32647   3.903   1.306   5.043
10583SOL    HW132648   3.958   1.229   5.009
10583SOL    HW232649   3.879   1.366   4.967
10584SOL     OW32650   6.648   6.602   1.186
10584SOL    HW132651   6.692   6.659   1.256
10584SOL    HW232652   6.646   6.507   1.217
10585SOL     OW32653   2.266   2.836   6.464
10585SOL    HW132654   2.243   2.892   6.384
10585SOL    HW232655   2.360   2.854   6.491
10586SOL     OW32656   6.707   4.796   4.848
10586SOL    HW132657   6.609   4.816   4.844
10586SOL    HW232658   6.745   4.791   4.756
10587SOL     OW32659   6.032   3.972   0.380
10587SOL    HW132660   5.971   4.045   0.350
10587SOL    HW232661   6.009   3.946   0.474
10588SOL     OW32662   0.465   3.088   3.680
10588SOL    HW132663   0.512   3.146   3.747
10588SOL    HW232664   0.367   3.087   3.701
10589SOL     OW32665   6.130   1.395   4.337
10589SOL    HW132666   6.128   1.304   4.296
10589SOL    HW232667   6.219   1.437   4.320
10590SOL     OW32668   1.150   0.294   2.003
10590SOL    HW132669   1.061   0.268   2.041
10590SOL    HW232670   1.142   0.303   1.904
10591SOL     OW32671   1.041   2.068   6.125
10591SOL    HW132672   1.106   2.140   6.151
10591SOL    HW232673   0.974   2.106   6.062
10592SOL     OW32674   5.677   3.927   1.648
10592SOL    HW132675   5.688   3.848   1.708
10592SOL    HW232676   5.738   4.000   1.678
10593SOL     OW32677   2.642   5.229   0.434
10593SOL    HW132678   2.675   5.203   0.343
10593SOL    HW232679   2.566   5.294   0.423
10594SOL     OW32680   4.607   0.105   2.382
10594SOL    HW132681   4.632   0.030   2.444
10594SOL    HW232682   4.547   0.169   2.430
10595SOL     OW32683   3.580   6.627   5.687
10595SOL    HW132684   3.674   6.601   5.709
10595SOL    HW232685   3.568   6.627   5.587
10596SOL     OW32686   4.322   6.964   6.726
10596SOL    HW132687   4.226   6.937   6.715
10596SOL    HW232688   4.339   6.988   6.822
10597SOL     OW32689   3.478   1.224   5.351
10597SOL    HW132690   3.420   1.304   5.367
10597SOL    HW232691   3.527   1.235   5.265
10598SOL     OW32692   3.109   2.477   0.623
10598SOL    HW132693   3.044   2.535   0.574
10598SOL    HW232694   3.200   2.490   0.586
10599SOL     OW32695   5.315   2.767   5.867
10599SOL    HW132696   5.414   2.755   5.878
10599SOL    HW232697   5.274   2.679   5.843
10600SOL     OW32698   2.134   2.274   0.638
10600SOL    HW132699   2.232   2.284   0.622
10600SOL    HW232700   2.083   2.335   0.577
10601SOL     OW32701   1.699   4.708   5.976
10601SOL    HW132702   1.781   4.676   5.929
10601SOL    HW232703   1.725   4.760   6.057
10602SOL     OW32704   3.634   1.487   2.761
10602SOL    HW132705   3.693   1.407   2.765
10602SOL    HW232706   3.540   1.461   2.784
10603SOL     OW32707   3.172   5.680   3.349
10603SOL    HW132708   3.168   5.635   3.260
10603SOL    HW232709   3.079   5.694   3.384
10604SOL     OW32710   6.007   4.651   5.627
10604SOL    HW132711   6.053   4.735   5.600
10604SOL    HW232712   6.027   4.579   5.561
10605SOL     OW32713   1.949   6.064   0.616
10605SOL    HW132714   1.957   6.004   0.696
10605SOL    HW232715   2.004   6.026   0.541
10606SOL     OW32716   6.917   0.826   2.596
10606SOL    HW132717   6.947   0.773   2.517
10606SOL    HW232718   6.940   0.778   2.680
10607SOL     OW32719   4.188   4.980   5.759
10607SOL    HW132720   4.142   5.036   5.690
10607SOL    HW232721   4.169   5.016   5.850
10608SOL     OW32722   5.197   2.058   5.732
10608SOL    HW132723   5.161   2.043   5.640
10608SOL    HW232724   5.143   2.007   5.799
10609SOL     OW32725   3.275   6.447   0.957
10609SOL    HW132726   3.196   6.390   0.936
10609SOL    HW232727   3.349   6.389   0.993
10610SOL     OW32728   1.483   2.799   5.674
10610SOL    HW132729   1.521   2.794   5.766
10610SOL    HW232730   1.427   2.718   5.656
10611SOL     OW32731   4.301   3.769   5.778
10611SOL    HW132732   4.222   3.727   5.734
10611SOL    HW232733   4.325   3.716   5.860
10612SOL     OW32734   2.708   0.964   5.370
10612SOL    HW132735   2.796   1.009   5.386
10612SOL    HW232736   2.682   0.974   5.274
10613SOL     OW32737   6.104   6.944   5.012
10613SOL    HW132738   6.136   0.009   4.963
10613SOL    HW232739   6.111   6.864   4.952
10614SOL     OW32740   6.384   2.207   4.056
10614SOL    HW132741   6.482   2.226   4.056
10614SOL    HW232742   6.360   2.152   3.975
10615SOL     OW32743   3.168   6.485   6.238
10615SOL    HW132744   3.213   6.415   6.294
10615SOL    HW232745   3.072   6.493   6.266
10616SOL     OW32746   2.712   6.256   0.995
10616SOL    HW132747   2.672   6.345   1.019
10616SOL    HW232748   2.674   6.226   0.908
10617SOL     OW32749   2.517   2.465   0.958
10617SOL    HW132750   2.591   2.472   0.891
10617SOL    HW232751   2.555   2.449   1.049
10618SOL     OW32752   7.009   3.533   6.363
10618SOL    HW132753   7.000   3.450   6.419
10618SOL    HW232754   0.082   3.533   6.318
10619SOL     OW32755   0.257   4.174   1.964
10619SOL    HW132756   0.312   4.090   1.962
10619SOL    HW232757   0.163   4.153   1.939
10620SOL     OW32758   1.406   5.541   5.389
10620SOL    HW132759   1.497   5.581   5.373
10620SOL    HW232760   1.414   5.467   5.456
10621SOL     OW32761   1.253   6.340   2.041
10621SOL    HW132762   1.177   6.278   2.021
10621SOL    HW232763   1.305   6.304   2.119
10622SOL     OW32764   5.082   1.305   1.140
10622SOL    HW132765   5.182   1.303   1.129
10622SOL    HW232766   5.045   1.213   1.126
10623SOL     OW32767   6.748   4.477   5.004
10623SOL    HW132768   6.730   4.544   5.076
10623SOL    HW232769   6.845   4.454   5.004
10624SOL     OW32770   0.377   2.379   4.571
10624SOL    HW132771   0.371   2.402   4.668
10624SOL    HW232772   0.453   2.429   4.530
10625SOL     OW32773   0.677   4.351   6.959
10625SOL    HW132774   0.596   4.292   6.960
10625SOL    HW232775   0.709   4.362   6.865
10626SOL     OW32776   2.488   3.369   0.878
10626SOL    HW132777   2.493   3.319   0.791
10626SOL    HW232778   2.471   3.304   0.953
10627SOL     OW32779   5.491   6.934   0.279
10627SOL    HW132780   5.464   6.844   0.313
10627SOL    HW232781   5.586   6.931   0.250
10628SOL     OW32782   4.609   5.776   0.307
10628SOL    HW132783   4.515   5.742   0.305
10628SOL    HW232784   4.619   5.852   0.243
10629SOL     OW32785   2.621   4.888   5.171
10629SOL    HW132786   2.612   4.822   5.096
10629SOL    HW232787   2.613   4.841   5.258
10630SOL     OW32788   6.753   1.500   3.627
10630SOL    HW132789   6.776   1.597   3.637
10630SOL    HW232790   6.764   1.455   3.716
10631SOL     OW32791   2.779   5.230   4.653
10631SOL    HW132792   2.866   5.182   4.643
10631SOL    HW232793   2.764   5.251   4.750
10632SOL     OW32794   6.192   2.088   3.888
10632SOL    HW132795   6.194   2.009   3.948
10632SOL    HW232796   6.172   2.058   3.794
10633SOL     OW32797   2.846   3.606   1.711
10633SOL    HW132798   2.866   3.535   1.779
10633SOL    HW232799   2.756   3.645   1.729
10634SOL     OW32800   3.078   5.836   0.897
10634SOL    HW132801   2.984   5.869   0.893
10634SOL    HW232802   3.079   5.736   0.899
10635SOL     OW32803   3.653   1.525   1.212
10635SOL    HW132804   3.558   1.557   1.215
10635SOL    HW232805   3.689   1.534   1.119
10636SOL     OW32806   0.914   1.202   1.696
10636SOL    HW132807   0.966   1.239   1.619
10636SOL    HW232808   0.971   1.137   1.747
10637SOL     OW32809   2.272   4.479   5.792
10637SOL    HW132810   2.317   4.442   5.711
10637SOL    HW232811   2.228   4.404   5.842
10638SOL     OW32812   0.079   5.339   2.823
10638SOL    HW132813   0.036   5.333   2.913
10638SOL    HW232814   0.172   5.303   2.827
10639SOL     OW32815   1.250   3.673   2.665
10639SOL    HW132816   1.218   3.765   2.645
10639SOL    HW232817   1.206   3.608   2.603
10640SOL     OW32818   3.569   0.401   5.685
10640SOL    HW132819   3.552   0.311   5.725
10640SOL    HW232820   3.504   0.417   5.611
10641SOL     OW32821   3.819   2.078   0.456
10641SOL    HW132822   3.864   2.167   0.465
10641SOL    HW232823   3.726   2.091   0.423
10642SOL     OW32824   6.966   3.091   1.914
10642SOL    HW132825   6.910   3.162   1.872
10642SOL    HW232826   7.005   3.125   1.999
10643SOL     OW32827   2.241   5.144   5.186
10643SOL    HW132828   2.290   5.122   5.271
10643SOL    HW232829   2.144   5.157   5.206
10644SOL     OW32830   4.939   2.657   3.353
10644SOL    HW132831   4.992   2.740   3.336
10644SOL    HW232832   4.851   2.662   3.305
10645SOL     OW32833   0.969   1.502   4.982
10645SOL    HW132834   1.004   1.596   4.987
10645SOL    HW232835   0.933   1.475   5.071
10646SOL     OW32836   6.982   0.911   6.707
10646SOL    HW132837   0.038   0.977   6.725
10646SOL    HW232838   7.010   0.821   6.741
10647SOL     OW32839   3.237   5.224   6.337
10647SOL    HW132840   3.290   5.303   6.307
10647SOL    HW232841   3.167   5.203   6.268
10648SOL     OW32842   5.441   4.306   6.161
10648SOL    HW132843   5.491   4.387   6.132
10648SOL    HW232844   5.372   4.284   6.092
10649SOL     OW32845   0.546   4.071   3.575
10649SOL    HW132846   0.479   4.117   3.517
10649SOL    HW232847   0.590   3.997   3.524
10650SOL     OW32848   1.115   5.887   3.525
10650SOL    HW132849   1.041   5.915   3.465
10650SOL    HW232850   1.098   5.921   3.617
10651SOL     OW32851   4.293   6.787   6.173
10651SOL    HW132852   4.392   6.773   6.176
10651SOL    HW232853   4.270   6.844   6.094
10652SOL     OW32854   3.638   6.781   6.134
10652SOL    HW132855   3.598   6.717   6.068
10652SOL    HW232856   3.680   6.857   6.085
10653SOL     OW32857   5.306   3.787   3.977
10653SOL    HW132858   5.287   3.880   3.945
10653SOL    HW232859   5.352   3.736   3.904
10654SOL     OW32860   4.629   1.502   0.455
10654SOL    HW132861   4.667   1.423   0.407
10654SOL    HW232862   4.639   1.489   0.554
10655SOL     OW32863   2.802   5.690   0.961
10655SOL    HW132864   2.844   5.705   1.050
10655SOL    HW232865   2.715   5.740   0.956
10656SOL     OW32866   7.004   2.360   1.615
10656SOL    HW132867   6.910   2.334   1.597
10656SOL    HW232868   0.012   2.440   1.560
10657SOL     OW32869   6.112   0.052   6.070
10657SOL    HW132870   6.135   0.108   5.991
10657SOL    HW232871   6.168   6.985   6.070
10658SOL     OW32872   6.244   4.192   5.259
10658SOL    HW132873   6.182   4.237   5.196
10658SOL    HW232874   6.339   4.215   5.235
10659SOL     OW32875   6.930   6.232   0.600
10659SOL    HW132876   6.832   6.236   0.618
10659SOL    HW232877   6.953   6.145   0.558
10660SOL     OW32878   5.513   3.847   6.981
10660SOL    HW132879   5.484   3.932   0.009
10660SOL    HW232880   5.438   3.781   6.983
10661SOL     OW32881   6.882   6.307   2.805
10661SOL    HW132882   6.973   6.346   2.819
10661SOL    HW232883   6.862   6.242   2.878
10662SOL     OW32884   5.372   0.807   2.674
10662SOL    HW132885   5.373   0.786   2.577
10662SOL    HW232886   5.296   0.759   2.718
10663SOL     OW32887   0.461   0.383   1.669
10663SOL    HW132888   0.505   0.451   1.728
10663SOL    HW232889   0.365   0.374   1.694
10664SOL     OW32890   0.895   5.209   4.560
10664SOL    HW132891   0.965   5.147   4.597
10664SOL    HW232892   0.909   5.220   4.462
10665SOL     OW32893   0.408   0.833   0.796
10665SOL    HW132894   0.350   0.891   0.739
10665SOL    HW232895   0.352   0.765   0.843
10666SOL     OW32896   2.992   4.169   0.155
10666SOL    HW132897   3.040   4.093   0.111
10666SOL    HW232898   2.898   4.174   0.121
10667SOL     OW32899   4.300   3.267   5.375
10667SOL    HW132900   4.255   3.343   5.421
10667SOL    HW232901   4.260   3.255   5.284
10668SOL     OW32902   1.622   1.793   5.290
10668SOL    HW132903   1.539   1.789   5.234
10668SOL    HW232904   1.611   1.733   5.370
10669SOL     OW32905   5.958   6.694   0.969
10669SOL    HW132906   5.915   6.697   1.059
10669SOL    HW232907   6.033   6.760   0.966
10670SOL     OW32908   4.829   3.970   4.825
10670SOL    HW132909   4.846   4.054   4.773
10670SOL    HW232910   4.828   3.892   4.764
10671SOL     OW32911   2.264   1.824   2.772
10671SOL    HW132912   2.229   1.917   2.770
10671SOL    HW232913   2.333   1.812   2.701
10672SOL     OW32914   6.790   2.363   0.679
10672SOL    HW132915   6.870   2.368   0.620
10672SOL    HW232916   6.804   2.420   0.760
10673SOL     OW32917   1.052   1.360   0.096
10673SOL    HW132918   1.079   1.418   0.020
10673SOL    HW232919   1.081   1.402   0.182
10674SOL     OW32920   2.967   4.722   1.106
10674SOL    HW132921   3.047   4.662   1.117
10674SOL    HW232922   2.982   4.784   1.029
10675SOL     OW32923   2.043   7.016   5.897
10675SOL    HW132924   1.951   0.030   5.871
10675SOL    HW232925   2.110   0.070   5.873
10676SOL     OW32926   6.279   6.603   5.924
10676SOL    HW132927   6.190   6.571   5.893
10676SOL    HW232928   6.351   6.546   5.885
10677SOL     OW32929   0.893   0.551   2.286
10677SOL    HW132930   0.856   0.496   2.211
10677SOL    HW232931   0.972   0.603   2.253
10678SOL     OW32932   3.616   5.669   2.198
10678SOL    HW132933   3.574   5.611   2.128
10678SOL    HW232934   3.702   5.627   2.229
10679SOL     OW32935   5.529   4.559   6.123
10679SOL    HW132936   5.555   4.580   6.029
10679SOL    HW232937   5.451   4.616   6.150
10680SOL     OW32938   2.828   1.852   3.781
10680SOL    HW132939   2.886   1.865   3.700
10680SOL    HW232940   2.829   1.755   3.807
10681SOL     OW32941   0.289   3.940   6.899
10681SOL    HW132942   0.293   3.901   6.807
10681SOL    HW232943   0.198   3.979   6.915
10682SOL     OW32944   1.757   1.927   3.383
10682SOL    HW132945   1.699   1.946   3.462
10682SOL    HW232946   1.853   1.940   3.409
10683SOL     OW32947   3.501   2.123   3.558
10683SOL    HW132948   3.594   2.114   3.593
10683SOL    HW232949   3.492   2.210   3.509
10684SOL     OW32950   4.739   3.587   0.854
10684SOL    HW132951   4.700   3.535   0.930
10684SOL    HW232952   4.683   3.571   0.772
10685SOL     OW32953   6.631   4.303   2.599
10685SOL    HW132954   6.567   4.328   2.673
10685SOL    HW232955   6.721   4.342   2.619
10686SOL     OW32956   2.801   4.807   6.399
10686SOL    HW132957   2.892   4.779   6.427
10686SOL    HW232958   2.805   4.897   6.356
10687SOL     OW32959   6.966   5.187   1.917
10687SOL    HW132960   6.867   5.178   1.927
10687SOL    HW232961   6.990   5.284   1.910
10688SOL     OW32962   0.108   4.546   2.695
10688SOL    HW132963   0.174   4.537   2.770
10688SOL    HW232964   0.143   4.611   2.628
10689SOL     OW32965   0.206   0.086   4.170
10689SOL    HW132966   0.234   0.139   4.090
10689SOL    HW232967   0.283   0.031   4.202
10690SOL     OW32968   6.660   5.259   3.478
10690SOL    HW132969   6.630   5.310   3.397
10690SOL    HW232970   6.620   5.301   3.560
10691SOL     OW32971   0.399   0.978   2.667
10691SOL    HW132972   0.416   1.056   2.606
10691SOL    HW232973   0.307   0.987   2.706
10692SOL     OW32974   3.501   4.953   2.563
10692SOL    HW132975   3.574   4.926   2.626
10692SOL    HW232976   3.540   4.981   2.475
10693SOL     OW32977   1.933   0.228   1.548
10693SOL    HW132978   1.985   0.275   1.477
10693SOL    HW232979   1.868   0.292   1.589
10694SOL     OW32980   4.311   6.304   1.634
10694SOL    HW132981   4.213   6.311   1.653
10694SOL    HW232982   4.357   6.262   1.712
10695SOL     OW32983   5.767   2.229   2.450
10695SOL    HW132984   5.804   2.289   2.379
10695SOL    HW232985   5.729   2.284   2.524
10696SOL     OW32986   6.536   4.085   2.863
10696SOL    HW132987   6.512   4.032   2.782
10696SOL    HW232988   6.503   4.038   2.945
10697SOL     OW32989   0.010   6.381   4.831
10697SOL    HW132990   6.938   6.345   4.801
10697SOL    HW232991   0.006   6.405   4.928
10698SOL     OW32992   3.899   6.136   3.719
10698SOL    HW132993   3.923   6.082   3.638
10698SOL    HW232994   3.970   6.204   3.736
10699SOL     OW32995   4.281   1.875   2.559
10699SOL    HW132996   4.204   1.875   2.624
10699SOL    HW232997   4.250   1.909   2.471
10700SOL     OW32998   1.093   0.204   0.153
10700SOL    HW132999   1.040   0.260   0.217
10700SOL    HW233000   1.036   0.181   0.074
10701SOL     OW33001   3.469   6.040   0.187
10701SOL    HW133002   3.534   6.041   0.262
10701SOL    HW233003   3.463   5.948   0.148
10702SOL     OW33004   6.851   2.527   2.855
10702SOL    HW133005   6.948   2.503   2.858
10702SOL    HW233006   6.800   2.459   2.803
10703SOL     OW33007   3.921   3.253   4.019
10703SOL    HW133008   3.878   3.341   4.041
10703SOL    HW233009   3.957   3.257   3.926
10704SOL     OW33010   5.644   5.787   1.261
10704SOL    HW133011   5.559   5.836   1.276
10704SOL    HW233012   5.720   5.838   1.301
10705SOL     OW33013   6.812   4.152   1.924
10705SOL    HW133014   6.839   4.169   2.019
10705SOL    HW233015   6.767   4.063   1.918
10706SOL     OW33016   4.916   6.677   1.892
10706SOL    HW133017   4.917   6.656   1.794
10706SOL    HW233018   4.933   6.594   1.945
10707SOL     OW33019   0.511   0.006   4.885
10707SOL    HW133020   0.507   6.966   4.968
10707SOL    HW233021   0.455   6.981   4.814
10708SOL     OW33022   4.583   0.920   2.580
10708SOL    HW133023   4.604   1.008   2.624
10708SOL    HW233024   4.606   0.845   2.642
10709SOL     OW33025   6.899   1.532   4.974
10709SOL    HW133026   6.877   1.612   4.918
10709SOL    HW233027   6.927   1.456   4.915
10710SOL     OW33028   0.864   6.393   4.558
10710SOL    HW133029   0.948   6.355   4.520
10710SOL    HW233030   0.785   6.358   4.507
10711SOL     OW33031   1.963   6.617   3.818
10711SOL    HW133032   2.044   6.625   3.760
10711SOL    HW233033   1.885   6.659   3.772
10712SOL     OW33034   3.688   0.392   2.327
10712SOL    HW133035   3.786   0.415   2.327
10712SOL    HW233036   3.635   0.477   2.323
10713SOL     OW33037   1.562   4.232   2.283
10713SOL    HW133038   1.494   4.160   2.294
10713SOL    HW233039   1.558   4.295   2.360
10714SOL     OW33040   6.428   2.556   4.909
10714SOL    HW133041   6.465   2.554   5.002
10714SOL    HW233042   6.429   2.650   4.874
10715SOL     OW33043   3.816   0.775   3.004
10715SOL    HW133044   3.838   0.680   3.025
10715SOL    HW233045   3.731   0.779   2.952
10716SOL     OW33046   0.186   2.894   3.403
10716SOL    HW133047   0.235   2.981   3.400
10716SOL    HW233048   0.169   2.862   3.309
10717SOL     OW33049   0.937   2.305   0.685
10717SOL    HW133050   0.893   2.311   0.595
10717SOL    HW233051   1.016   2.367   0.688
10718SOL     OW33052   6.619   4.247   0.055
10718SOL    HW133053   6.635   4.346   0.060
10718SOL    HW233054   6.606   4.210   0.147
10719SOL     OW33055   4.621   5.880   1.203
10719SOL    HW133056   4.530   5.866   1.164
10719SOL    HW233057   4.622   5.845   1.297
10720SOL     OW33058   0.576   3.848   6.321
10720SOL    HW133059   0.567   3.946   6.302
10720SOL    HW233060   0.660   3.832   6.373
10721SOL     OW33061   6.327   2.387   4.437
10721SOL    HW133062   6.230   2.365   4.438
10721SOL    HW233063   6.343   2.471   4.490
10722SOL     OW33064   6.969   3.314   0.511
10722SOL    HW133065   6.961   3.215   0.521
10722SOL    HW233066   0.038   3.346   0.551
10723SOL     OW33067   5.978   3.796   0.096
10723SOL    HW133068   6.047   3.840   0.154
10723SOL    HW233069   5.983   3.833   0.004
10724SOL     OW33070   3.342   0.127   6.394
10724SOL    HW133071   3.336   0.031   6.366
10724SOL    HW233072   3.415   0.137   6.462
10725SOL     OW33073   6.952   4.953   4.055
10725SOL    HW133074   6.892   4.883   4.094
10725SOL    HW233075   6.914   4.983   3.967
10726SOL     OW33076   5.775   6.461   5.223
10726SOL    HW133077   5.711   6.391   5.257
10726SOL    HW233078   5.724   6.545   5.203
10727SOL     OW33079   1.701   4.830   4.755
10727SOL    HW133080   1.629   4.797   4.694
10727SOL    HW233081   1.759   4.895   4.706
10728SOL     OW33082   6.040   6.809   2.182
10728SOL    HW133083   6.081   6.831   2.271
10728SOL    HW233084   6.083   6.728   2.144
10729SOL     OW33085   6.389   1.341   2.472
10729SOL    HW133086   6.470   1.328   2.529
10729SOL    HW233087   6.401   1.294   2.385
10730SOL     OW33088   2.806   6.604   1.298
10730SOL    HW133089   2.817   6.697   1.334
10730SOL    HW233090   2.758   6.548   1.365
10731SOL     OW33091   2.205   5.555   0.212
10731SOL    HW133092   2.281   5.527   0.152
10731SOL    HW233093   2.125   5.577   0.156
10732SOL     OW33094   5.838   0.207   2.762
10732SOL    HW133095   5.847   0.270   2.840
10732SOL    HW233096   5.748   0.164   2.765
10733SOL     OW33097   5.939   2.515   7.003
10733SOL    HW133098   5.863   2.579   7.004
10733SOL    HW233099   6.021   2.562   6.971
10734SOL     OW33100   1.353   0.668   6.949
10734SOL    HW133101   1.309   0.695   6.863
10734SOL    HW233102   1.287   0.677   0.007
10735SOL     OW33103   1.407   4.616   2.036
10735SOL    HW133104   1.489   4.575   1.996
10735SOL    HW233105   1.391   4.706   1.996
10736SOL     OW33106   0.910   1.005   3.414
10736SOL    HW133107   0.901   0.908   3.436
10736SOL    HW233108   0.997   1.040   3.448
10737SOL     OW33109   0.620   2.587   0.737
10737SOL    HW133110   0.635   2.661   0.802
10737SOL    HW233111   0.652   2.614   0.647
10738SOL     OW33112   2.318   0.286   2.164
10738SOL    HW133113   2.232   0.254   2.205
10738SOL    HW233114   2.395   0.252   2.217
10739SOL     OW33115   6.908   1.286   2.814
10739SOL    HW133116   6.964   1.307   2.894
10739SOL    HW233117   6.823   1.339   2.818
10740SOL     OW33118   1.143   5.551   5.771
10740SOL    HW133119   1.230   5.546   5.821
10740SOL    HW233120   1.161   5.573   5.675
10741SOL     OW33121   1.202   1.198   3.528
10741SOL    HW133122   1.284   1.247   3.558
10741SOL    HW233123   1.209   1.102   3.556
10742SOL     OW33124   5.894   6.993   2.074
10742SOL    HW133125   5.950   0.017   2.001
10742SOL    HW233126   5.942   6.914   2.113
10743SOL     OW33127   2.346   2.750   3.629
10743SOL    HW133128   2.377   2.746   3.534
10743SOL    HW233129   2.389   2.676   3.681
10744SOL     OW33130   3.017   1.707   2.692
10744SOL    HW133131   2.939   1.645   2.691
10744SOL    HW233132   2.984   1.802   2.688
10745SOL     OW33133   1.713   4.821   6.614
10745SOL    HW133134   1.739   4.792   6.706
10745SOL    HW233135   1.790   4.808   6.551
10746SOL     OW33136   1.730   5.688   1.418
10746SOL    HW133137   1.656   5.630   1.383
10746SOL    HW233138   1.817   5.641   1.409
10747SOL     OW33139   5.160   1.586   3.465
10747SOL    HW133140   5.212   1.642   3.529
10747SOL    HW233141   5.082   1.544   3.512
10748SOL     OW33142   6.014   5.914   1.148
10748SOL    HW133143   6.013   5.952   1.055
10748SOL    HW233144   6.017   5.814   1.143
10749SOL     OW33145   0.474   5.015   2.938
10749SOL    HW133146   0.379   5.000   2.966
10749SOL    HW233147   0.530   4.939   2.972
10750SOL     OW33148   4.564   4.520   4.549
10750SOL    HW133149   4.475   4.511   4.504
10750SOL    HW233150   4.552   4.524   4.648
10751SOL     OW33151   1.136   3.207   5.285
10751SOL    HW133152   1.104   3.196   5.191
10751SOL    HW233153   1.133   3.119   5.332
10752SOL     OW33154   5.975   3.588   6.371
10752SOL    HW133155   5.928   3.578   6.284
10752SOL    HW233156   6.073   3.600   6.355
10753SOL     OW33157   6.269   0.016   3.949
10753SOL    HW133158   6.367   7.014   3.936
10753SOL    HW233159   6.254   0.052   4.041
10754SOL     OW33160   2.175   2.183   2.503
10754SOL    HW133161   2.087   2.178   2.550
10754SOL    HW233162   2.166   2.239   2.421
10755SOL     OW33163   6.992   1.757   0.653
10755SOL    HW133164   0.025   1.768   0.740
10755SOL    HW233165   6.924   1.684   0.662
10756SOL     OW33166   6.324   3.408   0.946
10756SOL    HW133167   6.240   3.358   0.922
10756SOL    HW233168   6.368   3.440   0.862
10757SOL     OW33169   0.181   3.183   0.305
10757SOL    HW133170   0.225   3.203   0.218
10757SOL    HW233171   0.099   3.239   0.316
10758SOL     OW33172   0.549   5.949   5.356
10758SOL    HW133173   0.541   6.022   5.424
10758SOL    HW233174   0.465   5.895   5.355
10759SOL     OW33175   2.154   2.917   0.162
10759SOL    HW133176   2.195   2.953   0.078
10759SOL    HW233177   2.068   2.871   0.140
10760SOL     OW33178   0.305   6.791   0.691
10760SOL    HW133179   0.347   6.713   0.645
10760SOL    HW233180   0.212   6.768   0.718
10761SOL     OW33181   0.858   2.525   6.041
10761SOL    HW133182   0.855   2.617   6.001
10761SOL    HW233183   0.897   2.461   5.976
10762SOL     OW33184   4.643   0.751   4.868
10762SOL    HW133185   4.667   0.729   4.774
10762SOL    HW233186   4.638   0.668   4.922
10763SOL     OW33187   4.294   6.713   1.098
10763SOL    HW133188   4.357   6.747   1.168
10763SOL    HW233189   4.318   6.752   1.009
10764SOL     OW33190   5.188   1.821   6.269
10764SOL    HW133191   5.095   1.848   6.244
10764SOL    HW233192   5.250   1.898   6.256
10765SOL     OW33193   5.682   1.754   1.400
10765SOL    HW133194   5.619   1.828   1.377
10765SOL    HW233195   5.717   1.767   1.492
10766SOL     OW33196   2.916   3.619   0.365
10766SOL    HW133197   2.954   3.672   0.289
10766SOL    HW233198   2.948   3.657   0.451
10767SOL     OW33199   1.502   0.277   0.803
10767SOL    HW133200   1.498   0.192   0.751
10767SOL    HW233201   1.454   0.265   0.890
10768SOL     OW33202   5.407   5.763   0.558
10768SOL    HW133203   5.367   5.691   0.615
10768SOL    HW233204   5.461   5.721   0.485
10769SOL     OW33205   3.002   5.156   5.288
10769SOL    HW133206   3.025   5.126   5.195
10769SOL    HW233207   3.055   5.238   5.310
10770SOL     OW33208   5.378   0.582   4.926
10770SOL    HW133209   5.362   0.656   4.860
10770SOL    HW233210   5.463   0.598   4.975
10771SOL     OW33211   4.184   0.321   5.333
10771SOL    HW133212   4.222   0.230   5.319
10771SOL    HW233213   4.168   0.365   5.245
10772SOL     OW33214   6.524   0.438   3.933
10772SOL    HW133215   6.431   0.473   3.946
10772SOL    HW233216   6.537   0.356   3.989
10773SOL     OW33217   6.872   4.876   0.012
10773SOL    HW133218   6.944   4.852   0.078
10773SOL    HW233219   6.793   4.913   0.061
10774SOL     OW33220   1.285   2.361   0.513
10774SOL    HW133221   1.234   2.422   0.574
10774SOL    HW233222   1.382   2.383   0.517
10775SOL     OW33223   2.433   4.661   0.711
10775SOL    HW133224   2.500   4.618   0.771
10775SOL    HW233225   2.341   4.643   0.745
10776SOL     OW33226   0.806   6.675   1.230
10776SOL    HW133227   0.800   6.576   1.245
10776SOL    HW233228   0.741   6.703   1.160
10777SOL     OW33229   4.176   0.399   3.205
10777SOL    HW133230   4.226   0.407   3.119
10777SOL    HW233231   4.095   0.341   3.192
10778SOL     OW33232   6.387   6.870   4.306
10778SOL    HW133233   6.313   6.891   4.242
10778SOL    HW233234   6.444   6.798   4.268
10779SOL     OW33235   0.273   4.501   2.964
10779SOL    HW133236   0.274   4.572   3.035
10779SOL    HW233237   0.344   4.433   2.983
10780SOL     OW33238   0.642   6.425   2.810
10780SOL    HW133239   0.707   6.418   2.886
10780SOL    HW233240   0.681   6.482   2.738
10781SOL     OW33241   4.639   1.656   4.306
10781SOL    HW133242   4.612   1.586   4.372
10781SOL    HW233243   4.587   1.740   4.324
10782SOL     OW33244   6.455   2.927   3.800
10782SOL    HW133245   6.465   2.832   3.831
10782SOL    HW233246   6.544   2.973   3.804
10783SOL     OW33247   1.750   3.025   2.475
10783SOL    HW133248   1.703   2.941   2.448
10783SOL    HW233249   1.829   3.040   2.415
10784SOL     OW33250   2.292   0.162   1.053
10784SOL    HW133251   2.259   0.125   0.966
10784SOL    HW233252   2.390   0.145   1.062
10785SOL     OW33253   1.806   5.296   1.494
10785SOL    HW133254   1.851   5.217   1.452
10785SOL    HW233255   1.874   5.367   1.513
10786SOL     OW33256   5.347   3.182   1.738
10786SOL    HW133257   5.375   3.108   1.799
10786SOL    HW233258   5.381   3.163   1.645
10787SOL     OW33259   3.436   1.484   4.663
10787SOL    HW133260   3.477   1.563   4.710
10787SOL    HW233261   3.392   1.425   4.731
10788SOL     OW33262   2.232   4.440   0.053
10788SOL    HW133263   2.282   4.395   0.127
10788SOL    HW233264   2.259   4.536   0.049
10789SOL     OW33265   5.192   1.332   0.791
10789SOL    HW133266   5.150   1.241   0.795
10789SOL    HW233267   5.245   1.347   0.875
10790SOL     OW33268   0.529   0.807   5.777
10790SOL    HW133269   0.530   0.840   5.871
10790SOL    HW233270   0.486   0.875   5.718
10791SOL     OW33271   1.293   1.755   1.481
10791SOL    HW133272   1.271   1.769   1.578
10791SOL    HW233273   1.229   1.808   1.425
10792SOL     OW33274   3.185   3.222   1.685
10792SOL    HW133275   3.240   3.205   1.767
10792SOL    HW233276   3.111   3.155   1.681
10793SOL     OW33277   5.588   2.511   4.096
10793SOL    HW133278   5.594   2.601   4.139
10793SOL    HW233279   5.645   2.447   4.146
10794SOL     OW33280   3.446   4.040   2.117
10794SOL    HW133281   3.452   4.024   2.018
10794SOL    HW233282   3.352   4.067   2.140
10795SOL     OW33283   6.330   4.321   3.165
10795SOL    HW133284   6.324   4.380   3.246
10795SOL    HW233285   6.297   4.230   3.188
10796SOL     OW33286   3.545   0.176   6.569
10796SOL    HW133287   3.618   0.114   6.539
10796SOL    HW233288   3.539   0.175   6.669
10797SOL     OW33289   4.102   2.882   0.957
10797SOL    HW133290   4.011   2.916   0.981
10797SOL    HW233291   4.095   2.824   0.876
10798SOL     OW33292   2.119   6.910   0.646
10798SOL    HW133293   2.091   6.968   0.570
10798SOL    HW233294   2.128   6.966   0.729
10799SOL     OW33295   3.977   1.899   1.855
10799SOL    HW133296   3.965   1.802   1.834
10799SOL    HW233297   3.887   1.940   1.870
10800SOL     OW33298   1.706   5.946   6.925
10800SOL    HW133299   1.693   5.998   7.010
10800SOL    HW233300   1.672   5.999   6.848
10801SOL     OW33301   1.060   0.561   4.224
10801SOL    HW133302   1.142   0.560   4.281
10801SOL    HW233303   1.084   0.594   4.133
10802SOL     OW33304   2.224   3.042   4.850
10802SOL    HW133305   2.277   2.977   4.903
10802SOL    HW233306   2.171   3.100   4.912
10803SOL     OW33307   5.031   4.581   4.737
10803SOL    HW133308   5.079   4.539   4.659
10803SOL    HW233309   5.092   4.648   4.780
10804SOL     OW33310   0.060   4.217   0.994
10804SOL    HW133311   6.994   4.228   0.938
10804SOL    HW233312   0.064   4.289   1.062
10805SOL     OW33313   3.632   0.408   6.466
10805SOL    HW133314   3.559   0.474   6.448
10805SOL    HW233315   3.593   0.325   6.506
10806SOL     OW33316   5.710   4.061   0.400
10806SOL    HW133317   5.615   4.064   0.370
10806SOL    HW233318   5.716   4.013   0.487
10807SOL     OW33319   3.442   6.767   3.466
10807SOL    HW133320   3.491   6.823   3.533
10807SOL    HW233321   3.508   6.715   3.411
10808SOL     OW33322   6.777   3.923   0.289
10808SOL    HW133323   6.836   3.974   0.226
10808SOL    HW233324   6.826   3.842   0.322
10809SOL     OW33325   2.907   0.340   4.114
10809SOL    HW133326   2.924   0.292   4.028
10809SOL    HW233327   2.991   0.386   4.144
10810SOL     OW33328   1.331   1.523   5.980
10810SOL    HW133329   1.363   1.615   5.960
10810SOL    HW233330   1.400   1.475   6.035
10811SOL     OW33331   3.680   4.909   4.808
10811SOL    HW133332   3.586   4.899   4.842
10811SOL    HW233333   3.679   4.916   4.708
10812SOL     OW33334   0.354   3.407   1.816
10812SOL    HW133335   0.406   3.348   1.878
10812SOL    HW233336   0.283   3.455   1.867
10813SOL     OW33337   2.886   6.234   0.110
10813SOL    HW133338   2.861   6.255   0.016
10813SOL    HW233339   2.857   6.141   0.133
10814SOL     OW33340   1.118   0.585   5.385
10814SOL    HW133341   1.081   0.527   5.458
10814SOL    HW233342   1.213   0.558   5.366
10815SOL     OW33343   4.936   5.240   3.683
10815SOL    HW133344   4.971   5.294   3.606
10815SOL    HW233345   4.836   5.240   3.680
10816SOL     OW33346   1.804   1.435   2.366
10816SOL    HW133347   1.761   1.346   2.354
10816SOL    HW233348   1.842   1.466   2.278
10817SOL     OW33349   5.831   6.659   3.122
10817SOL    HW133350   5.813   6.561   3.136
10817SOL    HW233351   5.863   6.674   3.028
10818SOL     OW33352   5.629   2.546   5.627
10818SOL    HW133353   5.660   2.556   5.532
10818SOL    HW233354   5.708   2.553   5.689
10819SOL     OW33355   0.874   4.203   0.068
10819SOL    HW133356   0.806   4.271   0.094
10819SOL    HW233357   0.956   4.215   0.123
10820SOL     OW33358   6.847   0.175   3.958
10820SOL    HW133359   6.864   0.080   3.985
10820SOL    HW233360   6.801   0.223   4.033
10821SOL     OW33361   5.599   6.614   2.859
10821SOL    HW133362   5.545   6.575   2.784
10821SOL    HW233363   5.694   6.622   2.831
10822SOL     OW33364   1.159   2.179   2.870
10822SOL    HW133365   1.136   2.272   2.899
10822SOL    HW233366   1.179   2.123   2.951
10823SOL     OW33367   1.557   5.500   1.340
10823SOL    HW133368   1.482   5.467   1.397
10823SOL    HW233369   1.584   5.427   1.276
10824SOL     OW33370   4.798   6.986   3.834
10824SOL    HW133371   4.878   6.979   3.774
10824SOL    HW233372   4.785   6.899   3.881
10825SOL     OW33373   2.622   0.637   0.958
10825SOL    HW133374   2.571   0.578   0.896
10825SOL    HW233375   2.667   0.709   0.905
10826SOL     OW33376   6.944   3.559   3.467
10826SOL    HW133377   6.942   3.467   3.507
10826SOL    HW233378   6.893   3.622   3.526
10827SOL     OW33379   6.170   3.846   3.992
10827SOL    HW133380   6.147   3.943   4.000
10827SOL    HW233381   6.111   3.793   4.053
10828SOL     OW33382   1.096   5.754   2.618
10828SOL    HW133383   1.123   5.663   2.649
10828SOL    HW233384   1.158   5.783   2.545
10829SOL     OW33385   3.202   3.427   0.673
10829SOL    HW133386   3.192   3.333   0.706
10829SOL    HW233387   3.167   3.491   0.741
10830SOL     OW33388   5.068   2.052   3.374
10830SOL    HW133389   5.100   2.140   3.411
10830SOL    HW233390   4.999   2.013   3.435
10831SOL     OW33391   5.340   6.505   1.714
10831SOL    HW133392   5.384   6.421   1.683
10831SOL    HW233393   5.243   6.487   1.733
10832SOL     OW33394   0.161   2.788   0.894
10832SOL    HW133395   0.249   2.834   0.890
10832SOL    HW233396   0.095   2.836   0.836
10833SOL     OW33397   1.235   0.526   4.028
10833SOL    HW133398   1.213   0.586   3.950
10833SOL    HW233399   1.222   0.431   4.001
10834SOL     OW33400   1.135   1.898   5.939
10834SOL    HW133401   1.220   1.851   5.962
10834SOL    HW233402   1.087   1.923   6.023
10835SOL     OW33403   5.227   1.841   0.736
10835SOL    HW133404   5.310   1.896   0.745
10835SOL    HW233405   5.188   1.855   0.645
10836SOL     OW33406   0.116   1.223   5.611
10836SOL    HW133407   0.032   1.171   5.597
10836SOL    HW233408   0.165   1.232   5.524
10837SOL     OW33409   0.600   5.067   0.263
10837SOL    HW133410   0.687   5.103   0.231
10837SOL    HW233411   0.612   5.027   0.354
10838SOL     OW33412   5.796   6.760   4.280
10838SOL    HW133413   5.766   6.791   4.370
10838SOL    HW233414   5.837   6.836   4.230
10839SOL     OW33415   3.013   3.217   0.972
10839SOL    HW133416   3.023   3.151   0.897
10839SOL    HW233417   2.920   3.214   1.007
10840SOL     OW33418   3.961   5.958   1.721
10840SOL    HW133419   3.994   5.880   1.668
10840SOL    HW233420   3.862   5.965   1.709
10841SOL     OW33421   3.506   5.877   6.367
10841SOL    HW133422   3.514   5.783   6.335
10841SOL    HW233423   3.504   5.878   6.467
10842SOL     OW33424   6.600   3.919   0.852
10842SOL    HW133425   6.667   3.883   0.918
10842SOL    HW233426   6.633   4.005   0.814
10843SOL     OW33427   0.562   1.660   2.184
10843SOL    HW133428   0.572   1.757   2.161
10843SOL    HW233429   0.607   1.604   2.114
10844SOL     OW33430   0.684   6.620   4.173
10844SOL    HW133431   0.703   6.682   4.249
10844SOL    HW233432   0.587   6.600   4.170
10845SOL     OW33433   1.888   0.859   1.076
10845SOL    HW133434   1.803   0.910   1.066
10845SOL    HW233435   1.949   0.882   0.999
10846SOL     OW33436   4.735   2.465   0.708
10846SOL    HW133437   4.701   2.373   0.731
10846SOL    HW233438   4.794   2.497   0.782
10847SOL     OW33439   2.443   1.911   6.713
10847SOL    HW133440   2.521   1.917   6.652
10847SOL    HW233441   2.449   1.983   6.782
10848SOL     OW33442   2.975   2.200   6.325
10848SOL    HW133443   2.960   2.288   6.281
10848SOL    HW233444   3.031   2.142   6.265
10849SOL     OW33445   3.708   5.039   3.833
10849SOL    HW133446   3.643   4.971   3.869
10849SOL    HW233447   3.780   4.992   3.782
10850SOL     OW33448   4.186   6.424   6.350
10850SOL    HW133449   4.219   6.510   6.388
10850SOL    HW233450   4.246   6.350   6.378
10851SOL     OW33451   3.019   2.498   6.460
10851SOL    HW133452   3.110   2.509   6.420
10851SOL    HW233453   2.950   2.517   6.391
10852SOL     OW33454   0.481   6.897   6.094
10852SOL    HW133455   0.561   6.865   6.043
10852SOL    HW233456   0.509   6.928   6.185
10853SOL     OW33457   3.547   1.798   4.855
10853SOL    HW133458   3.546   1.887   4.901
10853SOL    HW233459   3.640   1.775   4.829
10854SOL     OW33460   6.373   0.021   6.194
10854SOL    HW133461   6.345   6.997   6.107
10854SOL    HW233462   6.345   0.117   6.197
10855SOL     OW33463   2.921   6.165   2.488
10855SOL    HW133464   2.859   6.210   2.423
10855SOL    HW233465   2.922   6.216   2.573
10856SOL     OW33466   6.244   1.122   1.242
10856SOL    HW133467   6.247   1.097   1.339
10856SOL    HW233468   6.313   1.069   1.192
10857SOL     OW33469   5.188   3.207   3.467
10857SOL    HW133470   5.224   3.233   3.557
10857SOL    HW233471   5.227   3.118   3.441
10858SOL     OW33472   1.394   2.641   6.750
10858SOL    HW133473   1.357   2.575   6.684
10858SOL    HW233474   1.374   2.734   6.718
10859SOL     OW33475   2.097   4.306   3.523
10859SOL    HW133476   2.164   4.330   3.453
10859SOL    HW233477   2.093   4.379   3.592
10860SOL     OW33478   0.066   1.289   6.172
10860SOL    HW133479   0.100   1.365   6.227
10860SOL    HW233480   0.024   1.324   6.088
10861SOL     OW33481   3.758   2.851   1.873
10861SOL    HW133482   3.792   2.829   1.964
10861SOL    HW233483   3.732   2.767   1.826
10862SOL     OW33484   2.942   1.453   6.717
10862SOL    HW133485   2.938   1.455   6.817
10862SOL    HW233486   3.034   1.427   6.689
10863SOL     OW33487   3.341   1.195   2.785
10863SOL    HW133488   3.430   1.149   2.793
10863SOL    HW233489   3.338   1.273   2.847
10864SOL     OW33490   2.495   4.494   1.477
10864SOL    HW133491   2.594   4.496   1.482
10864SOL    HW233492   2.461   4.581   1.441
10865SOL     OW33493   6.014   2.403   3.794
10865SOL    HW133494   5.964   2.385   3.709
10865SOL    HW233495   6.109   2.424   3.772
10866SOL     OW33496   5.960   3.659   1.274
10866SOL    HW133497   6.036   3.723   1.267
10866SOL    HW233498   5.958   3.600   1.193
10867SOL     OW33499   2.802   3.555   0.034
10867SOL    HW133500   2.856   3.637   0.051
10867SOL    HW233501   2.861   3.474   0.047
10868SOL     OW33502   1.381   1.961   2.796
10868SOL    HW133503   1.303   1.928   2.849
10868SOL    HW233504   1.362   2.053   2.763
10869NA      NA33505   0.456   2.440   5.850
10870NA      NA33506   4.493   4.564   5.213
10871NA      NA33507   2.115   4.444   2.118
10872NA      NA33508   5.116   4.771   3.653
10873NA      NA33509   4.163   2.294   5.247
10874NA      NA33510   3.446   4.340   1.494
10875NA      NA33511   1.239   4.511   0.489
10876NA      NA33512   4.207   4.141   1.440
10877NA      NA33513   4.936   4.536   0.835
10878NA      NA33514   3.133   0.495   5.477
10879NA      NA33515   5.706   5.555   1.267
10880NA      NA33516   1.165   0.679   5.866
10881NA      NA33517   4.906   4.916   2.129
10882NA      NA33518   3.713   3.031   0.889
   7.01628   7.01628   7.01628
