Generated by trjconv : CNT in water t= 205.00000
33518
    1C        C    1   2.839   2.765   4.749
    1C        C    2   2.900   2.721   4.869
    1C        C    3   2.846   2.776   4.986
    1C        C    4   2.850   2.773   4.263
    1C        C    5   2.902   2.729   4.387
    1C        C    6   2.843   2.770   4.508
    1C        C    7   3.019   2.647   4.628
    1C        C    8   2.898   2.721   4.628
    1C        C    9   3.080   2.605   4.749
    1C        C   10   3.011   2.634   4.868
    1C        C   11   3.178   2.488   4.975
    1C        C   12   3.063   2.568   4.980
    1C        C   13   2.851   2.772   3.774
    1C        C   14   2.902   2.725   3.897
    1C        C   15   2.852   2.777   4.019
    1C        C   16   3.024   2.652   4.140
    1C        C   17   2.905   2.729   4.141
    1C        C   18   3.086   2.620   4.263
    1C        C   19   3.020   2.651   4.384
    1C        C   20   3.212   2.562   4.507
    1C        C   21   3.080   2.612   4.506
    1C        C   22   3.280   2.534   4.628
    1C        C   23   3.209   2.546   4.749
    1C        C   24   3.415   2.488   4.865
    1C        C   25   3.273   2.504   4.869
    1C        C   26   3.491   2.480   4.983
    1C        C   27   2.850   2.770   3.281
    1C        C   28   2.906   2.728   3.404
    1C        C   29   2.853   2.770   3.529
    1C        C   30   3.020   2.644   3.651
    1C        C   31   2.905   2.725   3.652
    1C        C   32   3.080   2.607   3.774
    1C        C   33   3.019   2.645   3.895
    1C        C   34   3.214   2.565   4.018
    1C        C   35   3.080   2.610   4.018
    1C        C   36   3.282   2.543   4.140
    1C        C   37   3.216   2.564   4.263
    1C        C   38   3.420   2.513   4.384
    1C        C   39   3.282   2.543   4.386
    1C        C   40   3.492   2.510   4.506
    1C        C   41   3.418   2.505   4.626
    1C        C   42   3.633   2.482   4.747
    1C        C   43   3.491   2.482   4.745
    1C        C   44   3.707   2.489   4.867
    1C        C   45   3.630   2.478   4.983
    1C        C   46   2.840   2.751   2.797
    1C        C   47   2.894   2.708   2.919
    1C        C   48   2.846   2.764   3.039
    1C        C   49   3.019   2.638   3.162
    1C        C   50   2.903   2.719   3.161
    1C        C   51   3.080   2.608   3.286
    1C        C   52   3.020   2.645   3.408
    1C        C   53   3.209   2.545   3.530
    1C        C   54   3.081   2.606   3.529
    1C        C   55   3.276   2.527   3.653
    1C        C   56   3.210   2.552   3.775
    1C        C   57   3.421   2.516   3.899
    1C        C   58   3.281   2.540   3.897
    1C        C   59   3.493   2.508   4.020
    1C        C   60   3.420   2.513   4.140
    1C        C   61   3.632   2.501   4.260
    1C        C   62   3.491   2.503   4.262
    1C        C   63   3.705   2.506   4.381
    1C        C   64   3.633   2.504   4.503
    1C        C   65   3.838   2.545   4.625
    1C        C   66   3.703   2.504   4.626
    1C        C   67   3.907   2.564   4.747
    1C        C   68   3.844   2.525   4.867
    1C        C   69   4.055   2.586   4.982
    1C        C   70   3.925   2.534   4.981
    1C        C   71   2.828   2.738   2.310
    1C        C   72   2.885   2.693   2.431
    1C        C   73   2.831   2.742   2.552
    1C        C   74   3.007   2.624   2.676
    1C        C   75   2.887   2.698   2.674
    1C        C   76   3.074   2.593   2.796
    1C        C   77   3.013   2.631   2.918
    1C        C   78   3.210   2.550   3.041
    1C        C   79   3.077   2.599   3.039
    1C        C   80   3.279   2.535   3.163
    1C        C   81   3.210   2.553   3.285
    1C        C   82   3.416   2.504   3.405
    1C        C   83   3.277   2.529   3.407
    1C        C   84   3.484   2.505   3.529
    1C        C   85   3.416   2.511   3.653
    1C        C   86   3.629   2.508   3.771
    1C        C   87   3.488   2.509   3.775
    1C        C   88   3.702   2.516   3.892
    1C        C   89   3.634   2.507   4.016
    1C        C   90   3.839   2.544   4.138
    1C        C   91   3.704   2.504   4.139
    1C        C   92   3.907   2.569   4.259
    1C        C   93   3.840   2.545   4.381
    1C        C   94   4.031   2.636   4.503
    1C        C   95   3.906   2.570   4.504
    1C        C   96   4.091   2.674   4.625
    1C        C   97   4.033   2.630   4.745
    1C        C   98   4.193   2.767   4.865
    1C        C   99   4.101   2.657   4.867
    1C        C  100   4.217   2.846   4.979
    1C        C  101   2.825   2.734   2.071
    1C        C  102   2.989   2.592   2.194
    1C        C  103   2.877   2.680   2.189
    1C        C  104   3.065   2.574   2.313
    1C        C  105   3.004   2.617   2.433
    1C        C  106   3.200   2.533   2.552
    1C        C  107   3.070   2.587   2.555
    1C        C  108   3.272   2.519   2.674
    1C        C  109   3.206   2.541   2.797
    1C        C  110   3.415   2.501   2.917
    1C        C  111   3.275   2.524   2.918
    1C        C  112   3.488   2.501   3.039
    1C        C  113   3.419   2.514   3.161
    1C        C  114   3.629   2.501   3.283
    1C        C  115   3.488   2.495   3.283
    1C        C  116   3.696   2.514   3.407
    1C        C  117   3.625   2.507   3.529
    1C        C  118   3.836   2.549   3.647
    1C        C  119   3.699   2.513   3.649
    1C        C  120   3.904   2.574   3.768
    1C        C  121   3.839   2.549   3.891
    1C        C  122   4.028   2.636   4.016
    1C        C  123   3.902   2.571   4.015
    1C        C  124   4.088   2.679   4.137
    1C        C  125   4.032   2.636   4.259
    1C        C  126   4.197   2.769   4.379
    1C        C  127   4.089   2.678   4.381
    1C        C  128   4.247   2.818   4.502
    1C        C  129   4.196   2.769   4.624
    1C        C  130   4.329   2.938   4.743
    1C        C  131   4.246   2.823   4.745
    1C        C  132   4.358   3.008   4.862
    1C        C  133   4.286   2.966   4.975
    1C        C  134   3.176   2.468   2.087
    1C        C  135   3.042   2.509   2.090
    1C        C  136   3.263   2.472   2.197
    1C        C  137   3.194   2.516   2.313
    1C        C  138   3.408   2.481   2.431
    1C        C  139   3.269   2.506   2.432
    1C        C  140   3.482   2.485   2.552
    1C        C  141   3.411   2.498   2.673
    1C        C  142   3.625   2.501   2.792
    1C        C  143   3.484   2.497   2.794
    1C        C  144   3.697   2.507   2.914
    1C        C  145   3.629   2.496   3.037
    1C        C  146   3.835   2.539   3.159
    1C        C  147   3.698   2.503   3.160
    1C        C  148   3.902   2.565   3.280
    1C        C  149   3.833   2.547   3.403
    1C        C  150   4.032   2.624   3.526
    1C        C  151   3.903   2.569   3.524
    1C        C  152   4.092   2.667   3.646
    1C        C  153   4.030   2.639   3.770
    1C        C  154   4.196   2.765   3.889
    1C        C  155   4.087   2.675   3.894
    1C        C  156   4.245   2.814   4.012
    1C        C  157   4.196   2.770   4.137
    1C        C  158   4.337   2.931   4.253
    1C        C  159   4.246   2.823   4.258
    1C        C  160   4.373   2.989   4.377
    1C        C  161   4.333   2.930   4.500
    1C        C  162   4.438   3.118   4.618
    1C        C  163   4.370   2.994   4.620
    1C        C  164   4.466   3.189   4.737
    1C        C  165   4.431   3.130   4.861
    1C        C  166   4.514   3.326   4.977
    1C        C  167   4.479   3.191   4.977
    1C        C  168   3.477   2.430   2.075
    1C        C  169   3.403   2.454   2.192
    1C        C  170   3.621   2.464   2.309
    1C        C  171   3.479   2.465   2.310
    1C        C  172   3.696   2.481   2.427
    1C        C  173   3.623   2.487   2.548
    1C        C  174   3.831   2.539   2.668
    1C        C  175   3.694   2.505   2.669
    1C        C  176   3.899   2.560   2.790
    1C        C  177   3.834   2.542   2.914
    1C        C  178   4.026   2.630   3.032
    1C        C  179   3.902   2.564   3.036
    1C        C  180   4.083   2.671   3.156
    1C        C  181   4.027   2.631   3.279
    1C        C  182   4.202   2.748   3.400
    1C        C  183   4.090   2.661   3.402
    1C        C  184   4.251   2.804   3.520
    1C        C  185   4.201   2.757   3.644
    1C        C  186   4.335   2.922   3.766
    1C        C  187   4.247   2.811   3.766
    1C        C  188   4.378   2.982   3.886
    1C        C  189   4.333   2.925   4.008
    1C        C  190   4.445   3.108   4.131
    1C        C  191   4.378   2.983   4.129
    1C        C  192   4.468   3.176   4.252
    1C        C  193   4.438   3.114   4.375
    1C        C  194   4.509   3.316   4.493
    1C        C  195   4.463   3.183   4.496
    1C        C  196   4.523   3.391   4.612
    1C        C  197   4.512   3.323   4.736
    1C        C  198   4.557   3.536   4.856
    1C        C  199   4.533   3.395   4.856
    1C        C  200   4.588   3.622   4.967
    1C        C  201   3.617   2.420   2.074
    1C        C  202   3.828   2.514   2.181
    1C        C  203   3.694   2.464   2.186
    1C        C  204   3.901   2.539   2.301
    1C        C  205   3.831   2.522   2.423
    1C        C  206   4.024   2.615   2.544
    1C        C  207   3.897   2.553   2.544
    1C        C  208   4.085   2.659   2.664
    1C        C  209   4.023   2.627   2.787
    1C        C  210   4.199   2.749   2.909
    1C        C  211   4.085   2.665   2.909
    1C        C  212   4.250   2.798   3.031
    1C        C  213   4.197   2.754   3.155
    1C        C  214   4.335   2.912   3.275
    1C        C  215   4.248   2.801   3.278
    1C        C  216   4.373   2.976   3.395
    1C        C  217   4.339   2.914   3.518
    1C        C  218   4.434   3.103   3.641
    1C        C  219   4.374   2.975   3.641
    1C        C  220   4.464   3.172   3.761
    1C        C  221   4.441   3.108   3.885
    1C        C  222   4.508   3.308   4.008
    1C        C  223   4.471   3.172   4.008
    1C        C  224   4.516   3.382   4.128
    1C        C  225   4.504   3.313   4.250
    1C        C  226   4.525   3.526   4.368
    1C        C  227   4.523   3.385   4.370
    1C        C  228   4.528   3.599   4.489
    1C        C  229   4.531   3.532   4.613
    1C        C  230   4.507   3.743   4.729
    1C        C  231   4.542   3.606   4.733
    1C        C  232   4.502   3.821   4.847
    1C        C  233   4.550   3.757   4.961
    1C        C  234   4.015   2.622   2.066
    1C        C  235   3.895   2.550   2.064
    1C        C  236   4.083   2.652   2.184
    1C        C  237   4.026   2.606   2.305
    1C        C  238   4.201   2.736   2.421
    1C        C  239   4.091   2.646   2.424
    1C        C  240   4.248   2.791   2.542
    1C        C  241   4.198   2.744   2.666
    1C        C  242   4.338   2.906   2.786
    1C        C  243   4.252   2.794   2.786
    1C        C  244   4.377   2.967   2.907
    1C        C  245   4.336   2.910   3.030
    1C        C  246   4.438   3.096   3.151
    1C        C  247   4.377   2.968   3.152
    1C        C  248   4.459   3.165   3.273
    1C        C  249   4.428   3.106   3.397
    1C        C  250   4.497   3.306   3.517
    1C        C  251   4.457   3.171   3.519
    1C        C  252   4.513   3.375   3.639
    1C        C  253   4.501   3.308   3.763
    1C        C  254   4.535   3.517   3.880
    1C        C  255   4.524   3.376   3.885
    1C        C  256   4.526   3.593   3.999
    1C        C  257   4.526   3.523   4.122
    1C        C  258   4.498   3.733   4.243
    1C        C  259   4.520   3.594   4.244
    1C        C  260   4.480   3.804   4.364
    1C        C  261   4.499   3.738   4.487
    1C        C  262   4.425   3.940   4.606
    1C        C  263   4.480   3.809   4.607
    1C        C  264   4.399   4.009   4.726
    1C        C  265   4.436   3.946   4.848
    1C        C  266   4.319   4.130   4.961
    1C        C  267   4.400   4.017   4.963
    1C        C  268   4.261   2.775   2.062
    1C        C  269   4.194   2.740   2.180
    1C        C  270   4.344   2.895   2.298
    1C        C  271   4.253   2.785   2.300
    1C        C  272   4.382   2.956   2.420
    1C        C  273   4.340   2.898   2.541
    1C        C  274   4.445   3.085   2.660
    1C        C  275   4.381   2.959   2.662
    1C        C  276   4.471   3.151   2.782
    1C        C  277   4.448   3.089   2.907
    1C        C  278   4.507   3.294   3.026
    1C        C  279   4.471   3.157   3.029
    1C        C  280   4.518   3.366   3.147
    1C        C  281   4.499   3.300   3.271
    1C        C  282   4.524   3.512   3.391
    1C        C  283   4.509   3.372   3.392
    1C        C  284   4.524   3.584   3.513
    1C        C  285   4.523   3.516   3.637
    1C        C  286   4.503   3.727   3.755
    1C        C  287   4.528   3.588   3.758
    1C        C  288   4.485   3.798   3.876
    1C        C  289   4.497   3.731   4.000
    1C        C  290   4.437   3.937   4.120
    1C        C  291   4.479   3.802   4.121
    1C        C  292   4.401   4.002   4.240
    1C        C  293   4.431   3.937   4.361
    1C        C  294   4.331   4.126   4.480
    1C        C  295   4.396   4.001   4.482
    1C        C  296   4.291   4.189   4.600
    1C        C  297   4.331   4.133   4.724
    1C        C  298   4.203   4.314   4.838
    1C        C  299   4.288   4.198   4.843
    1C        C  300   4.171   4.407   4.943
    1C        C  301   4.347   2.884   2.061
    1C        C  302   4.467   3.071   2.177
    1C        C  303   4.397   2.946   2.177
    1C        C  304   4.482   3.146   2.297
    1C        C  305   4.446   3.082   2.417
    1C        C  306   4.518   3.283   2.538
    1C        C  307   4.479   3.147   2.538
    1C        C  308   4.522   3.357   2.659
    1C        C  309   4.505   3.288   2.781
    1C        C  310   4.534   3.500   2.902
    1C        C  311   4.521   3.359   2.902
    1C        C  312   4.524   3.573   3.023
    1C        C  313   4.527   3.507   3.147
    1C        C  314   4.491   3.720   3.266
    1C        C  315   4.517   3.580   3.268
    1C        C  316   4.482   3.790   3.388
    1C        C  317   4.505   3.724   3.510
    1C        C  318   4.438   3.927   3.630
    1C        C  319   4.484   3.794   3.632
    1C        C  320   4.402   3.992   3.751
    1C        C  321   4.432   3.929   3.874
    1C        C  322   4.325   4.112   3.992
    1C        C  323   4.405   3.996   3.995
    1C        C  324   4.282   4.172   4.112
    1C        C  325   4.326   4.122   4.236
    1C        C  326   4.187   4.282   4.356
    1C        C  327   4.287   4.182   4.358
    1C        C  328   4.138   4.337   4.477
    1C        C  329   4.193   4.290   4.598
    1C        C  330   4.025   4.432   4.714
    1C        C  331   4.140   4.348   4.716
    1C        C  332   3.970   4.493   4.829
    1C        C  333   4.052   4.480   4.942
    1C        C  334   4.559   3.270   2.063
    1C        C  335   4.533   3.132   2.066
    1C        C  336   4.548   3.352   2.176
    1C        C  337   4.517   3.284   2.296
    1C        C  338   4.523   3.496   2.413
    1C        C  339   4.528   3.355   2.417
    1C        C  340   4.522   3.566   2.536
    1C        C  341   4.527   3.498   2.659
    1C        C  342   4.506   3.711   2.776
    1C        C  343   4.528   3.571   2.780
    1C        C  344   4.482   3.779   2.897
    1C        C  345   4.495   3.712   3.020
    1C        C  346   4.427   3.916   3.139
    1C        C  347   4.473   3.782   3.140
    1C        C  348   4.394   3.980   3.261
    1C        C  349   4.432   3.923   3.384
    1C        C  350   4.323   4.101   3.504
    1C        C  351   4.408   3.988   3.507
    1C        C  352   4.276   4.159   3.624
    1C        C  353   4.321   4.107   3.747
    1C        C  354   4.181   4.267   3.869
    1C        C  355   4.279   4.165   3.869
    1C        C  356   4.130   4.321   3.989
    1C        C  357   4.183   4.273   4.111
    1C        C  358   4.015   4.402   4.234
    1C        C  359   4.132   4.323   4.233
    1C        C  360   3.954   4.447   4.353
    1C        C  361   4.023   4.420   4.473
    1C        C  362   3.826   4.509   4.594
    1C        C  363   3.959   4.459   4.592
    1C        C  364   3.760   4.539   4.715
    1C        C  365   3.837   4.541   4.832
    1C        C  366   3.630   4.589   4.952
    1C        C  367   3.767   4.566   4.951
    1C        C  368   4.515   3.564   2.054
    1C        C  369   4.532   3.492   2.174
    1C        C  370   4.502   3.708   2.287
    1C        C  371   4.521   3.569   2.292
    1C        C  372   4.488   3.776   2.410
    1C        C  373   4.500   3.706   2.532
    1C        C  374   4.423   3.905   2.651
    1C        C  375   4.481   3.777   2.653
    1C        C  376   4.391   3.969   2.773
    1C        C  377   4.431   3.911   2.896
    1C        C  378   4.316   4.092   3.013
    1C        C  379   4.399   3.978   3.016
    1C        C  380   4.271   4.150   3.134
    1C        C  381   4.315   4.097   3.257
    1C        C  382   4.174   4.251   3.380
    1C        C  383   4.275   4.152   3.381
    1C        C  384   4.124   4.306   3.500
    1C        C  385   4.180   4.262   3.623
    1C        C  386   4.008   4.385   3.745
    1C        C  387   4.126   4.309   3.745
    1C        C  388   3.944   4.421   3.866
    1C        C  389   4.007   4.390   3.989
    1C        C  390   3.818   4.480   4.112
    1C        C  391   3.950   4.430   4.112
    1C        C  392   3.752   4.513   4.233
    1C        C  393   3.824   4.500   4.354
    1C        C  394   3.614   4.547   4.477
    1C        C  395   3.753   4.526   4.474
    1C        C  396   3.545   4.566   4.600
    1C        C  397   3.621   4.563   4.719
    1C        C  398   3.409   4.552   4.842
    1C        C  399   3.548   4.577   4.839
    1C        C  400   3.338   4.518   4.958
    1C        C  401   4.508   3.703   2.049
    1C        C  402   4.453   3.915   2.167
    1C        C  403   4.490   3.779   2.165
    1C        C  404   4.415   3.978   2.288
    1C        C  405   4.441   3.909   2.408
    1C        C  406   4.321   4.089   2.526
    1C        C  407   4.402   3.972   2.529
    1C        C  408   4.276   4.145   2.647
    1C        C  409   4.314   4.088   2.770
    1C        C  410   4.168   4.244   2.891
    1C        C  411   4.270   4.146   2.891
    1C        C  412   4.117   4.296   3.012
    1C        C  413   4.174   4.253   3.134
    1C        C  414   3.999   4.369   3.258
    1C        C  415   4.119   4.295   3.258
    1C        C  416   3.939   4.407   3.380
    1C        C  417   4.002   4.377   3.502
    1C        C  418   3.811   4.470   3.622
    1C        C  419   3.941   4.413   3.624
    1C        C  420   3.746   4.495   3.745
    1C        C  421   3.815   4.480   3.867
    1C        C  422   3.612   4.532   3.989
    1C        C  423   3.750   4.501   3.990
    1C        C  424   3.543   4.532   4.111
    1C        C  425   3.613   4.534   4.234
    1C        C  426   3.401   4.551   4.358
    1C        C  427   3.542   4.547   4.356
    1C        C  428   3.330   4.552   4.480
    1C        C  429   3.404   4.563   4.600
    1C        C  430   3.195   4.524   4.724
    1C        C  431   3.334   4.555   4.722
    1C        C  432   3.124   4.499   4.844
    1C        C  433   3.201   4.498   4.961
    1C        C  434   4.387   4.127   2.053
    1C        C  435   4.446   4.000   2.056
    1C        C  436   4.304   4.161   2.165
    1C        C  437   4.331   4.093   2.286
    1C        C  438   4.175   4.245   2.405
    1C        C  439   4.277   4.147   2.405
    1C        C  440   4.123   4.296   2.526
    1C        C  441   4.177   4.246   2.646
    1C        C  442   4.002   4.371   2.768
    1C        C  443   4.116   4.287   2.766
    1C        C  444   3.939   4.409   2.889
    1C        C  445   3.999   4.373   3.011
    1C        C  446   3.811   4.466   3.134
    1C        C  447   3.936   4.400   3.135
    1C        C  448   3.745   4.494   3.256
    1C        C  449   3.811   4.467   3.378
    1C        C  450   3.606   4.522   3.498
    1C        C  451   3.744   4.491   3.500
    1C        C  452   3.540   4.538   3.622
    1C        C  453   3.609   4.530   3.745
    1C        C  454   3.399   4.542   3.868
    1C        C  455   3.540   4.543   3.868
    1C        C  456   3.330   4.530   3.991
    1C        C  457   3.401   4.532   4.113
    1C        C  458   3.193   4.506   4.237
    1C        C  459   3.332   4.533   4.236
    1C        C  460   3.125   4.492   4.361
    1C        C  461   3.193   4.519   4.482
    1C        C  462   2.997   4.438   4.606
    1C        C  463   3.126   4.495   4.604
    1C        C  464   2.928   4.407   4.725
    1C        C  465   2.989   4.450   4.847
    1C        C  466   2.804   4.338   4.960
    1C        C  467   2.905   4.435   4.962
    1C        C  468   4.125   4.286   2.042
    1C        C  469   4.192   4.251   2.160
    1C        C  470   4.008   4.368   2.282
    1C        C  471   4.127   4.290   2.280
    1C        C  472   3.944   4.405   2.402
    1C        C  473   4.005   4.374   2.526
    1C        C  474   3.811   4.463   2.647
    1C        C  475   3.943   4.411   2.647
    1C        C  476   3.744   4.494   2.768
    1C        C  477   3.809   4.465   2.889
    1C        C  478   3.607   4.525   3.011
    1C        C  479   3.743   4.489   3.012
    1C        C  480   3.537   4.532   3.133
    1C        C  481   3.607   4.525   3.255
    1C        C  482   3.394   4.536   3.378
    1C        C  483   3.535   4.534   3.376
    1C        C  484   3.326   4.533   3.502
    1C        C  485   3.398   4.544   3.623
    1C        C  486   3.190   4.506   3.746
    1C        C  487   3.328   4.539   3.746
    1C        C  488   3.124   4.485   3.869
    1C        C  489   3.192   4.502   3.991
    1C        C  490   3.002   4.417   4.116
    1C        C  491   3.126   4.485   4.115
    1C        C  492   2.941   4.385   4.240
    1C        C  493   2.998   4.431   4.361
    1C        C  494   2.829   4.307   4.484
    1C        C  495   2.938   4.396   4.484
    1C        C  496   2.772   4.263   4.606
    1C        C  497   2.818   4.317   4.728
    1C        C  498   2.668   4.162   4.845
    1C        C  499   2.755   4.273   4.846
    1C        C  500   2.594   4.119   4.956
    1C        C  501   4.010   4.363   2.044
    1C        C  502   3.817   4.467   2.160
    1C        C  503   3.943   4.402   2.161
    1C        C  504   3.745   4.482   2.280
    1C        C  505   3.811   4.453   2.401
    1C        C  506   3.608   4.509   2.524
    1C        C  507   3.746   4.479   2.523
    1C        C  508   3.535   4.519   2.645
    1C        C  509   3.605   4.523   2.767
    1C        C  510   3.394   4.530   2.888
    1C        C  511   3.536   4.533   2.889
    1C        C  512   3.323   4.525   3.010
    1C        C  513   3.395   4.533   3.131
    1C        C  514   3.189   4.498   3.257
    1C        C  515   3.327   4.529   3.254
    1C        C  516   3.121   4.478   3.379
    1C        C  517   3.188   4.502   3.501
    1C        C  518   2.995   4.419   3.627
    1C        C  519   3.123   4.480   3.624
    1C        C  520   2.936   4.382   3.750
    1C        C  521   2.997   4.424   3.871
    1C        C  522   2.836   4.287   3.998
    1C        C  523   2.941   4.381   3.994
    1C        C  524   2.787   4.239   4.121
    1C        C  525   2.832   4.295   4.243
    1C        C  526   2.699   4.133   4.366
    1C        C  527   2.778   4.250   4.365
    1C        C  528   2.654   4.078   4.489
    1C        C  529   2.688   4.149   4.606
    1C        C  530   2.584   3.961   4.734
    1C        C  531   2.645   4.089   4.727
    1C        C  532   2.537   3.902   4.855
    1C        C  533   2.528   3.995   4.963
    1C        C  534   3.617   4.556   2.042
    1C        C  535   3.749   4.509   2.045
    1C        C  536   3.536   4.537   2.159
    1C        C  537   3.606   4.514   2.280
    1C        C  538   3.395   4.516   2.405
    1C        C  539   3.536   4.520   2.403
    1C        C  540   3.320   4.521   2.524
    1C        C  541   3.393   4.522   2.645
    1C        C  542   3.184   4.488   2.765
    1C        C  543   3.322   4.520   2.767
    1C        C  544   3.118   4.472   2.889
    1C        C  545   3.184   4.497   3.012
    1C        C  546   2.995   4.408   3.136
    1C        C  547   3.121   4.474   3.136
    1C        C  548   2.936   4.376   3.260
    1C        C  549   2.996   4.411   3.382
    1C        C  550   2.831   4.282   3.508
    1C        C  551   2.936   4.377   3.506
    1C        C  552   2.780   4.235   3.631
    1C        C  553   2.829   4.290   3.751
    1C        C  554   2.705   4.122   3.879
    1C        C  555   2.784   4.239   3.875
    1C        C  556   2.666   4.060   4.000
    1C        C  557   2.703   4.126   4.119
    1C        C  558   2.605   3.943   4.247
    1C        C  559   2.663   4.072   4.244
    1C        C  560   2.580   3.878   4.370
    1C        C  561   2.599   3.948   4.491
    1C        C  562   2.535   3.750   4.615
    1C        C  563   2.567   3.888   4.615
    1C        C  564   2.516   3.684   4.739
    1C        C  565   2.522   3.760   4.859
    1C        C  566   2.525   3.548   4.979
    1C        C  567   2.527   3.687   4.978
    1C        C  568   3.329   4.476   2.043
    1C        C  569   3.395   4.520   2.159
    1C        C  570   3.186   4.479   2.283
    1C        C  571   3.325   4.510   2.282
    1C        C  572   3.116   4.459   2.403
    1C        C  573   3.182   4.491   2.524
    1C        C  574   2.989   4.399   2.649
    1C        C  575   3.114   4.465   2.645
    1C        C  576   2.928   4.368   2.773
    1C        C  577   2.990   4.414   2.891
    1C        C  578   2.828   4.277   3.016
    1C        C  579   2.934   4.371   3.014
    1C        C  580   2.785   4.224   3.140
    1C        C  581   2.831   4.281   3.261
    1C        C  582   2.701   4.117   3.388
    1C        C  583   2.783   4.232   3.385
    1C        C  584   2.662   4.060   3.511
    1C        C  585   2.701   4.118   3.634
    1C        C  586   2.600   3.935   3.756
    1C        C  587   2.666   4.060   3.758
    1C        C  588   2.577   3.869   3.879
    1C        C  589   2.602   3.934   4.002
    1C        C  590   2.543   3.737   4.127
    1C        C  591   2.577   3.874   4.127
    1C        C  592   2.528   3.671   4.251
    1C        C  593   2.545   3.741   4.372
    1C        C  594   2.519   3.534   4.498
    1C        C  595   2.525   3.675   4.496
    1C        C  596   2.517   3.466   4.621
    1C        C  597   2.519   3.542   4.740
    1C        C  598   2.533   3.330   4.863
    1C        C  599   2.531   3.471   4.862
    1C        C  600   2.530   3.253   4.980
    1C        C  601   3.195   4.444   2.043
    1C        C  602   2.987   4.393   2.162
    1C        C  603   3.120   4.445   2.162
    1C        C  604   2.928   4.355   2.286
    1C        C  605   2.990   4.395   2.407
    1C        C  606   2.818   4.272   2.529
    1C        C  607   2.926   4.363   2.528
    1C        C  608   2.772   4.222   2.653
    1C        C  609   2.826   4.271   2.774
    1C        C  610   2.691   4.110   2.898
    1C        C  611   2.775   4.223   2.897
    1C        C  612   2.661   4.053   3.024
    1C        C  613   2.698   4.114   3.146
    1C        C  614   2.596   3.928   3.267
    1C        C  615   2.659   4.055   3.268
    1C        C  616   2.574   3.864   3.392
    1C        C  617   2.599   3.933   3.512
    1C        C  618   2.531   3.733   3.637
    1C        C  619   2.571   3.868   3.635
    1C        C  620   2.515   3.664   3.759
    1C        C  621   2.543   3.732   3.880
    1C        C  622   2.517   3.526   4.011
    1C        C  623   2.539   3.665   4.005
    1C        C  624   2.515   3.455   4.133
    1C        C  625   2.519   3.530   4.252
    1C        C  626   2.541   3.322   4.380
    1C        C  627   2.520   3.462   4.376
    1C        C  628   2.556   3.254   4.503
    1C        C  629   2.534   3.326   4.623
    1C        C  630   2.602   3.122   4.744
    1C        C  631   2.554   3.256   4.744
    1C        C  632   2.617   3.051   4.866
    1C        C  633   2.568   3.118   4.983
    1C        C  634   2.784   4.309   2.056
    1C        C  635   2.895   4.393   2.052
    1C        C  636   2.748   4.233   2.169
    1C        C  637   2.812   4.272   2.288
    1C        C  638   2.674   4.111   2.410
    1C        C  639   2.761   4.222   2.410
    1C        C  640   2.646   4.046   2.533
    1C        C  641   2.689   4.108   2.653
    1C        C  642   2.589   3.922   2.778
    1C        C  643   2.652   4.049   2.776
    1C        C  644   2.569   3.859   2.903
    1C        C  645   2.596   3.928   3.023
    1C        C  646   2.537   3.724   3.149
    1C        C  647   2.574   3.861   3.145
    1C        C  648   2.521   3.657   3.272
    1C        C  649   2.538   3.728   3.394
    1C        C  650   2.512   3.519   3.521
    1C        C  651   2.521   3.660   3.517
    1C        C  652   2.515   3.450   3.644
    1C        C  653   2.507   3.523   3.765
    1C        C  654   2.531   3.315   3.892
    1C        C  655   2.515   3.455   3.889
    1C        C  656   2.553   3.246   4.013
    1C        C  657   2.534   3.315   4.136
    1C        C  658   2.604   3.118   4.260
    1C        C  659   2.556   3.250   4.260
    1C        C  660   2.634   3.054   4.383
    1C        C  661   2.603   3.121   4.503
    1C        C  662   2.703   2.933   4.628
    1C        C  663   2.627   3.052   4.624
    1C        C  664   2.745   2.872   4.748
    1C        C  665   2.694   2.930   4.867
    1C        C  666   2.749   2.875   4.983
    1C        C  667   2.679   4.024   2.054
    1C        C  668   2.683   4.108   2.166
    1C        C  669   2.588   3.916   2.292
    1C        C  670   2.646   4.046   2.288
    1C        C  671   2.558   3.851   2.414
    1C        C  672   2.581   3.921   2.535
    1C        C  673   2.520   3.720   2.661
    1C        C  674   2.556   3.856   2.658
    1C        C  675   2.511   3.652   2.784
    1C        C  676   2.535   3.722   2.905
    1C        C  677   2.509   3.512   3.032
    1C        C  678   2.523   3.653   3.028
    1C        C  679   2.516   3.444   3.155
    1C        C  680   2.513   3.516   3.277
    1C        C  681   2.536   3.307   3.402
    1C        C  682   2.512   3.446   3.400
    1C        C  683   2.558   3.241   3.525
    1C        C  684   2.537   3.310   3.646
    1C        C  685   2.598   3.113   3.772
    1C        C  686   2.544   3.243   3.770
    1C        C  687   2.635   3.052   3.894
    1C        C  688   2.604   3.115   4.017
    1C        C  689   2.711   2.933   4.141
    1C        C  690   2.634   3.051   4.139
    1C        C  691   2.755   2.878   4.264
    1C        C  692   2.712   2.937   4.385
    1C        C  693   2.755   2.881   4.508
    1C        C  694   2.627   3.894   2.057
    1C        C  695   2.531   3.705   2.179
    1C        C  696   2.579   3.838   2.175
    1C        C  697   2.511   3.638   2.301
    1C        C  698   2.523   3.714   2.419
    1C        C  699   2.496   3.504   2.545
    1C        C  700   2.510   3.645   2.541
    1C        C  701   2.504   3.435   2.668
    1C        C  702   2.508   3.511   2.787
    1C        C  703   2.530   3.301   2.911
    1C        C  704   2.513   3.441   2.910
    1C        C  705   2.550   3.233   3.033
    1C        C  706   2.542   3.305   3.154
    1C        C  707   2.595   3.104   3.281
    1C        C  708   2.553   3.239   3.279
    1C        C  709   2.628   3.043   3.404
    1C        C  710   2.603   3.107   3.527
    1C        C  711   2.712   2.930   3.650
    1C        C  712   2.633   3.048   3.652
    1C        C  713   2.756   2.876   3.773
    1C        C  714   2.715   2.935   3.895
    1C        C  715   2.756   2.880   4.018
    1C        C  716   2.447   3.500   2.067
    1C        C  717   2.486   3.635   2.066
    1C        C  718   2.464   3.420   2.185
    1C        C  719   2.485   3.498   2.303
    1C        C  720   2.514   3.289   2.425
    1C        C  721   2.489   3.428   2.425
    1C        C  722   2.533   3.221   2.547
    1C        C  723   2.526   3.296   2.667
    1C        C  724   2.597   3.098   2.791
    1C        C  725   2.545   3.229   2.790
    1C        C  726   2.631   3.037   2.914
    1C        C  727   2.595   3.099   3.036
    1C        C  728   2.702   2.921   3.162
    1C        C  729   2.621   3.037   3.160
    1C        C  730   2.749   2.869   3.285
    1C        C  731   2.707   2.926   3.407
    1C        C  732   2.757   2.873   3.529
    1C        C  733   2.491   3.196   2.073
    1C        C  734   2.490   3.280   2.186
    1C        C  735   2.574   3.080   2.309
    1C        C  736   2.523   3.213   2.307
    1C        C  737   2.604   3.015   2.430
    1C        C  738   2.582   3.089   2.548
    1C        C  739   2.698   2.910   2.674
    1C        C  740   2.621   3.028   2.670
    1C        C  741   2.744   2.855   2.795
    1C        C  742   2.704   2.916   2.916
    1C        C  743   2.745   2.864   3.040
    1C        C  744   2.547   3.069   2.072
    1C        C  745   2.687   2.899   2.188
    1C        C  746   2.603   3.013   2.188
    1C        C  747   2.735   2.845   2.310
    1C        C  748   2.692   2.904   2.431
    1C        C  749   2.744   2.853   2.552
    1C        C  750   2.735   2.840   2.071
    1C        C  751   3.673   2.328   1.972
    1C        O  752   3.719   2.215   2.005
    1C        O  753   3.661   2.357   1.836
    1C        C  754   4.588   3.061   1.948
    1C        O  755   4.534   3.052   1.835
    1C        O  756   4.693   2.970   1.966
    1C        C  757   4.449   4.228   1.965
    1C        O  758   4.535   4.308   2.012
    1C        O  759   4.412   4.260   1.834
    1C        C  760   3.599   4.661   1.939
    1C        O  761   3.547   4.771   1.973
    1C        O  762   3.587   4.631   1.803
    1C        C  763   2.888   4.503   1.954
    1C        O  764   2.895   4.472   1.832
    1C        O  765   2.840   4.632   1.981
    1C        C  766   2.349   3.480   1.958
    1C        O  767   2.389   3.447   1.843
    1C        O  768   2.216   3.448   1.988
    1C        C  769   4.683   3.588   5.075
    1C        O  770   4.637   3.557   5.189
    1C        O  771   4.814   3.636   5.071
    1C        C  772   4.278   4.459   5.031
    1C        O  773   4.273   4.495   5.151
    1C        O  774   4.359   4.555   4.969
    1C        C  775   4.146   2.501   5.062
    1C        O  776   4.245   2.435   5.020
    1C        O  777   4.124   2.467   5.196
    1C        C  778   2.864   4.551   5.044
    1C        O  779   2.838   4.659   4.985
    1C        O  780   2.787   4.534   5.160
    1C        C  781   2.510   3.053   5.103
    1C        O  782   2.433   2.954   5.092
    1C        O  783   2.585   3.050   5.220
    1C        C  784   2.416   3.990   5.060
    1C        O  785   2.306   4.046   5.033
    1C        O  786   2.444   4.012   5.196
    1C        C  787   2.952   2.430   2.003
    1C        O  788   2.959   2.453   1.879
    1C        O  789   2.878   2.319   2.043
    1C        C  790   3.154   2.353   5.033
    1C        O  791   3.060   2.275   5.000
    1C        O  792   3.208   2.308   5.153
    1C        H  793   4.258   3.043   5.044
    1C        H  794   4.229   2.791   5.070
    1C        H  795   4.528   3.131   5.051
    1C        H  796   4.502   3.383   5.067
    1C        H  797   4.549   3.812   5.053
    1C        H  798   4.451   3.994   5.054
    1C        H  799   4.287   4.174   5.054
    1C        H  800   4.011   4.506   5.037
    1C        H  801   3.823   4.595   5.037
    1C        H  802   3.592   4.643   5.037
    1C        H  803   3.384   4.544   5.051
    1C        H  804   3.151   4.504   5.056
    1C        H  805   3.889   2.487   5.070
    1C        H  806   3.670   2.420   5.063
    1C        H  807   3.022   2.577   5.078
    1C        H  808   3.437   2.460   5.073
    1C        H  809   2.846   2.712   5.072
    1C        H  810   2.715   2.902   5.081
    1C        H  811   2.477   3.293   5.064
    1C        H  812   2.571   3.504   5.066
    1C        H  813   2.562   3.732   5.069
    1C        H  814   2.591   4.182   5.043
    1C        H  815   2.795   4.285   5.053
    1C        H  816   2.692   2.859   1.975
    1C        H  817   2.874   2.718   1.977
    1C        H  818   3.205   2.410   2.002
    1C        H  819   3.423   2.439   1.983
    1C        H  820   3.848   2.539   1.969
    1C        H  821   4.050   2.655   1.970
    1C        H  822   4.288   2.692   2.001
    1C        H  823   4.349   2.940   1.970
    1C        H  824   4.540   3.317   1.969
    1C        H  825   4.458   3.514   1.980
    1C        H  826   4.564   3.751   1.972
    1C        H  827   3.790   4.483   1.950
    1C        H  828   3.970   4.396   1.950
    1C        H  829   4.156   4.245   1.948
    1C        H  830   4.494   3.971   1.965
    1C        H  831   2.591   3.853   1.965
    1C        H  832   2.694   4.064   1.956
    1C        H  833   2.699   4.341   1.999
    1C        H  834   3.377   4.487   1.948
    1C        H  835   3.159   4.385   1.961
    1C        H  836   2.515   3.002   1.995
    1C        H  837   2.430   3.219   1.988
    1C        H  838   2.430   3.698   2.000
    2V3OU   H29  839   2.805   3.554   1.988
    2V3OU   C27  840   2.787   3.502   2.086
    2V3OU   H27  841   2.734   3.567   2.160
    2V3OU   H28  842   2.728   3.410   2.063
    2V3OU   O11  843   2.919   3.476   2.137
    2V3OU   C15  844   2.929   3.394   2.247
    2V3OU   C13  845   3.057   3.372   2.302
    2V3OU   C14  846   3.082   3.268   2.393
    2V3OU   C16  847   2.977   3.190   2.439
    2V3OU    H6  848   2.994   3.109   2.512
    2V3OU   C12  849   3.219   3.232   2.436
    2V3OU    O2  850   3.242   3.134   2.510
    2V3OU   C10  851   3.333   3.313   2.390
    2V3OU    C8  852   3.463   3.272   2.416
    2V3OU   O10  853   3.492   3.158   2.483
    2V3OU   H26  854   3.405   3.118   2.501
    2V3OU    C6  855   3.572   3.350   2.364
    2V3OU    C5  856   3.542   3.469   2.298
    2V3OU    C4  857   3.707   3.289   2.374
    2V3OU    H4  858   3.727   3.230   2.468
    2V3OU    H5  859   3.717   3.225   2.281
    2V3OU    C2  860   3.814   3.399   2.381
    2V3OU    O6  861   3.800   3.474   2.502
    2V3OU   H21  862   3.764   3.560   2.476
    2V3OU    C3  863   3.784   3.498   2.269
    2V3OU    H2  864   3.866   3.575   2.265
    2V3OU    H3  865   3.786   3.444   2.171
    2V3OU   C25  866   3.948   3.326   2.371
    2V3OU    O7  867   3.999   3.295   2.263
    2V3OU   C26  868   4.032   3.290   2.492
    2V3OU   H22  869   4.064   3.388   2.535
    2V3OU   H23  870   4.122   3.233   2.459
    2V3OU    O8  871   3.966   3.216   2.593
    2V3OU   H24  872   3.935   3.276   2.663
    2V3OU    C1  873   3.651   3.571   2.285
    2V3OU    H1  874   3.629   3.625   2.188
    2V3OU    O3  875   3.656   3.658   2.398
    2V3OU   C19  876   3.614   3.794   2.382
    2V3OU    H9  877   3.520   3.801   2.319
    2V3OU    O4  878   3.716   3.844   2.298
    2V3OU   C20  879   3.846   3.873   2.351
    2V3OU   H10  880   3.895   3.773   2.368
    2V3OU   C24  881   3.611   3.861   2.519
    2V3OU   H16  882   3.545   3.791   2.577
    2V3OU   H17  883   3.559   3.960   2.512
    2V3OU   C23  884   3.750   3.876   2.580
    2V3OU   H15  885   3.790   3.771   2.595
    2V3OU    N1  886   3.733   3.961   2.697
    2V3OU   H19  887   3.807   3.930   2.757
    2V3OU   H20  888   3.656   3.932   2.754
    2V3OU   C21  889   3.850   3.948   2.484
    2V3OU   H11  890   3.957   3.934   2.520
    2V3OU    O5  891   3.830   4.088   2.477
    2V3OU   H18  892   3.779   4.101   2.559
    2V3OU   C22  893   3.913   3.947   2.236
    2V3OU   H12  894   3.857   4.044   2.225
    2V3OU   H13  895   3.908   3.889   2.141
    2V3OU   H14  896   4.022   3.960   2.257
    2V3OU   C11  897   3.162   3.474   2.292
    2V3OU    O1  898   3.129   3.585   2.245
    2V3OU    C9  899   3.301   3.430   2.316
    2V3OU    C7  900   3.407   3.509   2.273
    2V3OU    O9  901   3.389   3.612   2.183
    2V3OU   H25  902   3.294   3.629   2.191
    2V3OU   C17  903   2.824   3.314   2.297
    2V3OU    H7  904   2.723   3.356   2.292
    2V3OU   C18  905   2.849   3.214   2.390
    2V3OU    H8  906   2.776   3.170   2.459
    3SOL     OW  907   3.342   4.727   0.968
    3SOL    HW1  908   3.322   4.637   0.930
    3SOL    HW2  909   3.348   4.794   0.893
    4SOL     OW  910   6.616   5.751   1.768
    4SOL    HW1  911   6.645   5.847   1.777
    4SOL    HW2  912   6.524   5.748   1.728
    5SOL     OW  913   4.798   1.387   2.591
    5SOL    HW1  914   4.837   1.351   2.506
    5SOL    HW2  915   4.871   1.428   2.646
    6SOL     OW  916   3.897   0.976   1.561
    6SOL    HW1  917   3.852   1.012   1.480
    6SOL    HW2  918   3.991   1.011   1.565
    7SOL     OW  919   6.956   3.680   2.252
    7SOL    HW1  920   0.020   3.649   2.279
    7SOL    HW2  921   6.929   3.759   2.307
    8SOL     OW  922   2.386   0.448   6.712
    8SOL    HW1  923   2.404   0.532   6.762
    8SOL    HW2  924   2.316   0.395   6.759
    9SOL     OW  925   6.570   6.784   6.410
    9SOL    HW1  926   6.491   6.722   6.410
    9SOL    HW2  927   6.653   6.731   6.396
   10SOL     OW  928   1.432   5.180   6.539
   10SOL    HW1  929   1.342   5.224   6.536
   10SOL    HW2  930   1.422   5.085   6.566
   11SOL     OW  931   2.415   0.635   6.254
   11SOL    HW1  932   2.469   0.618   6.337
   11SOL    HW2  933   2.368   0.723   6.263
   12SOL     OW  934   3.573   6.907   3.778
   12SOL    HW1  935   3.611   6.968   3.709
   12SOL    HW2  936   3.621   6.819   3.776
   13SOL     OW  937   3.943   5.780   3.787
   13SOL    HW1  938   3.918   5.691   3.827
   13SOL    HW2  939   4.014   5.767   3.718
   14SOL     OW  940   4.226   5.199   5.690
   14SOL    HW1  941   4.239   5.298   5.694
   14SOL    HW2  942   4.244   5.167   5.597
   15SOL     OW  943   1.457   5.978   1.336
   15SOL    HW1  944   1.379   5.925   1.303
   15SOL    HW2  945   1.428   6.072   1.353
   16SOL     OW  946   5.304   3.080   5.503
   16SOL    HW1  947   5.339   3.159   5.453
   16SOL    HW2  948   5.379   3.036   5.553
   17SOL     OW  949   4.884   5.950   5.734
   17SOL    HW1  950   4.788   5.946   5.706
   17SOL    HW2  951   4.943   5.930   5.656
   18SOL     OW  952   3.423   0.866   6.019
   18SOL    HW1  953   3.488   0.934   6.053
   18SOL    HW2  954   3.399   0.803   6.093
   19SOL     OW  955   0.207   0.415   3.218
   19SOL    HW1  956   0.193   0.437   3.121
   19SOL    HW2  957   0.262   0.486   3.261
   20SOL     OW  958   5.677   2.638   4.525
   20SOL    HW1  959   5.713   2.600   4.440
   20SOL    HW2  960   5.577   2.638   4.522
   21SOL     OW  961   3.376   2.050   2.573
   21SOL    HW1  962   3.426   2.013   2.494
   21SOL    HW2  963   3.440   2.100   2.632
   22SOL     OW  964   2.199   6.644   0.184
   22SOL    HW1  965   2.181   6.644   0.085
   22SOL    HW2  966   2.165   6.728   0.224
   23SOL     OW  967   5.007   6.511   2.687
   23SOL    HW1  968   4.993   6.526   2.785
   23SOL    HW2  969   5.094   6.464   2.672
   24SOL     OW  970   4.798   1.439   2.987
   24SOL    HW1  971   4.772   1.417   3.081
   24SOL    HW2  972   4.737   1.511   2.952
   25SOL     OW  973   3.297   0.005   5.072
   25SOL    HW1  974   3.253   0.095   5.074
   25SOL    HW2  975   3.394   0.016   5.098
   26SOL     OW  976   0.129   0.540   0.705
   26SOL    HW1  977   0.048   0.594   0.728
   26SOL    HW2  978   0.211   0.586   0.741
   27SOL     OW  979   1.181   1.763   2.282
   27SOL    HW1  980   1.257   1.722   2.233
   27SOL    HW2  981   1.125   1.692   2.324
   28SOL     OW  982   3.868   1.590   6.558
   28SOL    HW1  983   3.838   1.649   6.483
   28SOL    HW2  984   3.961   1.614   6.584
   29SOL     OW  985   4.734   2.749   2.076
   29SOL    HW1  986   4.722   2.839   2.034
   29SOL    HW2  987   4.644   2.708   2.091
   30SOL     OW  988   3.326   1.219   3.977
   30SOL    HW1  989   3.422   1.203   3.956
   30SOL    HW2  990   3.285   1.276   3.907
   31SOL     OW  991   0.879   2.585   6.306
   31SOL    HW1  992   0.916   2.502   6.265
   31SOL    HW2  993   0.781   2.592   6.284
   32SOL     OW  994   0.260   1.315   3.217
   32SOL    HW1  995   0.224   1.408   3.201
   32SOL    HW2  996   0.304   1.282   3.134
   33SOL     OW  997   2.179   4.290   6.606
   33SOL    HW1  998   2.186   4.306   6.705
   33SOL    HW2  999   2.251   4.227   6.576
   34SOL     OW 1000   2.275   1.405   3.731
   34SOL    HW1 1001   2.328   1.481   3.767
   34SOL    HW2 1002   2.223   1.435   3.652
   35SOL     OW 1003   3.521   3.309   6.615
   35SOL    HW1 1004   3.476   3.236   6.564
   35SOL    HW2 1005   3.527   3.391   6.557
   36SOL     OW 1006   6.006   0.646   5.353
   36SOL    HW1 1007   6.073   0.659   5.425
   36SOL    HW2 1008   6.000   0.728   5.297
   37SOL     OW 1009   0.949   0.656   0.640
   37SOL    HW1 1010   0.887   0.697   0.574
   37SOL    HW2 1011   0.909   0.573   0.678
   38SOL     OW 1012   6.827   5.080   3.007
   38SOL    HW1 1013   6.809   5.098   2.910
   38SOL    HW2 1014   6.880   4.996   3.016
   39SOL     OW 1015   0.077   5.252   6.864
   39SOL    HW1 1016   0.151   5.312   6.834
   39SOL    HW2 1017   0.113   5.160   6.881
   40SOL     OW 1018   5.053   2.175   1.503
   40SOL    HW1 1019   4.990   2.100   1.486
   40SOL    HW2 1020   5.034   2.214   1.593
   41SOL     OW 1021   6.851   6.259   4.477
   41SOL    HW1 1022   6.923   6.271   4.545
   41SOL    HW2 1023   6.855   6.166   4.440
   42SOL     OW 1024   2.780   5.225   5.280
   42SOL    HW1 1025   2.822   5.188   5.363
   42SOL    HW2 1026   2.736   5.151   5.229
   43SOL     OW 1027   5.787   6.060   5.663
   43SOL    HW1 1028   5.775   5.988   5.594
   43SOL    HW2 1029   5.730   6.039   5.742
   44SOL     OW 1030   5.455   1.897   0.146
   44SOL    HW1 1031   5.500   1.834   0.210
   44SOL    HW2 1032   5.360   1.869   0.134
   45SOL     OW 1033   3.740   6.791   2.846
   45SOL    HW1 1034   3.754   6.854   2.922
   45SOL    HW2 1035   3.821   6.734   2.835
   46SOL     OW 1036   0.570   3.092   3.054
   46SOL    HW1 1037   0.565   3.104   3.154
   46SOL    HW2 1038   0.658   3.125   3.021
   47SOL     OW 1039   5.075   4.572   1.402
   47SOL    HW1 1040   5.156   4.516   1.419
   47SOL    HW2 1041   5.028   4.537   1.321
   48SOL     OW 1042   6.490   2.478   5.744
   48SOL    HW1 1043   6.461   2.388   5.776
   48SOL    HW2 1044   6.491   2.479   5.644
   49SOL     OW 1045   5.224   3.676   1.754
   49SOL    HW1 1046   5.229   3.643   1.848
   49SOL    HW2 1047   5.194   3.602   1.694
   50SOL     OW 1048   6.260   1.538   5.170
   50SOL    HW1 1049   6.251   1.476   5.092
   50SOL    HW2 1050   6.230   1.629   5.143
   51SOL     OW 1051   3.004   6.157   2.929
   51SOL    HW1 1052   3.031   6.187   2.837
   51SOL    HW2 1053   3.076   6.180   2.994
   52SOL     OW 1054   5.234   2.438   3.281
   52SOL    HW1 1055   5.161   2.457   3.348
   52SOL    HW2 1056   5.195   2.390   3.203
   53SOL     OW 1057   3.635   6.768   4.356
   53SOL    HW1 1058   3.584   6.852   4.372
   53SOL    HW2 1059   3.576   6.689   4.377
   54SOL     OW 1060   3.709   4.498   1.187
   54SOL    HW1 1061   3.651   4.488   1.268
   54SOL    HW2 1062   3.662   4.553   1.118
   55SOL     OW 1063   2.728   1.709   6.603
   55SOL    HW1 1064   2.752   1.804   6.584
   55SOL    HW2 1065   2.640   1.687   6.559
   56SOL     OW 1066   0.281   0.727   1.304
   56SOL    HW1 1067   0.330   0.809   1.273
   56SOL    HW2 1068   0.211   0.755   1.370
   57SOL     OW 1069   5.433   0.803   1.433
   57SOL    HW1 1070   5.480   0.853   1.505
   57SOL    HW2 1071   5.466   0.832   1.343
   58SOL     OW 1072   6.101   6.714   5.730
   58SOL    HW1 1073   6.010   6.692   5.695
   58SOL    HW2 1074   6.148   6.629   5.755
   59SOL     OW 1075   0.477   1.649   5.451
   59SOL    HW1 1076   0.489   1.564   5.399
   59SOL    HW2 1077   0.505   1.727   5.395
   60SOL     OW 1078   5.220   1.525   5.535
   60SOL    HW1 1079   5.170   1.602   5.496
   60SOL    HW2 1080   5.192   1.512   5.630
   61SOL     OW 1081   5.045   2.291   4.686
   61SOL    HW1 1082   5.023   2.378   4.642
   61SOL    HW2 1083   4.969   2.263   4.745
   62SOL     OW 1084   0.274   1.136   2.347
   62SOL    HW1 1085   0.181   1.108   2.368
   62SOL    HW2 1086   0.306   1.090   2.264
   63SOL     OW 1087   5.264   0.997   3.870
   63SOL    HW1 1088   5.345   1.056   3.866
   63SOL    HW2 1089   5.188   1.047   3.912
   64SOL     OW 1090   0.037   3.654   5.986
   64SOL    HW1 1091   6.990   3.712   5.951
   64SOL    HW2 1092   0.005   3.560   5.995
   65SOL     OW 1093   0.220   4.928   6.574
   65SOL    HW1 1094   0.120   4.932   6.570
   65SOL    HW2 1095   0.257   4.929   6.481
   66SOL     OW 1096   3.838   0.973   5.693
   66SOL    HW1 1097   3.864   0.926   5.608
   66SOL    HW2 1098   3.837   0.907   5.768
   67SOL     OW 1099   5.513   4.279   5.908
   67SOL    HW1 1100   5.435   4.236   5.862
   67SOL    HW2 1101   5.483   4.316   5.997
   68SOL     OW 1102   5.562   0.946   7.020
   68SOL    HW1 1103   5.527   0.894   0.071
   68SOL    HW2 1104   5.531   0.904   6.934
   69SOL     OW 1105   0.492   3.692   5.644
   69SOL    HW1 1106   0.403   3.738   5.648
   69SOL    HW2 1107   0.533   3.689   5.735
   70SOL     OW 1108   5.436   4.391   4.437
   70SOL    HW1 1109   5.416   4.360   4.530
   70SOL    HW2 1110   5.511   4.337   4.399
   71SOL     OW 1111   3.869   1.819   3.082
   71SOL    HW1 1112   3.925   1.783   3.007
   71SOL    HW2 1113   3.900   1.911   3.105
   72SOL     OW 1114   2.214   6.599   4.552
   72SOL    HW1 1115   2.273   6.670   4.591
   72SOL    HW2 1116   2.120   6.612   4.583
   73SOL     OW 1117   3.126   1.414   0.652
   73SOL    HW1 1118   3.098   1.325   0.688
   73SOL    HW2 1119   3.055   1.451   0.593
   74SOL     OW 1120   5.240   6.962   6.792
   74SOL    HW1 1121   5.309   6.957   6.864
   74SOL    HW2 1122   5.155   6.920   6.823
   75SOL     OW 1123   3.801   0.177   0.413
   75SOL    HW1 1124   3.893   0.198   0.378
   75SOL    HW2 1125   3.806   0.168   0.513
   76SOL     OW 1126   2.960   3.361   0.930
   76SOL    HW1 1127   2.946   3.421   0.851
   76SOL    HW2 1128   3.055   3.331   0.933
   77SOL     OW 1129   6.673   6.587   3.474
   77SOL    HW1 1130   6.627   6.522   3.534
   77SOL    HW2 1131   6.684   6.546   3.384
   78SOL     OW 1132   5.547   0.623   6.999
   78SOL    HW1 1133   5.472   0.556   6.996
   78SOL    HW2 1134   5.577   0.643   6.905
   79SOL     OW 1135   3.373   6.126   0.533
   79SOL    HW1 1136   3.340   6.059   0.466
   79SOL    HW2 1137   3.425   6.197   0.486
   80SOL     OW 1138   5.102   2.094   3.729
   80SOL    HW1 1139   5.194   2.105   3.691
   80SOL    HW2 1140   5.064   2.184   3.750
   81SOL     OW 1141   2.175   6.846   2.710
   81SOL    HW1 1142   2.138   6.935   2.683
   81SOL    HW2 1143   2.201   6.794   2.629
   82SOL     OW 1144   6.603   4.720   1.129
   82SOL    HW1 1145   6.644   4.635   1.163
   82SOL    HW2 1146   6.564   4.704   1.038
   83SOL     OW 1147   0.509   0.891   0.201
   83SOL    HW1 1148   0.504   0.989   0.224
   83SOL    HW2 1149   0.604   0.867   0.179
   84SOL     OW 1150   5.936   2.656   3.538
   84SOL    HW1 1151   5.905   2.746   3.569
   84SOL    HW2 1152   5.929   2.590   3.613
   85SOL     OW 1153   1.517   2.006   4.353
   85SOL    HW1 1154   1.422   1.979   4.367
   85SOL    HW2 1155   1.552   2.050   4.436
   86SOL     OW 1156   6.755   0.348   5.101
   86SOL    HW1 1157   6.764   0.411   5.024
   86SOL    HW2 1158   6.692   0.387   5.169
   87SOL     OW 1159   4.907   3.446   0.452
   87SOL    HW1 1160   4.902   3.355   0.410
   87SOL    HW2 1161   4.833   3.503   0.416
   88SOL     OW 1162   3.496   2.007   5.779
   88SOL    HW1 1163   3.489   1.980   5.683
   88SOL    HW2 1164   3.528   2.102   5.784
   89SOL     OW 1165   0.961   2.716   5.902
   89SOL    HW1 1166   0.955   2.698   6.000
   89SOL    HW2 1167   0.871   2.742   5.867
   90SOL     OW 1168   3.530   5.874   2.461
   90SOL    HW1 1169   3.581   5.945   2.413
   90SOL    HW2 1170   3.536   5.789   2.409
   91SOL     OW 1171   4.984   4.213   5.018
   91SOL    HW1 1172   5.031   4.142   5.072
   91SOL    HW2 1173   4.967   4.178   4.926
   92SOL     OW 1174   4.062   4.798   0.526
   92SOL    HW1 1175   4.004   4.803   0.445
   92SOL    HW2 1176   4.034   4.869   0.591
   93SOL     OW 1177   2.917   3.997   6.586
   93SOL    HW1 1178   2.834   3.978   6.533
   93SOL    HW2 1179   2.978   4.055   6.533
   94SOL     OW 1180   2.481   5.765   6.716
   94SOL    HW1 1181   2.537   5.774   6.798
   94SOL    HW2 1182   2.459   5.856   6.681
   95SOL     OW 1183   1.283   0.546   3.288
   95SOL    HW1 1184   1.277   0.524   3.190
   95SOL    HW2 1185   1.339   0.478   3.335
   96SOL     OW 1186   3.562   0.014   5.358
   96SOL    HW1 1187   3.565   6.985   5.275
   96SOL    HW2 1188   3.482   0.073   5.356
   97SOL     OW 1189   2.170   2.974   5.954
   97SOL    HW1 1190   2.206   2.911   6.023
   97SOL    HW2 1191   2.094   2.930   5.906
   98SOL     OW 1192   6.957   3.616   0.907
   98SOL    HW1 1193   6.914   3.670   0.835
   98SOL    HW2 1194   6.936   3.519   0.894
   99SOL     OW 1195   3.855   3.582   1.115
   99SOL    HW1 1196   3.832   3.651   1.047
   99SOL    HW2 1197   3.773   3.530   1.139
  100SOL     OW 1198   6.514   6.948   5.232
  100SOL    HW1 1199   6.571   6.914   5.307
  100SOL    HW2 1200   6.447   7.013   5.267
  101SOL     OW 1201   1.540   4.871   2.399
  101SOL    HW1 1202   1.480   4.793   2.382
  101SOL    HW2 1203   1.506   4.951   2.349
  102SOL     OW 1204   4.171   6.294   2.622
  102SOL    HW1 1205   4.192   6.361   2.692
  102SOL    HW2 1206   4.084   6.316   2.579
  103SOL     OW 1207   2.507   1.100   1.954
  103SOL    HW1 1208   2.432   1.090   1.889
  103SOL    HW2 1209   2.549   1.190   1.942
  104SOL     OW 1210   0.450   5.702   2.607
  104SOL    HW1 1211   0.465   5.720   2.704
  104SOL    HW2 1212   0.430   5.788   2.560
  105SOL     OW 1213   6.395   2.742   6.680
  105SOL    HW1 1214   6.445   2.656   6.692
  105SOL    HW2 1215   6.302   2.721   6.649
  106SOL     OW 1216   3.235   6.295   4.690
  106SOL    HW1 1217   3.200   6.383   4.719
  106SOL    HW2 1218   3.214   6.226   4.760
  107SOL     OW 1219   2.058   1.350   1.472
  107SOL    HW1 1220   2.154   1.327   1.453
  107SOL    HW2 1221   2.044   1.448   1.456
  108SOL     OW 1222   2.945   5.081   5.885
  108SOL    HW1 1223   2.928   5.003   5.825
  108SOL    HW2 1224   3.014   5.056   5.953
  109SOL     OW 1225   6.756   0.309   1.511
  109SOL    HW1 1226   6.686   0.336   1.445
  109SOL    HW2 1227   6.718   0.241   1.574
  110SOL     OW 1228   3.290   5.638   4.985
  110SOL    HW1 1229   3.232   5.708   4.942
  110SOL    HW2 1230   3.239   5.594   5.058
  111SOL     OW 1231   1.999   1.355   4.191
  111SOL    HW1 1232   2.023   1.450   4.171
  111SOL    HW2 1233   2.060   1.293   4.140
  112SOL     OW 1234   4.198   6.625   6.546
  112SOL    HW1 1235   4.222   6.714   6.506
  112SOL    HW2 1236   4.101   6.605   6.527
  113SOL     OW 1237   6.372   6.170   2.883
  113SOL    HW1 1238   6.457   6.181   2.832
  113SOL    HW2 1239   6.361   6.247   2.947
  114SOL     OW 1240   0.320   0.097   1.697
  114SOL    HW1 1241   0.419   0.092   1.709
  114SOL    HW2 1242   0.298   0.170   1.632
  115SOL     OW 1243   4.519   1.678   3.279
  115SOL    HW1 1244   4.574   1.680   3.363
  115SOL    HW2 1245   4.579   1.683   3.199
  116SOL     OW 1246   5.557   4.911   1.278
  116SOL    HW1 1247   5.482   4.846   1.291
  116SOL    HW2 1248   5.521   5.005   1.283
  117SOL     OW 1249   1.503   2.202   0.314
  117SOL    HW1 1250   1.432   2.131   0.312
  117SOL    HW2 1251   1.583   2.170   0.264
  118SOL     OW 1252   1.593   0.779   3.446
  118SOL    HW1 1253   1.565   0.693   3.404
  118SOL    HW2 1254   1.636   0.761   3.534
  119SOL     OW 1255   0.760   0.949   6.918
  119SOL    HW1 1256   0.742   1.013   6.843
  119SOL    HW2 1257   0.854   0.916   6.911
  120SOL     OW 1258   6.165   6.868   0.065
  120SOL    HW1 1259   6.174   6.960   0.104
  120SOL    HW2 1260   6.073   6.856   0.029
  121SOL     OW 1261   1.643   3.949   5.925
  121SOL    HW1 1262   1.601   3.870   5.879
  121SOL    HW2 1263   1.694   4.003   5.858
  122SOL     OW 1264   1.962   3.475   6.102
  122SOL    HW1 1265   2.029   3.465   6.028
  122SOL    HW2 1266   1.950   3.388   6.148
  123SOL     OW 1267   0.477   0.910   2.691
  123SOL    HW1 1268   0.573   0.905   2.663
  123SOL    HW2 1269   0.435   0.992   2.651
  124SOL     OW 1270   4.931   2.880   0.707
  124SOL    HW1 1271   4.844   2.920   0.677
  124SOL    HW2 1272   4.939   2.891   0.806
  125SOL     OW 1273   2.635   1.913   1.370
  125SOL    HW1 1274   2.586   1.917   1.457
  125SOL    HW2 1275   2.592   1.976   1.305
  126SOL     OW 1276   2.040   4.221   0.884
  126SOL    HW1 1277   1.965   4.287   0.891
  126SOL    HW2 1278   2.120   4.265   0.842
  127SOL     OW 1279   0.848   5.419   0.115
  127SOL    HW1 1280   0.844   5.319   0.119
  127SOL    HW2 1281   0.767   5.457   0.161
  128SOL     OW 1282   5.315   2.799   1.171
  128SOL    HW1 1283   5.340   2.875   1.112
  128SOL    HW2 1284   5.341   2.820   1.265
  129SOL     OW 1285   2.112   3.292   6.533
  129SOL    HW1 1286   2.107   3.293   6.633
  129SOL    HW2 1287   2.199   3.331   6.504
  130SOL     OW 1288   1.313   2.150   3.554
  130SOL    HW1 1289   1.384   2.113   3.494
  130SOL    HW2 1290   1.295   2.086   3.628
  131SOL     OW 1291   5.457   1.931   3.676
  131SOL    HW1 1292   5.478   1.994   3.751
  131SOL    HW2 1293   5.375   1.963   3.628
  132SOL     OW 1294   2.733   2.696   1.064
  132SOL    HW1 1295   2.704   2.705   1.159
  132SOL    HW2 1296   2.801   2.767   1.043
  133SOL     OW 1297   4.784   6.878   3.930
  133SOL    HW1 1298   4.846   6.800   3.938
  133SOL    HW2 1299   4.837   6.961   3.914
  134SOL     OW 1300   6.271   1.177   2.663
  134SOL    HW1 1301   6.222   1.107   2.716
  134SOL    HW2 1302   6.360   1.141   2.634
  135SOL     OW 1303   5.711   4.036   3.574
  135SOL    HW1 1304   5.697   4.054   3.476
  135SOL    HW2 1305   5.693   4.119   3.626
  136SOL     OW 1306   2.732   4.098   5.817
  136SOL    HW1 1307   2.830   4.121   5.815
  136SOL    HW2 1308   2.709   4.044   5.735
  137SOL     OW 1309   5.956   2.121   4.589
  137SOL    HW1 1310   6.025   2.087   4.654
  137SOL    HW2 1311   6.001   2.176   4.518
  138SOL     OW 1312   1.090   4.399   2.297
  138SOL    HW1 1313   1.066   4.302   2.309
  138SOL    HW2 1314   1.036   4.455   2.360
  139SOL     OW 1315   1.724   0.069   4.863
  139SOL    HW1 1316   1.778   0.125   4.801
  139SOL    HW2 1317   1.627   0.082   4.843
  140SOL     OW 1318   0.986   6.000   2.526
  140SOL    HW1 1319   0.975   5.916   2.579
  140SOL    HW2 1320   0.898   6.028   2.489
  141SOL     OW 1321   6.824   2.798   5.313
  141SOL    HW1 1322   6.837   2.711   5.265
  141SOL    HW2 1323   6.912   2.828   5.352
  142SOL     OW 1324   0.674   4.350   1.011
  142SOL    HW1 1325   0.650   4.377   1.105
  142SOL    HW2 1326   0.766   4.310   1.011
  143SOL     OW 1327   5.915   4.042   1.029
  143SOL    HW1 1328   5.853   4.076   0.957
  143SOL    HW2 1329   5.884   4.075   1.118
  144SOL     OW 1330   1.206   5.837   5.816
  144SOL    HW1 1331   1.231   5.844   5.720
  144SOL    HW2 1332   1.137   5.906   5.839
  145SOL     OW 1333   6.964   5.335   0.569
  145SOL    HW1 1334   7.008   5.264   0.623
  145SOL    HW2 1335   0.007   5.398   0.534
  146SOL     OW 1336   4.791   0.401   6.827
  146SOL    HW1 1337   4.726   0.392   6.752
  146SOL    HW2 1338   4.798   0.314   6.876
  147SOL     OW 1339   6.241   3.606   6.154
  147SOL    HW1 1340   6.272   3.547   6.080
  147SOL    HW2 1341   6.266   3.701   6.134
  148SOL     OW 1342   6.477   5.479   6.792
  148SOL    HW1 1343   6.470   5.433   6.881
  148SOL    HW2 1344   6.572   5.504   6.775
  149SOL     OW 1345   3.673   1.882   3.861
  149SOL    HW1 1346   3.596   1.912   3.804
  149SOL    HW2 1347   3.718   1.804   3.818
  150SOL     OW 1348   5.990   5.917   6.753
  150SOL    HW1 1349   5.925   5.946   6.824
  150SOL    HW2 1350   5.997   5.818   6.752
  151SOL     OW 1351   3.037   2.493   0.899
  151SOL    HW1 1352   3.039   2.441   0.814
  151SOL    HW2 1353   2.943   2.504   0.931
  152SOL     OW 1354   1.116   0.873   2.251
  152SOL    HW1 1355   1.196   0.820   2.278
  152SOL    HW2 1356   1.120   0.964   2.292
  153SOL     OW 1357   2.225   0.918   1.253
  153SOL    HW1 1358   2.306   0.971   1.275
  153SOL    HW2 1359   2.221   0.836   1.311
  154SOL     OW 1360   0.775   1.889   2.253
  154SOL    HW1 1361   0.689   1.895   2.202
  154SOL    HW2 1362   0.844   1.845   2.196
  155SOL     OW 1363   6.886   1.461   3.254
  155SOL    HW1 1364   6.828   1.539   3.277
  155SOL    HW2 1365   6.876   1.390   3.323
  156SOL     OW 1366   0.197   2.409   0.636
  156SOL    HW1 1367   0.268   2.343   0.660
  156SOL    HW2 1368   0.179   2.468   0.715
  157SOL     OW 1369   5.774   3.163   1.847
  157SOL    HW1 1370   5.830   3.190   1.768
  157SOL    HW2 1371   5.733   3.074   1.830
  158SOL     OW 1372   2.597   4.975   2.399
  158SOL    HW1 1373   2.536   5.006   2.326
  158SOL    HW2 1374   2.630   4.883   2.378
  159SOL     OW 1375   4.639   4.701   2.152
  159SOL    HW1 1376   4.687   4.685   2.066
  159SOL    HW2 1377   4.593   4.617   2.181
  160SOL     OW 1378   5.349   5.210   0.579
  160SOL    HW1 1379   5.257   5.177   0.555
  160SOL    HW2 1380   5.356   5.219   0.678
  161SOL     OW 1381   1.814   5.857   4.034
  161SOL    HW1 1382   1.746   5.929   4.027
  161SOL    HW2 1383   1.905   5.895   4.019
  162SOL     OW 1384   3.642   5.857   0.121
  162SOL    HW1 1385   3.697   5.864   0.204
  162SOL    HW2 1386   3.655   5.767   0.079
  163SOL     OW 1387   6.231   5.227   1.173
  163SOL    HW1 1388   6.247   5.271   1.084
  163SOL    HW2 1389   6.140   5.186   1.174
  164SOL     OW 1390   6.891   4.888   0.748
  164SOL    HW1 1391   6.877   4.817   0.817
  164SOL    HW2 1392   6.920   4.846   0.662
  165SOL     OW 1393   5.062   3.258   1.424
  165SOL    HW1 1394   5.088   3.191   1.493
  165SOL    HW2 1395   4.964   3.251   1.406
  166SOL     OW 1396   0.051   3.988   2.895
  166SOL    HW1 1397   0.120   4.019   2.960
  166SOL    HW2 1398   0.001   4.067   2.859
  167SOL     OW 1399   4.901   3.145   0.377
  167SOL    HW1 1400   4.857   3.170   0.291
  167SOL    HW2 1401   4.874   3.052   0.402
  168SOL     OW 1402   2.590   3.549   1.125
  168SOL    HW1 1403   2.496   3.531   1.096
  168SOL    HW2 1404   2.600   3.529   1.223
  169SOL     OW 1405   4.936   1.473   1.896
  169SOL    HW1 1406   4.966   1.568   1.907
  169SOL    HW2 1407   4.836   1.469   1.897
  170SOL     OW 1408   1.148   1.096   3.413
  170SOL    HW1 1409   1.227   1.111   3.354
  170SOL    HW2 1410   1.097   1.016   3.379
  171SOL     OW 1411   3.602   4.240   6.736
  171SOL    HW1 1412   3.520   4.292   6.760
  171SOL    HW2 1413   3.633   4.267   6.645
  172SOL     OW 1414   5.905   1.890   3.012
  172SOL    HW1 1415   5.962   1.910   3.092
  172SOL    HW2 1416   5.933   1.947   2.935
  173SOL     OW 1417   6.186   1.931   4.391
  173SOL    HW1 1418   6.200   1.994   4.315
  173SOL    HW2 1419   6.239   1.848   4.375
  174SOL     OW 1420   4.093   5.344   3.251
  174SOL    HW1 1421   4.192   5.347   3.257
  174SOL    HW2 1422   4.058   5.279   3.319
  175SOL     OW 1423   2.516   0.263   1.442
  175SOL    HW1 1424   2.486   0.254   1.537
  175SOL    HW2 1425   2.609   0.230   1.433
  176SOL     OW 1426   0.803   4.867   0.772
  176SOL    HW1 1427   0.770   4.954   0.809
  176SOL    HW2 1428   0.795   4.867   0.673
  177SOL     OW 1429   5.731   3.152   2.722
  177SOL    HW1 1430   5.809   3.161   2.660
  177SOL    HW2 1431   5.651   3.196   2.682
  178SOL     OW 1432   2.337   3.145   6.760
  178SOL    HW1 1433   2.344   3.128   6.858
  178SOL    HW2 1434   2.305   3.238   6.745
  179SOL     OW 1435   3.656   0.872   5.353
  179SOL    HW1 1436   3.609   0.787   5.378
  179SOL    HW2 1437   3.752   0.866   5.382
  180SOL     OW 1438   1.711   6.639   0.277
  180SOL    HW1 1439   1.687   6.542   0.277
  180SOL    HW2 1440   1.650   6.688   0.215
  181SOL     OW 1441   3.371   2.933   6.290
  181SOL    HW1 1442   3.450   2.891   6.244
  181SOL    HW2 1443   3.316   2.863   6.335
  182SOL     OW 1444   3.991   1.756   5.042
  182SOL    HW1 1445   3.967   1.808   4.960
  182SOL    HW2 1446   3.926   1.681   5.055
  183SOL     OW 1447   3.908   2.131   2.973
  183SOL    HW1 1448   3.994   2.180   2.966
  183SOL    HW2 1449   3.855   2.165   3.051
  184SOL     OW 1450   1.227   6.381   4.437
  184SOL    HW1 1451   1.162   6.305   4.446
  184SOL    HW2 1452   1.241   6.423   4.527
  185SOL     OW 1453   0.186   1.353   5.868
  185SOL    HW1 1454   0.172   1.342   5.967
  185SOL    HW2 1455   0.215   1.266   5.828
  186SOL     OW 1456   5.882   0.884   4.948
  186SOL    HW1 1457   5.836   0.970   4.970
  186SOL    HW2 1458   5.939   0.856   5.024
  187SOL     OW 1459   4.087   0.048   2.987
  187SOL    HW1 1460   4.097   6.997   3.050
  187SOL    HW2 1461   4.091   0.134   3.039
  188SOL     OW 1462   0.400   1.582   3.092
  188SOL    HW1 1463   0.483   1.624   3.055
  188SOL    HW2 1464   0.364   1.638   3.166
  189SOL     OW 1465   2.384   5.305   1.475
  189SOL    HW1 1466   2.290   5.320   1.444
  189SOL    HW2 1467   2.393   5.213   1.512
  190SOL     OW 1468   5.301   2.340   4.831
  190SOL    HW1 1469   5.374   2.408   4.824
  190SOL    HW2 1470   5.215   2.379   4.799
  191SOL     OW 1471   6.004   6.571   0.003
  191SOL    HW1 1472   5.935   6.517   6.982
  191SOL    HW2 1473   5.973   6.666   0.011
  192SOL     OW 1474   1.002   5.954   2.078
  192SOL    HW1 1475   1.080   5.916   2.028
  192SOL    HW2 1476   0.933   5.987   2.013
  193SOL     OW 1477   4.690   2.617   5.472
  193SOL    HW1 1478   4.684   2.654   5.379
  193SOL    HW2 1479   4.686   2.691   5.538
  194SOL     OW 1480   3.624   0.651   2.948
  194SOL    HW1 1481   3.608   0.707   3.030
  194SOL    HW2 1482   3.721   0.628   2.941
  195SOL     OW 1483   2.109   0.068   5.068
  195SOL    HW1 1484   2.208   0.062   5.079
  195SOL    HW2 1485   2.075   7.012   5.024
  196SOL     OW 1486   2.817   0.243   0.825
  196SOL    HW1 1487   2.861   0.168   0.874
  196SOL    HW2 1488   2.886   0.310   0.798
  197SOL     OW 1489   2.557   6.860   1.487
  197SOL    HW1 1490   2.529   6.786   1.426
  197SOL    HW2 1491   2.533   6.837   1.581
  198SOL     OW 1492   4.544   0.618   2.477
  198SOL    HW1 1493   4.625   0.676   2.471
  198SOL    HW2 1494   4.470   0.667   2.523
  199SOL     OW 1495   6.778   1.823   3.938
  199SOL    HW1 1496   6.759   1.882   3.859
  199SOL    HW2 1497   6.837   1.748   3.910
  200SOL     OW 1498   1.071   4.439   1.188
  200SOL    HW1 1499   1.016   4.384   1.251
  200SOL    HW2 1500   1.056   4.410   1.094
  201SOL     OW 1501   7.024   0.115   5.629
  201SOL    HW1 1502   7.003   0.080   5.538
  201SOL    HW2 1503   0.095   0.108   5.646
  202SOL     OW 1504   4.248   1.043   0.301
  202SOL    HW1 1505   4.186   1.121   0.306
  202SOL    HW2 1506   4.235   0.985   0.381
  203SOL     OW 1507   5.883   2.436   5.174
  203SOL    HW1 1508   5.923   2.495   5.103
  203SOL    HW2 1509   5.875   2.342   5.139
  204SOL     OW 1510   1.200   0.557   5.433
  204SOL    HW1 1511   1.175   0.573   5.529
  204SOL    HW2 1512   1.181   0.639   5.380
  205SOL     OW 1513   0.118   2.126   2.946
  205SOL    HW1 1514   0.061   2.152   2.868
  205SOL    HW2 1515   0.063   2.131   3.030
  206SOL     OW 1516   0.923   4.457   0.703
  206SOL    HW1 1517   0.952   4.373   0.658
  206SOL    HW2 1518   0.893   4.523   0.635
  207SOL     OW 1519   6.404   1.717   3.510
  207SOL    HW1 1520   6.414   1.646   3.580
  207SOL    HW2 1521   6.310   1.718   3.477
  208SOL     OW 1522   6.731   3.856   5.075
  208SOL    HW1 1523   6.660   3.880   5.141
  208SOL    HW2 1524   6.702   3.883   4.983
  209SOL     OW 1525   0.357   5.655   4.492
  209SOL    HW1 1526   0.374   5.592   4.416
  209SOL    HW2 1527   0.413   5.737   4.481
  210SOL     OW 1528   4.323   2.032   0.554
  210SOL    HW1 1529   4.388   1.995   0.621
  210SOL    HW2 1530   4.363   2.029   0.463
  211SOL     OW 1531   1.955   6.523   2.557
  211SOL    HW1 1532   1.886   6.546   2.489
  211SOL    HW2 1533   1.984   6.428   2.545
  212SOL     OW 1534   1.294   4.175   2.059
  212SOL    HW1 1535   1.259   4.269   2.057
  212SOL    HW2 1536   1.347   4.157   1.977
  213SOL     OW 1537   3.162   0.500   0.581
  213SOL    HW1 1538   3.115   0.530   0.498
  213SOL    HW2 1539   3.250   0.458   0.556
  214SOL     OW 1540   4.373   5.033   2.188
  214SOL    HW1 1541   4.309   5.009   2.261
  214SOL    HW2 1542   4.376   4.959   2.120
  215SOL     OW 1543   2.407   3.872   0.498
  215SOL    HW1 1544   2.383   3.951   0.443
  215SOL    HW2 1545   2.337   3.859   0.569
  216SOL     OW 1546   1.774   6.101   3.825
  216SOL    HW1 1547   1.817   6.187   3.854
  216SOL    HW2 1548   1.689   6.089   3.875
  217SOL     OW 1549   1.610   2.560   4.054
  217SOL    HW1 1550   1.518   2.568   4.091
  217SOL    HW2 1551   1.653   2.650   4.051
  218SOL     OW 1552   0.290   3.468   4.615
  218SOL    HW1 1553   0.378   3.485   4.659
  218SOL    HW2 1554   0.229   3.545   4.634
  219SOL     OW 1555   4.552   0.366   0.303
  219SOL    HW1 1556   4.577   0.426   0.379
  219SOL    HW2 1557   4.513   0.420   0.229
  220SOL     OW 1558   3.084   6.516   1.813
  220SOL    HW1 1559   2.994   6.518   1.771
  220SOL    HW2 1560   3.154   6.538   1.744
  221SOL     OW 1561   6.446   3.960   0.940
  221SOL    HW1 1562   6.420   4.027   1.009
  221SOL    HW2 1563   6.405   3.985   0.852
  222SOL     OW 1564   1.935   4.684   5.649
  222SOL    HW1 1565   1.885   4.624   5.712
  222SOL    HW2 1566   1.901   4.778   5.659
  223SOL     OW 1567   6.227   3.664   6.405
  223SOL    HW1 1568   6.278   3.601   6.464
  223SOL    HW2 1569   6.230   3.632   6.311
  224SOL     OW 1570   2.478   1.665   4.915
  224SOL    HW1 1571   2.440   1.752   4.884
  224SOL    HW2 1572   2.519   1.677   5.006
  225SOL     OW 1573   4.719   3.999   6.383
  225SOL    HW1 1574   4.783   4.075   6.379
  225SOL    HW2 1575   4.674   3.998   6.473
  226SOL     OW 1576   1.134   1.604   5.471
  226SOL    HW1 1577   1.133   1.625   5.373
  226SOL    HW2 1578   1.229   1.590   5.500
  227SOL     OW 1579   1.635   3.871   2.003
  227SOL    HW1 1580   1.703   3.893   2.073
  227SOL    HW2 1581   1.558   3.823   2.045
  228SOL     OW 1582   2.612   0.052   3.699
  228SOL    HW1 1583   2.514   0.047   3.717
  228SOL    HW2 1584   2.654   0.118   3.761
  229SOL     OW 1585   6.027   6.255   6.839
  229SOL    HW1 1586   6.074   6.168   6.824
  229SOL    HW2 1587   6.093   6.326   6.860
  230SOL     OW 1588   3.393   4.975   3.731
  230SOL    HW1 1589   3.454   4.931   3.797
  230SOL    HW2 1590   3.306   4.996   3.776
  231SOL     OW 1591   6.202   1.986   6.812
  231SOL    HW1 1592   6.180   2.075   6.854
  231SOL    HW2 1593   6.127   1.958   6.753
  232SOL     OW 1594   0.675   3.263   6.878
  232SOL    HW1 1595   0.742   3.191   6.896
  232SOL    HW2 1596   0.591   3.244   6.929
  233SOL     OW 1597   3.351   1.461   2.687
  233SOL    HW1 1598   3.408   1.381   2.706
  233SOL    HW2 1599   3.353   1.522   2.766
  234SOL     OW 1600   5.658   0.688   5.919
  234SOL    HW1 1601   5.624   0.616   5.859
  234SOL    HW2 1602   5.582   0.743   5.952
  235SOL     OW 1603   4.165   2.596   1.625
  235SOL    HW1 1604   4.257   2.599   1.664
  235SOL    HW2 1605   4.129   2.503   1.632
  236SOL     OW 1606   5.295   2.768   6.252
  236SOL    HW1 1607   5.378   2.743   6.202
  236SOL    HW2 1608   5.276   2.865   6.239
  237SOL     OW 1609   6.401   4.582   1.844
  237SOL    HW1 1610   6.435   4.573   1.937
  237SOL    HW2 1611   6.448   4.517   1.785
  238SOL     OW 1612   5.309   1.522   0.533
  238SOL    HW1 1613   5.265   1.602   0.493
  238SOL    HW2 1614   5.347   1.545   0.622
  239SOL     OW 1615   0.605   5.060   6.932
  239SOL    HW1 1616   0.578   5.156   6.937
  239SOL    HW2 1617   0.659   5.036   7.013
  240SOL     OW 1618   0.236   3.249   3.469
  240SOL    HW1 1619   0.218   3.164   3.421
  240SOL    HW2 1620   0.209   3.240   3.565
  241SOL     OW 1621   2.722   1.871   4.940
  241SOL    HW1 1622   2.693   1.806   5.010
  241SOL    HW2 1623   2.668   1.955   4.948
  242SOL     OW 1624   3.698   3.687   4.029
  242SOL    HW1 1625   3.680   3.693   4.127
  242SOL    HW2 1626   3.692   3.592   3.999
  243SOL     OW 1627   4.622   0.468   6.360
  243SOL    HW1 1628   4.721   0.465   6.378
  243SOL    HW2 1629   4.605   0.450   6.264
  244SOL     OW 1630   6.167   2.474   5.339
  244SOL    HW1 1631   6.110   2.430   5.409
  244SOL    HW2 1632   6.110   2.532   5.282
  245SOL     OW 1633   5.301   3.589   4.150
  245SOL    HW1 1634   5.354   3.515   4.109
  245SOL    HW2 1635   5.353   3.629   4.226
  246SOL     OW 1636   4.414   2.376   3.531
  246SOL    HW1 1637   4.408   2.415   3.623
  246SOL    HW2 1638   4.451   2.445   3.469
  247SOL     OW 1639   2.768   2.151   0.856
  247SOL    HW1 1640   2.866   2.144   0.876
  247SOL    HW2 1641   2.725   2.217   0.918
  248SOL     OW 1642   3.481   1.115   2.440
  248SOL    HW1 1643   3.538   1.033   2.435
  248SOL    HW2 1644   3.513   1.182   2.373
  249SOL     OW 1645   4.206   6.615   4.838
  249SOL    HW1 1646   4.152   6.631   4.922
  249SOL    HW2 1647   4.292   6.570   4.862
  250SOL     OW 1648   5.291   2.935   0.353
  250SOL    HW1 1649   5.235   2.869   0.404
  250SOL    HW2 1650   5.233   2.986   0.289
  251SOL     OW 1651   4.675   4.239   5.636
  251SOL    HW1 1652   4.632   4.159   5.678
  251SOL    HW2 1653   4.710   4.214   5.546
  252SOL     OW 1654   6.705   5.789   6.772
  252SOL    HW1 1655   6.709   5.692   6.797
  252SOL    HW2 1656   6.769   5.807   6.697
  253SOL     OW 1657   2.434   4.915   5.958
  253SOL    HW1 1658   2.421   4.898   6.056
  253SOL    HW2 1659   2.520   4.875   5.928
  254SOL     OW 1660   5.635   2.551   3.744
  254SOL    HW1 1661   5.732   2.574   3.735
  254SOL    HW2 1662   5.584   2.594   3.669
  255SOL     OW 1663   1.641   5.146   5.309
  255SOL    HW1 1664   1.590   5.177   5.229
  255SOL    HW2 1665   1.596   5.180   5.392
  256SOL     OW 1666   6.324   3.478   5.880
  256SOL    HW1 1667   6.237   3.512   5.845
  256SOL    HW2 1668   6.327   3.378   5.871
  257SOL     OW 1669   4.840   0.413   3.997
  257SOL    HW1 1670   4.778   0.434   4.072
  257SOL    HW2 1671   4.802   0.340   3.941
  258SOL     OW 1672   2.226   4.996   4.858
  258SOL    HW1 1673   2.192   5.027   4.769
  258SOL    HW2 1674   2.185   5.051   4.931
  259SOL     OW 1675   0.312   1.488   2.518
  259SOL    HW1 1676   0.229   1.444   2.552
  259SOL    HW2 1677   0.388   1.465   2.579
  260SOL     OW 1678   4.549   0.237   1.790
  260SOL    HW1 1679   4.538   0.263   1.886
  260SOL    HW2 1680   4.461   0.203   1.755
  261SOL     OW 1681   6.928   3.357   0.804
  261SOL    HW1 1682   7.013   3.304   0.816
  261SOL    HW2 1683   6.868   3.341   0.883
  262SOL     OW 1684   0.418   3.622   0.059
  262SOL    HW1 1685   0.327   3.655   0.081
  262SOL    HW2 1686   0.444   3.550   0.124
  263SOL     OW 1687   2.069   0.626   4.146
  263SOL    HW1 1688   2.026   0.707   4.186
  263SOL    HW2 1689   2.055   0.627   4.047
  264SOL     OW 1690   6.266   3.204   6.813
  264SOL    HW1 1691   6.218   3.236   6.731
  264SOL    HW2 1692   6.215   3.231   6.894
  265SOL     OW 1693   5.165   6.424   2.344
  265SOL    HW1 1694   5.265   6.414   2.336
  265SOL    HW2 1695   5.139   6.516   2.316
  266SOL     OW 1696   3.418   2.726   5.733
  266SOL    HW1 1697   3.506   2.772   5.734
  266SOL    HW2 1698   3.355   2.776   5.673
  267SOL     OW 1699   0.692   1.398   6.657
  267SOL    HW1 1700   0.643   1.486   6.658
  267SOL    HW2 1701   0.632   1.326   6.692
  268SOL     OW 1702   3.303   1.040   5.788
  268SOL    HW1 1703   3.364   0.996   5.854
  268SOL    HW2 1704   3.351   1.051   5.701
  269SOL     OW 1705   0.718   3.280   1.832
  269SOL    HW1 1706   0.660   3.293   1.751
  269SOL    HW2 1707   0.798   3.226   1.806
  270SOL     OW 1708   1.162   6.987   0.509
  270SOL    HW1 1709   1.133   6.933   0.588
  270SOL    HW2 1710   1.083   0.007   0.470
  271SOL     OW 1711   6.955   1.841   6.951
  271SOL    HW1 1712   6.929   1.829   0.020
  271SOL    HW2 1713   6.889   1.901   6.906
  272SOL     OW 1714   3.676   5.379   4.649
  272SOL    HW1 1715   3.626   5.407   4.567
  272SOL    HW2 1716   3.774   5.397   4.635
  273SOL     OW 1717   1.811   4.531   4.886
  273SOL    HW1 1718   1.791   4.440   4.849
  273SOL    HW2 1719   1.859   4.521   4.973
  274SOL     OW 1720   4.119   2.285   2.950
  274SOL    HW1 1721   4.109   2.294   2.851
  274SOL    HW2 1722   4.207   2.325   2.978
  275SOL     OW 1723   6.152   4.648   5.240
  275SOL    HW1 1724   6.065   4.667   5.285
  275SOL    HW2 1725   6.227   4.681   5.298
  276SOL     OW 1726   6.891   6.699   3.081
  276SOL    HW1 1727   6.791   6.697   3.075
  276SOL    HW2 1728   6.928   6.613   3.046
  277SOL     OW 1729   1.339   3.930   0.454
  277SOL    HW1 1730   1.412   3.984   0.412
  277SOL    HW2 1731   1.251   3.955   0.412
  278SOL     OW 1732   6.378   5.046   2.076
  278SOL    HW1 1733   6.341   5.098   1.999
  278SOL    HW2 1734   6.462   5.090   2.108
  279SOL     OW 1735   6.610   3.078   4.123
  279SOL    HW1 1736   6.653   3.165   4.149
  279SOL    HW2 1737   6.679   3.006   4.119
  280SOL     OW 1738   3.042   6.999   3.135
  280SOL    HW1 1739   3.025   0.033   3.213
  280SOL    HW2 1740   3.037   0.025   3.050
  281SOL     OW 1741   2.551   4.594   1.952
  281SOL    HW1 1742   2.522   4.658   1.881
  281SOL    HW2 1743   2.651   4.595   1.958
  282SOL     OW 1744   3.314   1.698   5.773
  282SOL    HW1 1745   3.237   1.663   5.826
  282SOL    HW2 1746   3.390   1.632   5.777
  283SOL     OW 1747   5.909   1.341   6.741
  283SOL    HW1 1748   5.958   1.253   6.741
  283SOL    HW2 1749   5.813   1.326   6.718
  284SOL     OW 1750   1.393   4.233   3.303
  284SOL    HW1 1751   1.393   4.156   3.238
  284SOL    HW2 1752   1.487   4.261   3.320
  285SOL     OW 1753   5.918   4.692   5.411
  285SOL    HW1 1754   5.910   4.789   5.433
  285SOL    HW2 1755   5.841   4.642   5.451
  286SOL     OW 1756   3.290   5.689   5.994
  286SOL    HW1 1757   3.320   5.753   5.923
  286SOL    HW2 1758   3.196   5.660   5.976
  287SOL     OW 1759   0.402   4.102   0.577
  287SOL    HW1 1760   0.495   4.123   0.608
  287SOL    HW2 1761   0.339   4.174   0.607
  288SOL     OW 1762   4.055   0.910   5.979
  288SOL    HW1 1763   4.010   0.830   5.939
  288SOL    HW2 1764   4.135   0.935   5.924
  289SOL     OW 1765   0.242   4.431   5.277
  289SOL    HW1 1766   0.242   4.383   5.365
  289SOL    HW2 1767   0.333   4.469   5.260
  290SOL     OW 1768   5.986   1.761   4.536
  290SOL    HW1 1769   6.010   1.728   4.628
  290SOL    HW2 1770   6.055   1.827   4.506
  291SOL     OW 1771   1.605   2.574   4.513
  291SOL    HW1 1772   1.511   2.542   4.521
  291SOL    HW2 1773   1.635   2.567   4.418
  292SOL     OW 1774   1.845   2.171   3.356
  292SOL    HW1 1775   1.931   2.216   3.329
  292SOL    HW2 1776   1.832   2.180   3.454
  293SOL     OW 1777   4.289   5.556   1.839
  293SOL    HW1 1778   4.211   5.512   1.884
  293SOL    HW2 1779   4.352   5.592   1.907
  294SOL     OW 1780   0.415   5.514   6.290
  294SOL    HW1 1781   0.476   5.437   6.270
  294SOL    HW2 1782   0.339   5.482   6.347
  295SOL     OW 1783   3.525   1.859   4.099
  295SOL    HW1 1784   3.565   1.789   4.157
  295SOL    HW2 1785   3.577   1.866   4.014
  296SOL     OW 1786   4.437   2.015   3.087
  296SOL    HW1 1787   4.408   2.030   3.182
  296SOL    HW2 1788   4.528   2.052   3.074
  297SOL     OW 1789   2.625   4.709   3.080
  297SOL    HW1 1790   2.539   4.759   3.066
  297SOL    HW2 1791   2.627   4.671   3.173
  298SOL     OW 1792   4.097   6.223   1.217
  298SOL    HW1 1793   4.002   6.195   1.209
  298SOL    HW2 1794   4.155   6.158   1.168
  299SOL     OW 1795   5.363   3.431   6.034
  299SOL    HW1 1796   5.362   3.423   5.934
  299SOL    HW2 1797   5.275   3.467   6.065
  300SOL     OW 1798   6.667   1.012   1.966
  300SOL    HW1 1799   6.688   0.926   2.012
  300SOL    HW2 1800   6.670   0.998   1.867
  301SOL     OW 1801   4.810   3.805   1.272
  301SOL    HW1 1802   4.804   3.719   1.221
  301SOL    HW2 1803   4.844   3.787   1.364
  302SOL     OW 1804   0.951   0.848   3.192
  302SOL    HW1 1805   0.912   0.767   3.148
  302SOL    HW2 1806   0.935   0.842   3.291
  303SOL     OW 1807   5.762   0.848   2.256
  303SOL    HW1 1808   5.767   0.894   2.167
  303SOL    HW2 1809   5.713   0.906   2.321
  304SOL     OW 1810   2.351   0.018   3.764
  304SOL    HW1 1811   2.254   0.010   3.740
  304SOL    HW2 1812   2.363   7.023   3.860
  305SOL     OW 1813   0.636   3.421   0.197
  305SOL    HW1 1814   0.661   3.436   0.101
  305SOL    HW2 1815   0.633   3.323   0.216
  306SOL     OW 1816   2.277   1.398   3.224
  306SOL    HW1 1817   2.231   1.387   3.136
  306SOL    HW2 1818   2.314   1.491   3.231
  307SOL     OW 1819   4.967   0.379   1.187
  307SOL    HW1 1820   4.925   0.347   1.102
  307SOL    HW2 1821   5.050   0.326   1.205
  308SOL     OW 1822   6.022   3.406   4.615
  308SOL    HW1 1823   5.957   3.478   4.593
  308SOL    HW2 1824   6.035   3.347   4.535
  309SOL     OW 1825   2.928   5.314   6.632
  309SOL    HW1 1826   2.936   5.392   6.694
  309SOL    HW2 1827   2.840   5.269   6.647
  310SOL     OW 1828   5.992   7.018   5.554
  310SOL    HW1 1829   5.921   6.953   5.581
  310SOL    HW2 1830   5.990   0.004   5.455
  311SOL     OW 1831   6.004   4.783   1.555
  311SOL    HW1 1832   5.977   4.755   1.463
  311SOL    HW2 1833   6.068   4.717   1.593
  312SOL     OW 1834   4.220   1.277   5.699
  312SOL    HW1 1835   4.232   1.183   5.731
  312SOL    HW2 1836   4.305   1.328   5.714
  313SOL     OW 1837   3.352   4.346   1.691
  313SOL    HW1 1838   3.365   4.443   1.708
  313SOL    HW2 1839   3.263   4.331   1.649
  314SOL     OW 1840   3.648   5.018   6.821
  314SOL    HW1 1841   3.687   4.994   6.732
  314SOL    HW2 1842   3.583   5.094   6.810
  315SOL     OW 1843   1.029   3.236   3.693
  315SOL    HW1 1844   0.985   3.313   3.647
  315SOL    HW2 1845   1.089   3.270   3.765
  316SOL     OW 1846   2.847   2.029   4.159
  316SOL    HW1 1847   2.930   1.984   4.125
  316SOL    HW2 1848   2.836   2.007   4.256
  317SOL     OW 1849   1.183   0.448   1.065
  317SOL    HW1 1850   1.208   0.515   0.995
  317SOL    HW2 1851   1.108   0.391   1.031
  318SOL     OW 1852   1.174   6.263   6.685
  318SOL    HW1 1853   1.234   6.334   6.722
  318SOL    HW2 1854   1.227   6.203   6.625
  319SOL     OW 1855   6.744   0.700   3.652
  319SOL    HW1 1856   6.769   0.660   3.740
  319SOL    HW2 1857   6.828   0.725   3.602
  320SOL     OW 1858   6.258   1.877   0.332
  320SOL    HW1 1859   6.164   1.899   0.358
  320SOL    HW2 1860   6.322   1.928   0.390
  321SOL     OW 1861   3.721   1.367   1.116
  321SOL    HW1 1862   3.781   1.289   1.099
  321SOL    HW2 1863   3.646   1.366   1.050
  322SOL     OW 1864   3.845   4.111   4.853
  322SOL    HW1 1865   3.874   4.017   4.834
  322SOL    HW2 1866   3.875   4.137   4.945
  323SOL     OW 1867   0.908   3.675   6.117
  323SOL    HW1 1868   0.909   3.575   6.118
  323SOL    HW2 1869   0.861   3.708   6.036
  324SOL     OW 1870   2.017   2.305   3.864
  324SOL    HW1 1871   2.032   2.213   3.900
  324SOL    HW2 1872   2.046   2.309   3.769
  325SOL     OW 1873   1.381   2.849   1.497
  325SOL    HW1 1874   1.343   2.898   1.419
  325SOL    HW2 1875   1.481   2.857   1.497
  326SOL     OW 1876   1.221   4.921   6.792
  326SOL    HW1 1877   1.294   4.967   6.844
  326SOL    HW2 1878   1.257   4.890   6.705
  327SOL     OW 1879   1.413   5.234   3.746
  327SOL    HW1 1880   1.492   5.295   3.735
  327SOL    HW2 1881   1.397   5.186   3.660
  328SOL     OW 1882   1.882   6.076   1.924
  328SOL    HW1 1883   1.926   6.155   1.881
  328SOL    HW2 1884   1.785   6.076   1.902
  329SOL     OW 1885   3.505   4.019   4.508
  329SOL    HW1 1886   3.585   4.065   4.548
  329SOL    HW2 1887   3.535   3.963   4.430
  330SOL     OW 1888   3.226   6.943   1.088
  330SOL    HW1 1889   3.302   7.007   1.101
  330SOL    HW2 1890   3.215   6.888   1.171
  331SOL     OW 1891   3.744   5.292   0.087
  331SOL    HW1 1892   3.840   5.284   0.112
  331SOL    HW2 1893   3.708   5.380   0.118
  332SOL     OW 1894   3.172   1.929   4.759
  332SOL    HW1 1895   3.141   1.949   4.666
  332SOL    HW2 1896   3.228   1.846   4.758
  333SOL     OW 1897   3.184   6.817   6.251
  333SOL    HW1 1898   3.207   6.901   6.202
  333SOL    HW2 1899   3.085   6.814   6.266
  334SOL     OW 1900   2.502   0.067   1.068
  334SOL    HW1 1901   2.581   0.025   1.022
  334SOL    HW2 1902   2.516   0.166   1.074
  335SOL     OW 1903   3.395   6.762   4.048
  335SOL    HW1 1904   3.296   6.766   4.040
  335SOL    HW2 1905   3.430   6.853   4.072
  336SOL     OW 1906   2.862   1.393   3.310
  336SOL    HW1 1907   2.824   1.411   3.219
  336SOL    HW2 1908   2.950   1.438   3.319
  337SOL     OW 1909   6.750   2.780   0.519
  337SOL    HW1 1910   6.772   2.772   0.616
  337SOL    HW2 1911   6.663   2.828   0.508
  338SOL     OW 1912   3.336   2.898   1.163
  338SOL    HW1 1913   3.310   2.990   1.135
  338SOL    HW2 1914   3.295   2.831   1.100
  339SOL     OW 1915   3.677   5.984   4.161
  339SOL    HW1 1916   3.748   6.053   4.175
  339SOL    HW2 1917   3.600   6.024   4.113
  340SOL     OW 1918   4.984   4.324   5.354
  340SOL    HW1 1919   4.891   4.340   5.324
  340SOL    HW2 1920   4.993   4.345   5.451
  341SOL     OW 1921   6.506   0.348   4.730
  341SOL    HW1 1922   6.447   0.314   4.803
  341SOL    HW2 1923   6.475   0.312   4.642
  342SOL     OW 1924   5.858   3.664   6.603
  342SOL    HW1 1925   5.885   3.574   6.638
  342SOL    HW2 1926   5.760   3.675   6.614
  343SOL     OW 1927   1.804   5.343   0.582
  343SOL    HW1 1928   1.894   5.367   0.620
  343SOL    HW2 1929   1.805   5.248   0.552
  344SOL     OW 1930   1.674   4.687   1.977
  344SOL    HW1 1931   1.690   4.636   1.892
  344SOL    HW2 1932   1.749   4.671   2.040
  345SOL     OW 1933   6.645   1.429   5.054
  345SOL    HW1 1934   6.581   1.435   4.977
  345SOL    HW2 1935   6.594   1.421   5.139
  346SOL     OW 1936   1.501   0.864   2.092
  346SOL    HW1 1937   1.447   0.940   2.056
  346SOL    HW2 1938   1.582   0.899   2.137
  347SOL     OW 1939   3.619   6.484   6.109
  347SOL    HW1 1940   3.713   6.519   6.108
  347SOL    HW2 1941   3.620   6.385   6.106
  348SOL     OW 1942   5.032   5.002   1.372
  348SOL    HW1 1943   5.019   4.908   1.402
  348SOL    HW2 1944   5.078   5.055   1.443
  349SOL     OW 1945   6.392   4.246   1.390
  349SOL    HW1 1946   6.434   4.155   1.386
  349SOL    HW2 1947   6.378   4.271   1.486
  350SOL     OW 1948   3.296   3.344   1.277
  350SOL    HW1 1949   3.361   3.327   1.350
  350SOL    HW2 1950   3.289   3.443   1.261
  351SOL     OW 1951   2.325   2.901   0.489
  351SOL    HW1 1952   2.420   2.876   0.508
  351SOL    HW2 1953   2.296   2.972   0.553
  352SOL     OW 1954   3.415   0.317   4.938
  352SOL    HW1 1955   3.475   0.333   4.860
  352SOL    HW2 1956   3.320   0.336   4.912
  353SOL     OW 1957   2.613   6.872   0.799
  353SOL    HW1 1958   2.605   6.971   0.789
  353SOL    HW2 1959   2.647   6.851   0.891
  354SOL     OW 1960   3.561   2.377   0.137
  354SOL    HW1 1961   3.633   2.360   0.205
  354SOL    HW2 1962   3.543   2.475   0.132
  355SOL     OW 1963   0.077   3.271   2.746
  355SOL    HW1 1964   0.007   3.342   2.751
  355SOL    HW2 1965   0.165   3.308   2.778
  356SOL     OW 1966   3.906   5.819   5.246
  356SOL    HW1 1967   3.999   5.794   5.218
  356SOL    HW2 1968   3.865   5.877   5.176
  357SOL     OW 1969   6.368   6.795   5.623
  357SOL    HW1 1970   6.361   6.883   5.576
  357SOL    HW2 1971   6.279   6.770   5.661
  358SOL     OW 1972   5.980   6.952   1.966
  358SOL    HW1 1973   5.890   6.909   1.976
  358SOL    HW2 1974   5.969   0.025   1.968
  359SOL     OW 1975   1.764   2.362   2.711
  359SOL    HW1 1976   1.681   2.387   2.762
  359SOL    HW2 1977   1.746   2.279   2.658
  360SOL     OW 1978   1.431   5.640   6.507
  360SOL    HW1 1979   1.369   5.637   6.585
  360SOL    HW2 1980   1.445   5.548   6.471
  361SOL     OW 1981   5.326   5.943   3.007
  361SOL    HW1 1982   5.400   5.994   3.052
  361SOL    HW2 1983   5.297   5.868   3.067
  362SOL     OW 1984   3.909   4.183   1.001
  362SOL    HW1 1985   3.819   4.153   0.970
  362SOL    HW2 1986   3.905   4.278   1.030
  363SOL     OW 1987   4.621   4.479   3.264
  363SOL    HW1 1988   4.687   4.414   3.226
  363SOL    HW2 1989   4.615   4.467   3.363
  364SOL     OW 1990   0.053   5.727   5.942
  364SOL    HW1 1991   0.046   5.809   5.885
  364SOL    HW2 1992   0.148   5.715   5.971
  365SOL     OW 1993   4.842   5.416   2.352
  365SOL    HW1 1994   4.885   5.398   2.440
  365SOL    HW2 1995   4.743   5.421   2.364
  366SOL     OW 1996   6.283   0.834   0.475
  366SOL    HW1 1997   6.383   0.841   0.473
  366SOL    HW2 1998   6.251   0.838   0.570
  367SOL     OW 1999   4.754   2.951   1.512
  367SOL    HW1 2000   4.794   3.022   1.570
  367SOL    HW2 2001   4.665   2.981   1.478
  368SOL     OW 2002   0.459   3.696   4.764
  368SOL    HW1 2003   0.401   3.711   4.845
  368SOL    HW2 2004   0.534   3.761   4.765
  369SOL     OW 2005   6.395   4.867   1.838
  369SOL    HW1 2006   6.397   4.928   1.917
  369SOL    HW2 2007   6.410   4.773   1.868
  370SOL     OW 2008   2.876   1.636   5.297
  370SOL    HW1 2009   2.897   1.550   5.344
  370SOL    HW2 2010   2.957   1.668   5.249
  371SOL     OW 2011   2.690   3.506   6.441
  371SOL    HW1 2012   2.675   3.605   6.434
  371SOL    HW2 2013   2.628   3.458   6.379
  372SOL     OW 2014   6.877   0.705   5.083
  372SOL    HW1 2015   6.806   0.739   5.023
  372SOL    HW2 2016   6.965   0.746   5.059
  373SOL     OW 2017   6.229   6.251   5.394
  373SOL    HW1 2018   6.320   6.281   5.422
  373SOL    HW2 2019   6.163   6.323   5.414
  374SOL     OW 2020   3.628   0.165   2.402
  374SOL    HW1 2021   3.597   0.150   2.495
  374SOL    HW2 2022   3.570   0.234   2.358
  375SOL     OW 2023   0.757   4.571   3.824
  375SOL    HW1 2024   0.717   4.557   3.914
  375SOL    HW2 2025   0.764   4.483   3.777
  376SOL     OW 2026   1.769   3.232   4.156
  376SOL    HW1 2027   1.714   3.278   4.087
  376SOL    HW2 2028   1.709   3.180   4.217
  377SOL     OW 2029   6.838   2.528   1.986
  377SOL    HW1 2030   6.743   2.515   1.959
  377SOL    HW2 2031   6.846   2.611   2.042
  378SOL     OW 2032   3.624   2.887   5.766
  378SOL    HW1 2033   3.681   2.919   5.690
  378SOL    HW2 2034   3.675   2.893   5.851
  379SOL     OW 2035   6.203   4.143   1.677
  379SOL    HW1 2036   6.112   4.142   1.636
  379SOL    HW2 2037   6.220   4.233   1.718
  380SOL     OW 2038   2.414   0.835   2.229
  380SOL    HW1 2039   2.395   0.885   2.314
  380SOL    HW2 2040   2.463   0.895   2.165
  381SOL     OW 2041   1.845   4.860   1.664
  381SOL    HW1 2042   1.800   4.882   1.578
  381SOL    HW2 2043   1.873   4.764   1.664
  382SOL     OW 2044   5.509   6.508   6.576
  382SOL    HW1 2045   5.469   6.418   6.594
  382SOL    HW2 2046   5.551   6.508   6.485
  383SOL     OW 2047   5.940   2.621   6.156
  383SOL    HW1 2048   5.938   2.689   6.229
  383SOL    HW2 2049   5.996   2.543   6.184
  384SOL     OW 2050   0.063   4.189   4.718
  384SOL    HW1 2051   0.155   4.158   4.739
  384SOL    HW2 2052   0.057   4.288   4.729
  385SOL     OW 2053   4.244   6.222   6.574
  385SOL    HW1 2054   4.228   6.219   6.475
  385SOL    HW2 2055   4.280   6.312   6.599
  386SOL     OW 2056   3.549   6.908   5.117
  386SOL    HW1 2057   3.519   6.871   5.029
  386SOL    HW2 2058   3.648   6.897   5.126
  387SOL     OW 2059   6.628   6.409   3.276
  387SOL    HW1 2060   6.607   6.433   3.181
  387SOL    HW2 2061   6.543   6.404   3.328
  388SOL     OW 2062   0.752   2.425   3.765
  388SOL    HW1 2063   0.800   2.512   3.779
  388SOL    HW2 2064   0.747   2.406   3.667
  389SOL     OW 2065   4.193   4.314   1.694
  389SOL    HW1 2066   4.185   4.414   1.696
  389SOL    HW2 2067   4.253   4.285   1.768
  390SOL     OW 2068   3.336   1.736   0.221
  390SOL    HW1 2069   3.339   1.773   0.314
  390SOL    HW2 2070   3.430   1.720   0.189
  391SOL     OW 2071   2.337   3.881   5.417
  391SOL    HW1 2072   2.318   3.792   5.375
  391SOL    HW2 2073   2.378   3.942   5.349
  392SOL     OW 2074   1.729   3.290   2.212
  392SOL    HW1 2075   1.791   3.246   2.277
  392SOL    HW2 2076   1.698   3.377   2.250
  393SOL     OW 2077   1.467   5.433   0.542
  393SOL    HW1 2078   1.491   5.513   0.486
  393SOL    HW2 2079   1.517   5.437   0.629
  394SOL     OW 2080   0.989   2.900   6.816
  394SOL    HW1 2081   1.088   2.887   6.809
  394SOL    HW2 2082   0.949   2.828   6.874
  395SOL     OW 2083   5.434   4.178   2.197
  395SOL    HW1 2084   5.423   4.079   2.199
  395SOL    HW2 2085   5.529   4.202   2.215
  396SOL     OW 2086   2.493   2.501   2.229
  396SOL    HW1 2087   2.572   2.447   2.203
  396SOL    HW2 2088   2.497   2.520   2.327
  397SOL     OW 2089   5.604   1.824   6.637
  397SOL    HW1 2090   5.511   1.800   6.610
  397SOL    HW2 2091   5.622   1.791   6.729
  398SOL     OW 2092   1.394   6.224   4.077
  398SOL    HW1 2093   1.302   6.188   4.062
  398SOL    HW2 2094   1.442   6.230   3.990
  399SOL     OW 2095   6.197   5.782   4.601
  399SOL    HW1 2096   6.249   5.708   4.559
  399SOL    HW2 2097   6.224   5.869   4.561
  400SOL     OW 2098   6.131   6.323   5.142
  400SOL    HW1 2099   6.113   6.250   5.076
  400SOL    HW2 2100   6.193   6.289   5.213
  401SOL     OW 2101   5.579   0.163   6.116
  401SOL    HW1 2102   5.657   0.108   6.144
  401SOL    HW2 2103   5.496   0.106   6.117
  402SOL     OW 2104   6.338   6.945   2.628
  402SOL    HW1 2105   6.243   6.975   2.639
  402SOL    HW2 2106   6.346   6.891   2.544
  403SOL     OW 2107   3.301   7.010   6.115
  403SOL    HW1 2108   3.308   0.055   6.046
  403SOL    HW2 2109   3.357   6.932   6.088
  404SOL     OW 2110   2.242   5.265   5.484
  404SOL    HW1 2111   2.330   5.257   5.529
  404SOL    HW2 2112   2.233   5.194   5.414
  405SOL     OW 2113   2.004   4.051   3.499
  405SOL    HW1 2114   2.032   3.972   3.552
  405SOL    HW2 2115   2.048   4.133   3.534
  406SOL     OW 2116   0.609   4.835   5.226
  406SOL    HW1 2117   0.579   4.744   5.197
  406SOL    HW2 2118   0.554   4.904   5.179
  407SOL     OW 2119   2.387   2.707   3.955
  407SOL    HW1 2120   2.347   2.756   3.878
  407SOL    HW2 2121   2.470   2.660   3.926
  408SOL     OW 2122   3.371   2.067   2.879
  408SOL    HW1 2123   3.287   2.119   2.862
  408SOL    HW2 2124   3.443   2.099   2.818
  409SOL     OW 2125   6.874   3.345   1.669
  409SOL    HW1 2126   6.960   3.370   1.625
  409SOL    HW2 2127   6.837   3.262   1.627
  410SOL     OW 2128   1.699   1.768   0.832
  410SOL    HW1 2129   1.722   1.730   0.921
  410SOL    HW2 2130   1.600   1.780   0.826
  411SOL     OW 2131   6.190   1.344   1.956
  411SOL    HW1 2132   6.231   1.371   2.043
  411SOL    HW2 2133   6.253   1.283   1.908
  412SOL     OW 2134   3.732   4.900   2.826
  412SOL    HW1 2135   3.637   4.869   2.831
  412SOL    HW2 2136   3.739   4.972   2.756
  413SOL     OW 2137   4.430   5.158   1.704
  413SOL    HW1 2138   4.355   5.133   1.765
  413SOL    HW2 2139   4.423   5.255   1.680
  414SOL     OW 2140   4.001   0.405   4.192
  414SOL    HW1 2141   3.951   0.491   4.191
  414SOL    HW2 2142   3.939   0.331   4.220
  415SOL     OW 2143   0.084   1.517   7.013
  415SOL    HW1 2144   7.013   1.495   7.008
  415SOL    HW2 2145   0.122   1.521   6.920
  416SOL     OW 2146   5.090   4.606   4.242
  416SOL    HW1 2147   5.174   4.647   4.277
  416SOL    HW2 2148   5.041   4.673   4.186
  417SOL     OW 2149   1.902   1.262   6.474
  417SOL    HW1 2150   1.912   1.166   6.502
  417SOL    HW2 2151   1.981   1.289   6.419
  418SOL     OW 2152   2.869   0.122   5.304
  418SOL    HW1 2153   2.948   0.174   5.272
  418SOL    HW2 2154   2.892   0.025   5.305
  419SOL     OW 2155   0.111   6.795   3.112
  419SOL    HW1 2156   0.023   6.751   3.131
  419SOL    HW2 2157   0.137   6.852   3.190
  420SOL     OW 2158   5.503   1.473   6.647
  420SOL    HW1 2159   5.435   1.517   6.707
  420SOL    HW2 2160   5.507   1.523   6.561
  421SOL     OW 2161   5.821   3.721   4.920
  421SOL    HW1 2162   5.759   3.724   4.999
  421SOL    HW2 2163   5.782   3.774   4.845
  422SOL     OW 2164   5.363   1.861   0.641
  422SOL    HW1 2165   5.462   1.860   0.656
  422SOL    HW2 2166   5.317   1.844   0.728
  423SOL     OW 2167   2.354   1.408   6.709
  423SOL    HW1 2168   2.266   1.434   6.748
  423SOL    HW2 2169   2.348   1.315   6.672
  424SOL     OW 2170   1.949   4.988   2.710
  424SOL    HW1 2171   2.003   5.066   2.742
  424SOL    HW2 2172   1.995   4.944   2.633
  425SOL     OW 2173   4.935   0.634   4.921
  425SOL    HW1 2174   5.019   0.580   4.913
  425SOL    HW2 2175   4.953   0.714   4.978
  426SOL     OW 2176   2.225   2.828   5.249
  426SOL    HW1 2177   2.287   2.879   5.190
  426SOL    HW2 2178   2.220   2.733   5.217
  427SOL     OW 2179   5.076   1.093   4.338
  427SOL    HW1 2180   5.127   1.015   4.373
  427SOL    HW2 2181   5.005   1.061   4.275
  428SOL     OW 2182   2.507   0.416   4.095
  428SOL    HW1 2183   2.573   0.412   4.169
  428SOL    HW2 2184   2.546   0.468   4.018
  429SOL     OW 2185   0.642   5.480   4.522
  429SOL    HW1 2186   0.591   5.451   4.603
  429SOL    HW2 2187   0.578   5.500   4.447
  430SOL     OW 2188   1.538   7.021   3.714
  430SOL    HW1 2189   1.465   7.022   3.645
  430SOL    HW2 2190   1.512   0.052   3.791
  431SOL     OW 2191   2.423   2.080   0.599
  431SOL    HW1 2192   2.483   2.156   0.575
  431SOL    HW2 2193   2.348   2.075   0.534
  432SOL     OW 2194   5.685   1.818   1.235
  432SOL    HW1 2195   5.755   1.861   1.293
  432SOL    HW2 2196   5.685   1.862   1.145
  433SOL     OW 2197   3.372   6.558   6.050
  433SOL    HW1 2198   3.303   6.532   6.118
  433SOL    HW2 2199   3.463   6.538   6.086
  434SOL     OW 2200   3.941   5.344   4.146
  434SOL    HW1 2201   3.892   5.372   4.063
  434SOL    HW2 2202   3.961   5.246   4.141
  435SOL     OW 2203   4.002   1.194   5.543
  435SOL    HW1 2204   3.971   1.157   5.631
  435SOL    HW2 2205   4.093   1.234   5.555
  436SOL     OW 2206   3.300   6.095   2.741
  436SOL    HW1 2207   3.273   6.051   2.656
  436SOL    HW2 2208   3.267   6.189   2.742
  437SOL     OW 2209   0.232   1.301   5.040
  437SOL    HW1 2210   0.323   1.333   5.065
  437SOL    HW2 2211   0.190   1.367   4.977
  438SOL     OW 2212   1.242   4.449   3.193
  438SOL    HW1 2213   1.284   4.375   3.246
  438SOL    HW2 2214   1.209   4.520   3.255
  439SOL     OW 2215   5.772   0.792   2.688
  439SOL    HW1 2216   5.726   0.703   2.692
  439SOL    HW2 2217   5.840   0.797   2.762
  440SOL     OW 2218   3.519   1.169   6.664
  440SOL    HW1 2219   3.547   1.239   6.598
  440SOL    HW2 2220   3.458   1.210   6.732
  441SOL     OW 2221   5.827   4.358   3.051
  441SOL    HW1 2222   5.836   4.451   3.087
  441SOL    HW2 2223   5.746   4.354   2.991
  442SOL     OW 2224   5.040   4.356   5.638
  442SOL    HW1 2225   4.990   4.441   5.654
  442SOL    HW2 2226   5.044   4.303   5.722
  443SOL     OW 2227   5.496   4.904   3.756
  443SOL    HW1 2228   5.461   4.975   3.694
  443SOL    HW2 2229   5.473   4.814   3.719
  444SOL     OW 2230   4.071   1.215   6.411
  444SOL    HW1 2231   4.090   1.197   6.507
  444SOL    HW2 2232   4.140   1.278   6.375
  445SOL     OW 2233   2.561   6.492   2.800
  445SOL    HW1 2234   2.601   6.578   2.833
  445SOL    HW2 2235   2.503   6.453   2.872
  446SOL     OW 2236   4.432   5.789   3.069
  446SOL    HW1 2237   4.399   5.812   3.160
  446SOL    HW2 2238   4.498   5.714   3.075
  447SOL     OW 2239   6.099   3.183   5.397
  447SOL    HW1 2240   6.182   3.221   5.439
  447SOL    HW2 2241   6.084   3.226   5.309
  448SOL     OW 2242   1.818   1.593   2.988
  448SOL    HW1 2243   1.726   1.573   2.954
  448SOL    HW2 2244   1.884   1.581   2.914
  449SOL     OW 2245   2.420   2.624   3.059
  449SOL    HW1 2246   2.503   2.597   3.108
  449SOL    HW2 2247   2.387   2.548   3.004
  450SOL     OW 2248   0.855   4.514   3.156
  450SOL    HW1 2249   0.954   4.521   3.174
  450SOL    HW2 2250   0.817   4.606   3.145
  451SOL     OW 2251   0.170   2.840   3.527
  451SOL    HW1 2252   0.235   2.891   3.470
  451SOL    HW2 2253   0.128   2.767   3.472
  452SOL     OW 2254   3.422   7.013   2.237
  452SOL    HW1 2255   3.487   6.959   2.290
  452SOL    HW2 2256   3.330   6.979   2.253
  453SOL     OW 2257   4.173   0.336   6.577
  453SOL    HW1 2258   4.100   0.393   6.614
  453SOL    HW2 2259   4.223   0.387   6.507
  454SOL     OW 2260   0.181   4.277   6.640
  454SOL    HW1 2261   0.117   4.233   6.703
  454SOL    HW2 2262   0.245   4.334   6.693
  455SOL     OW 2263   6.409   3.273   5.482
  455SOL    HW1 2264   6.504   3.242   5.488
  455SOL    HW2 2265   6.402   3.349   5.418
  456SOL     OW 2266   1.681   0.754   3.737
  456SOL    HW1 2267   1.758   0.766   3.674
  456SOL    HW2 2268   1.713   0.767   3.831
  457SOL     OW 2269   1.103   5.439   5.671
  457SOL    HW1 2270   1.195   5.469   5.644
  457SOL    HW2 2271   1.108   5.393   5.759
  458SOL     OW 2272   2.664   1.037   2.758
  458SOL    HW1 2273   2.696   1.038   2.853
  458SOL    HW2 2274   2.737   1.070   2.698
  459SOL     OW 2275   2.212   0.738   5.598
  459SOL    HW1 2276   2.261   0.661   5.557
  459SOL    HW2 2277   2.118   0.739   5.565
  460SOL     OW 2278   1.134   1.587   5.173
  460SOL    HW1 2279   1.186   1.502   5.172
  460SOL    HW2 2280   1.179   1.655   5.115
  461SOL     OW 2281   6.707   4.461   5.341
  461SOL    HW1 2282   6.795   4.415   5.350
  461SOL    HW2 2283   6.681   4.500   5.430
  462SOL     OW 2284   3.911   3.835   4.862
  462SOL    HW1 2285   3.882   3.851   4.956
  462SOL    HW2 2286   3.998   3.785   4.862
  463SOL     OW 2287   6.737   6.714   2.763
  463SOL    HW1 2288   6.817   6.711   2.703
  463SOL    HW2 2289   6.693   6.804   2.755
  464SOL     OW 2290   2.882   6.660   5.997
  464SOL    HW1 2291   2.968   6.654   5.947
  464SOL    HW2 2292   2.848   6.567   6.015
  465SOL     OW 2293   1.178   2.530   0.156
  465SOL    HW1 2294   1.172   2.504   0.060
  465SOL    HW2 2295   1.136   2.459   0.213
  466SOL     OW 2296   3.335   5.998   4.288
  466SOL    HW1 2297   3.396   6.028   4.214
  466SOL    HW2 2298   3.297   6.078   4.334
  467SOL     OW 2299   0.572   1.676   2.106
  467SOL    HW1 2300   0.497   1.740   2.091
  467SOL    HW2 2301   0.577   1.613   2.028
  468SOL     OW 2302   4.922   0.160   6.176
  468SOL    HW1 2303   4.949   0.192   6.266
  468SOL    HW2 2304   5.003   0.133   6.124
  469SOL     OW 2305   2.959   4.346   5.731
  469SOL    HW1 2306   3.051   4.387   5.734
  469SOL    HW2 2307   2.967   4.251   5.700
  470SOL     OW 2308   3.421   6.069   3.157
  470SOL    HW1 2309   3.337   6.110   3.120
  470SOL    HW2 2310   3.450   5.994   3.098
  471SOL     OW 2311   2.719   2.260   4.208
  471SOL    HW1 2312   2.625   2.256   4.176
  471SOL    HW2 2313   2.763   2.171   4.194
  472SOL     OW 2314   5.781   4.833   6.703
  472SOL    HW1 2315   5.817   4.788   6.621
  472SOL    HW2 2316   5.747   4.924   6.679
  473SOL     OW 2317   0.137   2.618   2.595
  473SOL    HW1 2318   0.098   2.555   2.662
  473SOL    HW2 2319   0.208   2.673   2.639
  474SOL     OW 2320   6.244   5.109   5.378
  474SOL    HW1 2321   6.237   5.090   5.476
  474SOL    HW2 2322   6.254   5.207   5.363
  475SOL     OW 2323   5.749   3.153   0.039
  475SOL    HW1 2324   5.711   3.061   0.026
  475SOL    HW2 2325   5.746   3.177   0.136
  476SOL     OW 2326   0.175   3.845   1.977
  476SOL    HW1 2327   0.183   3.748   1.952
  476SOL    HW2 2328   0.209   3.902   1.901
  477SOL     OW 2329   2.681   6.119   3.575
  477SOL    HW1 2330   2.676   6.109   3.675
  477SOL    HW2 2331   2.608   6.180   3.545
  478SOL     OW 2332   4.388   5.847   2.791
  478SOL    HW1 2333   4.347   5.937   2.774
  478SOL    HW2 2334   4.424   5.844   2.884
  479SOL     OW 2335   3.679   3.141   4.123
  479SOL    HW1 2336   3.643   3.094   4.204
  479SOL    HW2 2337   3.622   3.220   4.103
  480SOL     OW 2338   1.557   0.129   2.569
  480SOL    HW1 2339   1.484   0.146   2.635
  480SOL    HW2 2340   1.538   0.044   2.519
  481SOL     OW 2341   1.127   6.223   1.238
  481SOL    HW1 2342   1.150   6.135   1.281
  481SOL    HW2 2343   1.074   6.278   1.303
  482SOL     OW 2344   5.343   4.823   2.990
  482SOL    HW1 2345   5.394   4.812   3.075
  482SOL    HW2 2346   5.368   4.909   2.946
  483SOL     OW 2347   6.641   2.862   2.756
  483SOL    HW1 2348   6.696   2.782   2.780
  483SOL    HW2 2349   6.581   2.884   2.833
  484SOL     OW 2350   1.633   4.234   4.435
  484SOL    HW1 2351   1.661   4.153   4.384
  484SOL    HW2 2352   1.547   4.268   4.397
  485SOL     OW 2353   5.628   3.544   2.142
  485SOL    HW1 2354   5.601   3.470   2.080
  485SOL    HW2 2355   5.672   3.506   2.223
  486SOL     OW 2356   5.773   0.252   6.631
  486SOL    HW1 2357   5.729   0.165   6.608
  486SOL    HW2 2358   5.802   0.250   6.727
  487SOL     OW 2359   0.150   0.282   3.484
  487SOL    HW1 2360   0.140   0.297   3.385
  487SOL    HW2 2361   0.222   0.214   3.499
  488SOL     OW 2362   1.817   6.910   2.596
  488SOL    HW1 2363   1.875   6.865   2.664
  488SOL    HW2 2364   1.738   6.852   2.577
  489SOL     OW 2365   6.266   5.713   4.870
  489SOL    HW1 2366   6.233   5.761   4.788
  489SOL    HW2 2367   6.366   5.715   4.872
  490SOL     OW 2368   1.256   5.810   5.304
  490SOL    HW1 2369   1.329   5.845   5.246
  490SOL    HW2 2370   1.234   5.716   5.277
  491SOL     OW 2371   0.395   3.528   0.630
  491SOL    HW1 2372   0.454   3.599   0.593
  491SOL    HW2 2373   0.325   3.569   0.688
  492SOL     OW 2374   1.381   1.331   5.701
  492SOL    HW1 2375   1.386   1.231   5.696
  492SOL    HW2 2376   1.451   1.372   5.642
  493SOL     OW 2377   2.684   0.291   5.368
  493SOL    HW1 2378   2.598   0.247   5.392
  493SOL    HW2 2379   2.751   0.221   5.342
  494SOL     OW 2380   2.693   1.167   5.828
  494SOL    HW1 2381   2.747   1.102   5.882
  494SOL    HW2 2382   2.616   1.120   5.786
  495SOL     OW 2383   4.398   5.863   5.732
  495SOL    HW1 2384   4.461   5.823   5.666
  495SOL    HW2 2385   4.304   5.843   5.704
  496SOL     OW 2386   6.505   1.792   2.698
  496SOL    HW1 2387   6.602   1.801   2.722
  496SOL    HW2 2388   6.486   1.699   2.667
  497SOL     OW 2389   3.670   1.205   5.846
  497SOL    HW1 2390   3.651   1.290   5.797
  497SOL    HW2 2391   3.752   1.162   5.808
  498SOL     OW 2392   0.099   5.033   1.733
  498SOL    HW1 2393   0.016   5.048   1.679
  498SOL    HW2 2394   0.090   5.078   1.822
  499SOL     OW 2395   2.715   4.924   6.037
  499SOL    HW1 2396   2.814   4.935   6.044
  499SOL    HW2 2397   2.683   4.865   6.112
  500SOL     OW 2398   5.046   2.640   6.231
  500SOL    HW1 2399   5.058   2.543   6.211
  500SOL    HW2 2400   5.133   2.680   6.258
  501SOL     OW 2401   1.839   6.968   2.331
  501SOL    HW1 2402   1.930   6.995   2.300
  501SOL    HW2 2403   1.841   6.948   2.429
  502SOL     OW 2404   1.748   4.520   5.770
  502SOL    HW1 2405   1.695   4.601   5.794
  502SOL    HW2 2406   1.686   4.445   5.747
  503SOL     OW 2407   2.847   4.807   6.432
  503SOL    HW1 2408   2.766   4.825   6.487
  503SOL    HW2 2409   2.923   4.783   6.493
  504SOL     OW 2410   6.754   6.085   2.184
  504SOL    HW1 2411   6.800   6.160   2.233
  504SOL    HW2 2412   6.704   6.028   2.249
  505SOL     OW 2413   4.237   6.840   5.436
  505SOL    HW1 2414   4.271   6.815   5.345
  505SOL    HW2 2415   4.294   6.913   5.474
  506SOL     OW 2416   2.981   5.223   2.762
  506SOL    HW1 2417   3.043   5.225   2.683
  506SOL    HW2 2418   3.023   5.271   2.838
  507SOL     OW 2419   4.566   1.245   1.830
  507SOL    HW1 2420   4.469   1.220   1.821
  507SOL    HW2 2421   4.620   1.189   1.767
  508SOL     OW 2422   6.747   2.689   3.662
  508SOL    HW1 2423   6.705   2.777   3.638
  508SOL    HW2 2424   6.752   2.631   3.581
  509SOL     OW 2425   5.148   0.589   0.263
  509SOL    HW1 2426   5.105   0.604   0.174
  509SOL    HW2 2427   5.078   0.559   0.328
  510SOL     OW 2428   6.859   4.960   5.575
  510SOL    HW1 2429   6.856   4.936   5.672
  510SOL    HW2 2430   6.852   5.059   5.565
  511SOL     OW 2431   1.271   2.067   6.370
  511SOL    HW1 2432   1.322   1.990   6.409
  511SOL    HW2 2433   1.278   2.146   6.431
  512SOL     OW 2434   5.701   2.049   6.899
  512SOL    HW1 2435   5.628   2.095   6.951
  512SOL    HW2 2436   5.766   2.008   6.962
  513SOL     OW 2437   5.838   6.878   2.590
  513SOL    HW1 2438   5.908   6.886   2.519
  513SOL    HW2 2439   5.872   6.819   2.663
  514SOL     OW 2440   0.148   6.676   3.767
  514SOL    HW1 2441   0.107   6.650   3.680
  514SOL    HW2 2442   0.154   6.776   3.773
  515SOL     OW 2443   2.807   0.664   6.105
  515SOL    HW1 2444   2.854   0.644   6.191
  515SOL    HW2 2445   2.734   0.730   6.121
  516SOL     OW 2446   2.462   4.356   1.839
  516SOL    HW1 2447   2.479   4.424   1.910
  516SOL    HW2 2448   2.530   4.365   1.766
  517SOL     OW 2449   3.901   4.874   2.478
  517SOL    HW1 2450   3.903   4.942   2.552
  517SOL    HW2 2451   3.806   4.856   2.452
  518SOL     OW 2452   2.310   2.822   3.718
  518SOL    HW1 2453   2.285   2.915   3.746
  518SOL    HW2 2454   2.312   2.815   3.619
  519SOL     OW 2455   6.839   6.855   4.347
  519SOL    HW1 2456   6.853   6.759   4.373
  519SOL    HW2 2457   6.853   6.866   4.249
  520SOL     OW 2458   1.030   3.503   6.934
  520SOL    HW1 2459   1.014   3.536   6.841
  520SOL    HW2 2460   1.114   3.545   6.970
  521SOL     OW 2461   4.772   5.803   4.527
  521SOL    HW1 2462   4.836   5.819   4.602
  521SOL    HW2 2463   4.766   5.705   4.509
  522SOL     OW 2464   4.320   3.799   1.277
  522SOL    HW1 2465   4.293   3.706   1.249
  522SOL    HW2 2466   4.337   3.800   1.375
  523SOL     OW 2467   6.808   6.344   1.689
  523SOL    HW1 2468   6.844   6.288   1.615
  523SOL    HW2 2469   6.713   6.318   1.708
  524SOL     OW 2470   1.106   2.903   2.143
  524SOL    HW1 2471   1.200   2.899   2.111
  524SOL    HW2 2472   1.059   2.818   2.118
  525SOL     OW 2473   1.239   3.246   6.973
  525SOL    HW1 2474   1.144   3.239   6.942
  525SOL    HW2 2475   1.281   3.327   6.932
  526SOL     OW 2476   2.659   6.830   4.058
  526SOL    HW1 2477   2.710   6.765   4.001
  526SOL    HW2 2478   2.562   6.825   4.034
  527SOL     OW 2479   0.941   2.430   7.000
  527SOL    HW1 2480   0.952   2.339   6.959
  527SOL    HW2 2481   0.915   2.420   0.069
  528SOL     OW 2482   0.769   3.659   3.964
  528SOL    HW1 2483   0.822   3.664   3.879
  528SOL    HW2 2484   0.832   3.665   4.042
  529SOL     OW 2485   2.301   0.483   5.558
  529SOL    HW1 2486   2.352   0.497   5.643
  529SOL    HW2 2487   2.326   0.394   5.519
  530SOL     OW 2488   3.599   2.868   2.349
  530SOL    HW1 2489   3.503   2.841   2.354
  530SOL    HW2 2490   3.627   2.875   2.253
  531SOL     OW 2491   1.948   0.587   2.534
  531SOL    HW1 2492   2.015   0.660   2.525
  531SOL    HW2 2493   1.858   0.626   2.552
  532SOL     OW 2494   1.714   4.024   0.510
  532SOL    HW1 2495   1.799   3.975   0.529
  532SOL    HW2 2496   1.712   4.051   0.413
  533SOL     OW 2497   5.445   6.803   3.560
  533SOL    HW1 2498   5.378   6.734   3.529
  533SOL    HW2 2499   5.398   6.875   3.610
  534SOL     OW 2500   0.597   5.980   1.989
  534SOL    HW1 2501   0.649   5.911   1.939
  534SOL    HW2 2502   0.581   6.059   1.929
  535SOL     OW 2503   6.418   4.429   3.268
  535SOL    HW1 2504   6.366   4.486   3.332
  535SOL    HW2 2505   6.478   4.368   3.319
  536SOL     OW 2506   6.534   5.699   2.704
  536SOL    HW1 2507   6.464   5.758   2.665
  536SOL    HW2 2508   6.492   5.634   2.767
  537SOL     OW 2509   3.579   6.569   4.138
  537SOL    HW1 2510   3.510   6.634   4.106
  537SOL    HW2 2511   3.621   6.603   4.222
  538SOL     OW 2512   1.260   5.182   5.453
  538SOL    HW1 2513   1.198   5.220   5.384
  538SOL    HW2 2514   1.289   5.090   5.425
  539SOL     OW 2515   1.328   5.532   2.084
  539SOL    HW1 2516   1.345   5.577   1.997
  539SOL    HW2 2517   1.329   5.433   2.071
  540SOL     OW 2518   1.825   1.130   4.147
  540SOL    HW1 2519   1.863   1.205   4.202
  540SOL    HW2 2520   1.822   1.158   4.051
  541SOL     OW 2521   4.244   6.081   3.421
  541SOL    HW1 2522   4.146   6.094   3.429
  541SOL    HW2 2523   4.290   6.170   3.416
  542SOL     OW 2524   2.983   6.513   6.656
  542SOL    HW1 2525   3.077   6.479   6.651
  542SOL    HW2 2526   2.983   6.613   6.658
  543SOL     OW 2527   5.507   3.919   3.719
  543SOL    HW1 2528   5.595   3.918   3.672
  543SOL    HW2 2529   5.433   3.909   3.652
  544SOL     OW 2530   0.653   5.078   0.317
  544SOL    HW1 2531   0.721   5.093   0.245
  544SOL    HW2 2532   0.666   4.988   0.357
  545SOL     OW 2533   4.267   1.201   1.320
  545SOL    HW1 2534   4.185   1.255   1.302
  545SOL    HW2 2535   4.338   1.260   1.359
  546SOL     OW 2536   0.641   4.031   1.387
  546SOL    HW1 2537   0.570   4.094   1.358
  546SOL    HW2 2538   0.697   4.074   1.459
  547SOL     OW 2539   3.489   2.676   0.879
  547SOL    HW1 2540   3.547   2.712   0.952
  547SOL    HW2 2541   3.393   2.688   0.904
  548SOL     OW 2542   3.431   3.860   0.552
  548SOL    HW1 2543   3.528   3.850   0.575
  548SOL    HW2 2544   3.407   3.797   0.478
  549SOL     OW 2545   5.563   2.592   1.605
  549SOL    HW1 2546   5.514   2.522   1.553
  549SOL    HW2 2547   5.523   2.682   1.584
  550SOL     OW 2548   0.115   5.037   3.660
  550SOL    HW1 2549   0.175   4.967   3.701
  550SOL    HW2 2550   0.039   5.056   3.723
  551SOL     OW 2551   0.163   0.605   1.089
  551SOL    HW1 2552   0.206   0.608   1.179
  551SOL    HW2 2553   0.215   0.544   1.029
  552SOL     OW 2554   4.868   5.132   5.290
  552SOL    HW1 2555   4.962   5.154   5.262
  552SOL    HW2 2556   4.845   5.039   5.260
  553SOL     OW 2557   3.422   0.203   3.862
  553SOL    HW1 2558   3.488   0.187   3.935
  553SOL    HW2 2559   3.469   0.199   3.773
  554SOL     OW 2560   5.732   5.646   6.980
  554SOL    HW1 2561   5.716   5.548   6.981
  554SOL    HW2 2562   5.684   5.689   0.029
  555SOL     OW 2563   3.158   5.152   5.233
  555SOL    HW1 2564   3.151   5.059   5.270
  555SOL    HW2 2565   3.146   5.150   5.134
  556SOL     OW 2566   5.287   1.730   4.295
  556SOL    HW1 2567   5.293   1.649   4.354
  556SOL    HW2 2568   5.379   1.760   4.269
  557SOL     OW 2569   0.350   5.000   6.297
  557SOL    HW1 2570   0.271   5.042   6.252
  557SOL    HW2 2571   0.394   4.936   6.234
  558SOL     OW 2572   3.861   3.278   3.724
  558SOL    HW1 2573   3.939   3.284   3.786
  558SOL    HW2 2574   3.841   3.369   3.687
  559SOL     OW 2575   6.505   6.190   5.894
  559SOL    HW1 2576   6.413   6.160   5.921
  559SOL    HW2 2577   6.505   6.289   5.882
  560SOL     OW 2578   6.111   3.854   3.152
  560SOL    HW1 2579   6.022   3.815   3.130
  560SOL    HW2 2580   6.179   3.821   3.088
  561SOL     OW 2581   6.765   2.618   6.871
  561SOL    HW1 2582   6.682   2.562   6.876
  561SOL    HW2 2583   6.843   2.561   6.847
  562SOL     OW 2584   4.585   0.551   6.015
  562SOL    HW1 2585   4.663   0.503   6.055
  562SOL    HW2 2586   4.506   0.489   6.012
  563SOL     OW 2587   2.241   1.146   3.337
  563SOL    HW1 2588   2.203   1.082   3.271
  563SOL    HW2 2589   2.243   1.238   3.297
  564SOL     OW 2590   0.023   2.135   6.632
  564SOL    HW1 2591   0.045   2.192   6.711
  564SOL    HW2 2592   0.095   2.067   6.618
  565SOL     OW 2593   3.242   3.771   3.660
  565SOL    HW1 2594   3.261   3.729   3.748
  565SOL    HW2 2595   3.160   3.828   3.667
  566SOL     OW 2596   1.724   3.940   3.260
  566SOL    HW1 2597   1.748   3.846   3.236
  566SOL    HW2 2598   1.707   3.946   3.359
  567SOL     OW 2599   3.257   2.769   0.715
  567SOL    HW1 2600   3.345   2.792   0.755
  567SOL    HW2 2601   3.188   2.833   0.747
  568SOL     OW 2602   5.751   6.661   0.409
  568SOL    HW1 2603   5.779   6.602   0.334
  568SOL    HW2 2604   5.701   6.608   0.477
  569SOL     OW 2605   1.323   2.771   1.219
  569SOL    HW1 2606   1.268   2.852   1.195
  569SOL    HW2 2607   1.331   2.712   1.139
  570SOL     OW 2608   3.374   0.230   6.639
  570SOL    HW1 2609   3.461   0.269   6.610
  570SOL    HW2 2610   3.340   0.169   6.567
  571SOL     OW 2611   2.889   4.833   3.813
  571SOL    HW1 2612   2.798   4.866   3.786
  571SOL    HW2 2613   2.879   4.757   3.877
  572SOL     OW 2614   1.933   5.325   5.113
  572SOL    HW1 2615   1.837   5.308   5.094
  572SOL    HW2 2616   1.976   5.241   5.147
  573SOL     OW 2617   6.215   1.078   5.701
  573SOL    HW1 2618   6.242   0.984   5.682
  573SOL    HW2 2619   6.147   1.080   5.774
  574SOL     OW 2620   3.906   0.084   5.212
  574SOL    HW1 2621   3.924   0.072   5.309
  574SOL    HW2 2622   3.881   0.179   5.194
  575SOL     OW 2623   4.331   2.666   1.369
  575SOL    HW1 2624   4.296   2.657   1.462
  575SOL    HW2 2625   4.257   2.691   1.306
  576SOL     OW 2626   1.533   3.465   3.050
  576SOL    HW1 2627   1.456   3.436   2.994
  576SOL    HW2 2628   1.508   3.463   3.146
  577SOL     OW 2629   1.419   0.551   2.112
  577SOL    HW1 2630   1.408   0.649   2.129
  577SOL    HW2 2631   1.393   0.500   2.194
  578SOL     OW 2632   1.289   5.588   5.859
  578SOL    HW1 2633   1.370   5.577   5.917
  578SOL    HW2 2634   1.261   5.684   5.859
  579SOL     OW 2635   1.296   4.853   2.872
  579SOL    HW1 2636   1.293   4.933   2.812
  579SOL    HW2 2637   1.388   4.814   2.870
  580SOL     OW 2638   3.903   4.650   5.890
  580SOL    HW1 2639   3.887   4.735   5.939
  580SOL    HW2 2640   3.996   4.650   5.852
  581SOL     OW 2641   1.294   2.773   3.465
  581SOL    HW1 2642   1.356   2.730   3.531
  581SOL    HW2 2643   1.243   2.847   3.510
  582SOL     OW 2644   4.548   6.045   3.054
  582SOL    HW1 2645   4.532   6.097   3.138
  582SOL    HW2 2646   4.503   5.956   3.060
  583SOL     OW 2647   2.605   5.965   5.307
  583SOL    HW1 2648   2.663   6.039   5.271
  583SOL    HW2 2649   2.551   5.926   5.233
  584SOL     OW 2650   3.467   0.105   7.005
  584SOL    HW1 2651   3.517   0.177   6.957
  584SOL    HW2 2652   3.371   0.108   6.979
  585SOL     OW 2653   4.505   0.881   0.976
  585SOL    HW1 2654   4.438   0.812   1.000
  585SOL    HW2 2655   4.466   0.942   0.907
  586SOL     OW 2656   3.641   0.250   1.109
  586SOL    HW1 2657   3.691   0.252   1.196
  586SOL    HW2 2658   3.580   0.329   1.104
  587SOL     OW 2659   5.154   2.568   2.891
  587SOL    HW1 2660   5.195   2.481   2.917
  587SOL    HW2 2661   5.226   2.631   2.861
  588SOL     OW 2662   2.102   4.821   0.792
  588SOL    HW1 2663   2.113   4.748   0.859
  588SOL    HW2 2664   2.113   4.909   0.837
  589SOL     OW 2665   4.075   5.662   1.209
  589SOL    HW1 2666   4.107   5.724   1.280
  589SOL    HW2 2667   4.071   5.569   1.245
  590SOL     OW 2668   5.779   1.569   0.911
  590SOL    HW1 2669   5.740   1.550   0.821
  590SOL    HW2 2670   5.776   1.485   0.966
  591SOL     OW 2671   4.248   6.381   4.059
  591SOL    HW1 2672   4.333   6.356   4.107
  591SOL    HW2 2673   4.173   6.387   4.126
  592SOL     OW 2674   4.777   0.426   3.001
  592SOL    HW1 2675   4.862   0.400   3.047
  592SOL    HW2 2676   4.764   0.368   2.921
  593SOL     OW 2677   4.582   2.135   4.629
  593SOL    HW1 2678   4.488   2.117   4.598
  593SOL    HW2 2679   4.585   2.133   4.729
  594SOL     OW 2680   6.604   1.103   0.776
  594SOL    HW1 2681   6.625   1.005   0.777
  594SOL    HW2 2682   6.684   1.153   0.807
  595SOL     OW 2683   5.834   6.635   3.499
  595SOL    HW1 2684   5.833   6.687   3.585
  595SOL    HW2 2685   5.896   6.679   3.434
  596SOL     OW 2686   0.123   5.096   3.402
  596SOL    HW1 2687   0.134   5.064   3.496
  596SOL    HW2 2688   0.026   5.111   3.383
  597SOL     OW 2689   2.485   6.365   6.247
  597SOL    HW1 2690   2.534   6.346   6.332
  597SOL    HW2 2691   2.398   6.410   6.268
  598SOL     OW 2692   3.336   3.968   4.760
  598SOL    HW1 2693   3.417   4.019   4.733
  598SOL    HW2 2694   3.345   3.940   4.856
  599SOL     OW 2695   1.981   5.879   2.991
  599SOL    HW1 2696   1.974   5.853   2.895
  599SOL    HW2 2697   2.007   5.975   2.997
  600SOL     OW 2698   6.850   3.058   5.933
  600SOL    HW1 2699   6.847   2.974   5.879
  600SOL    HW2 2700   6.776   3.057   5.999
  601SOL     OW 2701   1.262   1.929   4.389
  601SOL    HW1 2702   1.234   1.836   4.367
  601SOL    HW2 2703   1.188   1.974   4.441
  602SOL     OW 2704   2.562   0.847   5.840
  602SOL    HW1 2705   2.525   0.871   5.751
  602SOL    HW2 2706   2.661   0.833   5.833
  603SOL     OW 2707   1.988   2.188   5.542
  603SOL    HW1 2708   1.938   2.103   5.560
  603SOL    HW2 2709   2.083   2.178   5.573
  604SOL     OW 2710   1.449   2.010   1.673
  604SOL    HW1 2711   1.376   2.024   1.607
  604SOL    HW2 2712   1.479   2.098   1.709
  605SOL     OW 2713   0.024   4.491   1.797
  605SOL    HW1 2714   0.044   4.498   1.699
  605SOL    HW2 2715   0.017   4.394   1.823
  606SOL     OW 2716   4.798   6.288   5.441
  606SOL    HW1 2717   4.825   6.354   5.371
  606SOL    HW2 2718   4.823   6.323   5.532
  607SOL     OW 2719   6.866   4.984   5.260
  607SOL    HW1 2720   6.875   4.895   5.217
  607SOL    HW2 2721   6.897   4.979   5.355
  608SOL     OW 2722   3.688   6.599   6.500
  608SOL    HW1 2723   3.613   6.604   6.566
  608SOL    HW2 2724   3.658   6.549   6.419
  609SOL     OW 2725   3.890   2.941   1.891
  609SOL    HW1 2726   3.902   2.854   1.843
  609SOL    HW2 2727   3.822   2.929   1.964
  610SOL     OW 2728   5.513   2.556   0.119
  610SOL    HW1 2729   5.461   2.559   0.033
  610SOL    HW2 2730   5.465   2.607   0.190
  611SOL     OW 2731   3.744   6.777   2.189
  611SOL    HW1 2732   3.752   6.753   2.092
  611SOL    HW2 2733   3.733   6.876   2.198
  612SOL     OW 2734   3.127   5.864   4.879
  612SOL    HW1 2735   3.043   5.850   4.932
  612SOL    HW2 2736   3.106   5.854   4.781
  613SOL     OW 2737   5.107   3.918   5.049
  613SOL    HW1 2738   5.068   3.929   5.140
  613SOL    HW2 2739   5.206   3.911   5.056
  614SOL     OW 2740   5.508   5.357   5.063
  614SOL    HW1 2741   5.409   5.347   5.068
  614SOL    HW2 2742   5.531   5.446   5.023
  615SOL     OW 2743   0.111   2.599   1.188
  615SOL    HW1 2744   0.049   2.540   1.239
  615SOL    HW2 2745   0.206   2.575   1.209
  616SOL     OW 2746   6.464   2.461   2.663
  616SOL    HW1 2747   6.372   2.424   2.648
  616SOL    HW2 2748   6.470   2.495   2.757
  617SOL     OW 2749   0.949   4.671   5.995
  617SOL    HW1 2750   0.982   4.600   6.058
  617SOL    HW2 2751   0.849   4.678   6.002
  618SOL     OW 2752   1.584   2.775   0.845
  618SOL    HW1 2753   1.648   2.802   0.918
  618SOL    HW2 2754   1.617   2.691   0.801
  619SOL     OW 2755   2.263   2.121   0.831
  619SOL    HW1 2756   2.221   2.033   0.853
  619SOL    HW2 2757   2.303   2.117   0.739
  620SOL     OW 2758   4.503   2.396   0.088
  620SOL    HW1 2759   4.518   2.488   0.052
  620SOL    HW2 2760   4.513   2.397   0.188
  621SOL     OW 2761   3.882   5.196   6.599
  621SOL    HW1 2762   3.842   5.234   6.516
  621SOL    HW2 2763   3.950   5.126   6.575
  622SOL     OW 2764   0.823   1.317   6.407
  622SOL    HW1 2765   0.788   1.330   6.314
  622SOL    HW2 2766   0.759   1.358   6.473
  623SOL     OW 2767   0.412   6.600   6.446
  623SOL    HW1 2768   0.341   6.601   6.375
  623SOL    HW2 2769   0.482   6.533   6.422
  624SOL     OW 2770   1.008   2.483   1.602
  624SOL    HW1 2771   0.985   2.398   1.556
  624SOL    HW2 2772   1.082   2.529   1.553
  625SOL     OW 2773   2.496   2.449   1.244
  625SOL    HW1 2774   2.452   2.390   1.176
  625SOL    HW2 2775   2.594   2.434   1.242
  626SOL     OW 2776   2.722   5.398   3.545
  626SOL    HW1 2777   2.662   5.392   3.465
  626SOL    HW2 2778   2.730   5.493   3.573
  627SOL     OW 2779   5.171   0.411   0.800
  627SOL    HW1 2780   5.132   0.332   0.754
  627SOL    HW2 2781   5.100   0.457   0.853
  628SOL     OW 2782   5.050   4.784   5.400
  628SOL    HW1 2783   5.045   4.720   5.324
  628SOL    HW2 2784   5.042   4.734   5.487
  629SOL     OW 2785   0.209   6.573   1.169
  629SOL    HW1 2786   0.280   6.608   1.108
  629SOL    HW2 2787   0.160   6.650   1.211
  630SOL     OW 2788   5.607   2.239   2.651
  630SOL    HW1 2789   5.660   2.317   2.684
  630SOL    HW2 2790   5.668   2.170   2.613
  631SOL     OW 2791   3.594   6.932   5.623
  631SOL    HW1 2792   3.599   6.965   5.530
  631SOL    HW2 2793   3.590   6.832   5.623
  632SOL     OW 2794   2.912   1.800   0.020
  632SOL    HW1 2795   2.990   1.780   6.987
  632SOL    HW2 2796   2.827   1.782   6.997
  633SOL     OW 2797   3.832   5.078   6.981
  633SOL    HW1 2798   3.795   5.163   7.019
  633SOL    HW2 2799   3.773   5.047   6.907
  634SOL     OW 2800   4.346   4.545   1.863
  634SOL    HW1 2801   4.373   4.453   1.832
  634SOL    HW2 2802   4.418   4.610   1.841
  635SOL     OW 2803   4.749   6.177   2.388
  635SOL    HW1 2804   4.770   6.079   2.384
  635SOL    HW2 2805   4.828   6.227   2.423
  636SOL     OW 2806   5.230   6.417   6.460
  636SOL    HW1 2807   5.166   6.359   6.409
  636SOL    HW2 2808   5.252   6.498   6.405
  637SOL     OW 2809   5.287   4.416   1.486
  637SOL    HW1 2810   5.366   4.376   1.533
  637SOL    HW2 2811   5.256   4.352   1.415
  638SOL     OW 2812   5.431   1.190   2.137
  638SOL    HW1 2813   5.517   1.229   2.169
  638SOL    HW2 2814   5.369   1.179   2.215
  639SOL     OW 2815   4.996   4.122   2.341
  639SOL    HW1 2816   5.061   4.074   2.400
  639SOL    HW2 2817   4.949   4.193   2.393
  640SOL     OW 2818   2.390   4.604   4.940
  640SOL    HW1 2819   2.308   4.609   4.998
  640SOL    HW2 2820   2.390   4.681   4.876
  641SOL     OW 2821   0.440   5.699   4.787
  641SOL    HW1 2822   0.374   5.689   4.712
  641SOL    HW2 2823   0.494   5.615   4.794
  642SOL     OW 2824   0.135   4.259   4.045
  642SOL    HW1 2825   0.144   4.192   3.972
  642SOL    HW2 2826   0.130   4.211   4.133
  643SOL     OW 2827   5.662   4.740   5.149
  643SOL    HW1 2828   5.666   4.734   5.049
  643SOL    HW2 2829   5.643   4.649   5.187
  644SOL     OW 2830   0.786   5.597   2.791
  644SOL    HW1 2831   0.734   5.558   2.715
  644SOL    HW2 2832   0.745   5.568   2.878
  645SOL     OW 2833   5.197   2.742   4.287
  645SOL    HW1 2834   5.163   2.649   4.300
  645SOL    HW2 2835   5.165   2.777   4.199
  646SOL     OW 2836   2.702   2.001   3.542
  646SOL    HW1 2837   2.703   1.996   3.443
  646SOL    HW2 2838   2.609   2.018   3.574
  647SOL     OW 2839   5.673   2.539   5.864
  647SOL    HW1 2840   5.710   2.482   5.937
  647SOL    HW2 2841   5.704   2.504   5.775
  648SOL     OW 2842   6.208   3.582   2.780
  648SOL    HW1 2843   6.240   3.491   2.804
  648SOL    HW2 2844   6.181   3.584   2.684
  649SOL     OW 2845   4.415   4.118   0.048
  649SOL    HW1 2846   4.448   4.208   0.023
  649SOL    HW2 2847   4.391   4.117   0.145
  650SOL     OW 2848   5.243   4.210   0.349
  650SOL    HW1 2849   5.264   4.307   0.332
  650SOL    HW2 2850   5.300   4.177   0.425
  651SOL     OW 2851   0.244   6.845   6.925
  651SOL    HW1 2852   0.167   6.838   6.862
  651SOL    HW2 2853   0.215   6.817   7.017
  652SOL     OW 2854   4.909   6.001   3.652
  652SOL    HW1 2855   4.836   5.937   3.628
  652SOL    HW2 2856   4.872   6.094   3.654
  653SOL     OW 2857   3.319   5.386   5.883
  653SOL    HW1 2858   3.247   5.391   5.952
  653SOL    HW2 2859   3.404   5.421   5.922
  654SOL     OW 2860   6.813   4.689   5.888
  654SOL    HW1 2861   6.858   4.777   5.874
  654SOL    HW2 2862   6.875   4.615   5.863
  655SOL     OW 2863   0.419   6.879   2.446
  655SOL    HW1 2864   0.480   6.947   2.406
  655SOL    HW2 2865   0.417   6.797   2.388
  656SOL     OW 2866   2.184   5.689   0.988
  656SOL    HW1 2867   2.238   5.732   1.060
  656SOL    HW2 2868   2.236   5.612   0.949
  657SOL     OW 2869   2.465   1.953   1.779
  657SOL    HW1 2870   2.387   1.964   1.717
  657SOL    HW2 2871   2.519   1.874   1.750
  658SOL     OW 2872   3.036   2.834   5.949
  658SOL    HW1 2873   3.135   2.842   5.960
  658SOL    HW2 2874   3.016   2.775   5.871
  659SOL     OW 2875   2.803   6.539   6.445
  659SOL    HW1 2876   2.838   6.519   6.354
  659SOL    HW2 2877   2.874   6.520   6.513
  660SOL     OW 2878   4.645   4.344   1.467
  660SOL    HW1 2879   4.683   4.342   1.559
  660SOL    HW2 2880   4.546   4.343   1.471
  661SOL     OW 2881   4.785   6.286   3.653
  661SOL    HW1 2882   4.745   6.301   3.743
  661SOL    HW2 2883   4.803   6.375   3.609
  662SOL     OW 2884   3.793   0.559   5.488
  662SOL    HW1 2885   3.702   0.555   5.446
  662SOL    HW2 2886   3.791   0.509   5.575
  663SOL     OW 2887   2.429   3.766   5.942
  663SOL    HW1 2888   2.462   3.859   5.958
  663SOL    HW2 2889   2.444   3.742   5.846
  664SOL     OW 2890   0.103   6.158   6.734
  664SOL    HW1 2891   0.080   6.191   6.826
  664SOL    HW2 2892   0.022   6.159   6.676
  665SOL     OW 2893   4.174   5.348   1.976
  665SOL    HW1 2894   4.205   5.371   2.068
  665SOL    HW2 2895   4.197   5.253   1.955
  666SOL     OW 2896   5.159   0.972   2.076
  666SOL    HW1 2897   5.258   0.965   2.069
  666SOL    HW2 2898   5.121   0.991   1.985
  667SOL     OW 2899   0.939   4.977   2.655
  667SOL    HW1 2900   0.929   4.955   2.752
  667SOL    HW2 2901   0.876   5.051   2.632
  668SOL     OW 2902   4.971   6.795   6.252
  668SOL    HW1 2903   5.011   6.793   6.160
  668SOL    HW2 2904   4.874   6.817   6.246
  669SOL     OW 2905   5.561   0.629   3.764
  669SOL    HW1 2906   5.589   0.617   3.859
  669SOL    HW2 2907   5.506   0.550   3.735
  670SOL     OW 2908   2.967   2.006   1.836
  670SOL    HW1 2909   3.044   2.056   1.874
  670SOL    HW2 2910   2.882   2.037   1.880
  671SOL     OW 2911   3.055   6.193   1.078
  671SOL    HW1 2912   3.000   6.189   0.995
  671SOL    HW2 2913   3.096   6.103   1.096
  672SOL     OW 2914   6.651   5.560   2.229
  672SOL    HW1 2915   6.564   5.543   2.276
  672SOL    HW2 2916   6.694   5.474   2.204
  673SOL     OW 2917   6.309   6.873   1.130
  673SOL    HW1 2918   6.390   6.908   1.178
  673SOL    HW2 2919   6.246   6.833   1.196
  674SOL     OW 2920   0.412   1.553   4.456
  674SOL    HW1 2921   0.487   1.596   4.505
  674SOL    HW2 2922   0.325   1.578   4.498
  675SOL     OW 2923   5.789   2.417   2.706
  675SOL    HW1 2924   5.748   2.505   2.731
  675SOL    HW2 2925   5.849   2.430   2.628
  676SOL     OW 2926   2.948   5.303   4.103
  676SOL    HW1 2927   2.885   5.364   4.151
  676SOL    HW2 2928   2.897   5.226   4.065
  677SOL     OW 2929   5.142   0.877   0.797
  677SOL    HW1 2930   5.231   0.914   0.823
  677SOL    HW2 2931   5.120   0.799   0.857
  678SOL     OW 2932   2.774   6.097   5.126
  678SOL    HW1 2933   2.787   6.053   5.037
  678SOL    HW2 2934   2.796   6.194   5.119
  679SOL     OW 2935   4.944   1.776   3.979
  679SOL    HW1 2936   4.956   1.678   3.993
  679SOL    HW2 2937   4.959   1.798   3.882
  680SOL     OW 2938   4.881   5.830   4.775
  680SOL    HW1 2939   4.875   5.929   4.791
  680SOL    HW2 2940   4.932   5.787   4.850
  681SOL     OW 2941   4.633   5.807   1.645
  681SOL    HW1 2942   4.649   5.890   1.590
  681SOL    HW2 2943   4.717   5.754   1.650
  682SOL     OW 2944   5.950   1.198   1.704
  682SOL    HW1 2945   6.042   1.224   1.674
  682SOL    HW2 2946   5.933   1.235   1.795
  683SOL     OW 2947   4.829   2.842   0.390
  683SOL    HW1 2948   4.795   2.748   0.390
  683SOL    HW2 2949   4.872   2.862   0.302
  684SOL     OW 2950   6.642   0.838   0.801
  684SOL    HW1 2951   6.608   0.823   0.893
  684SOL    HW2 2952   6.727   0.786   0.788
  685SOL     OW 2953   3.113   1.812   3.867
  685SOL    HW1 2954   3.046   1.767   3.810
  685SOL    HW2 2955   3.184   1.747   3.895
  686SOL     OW 2956   4.681   2.293   4.432
  686SOL    HW1 2957   4.645   2.380   4.466
  686SOL    HW2 2958   4.684   2.227   4.507
  687SOL     OW 2959   0.661   2.020   3.725
  687SOL    HW1 2960   0.666   1.933   3.675
  687SOL    HW2 2961   0.733   2.081   3.692
  688SOL     OW 2962   0.111   1.542   6.553
  688SOL    HW1 2963   0.032   1.486   6.529
  688SOL    HW2 2964   0.089   1.599   6.632
  689SOL     OW 2965   1.317   4.713   5.951
  689SOL    HW1 2966   1.256   4.695   6.028
  689SOL    HW2 2967   1.397   4.764   5.984
  690SOL     OW 2968   0.053   3.847   3.300
  690SOL    HW1 2969   7.009   3.910   3.269
  690SOL    HW2 2970   0.109   3.891   3.371
  691SOL     OW 2971   3.500   1.405   6.973
  691SOL    HW1 2972   3.449   1.381   0.029
  691SOL    HW2 2973   3.584   1.452   6.998
  692SOL     OW 2974   4.271   2.099   4.575
  692SOL    HW1 2975   4.230   2.168   4.635
  692SOL    HW2 2976   4.265   2.130   4.480
  693SOL     OW 2977   4.633   6.308   3.888
  693SOL    HW1 2978   4.539   6.321   3.918
  693SOL    HW2 2979   4.694   6.314   3.967
  694SOL     OW 2980   4.194   6.318   5.175
  694SOL    HW1 2981   4.125   6.364   5.119
  694SOL    HW2 2982   4.258   6.270   5.116
  695SOL     OW 2983   4.038   6.437   3.851
  695SOL    HW1 2984   4.026   6.531   3.882
  695SOL    HW2 2985   4.119   6.398   3.894
  696SOL     OW 2986   4.832   4.664   3.615
  696SOL    HW1 2987   4.817   4.742   3.554
  696SOL    HW2 2988   4.750   4.647   3.669
  697SOL     OW 2989   1.640   4.032   2.484
  697SOL    HW1 2990   1.567   4.041   2.416
  697SOL    HW2 2991   1.607   3.976   2.560
  698SOL     OW 2992   5.712   6.076   1.181
  698SOL    HW1 2993   5.776   6.092   1.256
  698SOL    HW2 2994   5.640   6.146   1.185
  699SOL     OW 2995   1.344   3.451   6.819
  699SOL    HW1 2996   1.433   3.439   6.775
  699SOL    HW2 2997   1.347   3.531   6.879
  700SOL     OW 2998   3.499   6.634   2.173
  700SOL    HW1 2999   3.583   6.683   2.194
  700SOL    HW2 3000   3.484   6.635   2.074
  701SOL     OW 3001   0.111   4.073   0.079
  701SOL    HW1 3002   0.202   4.040   0.054
  701SOL    HW2 3003   0.100   4.066   0.178
  702SOL     OW 3004   1.945   6.628   4.639
  702SOL    HW1 3005   1.956   6.600   4.734
  702SOL    HW2 3006   1.939   6.728   4.634
  703SOL     OW 3007   3.605   3.191   5.626
  703SOL    HW1 3008   3.677   3.134   5.588
  703SOL    HW2 3009   3.645   3.268   5.676
  704SOL     OW 3010   1.731   2.579   6.324
  704SOL    HW1 3011   1.689   2.633   6.252
  704SOL    HW2 3012   1.723   2.628   6.411
  705SOL     OW 3013   6.084   5.771   3.054
  705SOL    HW1 3014   6.153   5.701   3.072
  705SOL    HW2 3015   5.993   5.729   3.051
  706SOL     OW 3016   4.356   1.739   5.321
  706SOL    HW1 3017   4.267   1.694   5.311
  706SOL    HW2 3018   4.376   1.752   5.418
  707SOL     OW 3019   4.142   4.717   2.932
  707SOL    HW1 3020   4.207   4.645   2.957
  707SOL    HW2 3021   4.131   4.719   2.832
  708SOL     OW 3022   2.545   1.187   2.415
  708SOL    HW1 3023   2.632   1.147   2.386
  708SOL    HW2 3024   2.561   1.272   2.464
  709SOL     OW 3025   1.523   5.962   0.409
  709SOL    HW1 3026   1.456   6.018   0.360
  709SOL    HW2 3027   1.564   6.015   0.483
  710SOL     OW 3028   4.432   1.991   1.488
  710SOL    HW1 3029   4.333   1.996   1.474
  710SOL    HW2 3030   4.479   2.026   1.406
  711SOL     OW 3031   0.071   3.150   6.130
  711SOL    HW1 3032   0.094   3.181   6.222
  711SOL    HW2 3033   0.155   3.136   6.078
  712SOL     OW 3034   4.701   2.363   0.621
  712SOL    HW1 3035   4.765   2.420   0.672
  712SOL    HW2 3036   4.612   2.409   0.616
  713SOL     OW 3037   4.254   3.173   5.811
  713SOL    HW1 3038   4.187   3.194   5.739
  713SOL    HW2 3039   4.297   3.257   5.842
  714SOL     OW 3040   0.269   5.593   3.655
  714SOL    HW1 3041   0.351   5.571   3.708
  714SOL    HW2 3042   0.210   5.512   3.650
  715SOL     OW 3043   5.748   5.927   6.539
  715SOL    HW1 3044   5.758   5.829   6.558
  715SOL    HW2 3045   5.784   5.980   6.616
  716SOL     OW 3046   0.991   1.113   2.591
  716SOL    HW1 3047   1.054   1.035   2.586
  716SOL    HW2 3048   0.985   1.143   2.686
  717SOL     OW 3049   6.850   4.973   3.782
  717SOL    HW1 3050   6.751   4.970   3.797
  717SOL    HW2 3051   6.897   4.982   3.870
  718SOL     OW 3052   5.093   3.024   5.227
  718SOL    HW1 3053   5.169   3.005   5.166
  718SOL    HW2 3054   5.087   2.953   5.297
  719SOL     OW 3055   5.804   0.120   2.316
  719SOL    HW1 3056   5.768   0.051   2.254
  719SOL    HW2 3057   5.780   0.095   2.410
  720SOL     OW 3058   2.058   0.801   5.878
  720SOL    HW1 3059   2.101   0.728   5.933
  720SOL    HW2 3060   2.047   0.770   5.784
  721SOL     OW 3061   2.047   1.399   1.837
  721SOL    HW1 3062   2.130   1.454   1.832
  721SOL    HW2 3063   2.015   1.378   1.745
  722SOL     OW 3064   3.087   1.158   5.426
  722SOL    HW1 3065   3.033   1.217   5.367
  722SOL    HW2 3066   3.177   1.143   5.386
  723SOL     OW 3067   2.142   5.171   3.676
  723SOL    HW1 3068   2.051   5.139   3.648
  723SOL    HW2 3069   2.207   5.152   3.603
  724SOL     OW 3070   0.587   1.410   3.549
  724SOL    HW1 3071   0.561   1.373   3.460
  724SOL    HW2 3072   0.562   1.506   3.553
  725SOL     OW 3073   1.867   4.713   2.158
  725SOL    HW1 3074   1.920   4.708   2.074
  725SOL    HW2 3075   1.905   4.649   2.225
  726SOL     OW 3076   2.833   5.198   1.208
  726SOL    HW1 3077   2.774   5.268   1.247
  726SOL    HW2 3078   2.797   5.169   1.119
  727SOL     OW 3079   4.887   4.849   6.075
  727SOL    HW1 3080   4.797   4.832   6.115
  727SOL    HW2 3081   4.901   4.947   6.065
  728SOL     OW 3082   6.809   3.363   4.087
  728SOL    HW1 3083   6.863   3.279   4.084
  728SOL    HW2 3084   6.845   3.427   4.020
  729SOL     OW 3085   0.572   2.794   0.950
  729SOL    HW1 3086   0.619   2.837   1.027
  729SOL    HW2 3087   0.506   2.858   0.910
  730SOL     OW 3088   6.182   0.206   4.280
  730SOL    HW1 3089   6.194   0.261   4.197
  730SOL    HW2 3090   6.140   0.119   4.256
  731SOL     OW 3091   4.662   5.319   0.015
  731SOL    HW1 3092   4.667   5.224   7.012
  731SOL    HW2 3093   4.581   5.332   0.072
  732SOL     OW 3094   6.058   3.024   2.659
  732SOL    HW1 3095   6.016   3.109   2.626
  732SOL    HW2 3096   6.011   2.946   2.618
  733SOL     OW 3097   5.911   0.256   5.273
  733SOL    HW1 3098   5.895   0.346   5.232
  733SOL    HW2 3099   5.824   0.214   5.297
  734SOL     OW 3100   6.057   5.378   2.613
  734SOL    HW1 3101   6.002   5.455   2.580
  734SOL    HW2 3102   6.130   5.359   2.546
  735SOL     OW 3103   4.341   1.662   0.615
  735SOL    HW1 3104   4.281   1.608   0.673
  735SOL    HW2 3105   4.286   1.728   0.563
  736SOL     OW 3106   1.166   1.298   4.165
  736SOL    HW1 3107   1.132   1.213   4.206
  736SOL    HW2 3108   1.100   1.332   4.099
  737SOL     OW 3109   5.476   1.613   6.376
  737SOL    HW1 3110   5.523   1.559   6.306
  737SOL    HW2 3111   5.468   1.708   6.345
  738SOL     OW 3112   2.784   4.107   1.712
  738SOL    HW1 3113   2.835   4.047   1.774
  738SOL    HW2 3114   2.831   4.110   1.624
  739SOL     OW 3115   3.820   0.125   4.605
  739SOL    HW1 3116   3.878   0.180   4.665
  739SOL    HW2 3117   3.826   0.160   4.512
  740SOL     OW 3118   5.530   1.700   3.096
  740SOL    HW1 3119   5.593   1.712   3.019
  740SOL    HW2 3120   5.518   1.603   3.114
  741SOL     OW 3121   2.036   0.457   3.858
  741SOL    HW1 3122   2.102   0.382   3.856
  741SOL    HW2 3123   1.999   0.471   3.766
  742SOL     OW 3124   2.072   6.054   1.196
  742SOL    HW1 3125   1.996   5.989   1.184
  742SOL    HW2 3126   2.111   6.076   1.107
  743SOL     OW 3127   0.016   5.767   3.015
  743SOL    HW1 3128   6.955   5.726   2.992
  743SOL    HW2 3129   0.073   5.771   2.933
  744SOL     OW 3130   5.983   0.407   0.547
  744SOL    HW1 3131   6.037   0.486   0.516
  744SOL    HW2 3132   6.020   0.373   0.633
  745SOL     OW 3133   1.934   5.576   5.193
  745SOL    HW1 3134   1.932   5.479   5.168
  745SOL    HW2 3135   1.970   5.629   5.117
  746SOL     OW 3136   5.863   3.900   5.821
  746SOL    HW1 3137   5.838   3.817   5.870
  746SOL    HW2 3138   5.893   3.970   5.886
  747SOL     OW 3139   4.418   6.019   4.823
  747SOL    HW1 3140   4.339   6.007   4.764
  747SOL    HW2 3141   4.474   5.935   4.822
  748SOL     OW 3142   4.725   5.572   2.044
  748SOL    HW1 3143   4.636   5.582   2.087
  748SOL    HW2 3144   4.774   5.495   2.086
  749SOL     OW 3145   5.958   3.688   4.149
  749SOL    HW1 3146   5.939   3.783   4.125
  749SOL    HW2 3147   5.890   3.628   4.105
  750SOL     OW 3148   2.310   1.422   0.784
  750SOL    HW1 3149   2.226   1.475   0.775
  750SOL    HW2 3150   2.385   1.482   0.812
  751SOL     OW 3151   4.056   1.104   0.733
  751SOL    HW1 3152   4.138   1.121   0.788
  751SOL    HW2 3153   3.976   1.142   0.779
  752SOL     OW 3154   3.254   2.837   0.387
  752SOL    HW1 3155   3.327   2.906   0.382
  752SOL    HW2 3156   3.294   2.746   0.395
  753SOL     OW 3157   1.689   3.535   6.093
  753SOL    HW1 3158   1.661   3.624   6.057
  753SOL    HW2 3159   1.774   3.505   6.049
  754SOL     OW 3160   4.692   1.467   6.855
  754SOL    HW1 3161   4.600   1.441   6.825
  754SOL    HW2 3162   4.693   1.477   6.954
  755SOL     OW 3163   2.948   4.684   5.509
  755SOL    HW1 3164   2.894   4.603   5.531
  755SOL    HW2 3165   3.036   4.657   5.471
  756SOL     OW 3166   2.991   4.912   0.149
  756SOL    HW1 3167   2.892   4.923   0.139
  756SOL    HW2 3168   3.037   4.957   0.073
  757SOL     OW 3169   2.177   5.973   3.238
  757SOL    HW1 3170   2.083   5.952   3.210
  757SOL    HW2 3171   2.235   5.894   3.221
  758SOL     OW 3172   4.162   0.886   3.813
  758SOL    HW1 3173   4.161   0.788   3.791
  758SOL    HW2 3174   4.231   0.903   3.883
  759SOL     OW 3175   6.945   3.052   2.730
  759SOL    HW1 3176   6.960   3.001   2.645
  759SOL    HW2 3177   7.016   3.121   2.740
  760SOL     OW 3178   6.349   6.773   4.159
  760SOL    HW1 3179   6.386   6.724   4.080
  760SOL    HW2 3180   6.418   6.836   4.194
  761SOL     OW 3181   5.814   4.384   6.303
  761SOL    HW1 3182   5.720   4.419   6.305
  761SOL    HW2 3183   5.840   4.365   6.209
  762SOL     OW 3184   2.772   0.045   5.580
  762SOL    HW1 3185   2.790   0.110   5.506
  762SOL    HW2 3186   2.724   6.992   5.544
  763SOL     OW 3187   4.716   6.503   6.588
  763SOL    HW1 3188   4.706   6.500   6.688
  763SOL    HW2 3189   4.735   6.411   6.554
  764SOL     OW 3190   5.516   0.895   6.073
  764SOL    HW1 3191   5.422   0.902   6.040
  764SOL    HW2 3192   5.519   0.918   6.171
  765SOL     OW 3193   1.720   6.319   0.512
  765SOL    HW1 3194   1.749   6.325   0.416
  765SOL    HW2 3195   1.772   6.384   0.567
  766SOL     OW 3196   2.853   2.057   5.410
  766SOL    HW1 3197   2.798   2.123   5.360
  766SOL    HW2 3198   2.949   2.066   5.384
  767SOL     OW 3199   6.356   6.590   3.826
  767SOL    HW1 3200   6.412   6.585   3.909
  767SOL    HW2 3201   6.351   6.685   3.796
  768SOL     OW 3202   2.392   5.613   3.491
  768SOL    HW1 3203   2.371   5.575   3.581
  768SOL    HW2 3204   2.413   5.710   3.500
  769SOL     OW 3205   2.780   1.255   5.202
  769SOL    HW1 3206   2.753   1.192   5.274
  769SOL    HW2 3207   2.703   1.272   5.140
  770SOL     OW 3208   1.518   5.460   3.970
  770SOL    HW1 3209   1.423   5.490   3.969
  770SOL    HW2 3210   1.572   5.517   3.908
  771SOL     OW 3211   1.065   4.676   2.825
  771SOL    HW1 3212   1.151   4.722   2.845
  771SOL    HW2 3213   0.988   4.735   2.849
  772SOL     OW 3214   5.890   4.742   6.439
  772SOL    HW1 3215   5.951   4.667   6.464
  772SOL    HW2 3216   5.927   4.828   6.475
  773SOL     OW 3217   0.508   4.013   2.710
  773SOL    HW1 3218   0.569   4.084   2.748
  773SOL    HW2 3219   0.431   4.057   2.665
  774SOL     OW 3220   1.652   1.336   2.858
  774SOL    HW1 3221   1.731   1.290   2.898
  774SOL    HW2 3222   1.684   1.405   2.792
  775SOL     OW 3223   2.201   1.776   4.441
  775SOL    HW1 3224   2.268   1.705   4.417
  775SOL    HW2 3225   2.186   1.835   4.362
  776SOL     OW 3226   6.842   0.298   6.349
  776SOL    HW1 3227   6.819   0.366   6.419
  776SOL    HW2 3228   6.851   0.343   6.260
  777SOL     OW 3229   1.796   4.356   0.945
  777SOL    HW1 3230   1.715   4.301   0.961
  777SOL    HW2 3231   1.830   4.391   1.032
  778SOL     OW 3232   2.274   0.174   1.280
  778SOL    HW1 3233   2.308   0.113   1.210
  778SOL    HW2 3234   2.347   0.195   1.345
  779SOL     OW 3235   6.808   1.894   1.764
  779SOL    HW1 3236   6.864   1.963   1.718
  779SOL    HW2 3237   6.860   1.810   1.774
  780SOL     OW 3238   0.936   2.344   4.093
  780SOL    HW1 3239   0.953   2.316   4.188
  780SOL    HW2 3240   0.853   2.301   4.060
  781SOL     OW 3241   6.148   5.116   0.532
  781SOL    HW1 3242   6.158   5.083   0.626
  781SOL    HW2 3243   6.113   5.210   0.533
  782SOL     OW 3244   2.005   3.884   5.787
  782SOL    HW1 3245   1.931   3.946   5.810
  782SOL    HW2 3246   2.049   3.852   5.871
  783SOL     OW 3247   5.878   4.601   1.366
  783SOL    HW1 3248   5.845   4.613   1.273
  783SOL    HW2 3249   5.917   4.509   1.375
  784SOL     OW 3250   3.928   5.181   1.721
  784SOL    HW1 3251   3.903   5.178   1.818
  784SOL    HW2 3252   3.904   5.095   1.677
  785SOL     OW 3253   0.303   1.099   3.628
  785SOL    HW1 3254   0.382   1.146   3.669
  785SOL    HW2 3255   0.246   1.166   3.581
  786SOL     OW 3256   6.906   1.160   2.656
  786SOL    HW1 3257   6.927   1.212   2.739
  786SOL    HW2 3258   6.929   1.064   2.670
  787SOL     OW 3259   1.880   6.869   6.899
  787SOL    HW1 3260   1.831   6.798   6.949
  787SOL    HW2 3261   1.878   6.849   6.801
  788SOL     OW 3262   4.332   2.485   1.110
  788SOL    HW1 3263   4.359   2.415   1.176
  788SOL    HW2 3264   4.282   2.558   1.157
  789SOL     OW 3265   4.568   5.346   2.144
  789SOL    HW1 3266   4.470   5.329   2.154
  789SOL    HW2 3267   4.607   5.276   2.085
  790SOL     OW 3268   2.113   0.945   1.911
  790SOL    HW1 3269   2.121   1.028   1.965
  790SOL    HW2 3270   2.186   0.942   1.843
  791SOL     OW 3271   2.468   5.823   5.511
  791SOL    HW1 3272   2.504   5.863   5.427
  791SOL    HW2 3273   2.372   5.848   5.521
  792SOL     OW 3274   0.682   0.765   2.190
  792SOL    HW1 3275   0.584   0.748   2.199
  792SOL    HW2 3276   0.703   0.791   2.096
  793SOL     OW 3277   5.077   5.715   5.325
  793SOL    HW1 3278   5.143   5.643   5.347
  793SOL    HW2 3279   5.084   5.738   5.228
  794SOL     OW 3280   2.904   3.441   5.897
  794SOL    HW1 3281   2.918   3.527   5.848
  794SOL    HW2 3282   2.952   3.367   5.850
  795SOL     OW 3283   3.867   0.342   5.702
  795SOL    HW1 3284   3.906   0.297   5.783
  795SOL    HW2 3285   3.941   0.384   5.649
  796SOL     OW 3286   1.673   3.069   0.521
  796SOL    HW1 3287   1.763   3.104   0.494
  796SOL    HW2 3288   1.615   3.145   0.549
  797SOL     OW 3289   4.199   0.293   0.776
  797SOL    HW1 3290   4.279   0.352   0.767
  797SOL    HW2 3291   4.160   0.303   0.868
  798SOL     OW 3292   3.735   5.944   1.159
  798SOL    HW1 3293   3.748   5.956   1.257
  798SOL    HW2 3294   3.812   5.985   1.110
  799SOL     OW 3295   0.531   1.135   6.204
  799SOL    HW1 3296   0.576   1.119   6.116
  799SOL    HW2 3297   0.540   1.232   6.228
  800SOL     OW 3298   6.555   1.581   2.429
  800SOL    HW1 3299   6.609   1.554   2.509
  800SOL    HW2 3300   6.616   1.614   2.357
  801SOL     OW 3301   2.233   4.189   5.284
  801SOL    HW1 3302   2.301   4.260   5.303
  801SOL    HW2 3303   2.278   4.110   5.244
  802SOL     OW 3304   3.644   1.929   0.036
  802SOL    HW1 3305   3.546   1.932   0.017
  802SOL    HW2 3306   3.686   2.016   0.010
  803SOL     OW 3307   1.775   6.759   5.922
  803SOL    HW1 3308   1.799   6.768   5.825
  803SOL    HW2 3309   1.682   6.790   5.937
  804SOL     OW 3310   6.539   6.962   1.752
  804SOL    HW1 3311   6.633   6.936   1.728
  804SOL    HW2 3312   6.542   0.010   1.819
  805SOL     OW 3313   1.284   0.399   4.141
  805SOL    HW1 3314   1.313   0.427   4.050
  805SOL    HW2 3315   1.275   0.299   4.145
  806SOL     OW 3316   6.377   0.440   6.632
  806SOL    HW1 3317   6.288   0.469   6.667
  806SOL    HW2 3318   6.394   0.484   6.544
  807SOL     OW 3319   0.549   0.021   3.900
  807SOL    HW1 3320   0.458   7.009   3.916
  807SOL    HW2 3321   0.541   0.120   3.886
  808SOL     OW 3322   5.060   2.975   6.768
  808SOL    HW1 3323   5.127   3.005   6.835
  808SOL    HW2 3324   5.056   3.041   6.693
  809SOL     OW 3325   1.089   4.953   0.814
  809SOL    HW1 3326   1.033   4.956   0.897
  809SOL    HW2 3327   1.051   4.887   0.750
  810SOL     OW 3328   3.369   3.657   0.369
  810SOL    HW1 3329   3.271   3.678   0.361
  810SOL    HW2 3330   3.415   3.685   0.285
  811SOL     OW 3331   5.415   4.953   4.154
  811SOL    HW1 3332   5.414   5.023   4.225
  811SOL    HW2 3333   5.396   4.995   4.065
  812SOL     OW 3334   0.629   1.779   1.743
  812SOL    HW1 3335   0.542   1.751   1.701
  812SOL    HW2 3336   0.668   1.701   1.792
  813SOL     OW 3337   2.714   0.179   4.608
  813SOL    HW1 3338   2.742   0.262   4.657
  813SOL    HW2 3339   2.624   0.194   4.566
  814SOL     OW 3340   6.488   6.214   2.468
  814SOL    HW1 3341   6.492   6.163   2.382
  814SOL    HW2 3342   6.540   6.299   2.458
  815SOL     OW 3343   5.599   2.969   3.008
  815SOL    HW1 3344   5.675   2.942   2.949
  815SOL    HW2 3345   5.607   2.922   3.096
  816SOL     OW 3346   4.974   5.245   0.392
  816SOL    HW1 3347   5.002   5.196   0.310
  816SOL    HW2 3348   5.023   5.332   0.398
  817SOL     OW 3349   1.048   5.279   1.760
  817SOL    HW1 3350   0.984   5.276   1.836
  817SOL    HW2 3351   1.092   5.368   1.756
  818SOL     OW 3352   5.873   2.954   3.613
  818SOL    HW1 3353   5.792   2.943   3.670
  818SOL    HW2 3354   5.852   3.015   3.537
  819SOL     OW 3355   6.197   2.523   1.722
  819SOL    HW1 3356   6.198   2.569   1.811
  819SOL    HW2 3357   6.286   2.480   1.707
  820SOL     OW 3358   3.340   2.160   4.698
  820SOL    HW1 3359   3.269   2.091   4.712
  820SOL    HW2 3360   3.348   2.217   4.780
  821SOL     OW 3361   6.120   4.936   6.049
  821SOL    HW1 3362   6.063   4.869   6.097
  821SOL    HW2 3363   6.184   4.888   5.989
  822SOL     OW 3364   0.308   4.063   2.971
  822SOL    HW1 3365   0.353   4.002   2.906
  822SOL    HW2 3366   0.355   4.152   2.970
  823SOL     OW 3367   6.513   4.592   6.555
  823SOL    HW1 3368   6.481   4.565   6.464
  823SOL    HW2 3369   6.608   4.562   6.567
  824SOL     OW 3370   4.940   0.905   5.379
  824SOL    HW1 3371   5.036   0.889   5.403
  824SOL    HW2 3372   4.883   0.834   5.419
  825SOL     OW 3373   6.530   5.898   1.033
  825SOL    HW1 3374   6.602   5.924   1.098
  825SOL    HW2 3375   6.541   5.950   0.949
  826SOL     OW 3376   3.390   2.453   5.627
  826SOL    HW1 3377   3.386   2.452   5.527
  826SOL    HW2 3378   3.421   2.543   5.657
  827SOL     OW 3379   2.872   4.074   5.219
  827SOL    HW1 3380   2.950   4.134   5.238
  827SOL    HW2 3381   2.887   4.028   5.131
  828SOL     OW 3382   5.880   6.113   6.236
  828SOL    HW1 3383   5.946   6.039   6.251
  828SOL    HW2 3384   5.803   6.101   6.298
  829SOL     OW 3385   3.412   3.526   1.908
  829SOL    HW1 3386   3.495   3.499   1.956
  829SOL    HW2 3387   3.346   3.451   1.912
  830SOL     OW 3388   5.302   5.226   6.946
  830SOL    HW1 3389   5.250   5.143   6.930
  830SOL    HW2 3390   5.390   5.220   6.899
  831SOL     OW 3391   6.436   6.910   1.470
  831SOL    HW1 3392   6.468   6.936   1.561
  831SOL    HW2 3393   6.383   6.825   1.477
  832SOL     OW 3394   4.373   1.719   4.134
  832SOL    HW1 3395   4.463   1.702   4.094
  832SOL    HW2 3396   4.313   1.759   4.065
  833SOL     OW 3397   2.121   3.591   6.286
  833SOL    HW1 3398   2.062   3.559   6.211
  833SOL    HW2 3399   2.131   3.690   6.281
  834SOL     OW 3400   5.538   3.023   0.418
  834SOL    HW1 3401   5.505   3.113   0.389
  834SOL    HW2 3402   5.470   2.953   0.394
  835SOL     OW 3403   2.327   0.635   4.719
  835SOL    HW1 3404   2.405   0.595   4.767
  835SOL    HW2 3405   2.250   0.642   4.782
  836SOL     OW 3406   2.980   1.153   5.038
  836SOL    HW1 3407   2.944   1.168   4.946
  836SOL    HW2 3408   2.916   1.191   5.105
  837SOL     OW 3409   0.937   6.930   0.835
  837SOL    HW1 3410   0.939   6.857   0.903
  837SOL    HW2 3411   0.842   6.951   0.811
  838SOL     OW 3412   2.058   5.970   4.230
  838SOL    HW1 3413   2.112   6.051   4.206
  838SOL    HW2 3414   1.963   5.996   4.243
  839SOL     OW 3415   2.306   1.510   1.695
  839SOL    HW1 3416   2.355   1.494   1.610
  839SOL    HW2 3417   2.368   1.499   1.772
  840SOL     OW 3418   6.223   5.499   0.483
  840SOL    HW1 3419   6.288   5.433   0.446
  840SOL    HW2 3420   6.205   5.478   0.579
  841SOL     OW 3421   3.026   5.894   6.117
  841SOL    HW1 3422   3.045   5.952   6.038
  841SOL    HW2 3423   2.998   5.950   6.194
  842SOL     OW 3424   3.423   6.740   6.838
  842SOL    HW1 3425   3.429   6.656   6.783
  842SOL    HW2 3426   3.515   6.775   6.856
  843SOL     OW 3427   1.854   1.805   2.030
  843SOL    HW1 3428   1.788   1.880   2.036
  843SOL    HW2 3429   1.896   1.806   1.939
  844SOL     OW 3430   0.212   6.704   1.611
  844SOL    HW1 3431   0.231   6.607   1.628
  844SOL    HW2 3432   0.135   6.733   1.669
  845SOL     OW 3433   5.583   3.314   3.403
  845SOL    HW1 3434   5.583   3.297   3.304
  845SOL    HW2 3435   5.500   3.275   3.443
  846SOL     OW 3436   3.046   0.697   5.954
  846SOL    HW1 3437   2.966   0.684   6.013
  846SOL    HW2 3438   3.084   0.608   5.930
  847SOL     OW 3439   2.082   3.294   2.167
  847SOL    HW1 3440   2.128   3.356   2.103
  847SOL    HW2 3441   2.013   3.241   2.118
  848SOL     OW 3442   6.602   6.842   5.914
  848SOL    HW1 3443   6.612   6.857   6.013
  848SOL    HW2 3444   6.551   6.918   5.874
  849SOL     OW 3445   6.325   4.286   6.036
  849SOL    HW1 3446   6.408   4.336   6.061
  849SOL    HW2 3447   6.248   4.350   6.033
  850SOL     OW 3448   6.509   0.141   5.457
  850SOL    HW1 3449   6.470   0.120   5.546
  850SOL    HW2 3450   6.491   0.237   5.435
  851SOL     OW 3451   6.911   3.017   6.685
  851SOL    HW1 3452   6.948   3.068   6.608
  851SOL    HW2 3453   6.825   3.059   6.714
  852SOL     OW 3454   0.962   4.677   0.880
  852SOL    HW1 3455   0.927   4.590   0.846
  852SOL    HW2 3456   0.902   4.751   0.850
  853SOL     OW 3457   1.122   4.655   6.812
  853SOL    HW1 3458   1.148   4.748   6.839
  853SOL    HW2 3459   1.186   4.589   6.853
  854SOL     OW 3460   4.969   6.348   0.335
  854SOL    HW1 3461   4.971   6.304   0.245
  854SOL    HW2 3462   4.895   6.415   0.338
  855SOL     OW 3463   6.547   0.228   0.512
  855SOL    HW1 3464   6.524   0.199   0.419
  855SOL    HW2 3465   6.635   0.275   0.512
  856SOL     OW 3466   1.599   0.975   6.395
  856SOL    HW1 3467   1.560   1.036   6.326
  856SOL    HW2 3468   1.539   0.972   6.475
  857SOL     OW 3469   6.720   5.728   2.023
  857SOL    HW1 3470   6.690   5.714   1.929
  857SOL    HW2 3471   6.669   5.666   2.084
  858SOL     OW 3472   3.435   4.027   1.171
  858SOL    HW1 3473   3.517   3.971   1.159
  858SOL    HW2 3474   3.460   4.123   1.171
  859SOL     OW 3475   5.725   5.835   5.542
  859SOL    HW1 3476   5.650   5.801   5.598
  859SOL    HW2 3477   5.713   5.804   5.447
  860SOL     OW 3478   6.017   2.960   6.752
  860SOL    HW1 3479   5.976   2.869   6.744
  860SOL    HW2 3480   6.065   2.968   6.839
  861SOL     OW 3481   2.629   5.415   2.949
  861SOL    HW1 3482   2.683   5.332   2.967
  861SOL    HW2 3483   2.546   5.390   2.899
  862SOL     OW 3484   2.136   4.451   3.275
  862SOL    HW1 3485   2.188   4.385   3.328
  862SOL    HW2 3486   2.199   4.506   3.220
  863SOL     OW 3487   5.943   1.239   6.164
  863SOL    HW1 3488   5.845   1.227   6.179
  863SOL    HW2 3489   5.985   1.274   6.248
  864SOL     OW 3490   3.778   6.171   5.321
  864SOL    HW1 3491   3.746   6.238   5.388
  864SOL    HW2 3492   3.719   6.091   5.322
  865SOL     OW 3493   2.181   0.126   5.563
  865SOL    HW1 3494   2.170   0.191   5.638
  865SOL    HW2 3495   2.214   0.039   5.599
  866SOL     OW 3496   3.465   0.258   0.810
  866SOL    HW1 3497   3.388   0.307   0.850
  866SOL    HW2 3498   3.550   0.307   0.830
  867SOL     OW 3499   4.977   3.668   0.898
  867SOL    HW1 3500   5.012   3.654   0.805
  867SOL    HW2 3501   4.877   3.663   0.897
  868SOL     OW 3502   0.240   1.458   2.141
  868SOL    HW1 3503   0.199   1.503   2.221
  868SOL    HW2 3504   0.307   1.390   2.172
  869SOL     OW 3505   6.507   4.271   3.494
  869SOL    HW1 3506   6.461   4.349   3.535
  869SOL    HW2 3507   6.507   4.194   3.558
  870SOL     OW 3508   4.716   4.805   1.266
  870SOL    HW1 3509   4.778   4.737   1.229
  870SOL    HW2 3510   4.689   4.778   1.359
  871SOL     OW 3511   5.475   2.829   3.818
  871SOL    HW1 3512   5.569   2.851   3.845
  871SOL    HW2 3513   5.457   2.865   3.726
  872SOL     OW 3514   6.679   2.483   4.304
  872SOL    HW1 3515   6.773   2.488   4.271
  872SOL    HW2 3516   6.651   2.573   4.338
  873SOL     OW 3517   4.788   5.629   5.412
  873SOL    HW1 3518   4.762   5.534   5.393
  873SOL    HW2 3519   4.871   5.651   5.361
  874SOL     OW 3520   6.685   4.093   0.389
  874SOL    HW1 3521   6.708   4.122   0.296
  874SOL    HW2 3522   6.768   4.063   0.436
  875SOL     OW 3523   4.919   5.034   0.927
  875SOL    HW1 3524   4.834   5.011   0.879
  875SOL    HW2 3525   4.897   5.078   1.014
  876SOL     OW 3526   0.496   5.607   1.851
  876SOL    HW1 3527   0.492   5.587   1.949
  876SOL    HW2 3528   0.558   5.683   1.835
  877SOL     OW 3529   3.260   4.484   5.892
  877SOL    HW1 3530   3.197   4.419   5.933
  877SOL    HW2 3531   3.348   4.482   5.941
  878SOL     OW 3532   4.863   6.738   4.314
  878SOL    HW1 3533   4.923   6.661   4.337
  878SOL    HW2 3534   4.842   6.737   4.217
  879SOL     OW 3535   3.856   0.280   1.616
  879SOL    HW1 3536   3.951   0.303   1.594
  879SOL    HW2 3537   3.849   0.183   1.640
  880SOL     OW 3538   3.319   3.423   3.796
  880SOL    HW1 3539   3.290   3.372   3.714
  880SOL    HW2 3540   3.400   3.477   3.774
  881SOL     OW 3541   5.420   3.335   5.168
  881SOL    HW1 3542   5.364   3.294   5.097
  881SOL    HW2 3543   5.378   3.420   5.199
  882SOL     OW 3544   1.330   2.566   4.050
  882SOL    HW1 3545   1.294   2.646   4.003
  882SOL    HW2 3546   1.323   2.486   3.991
  883SOL     OW 3547   3.162   1.278   1.236
  883SOL    HW1 3548   3.191   1.183   1.222
  883SOL    HW2 3549   3.242   1.338   1.230
  884SOL     OW 3550   6.017   4.202   5.605
  884SOL    HW1 3551   6.060   4.177   5.518
  884SOL    HW2 3552   6.079   4.179   5.680
  885SOL     OW 3553   3.271   1.244   4.816
  885SOL    HW1 3554   3.354   1.281   4.775
  885SOL    HW2 3555   3.294   1.164   4.871
  886SOL     OW 3556   3.401   0.398   0.167
  886SOL    HW1 3557   3.396   0.416   0.069
  886SOL    HW2 3558   3.374   0.481   0.217
  887SOL     OW 3559   3.996   6.630   3.619
  887SOL    HW1 3560   4.019   6.548   3.672
  887SOL    HW2 3561   4.073   6.693   3.621
  888SOL     OW 3562   6.805   6.036   3.591
  888SOL    HW1 3563   6.728   5.985   3.555
  888SOL    HW2 3564   6.890   5.997   3.555
  889SOL     OW 3565   7.015   2.301   0.381
  889SOL    HW1 3566   7.005   2.305   0.282
  889SOL    HW2 3567   0.048   2.376   0.412
  890SOL     OW 3568   1.599   4.839   2.789
  890SOL    HW1 3569   1.590   4.819   2.886
  890SOL    HW2 3570   1.559   4.764   2.736
  891SOL     OW 3571   5.793   3.909   1.492
  891SOL    HW1 3572   5.781   3.923   1.590
  891SOL    HW2 3573   5.723   3.961   1.442
  892SOL     OW 3574   2.911   3.929   4.999
  892SOL    HW1 3575   2.974   3.945   4.923
  892SOL    HW2 3576   2.822   3.903   4.963
  893SOL     OW 3577   2.130   6.146   3.478
  893SOL    HW1 3578   2.122   6.100   3.390
  893SOL    HW2 3579   2.167   6.238   3.465
  894SOL     OW 3580   0.907   2.829   1.802
  894SOL    HW1 3581   0.973   2.771   1.850
  894SOL    HW2 3582   0.855   2.775   1.736
  895SOL     OW 3583   1.080   4.593   4.017
  895SOL    HW1 3584   1.051   4.514   3.962
  895SOL    HW2 3585   1.038   4.676   3.980
  896SOL     OW 3586   5.241   4.682   1.154
  896SOL    HW1 3587   5.266   4.589   1.125
  896SOL    HW2 3588   5.194   4.729   1.080
  897SOL     OW 3589   4.107   1.196   6.678
  897SOL    HW1 3590   4.135   1.285   6.712
  897SOL    HW2 3591   4.098   1.132   6.755
  898SOL     OW 3592   3.309   6.363   2.845
  898SOL    HW1 3593   3.300   6.435   2.914
  898SOL    HW2 3594   3.399   6.321   2.852
  899SOL     OW 3595   0.380   6.720   0.613
  899SOL    HW1 3596   0.398   6.661   0.534
  899SOL    HW2 3597   0.345   6.808   0.582
  900SOL     OW 3598   5.699   0.448   0.462
  900SOL    HW1 3599   5.782   0.418   0.508
  900SOL    HW2 3600   5.704   0.424   0.365
  901SOL     OW 3601   2.082   7.020   3.687
  901SOL    HW1 3602   2.079   6.932   3.734
  901SOL    HW2 3603   1.993   0.039   3.695
  902SOL     OW 3604   1.505   2.210   0.983
  902SOL    HW1 3605   1.559   2.186   1.064
  902SOL    HW2 3606   1.424   2.151   0.979
  903SOL     OW 3607   0.397   2.996   6.584
  903SOL    HW1 3608   0.411   3.081   6.535
  903SOL    HW2 3609   0.384   2.921   6.518
  904SOL     OW 3610   2.016   1.425   2.354
  904SOL    HW1 3611   1.962   1.367   2.293
  904SOL    HW2 3612   1.960   1.503   2.384
  905SOL     OW 3613   5.370   2.218   6.352
  905SOL    HW1 3614   5.338   2.242   6.261
  905SOL    HW2 3615   5.421   2.295   6.391
  906SOL     OW 3616   6.915   2.101   6.341
  906SOL    HW1 3617   6.908   2.009   6.302
  906SOL    HW2 3618   6.918   2.094   6.441
  907SOL     OW 3619   5.558   2.961   0.681
  907SOL    HW1 3620   5.561   3.017   0.598
  907SOL    HW2 3621   5.531   2.868   0.658
  908SOL     OW 3622   2.937   4.845   3.081
  908SOL    HW1 3623   2.930   4.755   3.037
  908SOL    HW2 3624   2.909   4.838   3.176
  909SOL     OW 3625   4.130   6.450   1.375
  909SOL    HW1 3626   4.073   6.394   1.435
  909SOL    HW2 3627   4.129   6.410   1.283
  910SOL     OW 3628   3.716   1.721   0.756
  910SOL    HW1 3629   3.747   1.782   0.683
  910SOL    HW2 3630   3.662   1.773   0.822
  911SOL     OW 3631   1.417   6.567   6.101
  911SOL    HW1 3632   1.464   6.525   6.023
  911SOL    HW2 3633   1.485   6.598   6.168
  912SOL     OW 3634   6.076   2.135   3.084
  912SOL    HW1 3635   6.132   2.217   3.100
  912SOL    HW2 3636   6.069   2.083   3.169
  913SOL     OW 3637   3.511   0.654   3.320
  913SOL    HW1 3638   3.598   0.617   3.353
  913SOL    HW2 3639   3.529   0.735   3.263
  914SOL     OW 3640   2.254   0.415   6.296
  914SOL    HW1 3641   2.283   0.330   6.252
  914SOL    HW2 3642   2.322   0.486   6.280
  915SOL     OW 3643   6.369   3.940   6.908
  915SOL    HW1 3644   6.325   3.851   6.892
  915SOL    HW2 3645   6.415   3.970   6.825
  916SOL     OW 3646   1.582   2.928   1.989
  916SOL    HW1 3647   1.648   2.873   2.040
  916SOL    HW2 3648   1.628   2.973   1.913
  917SOL     OW 3649   0.590   0.097   1.670
  917SOL    HW1 3650   0.629   0.168   1.728
  917SOL    HW2 3651   0.643   0.013   1.678
  918SOL     OW 3652   3.700   0.819   1.241
  918SOL    HW1 3653   3.631   0.830   1.313
  918SOL    HW2 3654   3.723   0.909   1.202
  919SOL     OW 3655   6.138   0.996   2.106
  919SOL    HW1 3656   6.237   1.013   2.110
  919SOL    HW2 3657   6.108   0.999   2.011
  920SOL     OW 3658   2.370   4.356   2.140
  920SOL    HW1 3659   2.420   4.277   2.106
  920SOL    HW2 3660   2.318   4.330   2.222
  921SOL     OW 3661   3.606   5.546   4.431
  921SOL    HW1 3662   3.530   5.496   4.390
  921SOL    HW2 3663   3.691   5.523   4.383
  922SOL     OW 3664   3.322   3.182   4.951
  922SOL    HW1 3665   3.383   3.103   4.953
  922SOL    HW2 3666   3.240   3.160   4.899
  923SOL     OW 3667   2.335   3.425   6.698
  923SOL    HW1 3668   2.286   3.481   6.765
  923SOL    HW2 3669   2.346   3.477   6.613
  924SOL     OW 3670   6.698   3.656   1.724
  924SOL    HW1 3671   6.662   3.692   1.638
  924SOL    HW2 3672   6.671   3.560   1.733
  925SOL     OW 3673   0.132   2.043   6.975
  925SOL    HW1 3674   0.068   1.967   6.961
  925SOL    HW2 3675   0.192   2.022   0.025
  926SOL     OW 3676   6.577   1.343   1.510
  926SOL    HW1 3677   6.676   1.331   1.517
  926SOL    HW2 3678   6.556   1.439   1.490
  927SOL     OW 3679   5.527   3.604   3.210
  927SOL    HW1 3680   5.535   3.643   3.302
  927SOL    HW2 3681   5.430   3.588   3.190
  928SOL     OW 3682   2.452   5.922   0.512
  928SOL    HW1 3683   2.534   5.867   0.500
  928SOL    HW2 3684   2.471   5.997   0.575
  929SOL     OW 3685   0.299   1.056   6.908
  929SOL    HW1 3686   0.227   1.125   6.902
  929SOL    HW2 3687   0.377   1.093   6.959
  930SOL     OW 3688   5.346   6.740   6.575
  930SOL    HW1 3689   5.394   6.796   6.643
  930SOL    HW2 3690   5.407   6.668   6.542
  931SOL     OW 3691   6.563   1.133   4.566
  931SOL    HW1 3692   6.580   1.229   4.589
  931SOL    HW2 3693   6.465   1.116   4.561
  932SOL     OW 3694   2.772   0.975   3.037
  932SOL    HW1 3695   2.838   1.050   3.029
  932SOL    HW2 3696   2.782   0.930   3.125
  933SOL     OW 3697   1.172   4.837   3.184
  933SOL    HW1 3698   1.166   4.861   3.088
  933SOL    HW2 3699   1.243   4.891   3.228
  934SOL     OW 3700   2.692   5.670   6.947
  934SOL    HW1 3701   2.720   5.699   0.012
  934SOL    HW2 3702   2.607   5.618   6.953
  935SOL     OW 3703   5.078   3.999   4.350
  935SOL    HW1 3704   5.090   4.043   4.440
  935SOL    HW2 3705   5.035   4.064   4.287
  936SOL     OW 3706   0.572   0.101   5.740
  936SOL    HW1 3707   0.610   0.194   5.748
  936SOL    HW2 3708   0.612   0.056   5.660
  937SOL     OW 3709   5.764   1.563   6.565
  937SOL    HW1 3710   5.792   1.606   6.650
  937SOL    HW2 3711   5.678   1.514   6.579
  938SOL     OW 3712   5.944   4.977   5.522
  938SOL    HW1 3713   5.900   5.059   5.558
  938SOL    HW2 3714   6.039   4.974   5.555
  939SOL     OW 3715   0.019   7.012   3.873
  939SOL    HW1 3716   6.953   6.999   3.839
  939SOL    HW2 3717   0.048   0.080   3.855
  940SOL     OW 3718   0.511   3.731   0.474
  940SOL    HW1 3719   0.545   3.748   0.381
  940SOL    HW2 3720   0.448   3.804   0.500
  941SOL     OW 3721   5.965   1.083   0.334
  941SOL    HW1 3722   5.969   1.170   0.383
  941SOL    HW2 3723   5.871   1.067   0.303
  942SOL     OW 3724   5.828   0.375   2.221
  942SOL    HW1 3725   5.744   0.412   2.180
  942SOL    HW2 3726   5.815   0.278   2.241
  943SOL     OW 3727   1.503   4.596   2.739
  943SOL    HW1 3728   1.552   4.514   2.768
  943SOL    HW2 3729   1.434   4.572   2.671
  944SOL     OW 3730   0.194   5.845   5.382
  944SOL    HW1 3731   0.148   5.864   5.295
  944SOL    HW2 3732   0.148   5.770   5.429
  945SOL     OW 3733   0.687   4.895   6.311
  945SOL    HW1 3734   0.642   4.862   6.228
  945SOL    HW2 3735   0.704   4.819   6.373
  946SOL     OW 3736   4.849   4.018   5.663
  946SOL    HW1 3737   4.785   4.006   5.586
  946SOL    HW2 3738   4.881   4.112   5.665
  947SOL     OW 3739   3.628   3.190   3.517
  947SOL    HW1 3740   3.593   3.187   3.611
  947SOL    HW2 3741   3.720   3.152   3.514
  948SOL     OW 3742   4.807   1.155   2.961
  948SOL    HW1 3743   4.770   1.110   3.042
  948SOL    HW2 3744   4.806   1.254   2.976
  949SOL     OW 3745   3.013   5.649   0.066
  949SOL    HW1 3746   3.024   5.738   0.022
  949SOL    HW2 3747   3.084   5.587   0.034
  950SOL     OW 3748   6.237   5.382   2.401
  950SOL    HW1 3749   6.212   5.292   2.364
  950SOL    HW2 3750   6.271   5.440   2.327
  951SOL     OW 3751   1.077   6.920   3.953
  951SOL    HW1 3752   1.085   6.967   4.041
  951SOL    HW2 3753   1.166   6.922   3.907
  952SOL     OW 3754   4.710   2.620   2.906
  952SOL    HW1 3755   4.661   2.562   2.841
  952SOL    HW2 3756   4.712   2.575   2.995
  953SOL     OW 3757   5.757   5.395   4.813
  953SOL    HW1 3758   5.756   5.296   4.828
  953SOL    HW2 3759   5.762   5.413   4.715
  954SOL     OW 3760   3.744   5.848   2.620
  954SOL    HW1 3761   3.658   5.854   2.569
  954SOL    HW2 3762   3.798   5.771   2.585
  955SOL     OW 3763   1.354   4.510   0.870
  955SOL    HW1 3764   1.267   4.554   0.846
  955SOL    HW2 3765   1.345   4.411   0.855
  956SOL     OW 3766   6.454   0.554   1.757
  956SOL    HW1 3767   6.547   0.549   1.720
  956SOL    HW2 3768   6.419   0.462   1.774
  957SOL     OW 3769   5.523   2.477   1.852
  957SOL    HW1 3770   5.452   2.543   1.876
  957SOL    HW2 3771   5.579   2.513   1.777
  958SOL     OW 3772   3.691   6.928   1.263
  958SOL    HW1 3773   3.716   7.013   1.309
  958SOL    HW2 3774   3.665   6.860   1.331
  959SOL     OW 3775   3.542   6.544   4.428
  959SOL    HW1 3776   3.554   6.470   4.495
  959SOL    HW2 3777   3.446   6.549   4.401
  960SOL     OW 3778   0.967   0.273   1.000
  960SOL    HW1 3779   1.024   0.220   0.938
  960SOL    HW2 3780   0.899   0.213   1.042
  961SOL     OW 3781   4.183   6.761   2.923
  961SOL    HW1 3782   4.135   6.682   2.884
  961SOL    HW2 3783   4.277   6.762   2.890
  962SOL     OW 3784   6.735   0.488   4.851
  962SOL    HW1 3785   6.808   0.513   4.786
  962SOL    HW2 3786   6.667   0.433   4.804
  963SOL     OW 3787   4.921   0.944   0.319
  963SOL    HW1 3788   4.935   0.868   0.256
  963SOL    HW2 3789   4.950   0.917   0.411
  964SOL     OW 3790   4.959   5.075   5.780
  964SOL    HW1 3791   5.044   5.023   5.784
  964SOL    HW2 3792   4.936   5.110   5.871
  965SOL     OW 3793   6.326   1.541   2.582
  965SOL    HW1 3794   6.256   1.486   2.535
  965SOL    HW2 3795   6.394   1.572   2.515
  966SOL     OW 3796   5.943   2.575   3.057
  966SOL    HW1 3797   5.857   2.625   3.047
  966SOL    HW2 3798   5.932   2.482   3.020
  967SOL     OW 3799   3.272   4.530   0.660
  967SOL    HW1 3800   3.198   4.534   0.593
  967SOL    HW2 3801   3.336   4.605   0.644
  968SOL     OW 3802   3.909   0.006   1.682
  968SOL    HW1 3803   3.995   0.019   1.634
  968SOL    HW2 3804   3.924   0.014   1.781
  969SOL     OW 3805   2.692   4.739   5.807
  969SOL    HW1 3806   2.738   4.825   5.783
  969SOL    HW2 3807   2.623   4.718   5.739
  970SOL     OW 3808   5.322   0.694   6.436
  970SOL    HW1 3809   5.383   0.666   6.362
  970SOL    HW2 3810   5.374   0.707   6.520
  971SOL     OW 3811   6.941   3.494   2.806
  971SOL    HW1 3812   6.990   3.557   2.866
  971SOL    HW2 3813   6.854   3.469   2.848
  972SOL     OW 3814   6.187   1.852   1.869
  972SOL    HW1 3815   6.098   1.890   1.894
  972SOL    HW2 3816   6.238   1.831   1.952
  973SOL     OW 3817   0.792   5.432   6.496
  973SOL    HW1 3818   0.817   5.400   6.587
  973SOL    HW2 3819   0.870   5.421   6.434
  974SOL     OW 3820   6.889   5.934   1.742
  974SOL    HW1 3821   6.927   5.852   1.699
  974SOL    HW2 3822   6.948   5.962   1.818
  975SOL     OW 3823   2.168   0.366   6.881
  975SOL    HW1 3824   2.205   0.373   6.973
  975SOL    HW2 3825   2.174   0.271   6.850
  976SOL     OW 3826   0.025   3.273   1.128
  976SOL    HW1 3827   0.109   3.328   1.123
  976SOL    HW2 3828   7.000   3.297   1.210
  977SOL     OW 3829   0.563   0.677   2.470
  977SOL    HW1 3830   0.609   0.745   2.413
  977SOL    HW2 3831   0.464   0.695   2.469
  978SOL     OW 3832   5.582   1.632   1.422
  978SOL    HW1 3833   5.597   1.677   1.510
  978SOL    HW2 3834   5.564   1.701   1.352
  979SOL     OW 3835   0.974   3.135   0.176
  979SOL    HW1 3836   0.881   3.160   0.203
  979SOL    HW2 3837   0.978   3.037   0.156
  980SOL     OW 3838   4.674   1.767   4.084
  980SOL    HW1 3839   4.660   1.823   4.166
  980SOL    HW2 3840   4.766   1.782   4.049
  981SOL     OW 3841   0.200   0.989   4.838
  981SOL    HW1 3842   0.215   1.003   4.936
  981SOL    HW2 3843   0.208   0.892   4.817
  982SOL     OW 3844   0.879   1.544   4.889
  982SOL    HW1 3845   0.874   1.642   4.910
  982SOL    HW2 3846   0.891   1.493   4.974
  983SOL     OW 3847   6.710   3.457   2.958
  983SOL    HW1 3848   6.692   3.360   2.937
  983SOL    HW2 3849   6.637   3.492   3.017
  984SOL     OW 3850   2.038   2.726   3.081
  984SOL    HW1 3851   2.135   2.736   3.104
  984SOL    HW2 3852   2.000   2.648   3.132
  985SOL     OW 3853   6.684   3.955   4.779
  985SOL    HW1 3854   6.598   3.976   4.827
  985SOL    HW2 3855   6.669   3.959   4.681
  986SOL     OW 3856   4.671   4.670   1.499
  986SOL    HW1 3857   4.674   4.579   1.459
  986SOL    HW2 3858   4.578   4.689   1.532
  987SOL     OW 3859   4.743   6.732   2.304
  987SOL    HW1 3860   4.782   6.702   2.391
  987SOL    HW2 3861   4.670   6.798   2.321
  988SOL     OW 3862   3.464   3.866   1.450
  988SOL    HW1 3863   3.404   3.927   1.398
  988SOL    HW2 3864   3.518   3.920   1.514
  989SOL     OW 3865   6.573   1.521   6.913
  989SOL    HW1 3866   6.496   1.506   6.975
  989SOL    HW2 3867   6.606   1.433   6.879
  990SOL     OW 3868   2.976   0.836   2.150
  990SOL    HW1 3869   2.888   0.790   2.167
  990SOL    HW2 3870   3.010   0.876   2.236
  991SOL     OW 3871   0.265   3.850   3.861
  991SOL    HW1 3872   0.363   3.830   3.863
  991SOL    HW2 3873   0.215   3.769   3.830
  992SOL     OW 3874   0.000   3.068   0.983
  992SOL    HW1 3875   6.939   3.021   0.991
  992SOL    HW2 3876   7.021   3.157   1.028
  993SOL     OW 3877   0.148   3.767   0.390
  993SOL    HW1 3878   0.197   3.756   0.477
  993SOL    HW2 3879   0.185   3.704   0.322
  994SOL     OW 3880   4.290   5.049   1.888
  994SOL    HW1 3881   4.359   4.981   1.914
  994SOL    HW2 3882   4.201   5.021   1.925
  995SOL     OW 3883   4.131   2.908   6.155
  995SOL    HW1 3884   4.228   2.892   6.175
  995SOL    HW2 3885   4.122   2.947   6.064
  996SOL     OW 3886   3.595   4.951   4.908
  996SOL    HW1 3887   3.647   4.931   4.991
  996SOL    HW2 3888   3.651   4.931   4.827
  997SOL     OW 3889   0.846   6.735   3.275
  997SOL    HW1 3890   0.883   6.643   3.261
  997SOL    HW2 3891   0.765   6.730   3.332
  998SOL     OW 3892   6.111   0.540   6.008
  998SOL    HW1 3893   6.036   0.583   6.059
  998SOL    HW2 3894   6.141   0.457   6.055
  999SOL     OW 3895   4.960   3.542   2.007
  999SOL    HW1 3896   5.053   3.578   2.022
  999SOL    HW2 3897   4.938   3.477   2.080
 1000SOL     OW 3898   4.190   1.459   1.637
 1000SOL    HW1 3899   4.244   1.515   1.701
 1000SOL    HW2 3900   4.097   1.497   1.630
 1001SOL     OW 3901   4.134   6.209   1.896
 1001SOL    HW1 3902   4.179   6.290   1.933
 1001SOL    HW2 3903   4.040   6.205   1.931
 1002SOL     OW 3904   5.487   2.363   1.456
 1002SOL    HW1 3905   5.388   2.358   1.445
 1002SOL    HW2 3906   5.529   2.280   1.419
 1003SOL     OW 3907   2.116   5.569   3.303
 1003SOL    HW1 3908   2.121   5.554   3.402
 1003SOL    HW2 3909   2.183   5.638   3.276
 1004SOL     OW 3910   0.136   0.817   2.317
 1004SOL    HW1 3911   0.057   0.875   2.340
 1004SOL    HW2 3912   0.188   0.797   2.400
 1005SOL     OW 3913   1.305   3.707   3.623
 1005SOL    HW1 3914   1.333   3.803   3.618
 1005SOL    HW2 3915   1.206   3.701   3.633
 1006SOL     OW 3916   1.389   4.030   0.057
 1006SOL    HW1 3917   1.354   4.065   6.996
 1006SOL    HW2 3918   1.317   3.978   0.103
 1007SOL     OW 3919   5.090   0.816   5.860
 1007SOL    HW1 3920   5.115   0.719   5.862
 1007SOL    HW2 3921   5.002   0.826   5.813
 1008SOL     OW 3922   0.213   2.533   5.029
 1008SOL    HW1 3923   0.239   2.459   4.966
 1008SOL    HW2 3924   0.116   2.552   5.020
 1009SOL     OW 3925   6.537   4.688   5.914
 1009SOL    HW1 3926   6.527   4.709   6.012
 1009SOL    HW2 3927   6.634   4.697   5.888
 1010SOL     OW 3928   2.790   3.054   1.443
 1010SOL    HW1 3929   2.757   3.088   1.531
 1010SOL    HW2 3930   2.749   3.107   1.369
 1011SOL     OW 3931   1.090   5.501   3.466
 1011SOL    HW1 3932   1.046   5.411   3.472
 1011SOL    HW2 3933   1.021   5.573   3.471
 1012SOL     OW 3934   0.109   6.577   2.156
 1012SOL    HW1 3935   0.052   6.606   2.078
 1012SOL    HW2 3936   0.205   6.585   2.132
 1013SOL     OW 3937   0.104   0.969   6.495
 1013SOL    HW1 3938   0.185   0.934   6.543
 1013SOL    HW2 3939   0.117   0.960   6.397
 1014SOL     OW 3940   0.220   3.755   4.966
 1014SOL    HW1 3941   0.203   3.844   5.008
 1014SOL    HW2 3942   0.184   3.756   4.872
 1015SOL     OW 3943   2.273   0.614   5.984
 1015SOL    HW1 3944   2.354   0.596   5.928
 1015SOL    HW2 3945   2.292   0.590   6.079
 1016SOL     OW 3946   4.679   4.935   0.780
 1016SOL    HW1 3947   4.717   4.842   0.771
 1016SOL    HW2 3948   4.580   4.929   0.792
 1017SOL     OW 3949   3.894   2.127   1.184
 1017SOL    HW1 3950   3.806   2.085   1.162
 1017SOL    HW2 3951   3.903   2.213   1.134
 1018SOL     OW 3952   0.644   4.473   4.045
 1018SOL    HW1 3953   0.604   4.385   4.019
 1018SOL    HW2 3954   0.702   4.461   4.126
 1019SOL     OW 3955   0.117   5.827   1.112
 1019SOL    HW1 3956   0.091   5.912   1.066
 1019SOL    HW2 3957   0.215   5.812   1.101
 1020SOL     OW 3958   6.478   1.581   1.442
 1020SOL    HW1 3959   6.422   1.538   1.371
 1020SOL    HW2 3960   6.422   1.646   1.493
 1021SOL     OW 3961   5.737   6.734   1.996
 1021SOL    HW1 3962   5.640   6.739   2.020
 1021SOL    HW2 3963   5.747   6.744   1.898
 1022SOL     OW 3964   2.945   4.918   5.665
 1022SOL    HW1 3965   3.032   4.969   5.662
 1022SOL    HW2 3966   2.944   4.850   5.592
 1023SOL     OW 3967   6.982   0.594   2.993
 1023SOL    HW1 3968   6.998   0.496   2.980
 1023SOL    HW2 3969   7.024   0.623   3.079
 1024SOL     OW 3970   0.464   1.584   3.814
 1024SOL    HW1 3971   0.415   1.629   3.889
 1024SOL    HW2 3972   0.425   1.493   3.798
 1025SOL     OW 3973   3.938   3.415   0.062
 1025SOL    HW1 3974   3.951   3.415   6.989
 1025SOL    HW2 3975   4.008   3.357   0.104
 1026SOL     OW 3976   2.672   3.421   1.813
 1026SOL    HW1 3977   2.695   3.491   1.745
 1026SOL    HW2 3978   2.584   3.443   1.855
 1027SOL     OW 3979   2.078   0.018   1.786
 1027SOL    HW1 3980   2.102   0.115   1.775
 1027SOL    HW2 3981   2.115   7.011   1.872
 1028SOL     OW 3982   1.286   0.156   2.688
 1028SOL    HW1 3983   1.237   0.141   2.602
 1028SOL    HW2 3984   1.298   0.255   2.702
 1029SOL     OW 3985   0.938   2.276   5.572
 1029SOL    HW1 3986   0.915   2.240   5.481
 1029SOL    HW2 3987   0.968   2.201   5.631
 1030SOL     OW 3988   3.210   3.422   1.628
 1030SOL    HW1 3989   3.177   3.431   1.534
 1030SOL    HW2 3990   3.245   3.329   1.643
 1031SOL     OW 3991   4.926   3.678   1.502
 1031SOL    HW1 3992   4.910   3.591   1.549
 1031SOL    HW2 3993   5.024   3.697   1.501
 1032SOL     OW 3994   2.048   1.367   5.072
 1032SOL    HW1 3995   2.000   1.432   5.130
 1032SOL    HW2 3996   1.984   1.326   5.007
 1033SOL     OW 3997   1.731   5.503   1.717
 1033SOL    HW1 3998   1.677   5.423   1.744
 1033SOL    HW2 3999   1.768   5.548   1.798
 1034SOL     OW 4000   1.440   5.871   4.362
 1034SOL    HW1 4001   1.363   5.849   4.301
 1034SOL    HW2 4002   1.508   5.923   4.311
 1035SOL     OW 4003   0.146   2.268   6.842
 1035SOL    HW1 4004   0.127   2.191   6.902
 1035SOL    HW2 4005   0.245   2.277   6.829
 1036SOL     OW 4006   3.809   0.880   1.976
 1036SOL    HW1 4007   3.828   0.923   2.064
 1036SOL    HW2 4008   3.892   0.877   1.921
 1037SOL     OW 4009   1.475   1.574   3.133
 1037SOL    HW1 4010   1.500   1.644   3.067
 1037SOL    HW2 4011   1.476   1.485   3.089
 1038SOL     OW 4012   1.675   1.489   5.228
 1038SOL    HW1 4013   1.733   1.409   5.215
 1038SOL    HW2 4014   1.622   1.507   5.145
 1039SOL     OW 4015   3.294   3.758   4.535
 1039SOL    HW1 4016   3.219   3.823   4.546
 1039SOL    HW2 4017   3.379   3.800   4.564
 1040SOL     OW 4018   4.958   1.073   2.220
 1040SOL    HW1 4019   4.895   1.008   2.262
 1040SOL    HW2 4020   5.029   1.023   2.170
 1041SOL     OW 4021   6.808   6.313   3.653
 1041SOL    HW1 4022   6.816   6.220   3.617
 1041SOL    HW2 4023   6.899   6.349   3.673
 1042SOL     OW 4024   4.513   5.467   2.780
 1042SOL    HW1 4025   4.425   5.490   2.739
 1042SOL    HW2 4026   4.510   5.486   2.879
 1043SOL     OW 4027   3.660   2.068   3.468
 1043SOL    HW1 4028   3.561   2.066   3.478
 1043SOL    HW2 4029   3.702   2.099   3.553
 1044SOL     OW 4030   5.945   5.288   2.229
 1044SOL    HW1 4031   5.973   5.298   2.134
 1044SOL    HW2 4032   6.014   5.235   2.278
 1045SOL     OW 4033   4.048   0.908   3.054
 1045SOL    HW1 4034   4.009   0.826   3.013
 1045SOL    HW2 4035   4.100   0.959   2.986
 1046SOL     OW 4036   2.033   2.105   6.961
 1046SOL    HW1 4037   1.979   2.049   6.898
 1046SOL    HW2 4038   2.127   2.112   6.927
 1047SOL     OW 4039   2.982   0.625   4.256
 1047SOL    HW1 4040   2.958   0.528   4.250
 1047SOL    HW2 4041   3.026   0.644   4.344
 1048SOL     OW 4042   3.116   5.719   2.009
 1048SOL    HW1 4043   3.157   5.711   2.100
 1048SOL    HW2 4044   3.189   5.730   1.941
 1049SOL     OW 4045   5.568   6.990   3.883
 1049SOL    HW1 4046   5.492   7.006   3.820
 1049SOL    HW2 4047   5.610   0.050   3.907
 1050SOL     OW 4048   3.790   5.605   2.158
 1050SOL    HW1 4049   3.719   5.546   2.196
 1050SOL    HW2 4050   3.878   5.583   2.198
 1051SOL     OW 4051   0.005   5.830   0.468
 1051SOL    HW1 4052   0.062   5.846   0.549
 1051SOL    HW2 4053   7.007   5.918   0.427
 1052SOL     OW 4054   4.814   0.690   5.490
 1052SOL    HW1 4055   4.889   0.626   5.476
 1052SOL    HW2 4056   4.736   0.662   5.435
 1053SOL     OW 4057   5.913   3.839   2.404
 1053SOL    HW1 4058   5.916   3.809   2.309
 1053SOL    HW2 4059   5.835   3.797   2.450
 1054SOL     OW 4060   2.758   3.666   0.686
 1054SOL    HW1 4061   2.702   3.634   0.610
 1054SOL    HW2 4062   2.837   3.606   0.697
 1055SOL     OW 4063   4.634   6.486   5.644
 1055SOL    HW1 4064   4.543   6.458   5.674
 1055SOL    HW2 4065   4.628   6.532   5.555
 1056SOL     OW 4066   1.289   3.805   0.189
 1056SOL    HW1 4067   1.228   3.738   0.231
 1056SOL    HW2 4068   1.381   3.795   0.227
 1057SOL     OW 4069   3.732   2.936   1.532
 1057SOL    HW1 4070   3.813   2.901   1.578
 1057SOL    HW2 4071   3.754   3.024   1.488
 1058SOL     OW 4072   5.069   2.726   4.022
 1058SOL    HW1 4073   5.144   2.686   3.969
 1058SOL    HW2 4074   5.004   2.655   4.048
 1059SOL     OW 4075   2.159   6.584   1.752
 1059SOL    HW1 4076   2.125   6.663   1.702
 1059SOL    HW2 4077   2.234   6.542   1.702
 1060SOL     OW 4078   0.174   4.730   4.304
 1060SOL    HW1 4079   0.198   4.633   4.313
 1060SOL    HW2 4080   0.238   4.785   4.358
 1061SOL     OW 4081   6.495   3.681   5.933
 1061SOL    HW1 4082   6.453   3.604   5.887
 1061SOL    HW2 4083   6.511   3.755   5.867
 1062SOL     OW 4084   4.462   5.570   6.152
 1062SOL    HW1 4085   4.364   5.590   6.160
 1062SOL    HW2 4086   4.496   5.607   6.065
 1063SOL     OW 4087   0.103   6.658   0.402
 1063SOL    HW1 4088   0.038   6.696   0.336
 1063SOL    HW2 4089   0.057   6.642   0.490
 1064SOL     OW 4090   1.656   4.280   2.003
 1064SOL    HW1 4091   1.725   4.222   1.959
 1064SOL    HW2 4092   1.565   4.245   1.980
 1065SOL     OW 4093   4.571   0.642   2.839
 1065SOL    HW1 4094   4.484   0.595   2.854
 1065SOL    HW2 4095   4.644   0.591   2.885
 1066SOL     OW 4096   4.219   6.669   2.567
 1066SOL    HW1 4097   4.299   6.624   2.607
 1066SOL    HW2 4098   4.177   6.608   2.500
 1067SOL     OW 4099   2.025   1.885   0.105
 1067SOL    HW1 4100   1.936   1.846   0.127
 1067SOL    HW2 4101   2.013   1.969   0.053
 1068SOL     OW 4102   6.230   3.912   1.472
 1068SOL    HW1 4103   6.308   3.969   1.498
 1068SOL    HW2 4104   6.204   3.854   1.548
 1069SOL     OW 4105   4.934   6.001   0.682
 1069SOL    HW1 4106   5.033   6.018   0.685
 1069SOL    HW2 4107   4.890   6.070   0.625
 1070SOL     OW 4108   1.664   6.890   2.138
 1070SOL    HW1 4109   1.738   6.909   2.203
 1070SOL    HW2 4110   1.610   6.973   2.124
 1071SOL     OW 4111   2.458   2.153   3.765
 1071SOL    HW1 4112   2.530   2.106   3.815
 1071SOL    HW2 4113   2.418   2.225   3.823
 1072SOL     OW 4114   2.611   1.281   1.126
 1072SOL    HW1 4115   2.698   1.306   1.167
 1072SOL    HW2 4116   2.541   1.347   1.153
 1073SOL     OW 4117   5.177   0.989   3.562
 1073SOL    HW1 4118   5.261   0.942   3.534
 1073SOL    HW2 4119   5.195   1.086   3.575
 1074SOL     OW 4120   2.664   5.173   1.838
 1074SOL    HW1 4121   2.610   5.246   1.879
 1074SOL    HW2 4122   2.712   5.208   1.758
 1075SOL     OW 4123   5.940   1.040   3.288
 1075SOL    HW1 4124   5.913   0.957   3.240
 1075SOL    HW2 4125   5.942   1.117   3.224
 1076SOL     OW 4126   0.701   2.470   5.863
 1076SOL    HW1 4127   0.760   2.511   5.794
 1076SOL    HW2 4128   0.684   2.374   5.841
 1077SOL     OW 4129   6.618   6.501   1.067
 1077SOL    HW1 4130   6.587   6.590   1.036
 1077SOL    HW2 4131   6.562   6.430   1.025
 1078SOL     OW 4132   6.515   0.813   3.002
 1078SOL    HW1 4133   6.615   0.812   2.995
 1078SOL    HW2 4134   6.475   0.793   2.913
 1079SOL     OW 4135   1.151   5.139   2.117
 1079SOL    HW1 4136   1.236   5.158   2.068
 1079SOL    HW2 4137   1.073   5.167   2.061
 1080SOL     OW 4138   2.509   5.674   3.749
 1080SOL    HW1 4139   2.586   5.632   3.701
 1080SOL    HW2 4140   2.531   5.681   3.847
 1081SOL     OW 4141   6.662   5.130   5.936
 1081SOL    HW1 4142   6.614   5.080   6.008
 1081SOL    HW2 4143   6.620   5.220   5.923
 1082SOL     OW 4144   5.933   1.814   5.869
 1082SOL    HW1 4145   5.888   1.879   5.808
 1082SOL    HW2 4146   5.891   1.819   5.960
 1083SOL     OW 4147   4.711   3.221   0.164
 1083SOL    HW1 4148   4.680   3.150   0.100
 1083SOL    HW2 4149   4.633   3.258   0.213
 1084SOL     OW 4150   6.427   0.054   5.974
 1084SOL    HW1 4151   6.399   0.012   6.060
 1084SOL    HW2 4152   6.352   0.111   5.939
 1085SOL     OW 4153   2.091   3.465   4.427
 1085SOL    HW1 4154   2.082   3.539   4.493
 1085SOL    HW2 4155   2.003   3.417   4.419
 1086SOL     OW 4156   6.763   4.858   0.238
 1086SOL    HW1 4157   6.827   4.929   0.268
 1086SOL    HW2 4158   6.669   4.888   0.256
 1087SOL     OW 4159   0.264   2.034   4.601
 1087SOL    HW1 4160   0.214   2.057   4.684
 1087SOL    HW2 4161   0.212   2.064   4.521
 1088SOL     OW 4162   0.238   4.761   3.424
 1088SOL    HW1 4163   0.237   4.674   3.475
 1088SOL    HW2 4164   0.239   4.742   3.326
 1089SOL     OW 4165   0.116   5.713   4.592
 1089SOL    HW1 4166   0.202   5.681   4.551
 1089SOL    HW2 4167   0.094   5.804   4.558
 1090SOL     OW 4168   3.993   2.134   2.509
 1090SOL    HW1 4169   4.045   2.049   2.515
 1090SOL    HW2 4170   3.977   2.156   2.413
 1091SOL     OW 4171   2.172   3.175   3.871
 1091SOL    HW1 4172   2.129   3.087   3.890
 1091SOL    HW2 4173   2.113   3.227   3.809
 1092SOL     OW 4174   1.057   5.187   0.679
 1092SOL    HW1 4175   1.059   5.087   0.689
 1092SOL    HW2 4176   0.998   5.226   0.750
 1093SOL     OW 4177   2.818   6.772   1.710
 1093SOL    HW1 4178   2.822   6.673   1.696
 1093SOL    HW2 4179   2.759   6.813   1.641
 1094SOL     OW 4180   0.692   6.634   2.359
 1094SOL    HW1 4181   0.596   6.627   2.385
 1094SOL    HW2 4182   0.730   6.543   2.344
 1095SOL     OW 4183   0.163   3.293   6.352
 1095SOL    HW1 4184   0.259   3.288   6.379
 1095SOL    HW2 4185   0.140   3.387   6.325
 1096SOL     OW 4186   3.523   4.443   1.464
 1096SOL    HW1 4187   3.465   4.442   1.383
 1096SOL    HW2 4188   3.471   4.408   1.543
 1097SOL     OW 4189   1.763   4.396   3.214
 1097SOL    HW1 4190   1.818   4.479   3.205
 1097SOL    HW2 4191   1.698   4.390   3.138
 1098SOL     OW 4192   5.790   3.291   6.141
 1098SOL    HW1 4193   5.888   3.277   6.126
 1098SOL    HW2 4194   5.749   3.205   6.173
 1099SOL     OW 4195   4.358   0.780   6.304
 1099SOL    HW1 4196   4.353   0.779   6.204
 1099SOL    HW2 4197   4.266   0.767   6.342
 1100SOL     OW 4198   4.072   1.206   4.511
 1100SOL    HW1 4199   4.100   1.277   4.576
 1100SOL    HW2 4200   4.117   1.221   4.423
 1101SOL     OW 4201   5.306   3.592   5.789
 1101SOL    HW1 4202   5.214   3.600   5.751
 1101SOL    HW2 4203   5.341   3.684   5.811
 1102SOL     OW 4204   1.990   1.061   4.714
 1102SOL    HW1 4205   2.052   1.069   4.637
 1102SOL    HW2 4206   1.911   1.005   4.689
 1103SOL     OW 4207   2.884   2.113   0.599
 1103SOL    HW1 4208   2.816   2.092   0.669
 1103SOL    HW2 4209   2.931   2.029   0.571
 1104SOL     OW 4210   1.462   3.935   3.728
 1104SOL    HW1 4211   1.494   4.010   3.786
 1104SOL    HW2 4212   1.491   3.951   3.633
 1105SOL     OW 4213   5.148   2.984   4.406
 1105SOL    HW1 4214   5.223   3.045   4.383
 1105SOL    HW2 4215   5.165   2.894   4.366
 1106SOL     OW 4216   0.999   2.128   1.595
 1106SOL    HW1 4217   1.071   2.167   1.652
 1106SOL    HW2 4218   0.987   2.031   1.617
 1107SOL     OW 4219   1.179   0.322   6.945
 1107SOL    HW1 4220   1.175   0.255   6.871
 1107SOL    HW2 4221   1.109   0.301   7.013
 1108SOL     OW 4222   3.352   6.577   4.907
 1108SOL    HW1 4223   3.396   6.504   4.961
 1108SOL    HW2 4224   3.421   6.645   4.882
 1109SOL     OW 4225   5.454   1.095   4.476
 1109SOL    HW1 4226   5.454   1.133   4.383
 1109SOL    HW2 4227   5.507   1.010   4.477
 1110SOL     OW 4228   4.311   1.786   2.979
 1110SOL    HW1 4229   4.373   1.857   3.013
 1110SOL    HW2 4230   4.270   1.738   3.056
 1111SOL     OW 4231   5.858   5.462   6.529
 1111SOL    HW1 4232   5.872   5.482   6.432
 1111SOL    HW2 4233   5.946   5.447   6.573
 1112SOL     OW 4234   5.894   0.912   3.025
 1112SOL    HW1 4235   5.908   0.961   2.939
 1112SOL    HW2 4236   5.943   0.825   3.023
 1113SOL     OW 4237   5.850   4.217   1.219
 1113SOL    HW1 4238   5.848   4.300   1.163
 1113SOL    HW2 4239   5.825   4.241   1.313
 1114SOL     OW 4240   3.154   1.850   6.064
 1114SOL    HW1 4241   3.250   1.866   6.042
 1114SOL    HW2 4242   3.101   1.843   5.979
 1115SOL     OW 4243   3.791   3.377   5.337
 1115SOL    HW1 4244   3.860   3.443   5.306
 1115SOL    HW2 4245   3.786   3.379   5.437
 1116SOL     OW 4246   5.551   0.319   6.820
 1116SOL    HW1 4247   5.570   0.416   6.806
 1116SOL    HW2 4248   5.636   0.270   6.836
 1117SOL     OW 4249   1.256   1.857   1.937
 1117SOL    HW1 4250   1.280   1.769   1.979
 1117SOL    HW2 4251   1.287   1.858   1.842
 1118SOL     OW 4252   2.461   4.941   0.284
 1118SOL    HW1 4253   2.520   5.021   0.281
 1118SOL    HW2 4254   2.369   4.968   0.312
 1119SOL     OW 4255   4.361   4.339   1.488
 1119SOL    HW1 4256   4.344   4.270   1.417
 1119SOL    HW2 4257   4.287   4.337   1.555
 1120SOL     OW 4258   6.595   5.761   1.320
 1120SOL    HW1 4259   6.668   5.697   1.301
 1120SOL    HW2 4260   6.510   5.711   1.339
 1121SOL     OW 4261   0.191   4.288   4.397
 1121SOL    HW1 4262   0.095   4.314   4.404
 1121SOL    HW2 4263   0.237   4.350   4.333
 1122SOL     OW 4264   6.056   2.958   2.312
 1122SOL    HW1 4265   5.991   2.919   2.377
 1122SOL    HW2 4266   6.135   2.898   2.304
 1123SOL     OW 4267   5.078   2.338   3.913
 1123SOL    HW1 4268   4.987   2.341   3.954
 1123SOL    HW2 4269   5.099   2.426   3.872
 1124SOL     OW 4270   7.010   4.493   5.785
 1124SOL    HW1 4271   0.033   4.408   5.800
 1124SOL    HW2 4272   0.040   4.571   5.811
 1125SOL     OW 4273   1.776   2.188   3.616
 1125SOL    HW1 4274   1.761   2.286   3.630
 1125SOL    HW2 4275   1.699   2.136   3.652
 1126SOL     OW 4276   6.389   5.891   5.814
 1126SOL    HW1 4277   6.378   5.802   5.858
 1126SOL    HW2 4278   6.341   5.892   5.727
 1127SOL     OW 4279   5.693   5.973   4.532
 1127SOL    HW1 4280   5.624   5.982   4.603
 1127SOL    HW2 4281   5.649   5.953   4.445
 1128SOL     OW 4282   6.296   1.414   4.684
 1128SOL    HW1 4283   6.278   1.507   4.714
 1128SOL    HW2 4284   6.313   1.413   4.585
 1129SOL     OW 4285   2.107   6.455   0.455
 1129SOL    HW1 4286   2.109   6.394   0.534
 1129SOL    HW2 4287   2.102   6.400   0.371
 1130SOL     OW 4288   2.058   4.642   1.057
 1130SOL    HW1 4289   2.149   4.664   1.093
 1130SOL    HW2 4290   2.018   4.569   1.111
 1131SOL     OW 4291   1.629   0.053   5.320
 1131SOL    HW1 4292   1.645   0.033   5.417
 1131SOL    HW2 4293   1.715   0.046   5.270
 1132SOL     OW 4294   4.181   0.278   3.109
 1132SOL    HW1 4295   4.150   0.367   3.074
 1132SOL    HW2 4296   4.269   0.255   3.068
 1133SOL     OW 4297   1.249   0.688   6.879
 1133SOL    HW1 4298   1.182   0.758   6.852
 1133SOL    HW2 4299   1.319   0.680   6.809
 1134SOL     OW 4300   5.015   0.066   3.230
 1134SOL    HW1 4301   4.999   0.155   3.273
 1134SOL    HW2 4302   5.049   0.079   3.137
 1135SOL     OW 4303   2.186   6.441   3.439
 1135SOL    HW1 4304   2.089   6.464   3.433
 1135SOL    HW2 4305   2.240   6.509   3.388
 1136SOL     OW 4306   4.128   4.795   2.647
 1136SOL    HW1 4307   4.036   4.781   2.608
 1136SOL    HW2 4308   4.135   4.888   2.683
 1137SOL     OW 4309   1.311   6.489   0.038
 1137SOL    HW1 4310   1.320   6.529   6.973
 1137SOL    HW2 4311   1.399   6.449   0.065
 1138SOL     OW 4312   0.012   1.559   5.138
 1138SOL    HW1 4313   6.972   1.487   5.157
 1138SOL    HW2 4314   0.095   1.544   5.191
 1139SOL     OW 4315   2.666   5.019   3.422
 1139SOL    HW1 4316   2.686   5.053   3.514
 1139SOL    HW2 4317   2.693   5.088   3.355
 1140SOL     OW 4318   3.029   0.545   2.311
 1140SOL    HW1 4319   2.943   0.571   2.268
 1140SOL    HW2 4320   3.093   0.514   2.241
 1141SOL     OW 4321   6.786   6.288   0.253
 1141SOL    HW1 4322   6.728   6.363   0.287
 1141SOL    HW2 4323   6.839   6.320   0.175
 1142SOL     OW 4324   3.447   0.592   4.261
 1142SOL    HW1 4325   3.528   0.647   4.285
 1142SOL    HW2 4326   3.366   0.632   4.303
 1143SOL     OW 4327   1.853   3.031   2.743
 1143SOL    HW1 4328   1.953   3.036   2.739
 1143SOL    HW2 4329   1.825   2.989   2.830
 1144SOL     OW 4330   5.890   4.430   3.826
 1144SOL    HW1 4331   5.848   4.359   3.883
 1144SOL    HW2 4332   5.988   4.435   3.847
 1145SOL     OW 4333   1.043   3.024   0.642
 1145SOL    HW1 4334   0.977   2.949   0.636
 1145SOL    HW2 4335   1.135   2.987   0.650
 1146SOL     OW 4336   0.880   1.662   2.155
 1146SOL    HW1 4337   0.890   1.568   2.187
 1146SOL    HW2 4338   0.787   1.675   2.119
 1147SOL     OW 4339   3.250   6.016   1.098
 1147SOL    HW1 4340   3.340   6.048   1.069
 1147SOL    HW2 4341   3.245   5.917   1.088
 1148SOL     OW 4342   4.438   6.100   1.004
 1148SOL    HW1 4343   4.466   6.165   1.074
 1148SOL    HW2 4344   4.404   6.017   1.048
 1149SOL     OW 4345   5.398   2.675   1.998
 1149SOL    HW1 4346   5.319   2.613   2.004
 1149SOL    HW2 4347   5.367   2.770   1.998
 1150SOL     OW 4348   0.615   3.733   0.205
 1150SOL    HW1 4349   0.570   3.705   0.120
 1150SOL    HW2 4350   0.693   3.673   0.222
 1151SOL     OW 4351   5.390   4.962   4.830
 1151SOL    HW1 4352   5.396   5.009   4.918
 1151SOL    HW2 4353   5.429   4.870   4.838
 1152SOL     OW 4354   5.469   6.576   6.866
 1152SOL    HW1 4355   5.533   6.587   6.789
 1152SOL    HW2 4356   5.384   6.624   6.846
 1153SOL     OW 4357   6.787   0.172   1.756
 1153SOL    HW1 4358   6.719   0.154   1.827
 1153SOL    HW2 4359   6.879   0.172   1.797
 1154SOL     OW 4360   0.508   4.400   0.499
 1154SOL    HW1 4361   0.442   4.363   0.565
 1154SOL    HW2 4362   0.554   4.325   0.452
 1155SOL     OW 4363   3.258   4.656   5.696
 1155SOL    HW1 4364   3.253   4.748   5.735
 1155SOL    HW2 4365   3.255   4.589   5.770
 1156SOL     OW 4366   4.634   2.260   4.961
 1156SOL    HW1 4367   4.658   2.333   5.026
 1156SOL    HW2 4368   4.716   2.212   4.933
 1157SOL     OW 4369   5.105   1.297   5.920
 1157SOL    HW1 4370   5.037   1.260   5.983
 1157SOL    HW2 4371   5.069   1.380   5.877
 1158SOL     OW 4372   6.341   5.302   4.881
 1158SOL    HW1 4373   6.326   5.395   4.914
 1158SOL    HW2 4374   6.366   5.243   4.959
 1159SOL     OW 4375   6.053   0.052   3.271
 1159SOL    HW1 4376   6.012   0.133   3.229
 1159SOL    HW2 4377   6.148   0.043   3.241
 1160SOL     OW 4378   4.660   5.300   1.550
 1160SOL    HW1 4379   4.674   5.360   1.629
 1160SOL    HW2 4380   4.631   5.210   1.583
 1161SOL     OW 4381   0.353   6.106   6.387
 1161SOL    HW1 4382   0.439   6.154   6.374
 1161SOL    HW2 4383   0.314   6.083   6.297
 1162SOL     OW 4384   2.345   2.377   6.003
 1162SOL    HW1 4385   2.307   2.441   6.070
 1162SOL    HW2 4386   2.404   2.428   5.939
 1163SOL     OW 4387   6.012   4.461   2.040
 1163SOL    HW1 4388   5.940   4.442   2.106
 1163SOL    HW2 4389   5.979   4.525   1.971
 1164SOL     OW 4390   4.512   2.042   4.895
 1164SOL    HW1 4391   4.538   2.133   4.929
 1164SOL    HW2 4392   4.580   1.975   4.924
 1165SOL     OW 4393   4.294   5.844   3.316
 1165SOL    HW1 4394   4.229   5.918   3.336
 1165SOL    HW2 4395   4.299   5.783   3.395
 1166SOL     OW 4396   2.548   5.961   7.023
 1166SOL    HW1 4397   2.565   6.021   0.074
 1166SOL    HW2 4398   2.453   5.972   6.992
 1167SOL     OW 4399   5.014   5.504   0.633
 1167SOL    HW1 4400   5.069   5.474   0.556
 1167SOL    HW2 4401   5.059   5.477   0.718
 1168SOL     OW 4402   6.016   2.523   1.528
 1168SOL    HW1 4403   6.070   2.530   1.612
 1168SOL    HW2 4404   5.928   2.481   1.548
 1169SOL     OW 4405   4.219   1.795   5.748
 1169SOL    HW1 4406   4.175   1.841   5.825
 1169SOL    HW2 4407   4.152   1.738   5.700
 1170SOL     OW 4408   5.625   0.356   3.564
 1170SOL    HW1 4409   5.702   0.421   3.564
 1170SOL    HW2 4410   5.647   0.279   3.505
 1171SOL     OW 4411   2.956   6.852   0.080
 1171SOL    HW1 4412   2.991   6.894   0.164
 1171SOL    HW2 4413   2.998   6.896   0.001
 1172SOL     OW 4414   5.420   4.226   0.633
 1172SOL    HW1 4415   5.483   4.192   0.563
 1172SOL    HW2 4416   5.437   4.177   0.718
 1173SOL     OW 4417   2.961   1.717   0.720
 1173SOL    HW1 4418   2.985   1.647   0.787
 1173SOL    HW2 4419   2.868   1.701   0.687
 1174SOL     OW 4420   3.697   3.786   1.999
 1174SOL    HW1 4421   3.699   3.792   2.099
 1174SOL    HW2 4422   3.727   3.873   1.960
 1175SOL     OW 4423   4.876   3.580   6.539
 1175SOL    HW1 4424   4.849   3.489   6.510
 1175SOL    HW2 4425   4.826   3.648   6.486
 1176SOL     OW 4426   5.190   3.690   0.308
 1176SOL    HW1 4427   5.286   3.668   0.321
 1176SOL    HW2 4428   5.172   3.707   0.211
 1177SOL     OW 4429   6.420   3.594   4.879
 1177SOL    HW1 4430   6.353   3.519   4.884
 1177SOL    HW2 4431   6.376   3.676   4.841
 1178SOL     OW 4432   2.812   4.315   0.266
 1178SOL    HW1 4433   2.746   4.297   0.339
 1178SOL    HW2 4434   2.870   4.235   0.253
 1179SOL     OW 4435   1.844   5.727   0.502
 1179SOL    HW1 4436   1.936   5.696   0.527
 1179SOL    HW2 4437   1.808   5.668   0.431
 1180SOL     OW 4438   2.575   6.521   3.950
 1180SOL    HW1 4439   2.501   6.508   3.883
 1180SOL    HW2 4440   2.629   6.602   3.925
 1181SOL     OW 4441   0.406   5.764   5.214
 1181SOL    HW1 4442   0.339   5.781   5.286
 1181SOL    HW2 4443   0.433   5.852   5.172
 1182SOL     OW 4444   4.619   5.246   3.497
 1182SOL    HW1 4445   4.625   5.220   3.400
 1182SOL    HW2 4446   4.591   5.342   3.503
 1183SOL     OW 4447   2.138   4.139   6.952
 1183SOL    HW1 4448   2.094   4.082   7.022
 1183SOL    HW2 4449   2.174   4.082   6.879
 1184SOL     OW 4450   6.991   1.071   4.730
 1184SOL    HW1 4451   6.971   1.022   4.646
 1184SOL    HW2 4452   0.055   1.045   4.763
 1185SOL     OW 4453   0.838   0.509   1.022
 1185SOL    HW1 4454   0.884   0.426   0.993
 1185SOL    HW2 4455   0.783   0.490   1.104
 1186SOL     OW 4456   5.538   6.245   6.026
 1186SOL    HW1 4457   5.470   6.213   6.092
 1186SOL    HW2 4458   5.524   6.343   6.009
 1187SOL     OW 4459   5.310   0.389   6.419
 1187SOL    HW1 4460   5.405   0.418   6.429
 1187SOL    HW2 4461   5.251   0.470   6.418
 1188SOL     OW 4462   3.495   5.995   5.990
 1188SOL    HW1 4463   3.463   6.077   6.038
 1188SOL    HW2 4464   3.483   5.916   6.050
 1189SOL     OW 4465   6.482   2.447   1.672
 1189SOL    HW1 4466   6.571   2.402   1.661
 1189SOL    HW2 4467   6.447   2.475   1.583
 1190SOL     OW 4468   2.966   5.324   3.258
 1190SOL    HW1 4469   2.958   5.422   3.272
 1190SOL    HW2 4470   3.021   5.306   3.176
 1191SOL     OW 4471   4.530   5.516   4.259
 1191SOL    HW1 4472   4.460   5.524   4.330
 1191SOL    HW2 4473   4.515   5.586   4.189
 1192SOL     OW 4474   5.009   5.042   1.897
 1192SOL    HW1 4475   5.065   5.114   1.939
 1192SOL    HW2 4476   4.982   4.976   1.967
 1193SOL     OW 4477   6.663   2.442   4.733
 1193SOL    HW1 4478   6.731   2.424   4.662
 1193SOL    HW2 4479   6.700   2.507   4.800
 1194SOL     OW 4480   6.054   6.795   1.681
 1194SOL    HW1 4481   6.119   6.845   1.739
 1194SOL    HW2 4482   5.961   6.810   1.715
 1195SOL     OW 4483   6.866   4.158   0.973
 1195SOL    HW1 4484   6.856   4.133   1.070
 1195SOL    HW2 4485   6.825   4.247   0.957
 1196SOL     OW 4486   0.072   5.407   3.181
 1196SOL    HW1 4487   0.040   5.313   3.194
 1196SOL    HW2 4488   7.020   5.466   3.159
 1197SOL     OW 4489   4.381   7.023   4.923
 1197SOL    HW1 4490   4.412   0.008   4.829
 1197SOL    HW2 4491   4.390   0.083   4.972
 1198SOL     OW 4492   1.290   2.985   2.749
 1198SOL    HW1 4493   1.231   3.001   2.828
 1198SOL    HW2 4494   1.233   2.980   2.666
 1199SOL     OW 4495   3.716   3.952   1.144
 1199SOL    HW1 4496   3.774   3.956   1.226
 1199SOL    HW2 4497   3.746   3.878   1.085
 1200SOL     OW 4498   3.421   3.656   4.190
 1200SOL    HW1 4499   3.387   3.650   4.284
 1200SOL    HW2 4500   3.479   3.737   4.180
 1201SOL     OW 4501   1.230   0.982   4.282
 1201SOL    HW1 4502   1.320   0.962   4.321
 1201SOL    HW2 4503   1.184   0.896   4.260
 1202SOL     OW 4504   0.531   5.654   5.910
 1202SOL    HW1 4505   0.462   5.650   5.983
 1202SOL    HW2 4506   0.611   5.704   5.944
 1203SOL     OW 4507   6.551   6.635   6.706
 1203SOL    HW1 4508   6.616   6.711   6.712
 1203SOL    HW2 4509   6.482   6.657   6.637
 1204SOL     OW 4510   4.177   0.372   1.697
 1204SOL    HW1 4511   4.203   0.277   1.715
 1204SOL    HW2 4512   4.257   0.431   1.712
 1205SOL     OW 4513   4.533   3.705   0.647
 1205SOL    HW1 4514   4.466   3.634   0.625
 1205SOL    HW2 4515   4.510   3.789   0.597
 1206SOL     OW 4516   2.543   2.544   5.578
 1206SOL    HW1 4517   2.456   2.495   5.585
 1206SOL    HW2 4518   2.606   2.493   5.520
 1207SOL     OW 4519   2.123   6.289   0.680
 1207SOL    HW1 4520   2.030   6.313   0.708
 1207SOL    HW2 4521   2.121   6.201   0.632
 1208SOL     OW 4522   3.339   3.627   0.907
 1208SOL    HW1 4523   3.376   3.669   0.991
 1208SOL    HW2 4524   3.240   3.639   0.905
 1209SOL     OW 4525   4.104   0.990   4.203
 1209SOL    HW1 4526   4.168   1.061   4.233
 1209SOL    HW2 4527   4.155   0.910   4.172
 1210SOL     OW 4528   2.645   0.434   3.464
 1210SOL    HW1 4529   2.555   0.428   3.508
 1210SOL    HW2 4530   2.690   0.345   3.468
 1211SOL     OW 4531   0.589   3.521   2.069
 1211SOL    HW1 4532   0.669   3.462   2.082
 1211SOL    HW2 4533   0.508   3.465   2.053
 1212SOL     OW 4534   6.296   0.269   0.599
 1212SOL    HW1 4535   6.277   0.366   0.583
 1212SOL    HW2 4536   6.385   0.245   0.560
 1213SOL     OW 4537   6.593   2.544   1.004
 1213SOL    HW1 4538   6.530   2.475   1.042
 1213SOL    HW2 4539   6.560   2.572   0.914
 1214SOL     OW 4540   0.793   2.918   6.628
 1214SOL    HW1 4541   0.878   2.906   6.680
 1214SOL    HW2 4542   0.803   2.874   6.539
 1215SOL     OW 4543   0.532   5.200   3.196
 1215SOL    HW1 4544   0.549   5.135   3.270
 1215SOL    HW2 4545   0.553   5.292   3.227
 1216SOL     OW 4546   5.259   0.331   1.417
 1216SOL    HW1 4547   5.312   0.413   1.396
 1216SOL    HW2 4548   5.264   0.267   1.341
 1217SOL     OW 4549   2.569   4.732   0.564
 1217SOL    HW1 4550   2.557   4.671   0.486
 1217SOL    HW2 4551   2.656   4.714   0.608
 1218SOL     OW 4552   2.176   4.192   4.575
 1218SOL    HW1 4553   2.233   4.246   4.638
 1218SOL    HW2 4554   2.181   4.096   4.600
 1219SOL     OW 4555   5.211   6.192   1.619
 1219SOL    HW1 4556   5.137   6.149   1.671
 1219SOL    HW2 4557   5.172   6.246   1.544
 1220SOL     OW 4558   0.556   4.693   3.125
 1220SOL    HW1 4559   0.512   4.704   3.036
 1220SOL    HW2 4560   0.566   4.595   3.145
 1221SOL     OW 4561   5.612   3.930   6.410
 1221SOL    HW1 4562   5.527   3.895   6.447
 1221SOL    HW2 4563   5.635   4.017   6.455
 1222SOL     OW 4564   6.516   0.725   6.773
 1222SOL    HW1 4565   6.593   0.664   6.753
 1222SOL    HW2 4566   6.465   0.690   6.851
 1223SOL     OW 4567   4.205   1.324   0.361
 1223SOL    HW1 4568   4.295   1.282   0.373
 1223SOL    HW2 4569   4.147   1.301   0.439
 1224SOL     OW 4570   3.539   5.351   0.323
 1224SOL    HW1 4571   3.594   5.330   0.404
 1224SOL    HW2 4572   3.448   5.311   0.333
 1225SOL     OW 4573   3.072   3.297   6.310
 1225SOL    HW1 4574   3.066   3.204   6.274
 1225SOL    HW2 4575   3.000   3.311   6.378
 1226SOL     OW 4576   2.974   5.130   1.513
 1226SOL    HW1 4577   3.002   5.079   1.594
 1226SOL    HW2 4578   2.897   5.191   1.536
 1227SOL     OW 4579   6.990   3.895   6.541
 1227SOL    HW1 4580   0.014   3.821   6.496
 1227SOL    HW2 4581   6.893   3.871   6.546
 1228SOL     OW 4582   3.279   2.086   6.579
 1228SOL    HW1 4583   3.292   2.172   6.530
 1228SOL    HW2 4584   3.333   2.087   6.663
 1229SOL     OW 4585   3.591   4.876   5.590
 1229SOL    HW1 4586   3.615   4.825   5.508
 1229SOL    HW2 4587   3.526   4.948   5.567
 1230SOL     OW 4588   4.668   0.053   2.879
 1230SOL    HW1 4589   4.738   7.014   2.906
 1230SOL    HW2 4590   4.712   0.136   2.843
 1231SOL     OW 4591   2.022   3.237   4.760
 1231SOL    HW1 4592   1.953   3.291   4.710
 1231SOL    HW2 4593   1.977   3.186   4.833
 1232SOL     OW 4594   0.613   2.099   4.921
 1232SOL    HW1 4595   0.573   2.029   4.861
 1232SOL    HW2 4596   0.680   2.056   4.982
 1233SOL     OW 4597   0.962   3.939   4.396
 1233SOL    HW1 4598   0.912   3.988   4.467
 1233SOL    HW2 4599   1.050   3.908   4.432
 1234SOL     OW 4600   6.457   4.079   4.856
 1234SOL    HW1 4601   6.484   4.166   4.816
 1234SOL    HW2 4602   6.446   4.089   4.955
 1235SOL     OW 4603   6.881   6.093   2.461
 1235SOL    HW1 4604   6.795   6.058   2.498
 1235SOL    HW2 4605   6.942   6.017   2.439
 1236SOL     OW 4606   4.959   0.997   0.986
 1236SOL    HW1 4607   4.879   0.984   0.928
 1236SOL    HW2 4608   5.039   1.017   0.930
 1237SOL     OW 4609   1.756   4.917   5.402
 1237SOL    HW1 4610   1.704   4.987   5.353
 1237SOL    HW2 4611   1.830   4.884   5.344
 1238SOL     OW 4612   2.356   0.739   0.310
 1238SOL    HW1 4613   2.409   0.675   0.254
 1238SOL    HW2 4614   2.259   0.730   0.288
 1239SOL     OW 4615   0.035   0.186   6.244
 1239SOL    HW1 4616   0.033   0.172   6.145
 1239SOL    HW2 4617   6.977   0.230   6.273
 1240SOL     OW 4618   5.300   6.197   1.891
 1240SOL    HW1 4619   5.281   6.190   1.793
 1240SOL    HW2 4620   5.327   6.291   1.912
 1241SOL     OW 4621   6.147   4.379   3.934
 1241SOL    HW1 4622   6.152   4.382   4.034
 1241SOL    HW2 4623   6.188   4.294   3.901
 1242SOL     OW 4624   6.657   3.134   1.666
 1242SOL    HW1 4625   6.630   3.176   1.579
 1242SOL    HW2 4626   6.600   3.054   1.683
 1243SOL     OW 4627   6.717   6.656   5.285
 1243SOL    HW1 4628   6.627   6.624   5.254
 1243SOL    HW2 4629   6.705   6.718   5.363
 1244SOL     OW 4630   6.569   6.966   4.549
 1244SOL    HW1 4631   6.648   7.021   4.523
 1244SOL    HW2 4632   6.494   7.026   4.578
 1245SOL     OW 4633   4.717   4.726   6.532
 1245SOL    HW1 4634   4.817   4.718   6.527
 1245SOL    HW2 4635   4.692   4.796   6.599
 1246SOL     OW 4636   2.522   6.381   1.208
 1246SOL    HW1 4637   2.541   6.308   1.274
 1246SOL    HW2 4638   2.436   6.426   1.233
 1247SOL     OW 4639   2.264   0.915   6.311
 1247SOL    HW1 4640   2.185   0.930   6.251
 1247SOL    HW2 4641   2.233   0.881   6.399
 1248SOL     OW 4642   1.985   6.945   4.695
 1248SOL    HW1 4643   1.945   6.925   4.784
 1248SOL    HW2 4644   1.922   7.004   4.644
 1249SOL     OW 4645   5.567   2.517   2.300
 1249SOL    HW1 4646   5.518   2.442   2.257
 1249SOL    HW2 4647   5.521   2.544   2.385
 1250SOL     OW 4648   6.509   5.300   4.482
 1250SOL    HW1 4649   6.539   5.288   4.387
 1250SOL    HW2 4650   6.410   5.309   4.485
 1251SOL     OW 4651   3.274   0.092   4.185
 1251SOL    HW1 4652   3.358   0.061   4.139
 1251SOL    HW2 4653   3.231   0.163   4.129
 1252SOL     OW 4654   3.804   3.098   5.318
 1252SOL    HW1 4655   3.834   3.193   5.321
 1252SOL    HW2 4656   3.779   3.074   5.224
 1253SOL     OW 4657   3.753   5.163   2.265
 1253SOL    HW1 4658   3.752   5.064   2.252
 1253SOL    HW2 4659   3.659   5.198   2.260
 1254SOL     OW 4660   0.638   2.688   2.456
 1254SOL    HW1 4661   0.716   2.678   2.394
 1254SOL    HW2 4662   0.670   2.680   2.550
 1255SOL     OW 4663   6.500   1.824   4.562
 1255SOL    HW1 4664   6.519   1.921   4.569
 1255SOL    HW2 4665   6.569   1.772   4.614
 1256SOL     OW 4666   6.570   6.403   3.645
 1256SOL    HW1 4667   6.542   6.424   3.739
 1256SOL    HW2 4668   6.660   6.358   3.646
 1257SOL     OW 4669   0.072   6.886   4.535
 1257SOL    HW1 4670   0.128   6.846   4.463
 1257SOL    HW2 4671   0.023   6.813   4.583
 1258SOL     OW 4672   1.680   5.380   3.653
 1258SOL    HW1 4673   1.705   5.464   3.606
 1258SOL    HW2 4674   1.733   5.371   3.737
 1259SOL     OW 4675   3.974   1.180   4.018
 1259SOL    HW1 4676   3.900   1.204   4.081
 1259SOL    HW2 4677   4.034   1.113   4.061
 1260SOL     OW 4678   1.502   1.307   6.682
 1260SOL    HW1 4679   1.450   1.391   6.691
 1260SOL    HW2 4680   1.565   1.298   6.759
 1261SOL     OW 4681   0.303   5.403   6.836
 1261SOL    HW1 4682   0.332   5.400   6.741
 1261SOL    HW2 4683   0.235   5.476   6.849
 1262SOL     OW 4684   4.878   4.646   1.119
 1262SOL    HW1 4685   4.958   4.682   1.071
 1262SOL    HW2 4686   4.895   4.551   1.145
 1263SOL     OW 4687   0.524   1.468   2.310
 1263SOL    HW1 4688   0.547   1.560   2.277
 1263SOL    HW2 4689   0.494   1.473   2.405
 1264SOL     OW 4690   0.307   4.497   6.749
 1264SOL    HW1 4691   0.286   4.507   6.847
 1264SOL    HW2 4692   0.348   4.582   6.716
 1265SOL     OW 4693   5.965   5.349   5.071
 1265SOL    HW1 4694   5.985   5.270   5.129
 1265SOL    HW2 4695   5.866   5.359   5.061
 1266SOL     OW 4696   0.392   0.928   4.631
 1266SOL    HW1 4697   0.434   0.888   4.713
 1266SOL    HW2 4698   0.386   1.027   4.642
 1267SOL     OW 4699   5.523   1.358   1.355
 1267SOL    HW1 4700   5.527   1.457   1.367
 1267SOL    HW2 4701   5.614   1.324   1.331
 1268SOL     OW 4702   3.097   2.976   0.188
 1268SOL    HW1 4703   3.154   2.905   0.228
 1268SOL    HW2 4704   3.031   2.935   0.126
 1269SOL     OW 4705   6.008   3.356   3.929
 1269SOL    HW1 4706   6.023   3.260   3.954
 1269SOL    HW2 4707   5.982   3.361   3.833
 1270SOL     OW 4708   2.212   4.675   2.839
 1270SOL    HW1 4709   2.183   4.674   2.744
 1270SOL    HW2 4710   2.134   4.695   2.898
 1271SOL     OW 4711   3.382   1.330   2.038
 1271SOL    HW1 4712   3.296   1.339   2.088
 1271SOL    HW2 4713   3.365   1.339   1.940
 1272SOL     OW 4714   5.730   5.092   0.108
 1272SOL    HW1 4715   5.638   5.077   0.145
 1272SOL    HW2 4716   5.753   5.018   0.045
 1273SOL     OW 4717   1.164   4.415   5.665
 1273SOL    HW1 4718   1.120   4.498   5.701
 1273SOL    HW2 4719   1.176   4.349   5.740
 1274SOL     OW 4720   0.208   4.610   0.554
 1274SOL    HW1 4721   0.210   4.551   0.473
 1274SOL    HW2 4722   0.251   4.698   0.533
 1275SOL     OW 4723   3.702   1.332   3.520
 1275SOL    HW1 4724   3.744   1.243   3.499
 1275SOL    HW2 4725   3.605   1.319   3.542
 1276SOL     OW 4726   5.382   5.456   4.756
 1276SOL    HW1 4727   5.433   5.540   4.741
 1276SOL    HW2 4728   5.306   5.473   4.818
 1277SOL     OW 4729   1.757   5.359   6.288
 1277SOL    HW1 4730   1.840   5.369   6.343
 1277SOL    HW2 4731   1.678   5.392   6.340
 1278SOL     OW 4732   1.746   0.350   5.008
 1278SOL    HW1 4733   1.649   0.373   5.016
 1278SOL    HW2 4734   1.756   0.254   4.984
 1279SOL     OW 4735   2.118   4.566   6.624
 1279SOL    HW1 4736   2.074   4.591   6.537
 1279SOL    HW2 4737   2.150   4.471   6.618
 1280SOL     OW 4738   4.278   6.814   3.397
 1280SOL    HW1 4739   4.262   6.761   3.481
 1280SOL    HW2 4740   4.376   6.830   3.386
 1281SOL     OW 4741   2.452   6.288   3.483
 1281SOL    HW1 4742   2.419   6.234   3.406
 1281SOL    HW2 4743   2.375   6.338   3.524
 1282SOL     OW 4744   6.934   2.385   6.815
 1282SOL    HW1 4745   7.022   2.342   6.836
 1282SOL    HW2 4746   6.940   2.435   6.729
 1283SOL     OW 4747   6.654   2.888   5.505
 1283SOL    HW1 4748   6.678   2.836   5.423
 1283SOL    HW2 4749   6.624   2.825   5.577
 1284SOL     OW 4750   4.074   0.865   1.856
 1284SOL    HW1 4751   4.161   0.869   1.808
 1284SOL    HW2 4752   4.028   0.779   1.834
 1285SOL     OW 4753   4.493   1.205   5.337
 1285SOL    HW1 4754   4.580   1.157   5.341
 1285SOL    HW2 4755   4.487   1.270   5.413
 1286SOL     OW 4756   4.472   2.778   0.669
 1286SOL    HW1 4757   4.507   2.702   0.724
 1286SOL    HW2 4758   4.462   2.749   0.574
 1287SOL     OW 4759   5.073   4.084   5.267
 1287SOL    HW1 4760   5.115   4.046   5.349
 1287SOL    HW2 4761   5.018   4.164   5.292
 1288SOL     OW 4762   3.597   4.723   5.857
 1288SOL    HW1 4763   3.583   4.762   5.765
 1288SOL    HW2 4764   3.688   4.682   5.861
 1289SOL     OW 4765   0.666   0.302   1.823
 1289SOL    HW1 4766   0.722   0.348   1.892
 1289SOL    HW2 4767   0.650   0.365   1.746
 1290SOL     OW 4768   1.390   0.110   0.489
 1290SOL    HW1 4769   1.353   0.185   0.434
 1290SOL    HW2 4770   1.324   0.035   0.494
 1291SOL     OW 4771   0.007   4.475   3.964
 1291SOL    HW1 4772   0.084   4.533   3.935
 1291SOL    HW2 4773   0.042   4.393   4.009
 1292SOL     OW 4774   0.476   6.074   2.239
 1292SOL    HW1 4775   0.379   6.082   2.215
 1292SOL    HW2 4776   0.523   6.021   2.168
 1293SOL     OW 4777   2.544   2.425   6.699
 1293SOL    HW1 4778   2.538   2.524   6.715
 1293SOL    HW2 4779   2.527   2.407   6.602
 1294SOL     OW 4780   0.619   3.944   5.987
 1294SOL    HW1 4781   0.591   4.004   6.062
 1294SOL    HW2 4782   0.543   3.933   5.923
 1295SOL     OW 4783   0.367   2.945   0.820
 1295SOL    HW1 4784   0.399   2.968   0.728
 1295SOL    HW2 4785   0.299   2.872   0.815
 1296SOL     OW 4786   4.671   6.563   5.373
 1296SOL    HW1 4787   4.597   6.497   5.359
 1296SOL    HW2 4788   4.694   6.607   5.286
 1297SOL     OW 4789   1.193   6.619   1.299
 1297SOL    HW1 4790   1.286   6.584   1.301
 1297SOL    HW2 4791   1.183   6.685   1.225
 1298SOL     OW 4792   5.091   6.267   3.704
 1298SOL    HW1 4793   4.996   6.293   3.723
 1298SOL    HW2 4794   5.105   6.264   3.605
 1299SOL     OW 4795   2.358   2.450   3.671
 1299SOL    HW1 4796   2.438   2.484   3.721
 1299SOL    HW2 4797   2.371   2.466   3.574
 1300SOL     OW 4798   2.149   3.423   1.485
 1300SOL    HW1 4799   2.193   3.377   1.562
 1300SOL    HW2 4800   2.052   3.434   1.504
 1301SOL     OW 4801   0.681   6.956   2.094
 1301SOL    HW1 4802   0.764   6.910   2.061
 1301SOL    HW2 4803   0.701   7.003   2.180
 1302SOL     OW 4804   5.667   0.135   5.363
 1302SOL    HW1 4805   5.575   0.170   5.381
 1302SOL    HW2 4806   5.670   0.094   5.272
 1303SOL     OW 4807   3.726   0.499   1.495
 1303SOL    HW1 4808   3.792   0.563   1.454
 1303SOL    HW2 4809   3.775   0.427   1.543
 1304SOL     OW 4810   1.867   0.460   0.837
 1304SOL    HW1 4811   1.850   0.365   0.866
 1304SOL    HW2 4812   1.781   0.504   0.813
 1305SOL     OW 4813   5.770   4.661   0.120
 1305SOL    HW1 4814   5.690   4.661   0.180
 1305SOL    HW2 4815   5.823   4.577   0.136
 1306SOL     OW 4816   1.576   6.195   4.295
 1306SOL    HW1 4817   1.563   6.253   4.375
 1306SOL    HW2 4818   1.508   6.219   4.226
 1307SOL     OW 4819   2.138   3.798   4.282
 1307SOL    HW1 4820   2.143   3.750   4.195
 1307SOL    HW2 4821   2.155   3.895   4.268
 1308SOL     OW 4822   0.063   0.010   5.889
 1308SOL    HW1 4823   0.130   0.026   5.816
 1308SOL    HW2 4824   0.007   0.091   5.902
 1309SOL     OW 4825   5.465   4.545   5.319
 1309SOL    HW1 4826   5.418   4.631   5.300
 1309SOL    HW2 4827   5.402   4.469   5.302
 1310SOL     OW 4828   0.330   3.845   3.158
 1310SOL    HW1 4829   0.309   3.938   3.126
 1310SOL    HW2 4830   0.249   3.806   3.202
 1311SOL     OW 4831   6.626   6.437   6.384
 1311SOL    HW1 4832   6.652   6.366   6.319
 1311SOL    HW2 4833   6.700   6.504   6.391
 1312SOL     OW 4834   1.554   6.849   6.752
 1312SOL    HW1 4835   1.647   6.813   6.753
 1312SOL    HW2 4836   1.556   6.948   6.737
 1313SOL     OW 4837   6.733   5.082   2.380
 1313SOL    HW1 4838   6.728   4.984   2.360
 1313SOL    HW2 4839   6.696   5.100   2.471
 1314SOL     OW 4840   3.402   1.801   4.589
 1314SOL    HW1 4841   3.402   1.774   4.686
 1314SOL    HW2 4842   3.449   1.888   4.579
 1315SOL     OW 4843   6.847   1.069   3.049
 1315SOL    HW1 4844   6.838   1.167   3.035
 1315SOL    HW2 4845   6.766   1.034   3.095
 1316SOL     OW 4846   3.086   0.178   5.769
 1316SOL    HW1 4847   3.043   0.089   5.761
 1316SOL    HW2 4848   3.134   0.200   5.684
 1317SOL     OW 4849   1.590   4.381   5.070
 1317SOL    HW1 4850   1.506   4.361   5.119
 1317SOL    HW2 4851   1.623   4.299   5.024
 1318SOL     OW 4852   1.352   2.952   7.020
 1318SOL    HW1 4853   1.420   2.942   0.066
 1318SOL    HW2 4854   1.349   3.047   6.989
 1319SOL     OW 4855   0.179   5.086   0.363
 1319SOL    HW1 4856   0.153   5.108   0.457
 1319SOL    HW2 4857   0.243   5.154   0.329
 1320SOL     OW 4858   3.673   3.347   7.023
 1320SOL    HW1 4859   3.687   3.354   6.924
 1320SOL    HW2 4860   3.752   3.384   0.044
 1321SOL     OW 4861   5.073   2.470   6.543
 1321SOL    HW1 4862   5.136   2.405   6.585
 1321SOL    HW2 4863   5.102   2.563   6.566
 1322SOL     OW 4864   3.718   1.731   4.591
 1322SOL    HW1 4865   3.688   1.674   4.668
 1322SOL    HW2 4866   3.786   1.681   4.537
 1323SOL     OW 4867   2.932   0.232   6.876
 1323SOL    HW1 4868   2.887   0.228   6.965
 1323SOL    HW2 4869   2.874   0.188   6.807
 1324SOL     OW 4870   0.237   3.283   0.122
 1324SOL    HW1 4871   0.204   3.205   0.176
 1324SOL    HW2 4872   0.178   3.296   0.043
 1325SOL     OW 4873   4.060   6.212   5.389
 1325SOL    HW1 4874   3.971   6.186   5.351
 1325SOL    HW2 4875   4.115   6.253   5.317
 1326SOL     OW 4876   5.008   3.601   5.240
 1326SOL    HW1 4877   4.985   3.518   5.290
 1326SOL    HW2 4878   4.933   3.624   5.178
 1327SOL     OW 4879   1.251   6.270   0.621
 1327SOL    HW1 4880   1.152   6.265   0.634
 1327SOL    HW2 4881   1.298   6.254   0.708
 1328SOL     OW 4882   2.707   3.341   0.333
 1328SOL    HW1 4883   2.786   3.280   0.325
 1328SOL    HW2 4884   2.670   3.359   0.242
 1329SOL     OW 4885   0.327   2.230   2.557
 1329SOL    HW1 4886   0.270   2.293   2.504
 1329SOL    HW2 4887   0.410   2.209   2.505
 1330SOL     OW 4888   1.421   1.928   1.229
 1330SOL    HW1 4889   1.509   1.975   1.219
 1330SOL    HW2 4890   1.377   1.958   1.314
 1331SOL     OW 4891   4.661   2.783   3.244
 1331SOL    HW1 4892   4.683   2.838   3.325
 1331SOL    HW2 4893   4.678   2.836   3.161
 1332SOL     OW 4894   3.001   0.053   0.961
 1332SOL    HW1 4895   3.016   0.065   0.863
 1332SOL    HW2 4896   3.088   0.032   1.005
 1333SOL     OW 4897   2.926   3.579   3.572
 1333SOL    HW1 4898   2.897   3.639   3.497
 1333SOL    HW2 4899   3.025   3.568   3.570
 1334SOL     OW 4900   6.795   1.093   4.050
 1334SOL    HW1 4901   6.856   1.017   4.072
 1334SOL    HW2 4902   6.729   1.105   4.125
 1335SOL     OW 4903   1.867   1.650   2.435
 1335SOL    HW1 4904   1.882   1.746   2.412
 1335SOL    HW2 4905   1.771   1.627   2.422
 1336SOL     OW 4906   3.389   1.747   4.852
 1336SOL    HW1 4907   3.350   1.670   4.903
 1336SOL    HW2 4908   3.461   1.790   4.907
 1337SOL     OW 4909   0.970   1.203   2.861
 1337SOL    HW1 4910   1.054   1.177   2.909
 1337SOL    HW2 4911   0.949   1.299   2.881
 1338SOL     OW 4912   6.861   3.158   4.324
 1338SOL    HW1 4913   6.918   3.144   4.404
 1338SOL    HW2 4914   6.770   3.188   4.353
 1339SOL     OW 4915   6.058   1.640   0.463
 1339SOL    HW1 4916   5.993   1.691   0.406
 1339SOL    HW2 4917   6.150   1.673   0.444
 1340SOL     OW 4918   5.588   1.250   2.803
 1340SOL    HW1 4919   5.565   1.342   2.770
 1340SOL    HW2 4920   5.540   1.182   2.748
 1341SOL     OW 4921   4.663   6.689   6.828
 1341SOL    HW1 4922   4.686   6.759   6.761
 1341SOL    HW2 4923   4.609   6.730   6.902
 1342SOL     OW 4924   2.826   5.674   6.301
 1342SOL    HW1 4925   2.747   5.657   6.360
 1342SOL    HW2 4926   2.820   5.616   6.220
 1343SOL     OW 4927   5.495   5.817   2.689
 1343SOL    HW1 4928   5.426   5.887   2.705
 1343SOL    HW2 4929   5.586   5.858   2.698
 1344SOL     OW 4930   0.728   6.378   4.035
 1344SOL    HW1 4931   0.822   6.409   4.025
 1344SOL    HW2 4932   0.677   6.397   3.951
 1345SOL     OW 4933   0.679   5.147   2.088
 1345SOL    HW1 4934   0.751   5.106   2.144
 1345SOL    HW2 4935   0.607   5.183   2.147
 1346SOL     OW 4936   2.058   5.092   5.652
 1346SOL    HW1 4937   2.122   5.031   5.699
 1346SOL    HW2 4938   2.108   5.169   5.613
 1347SOL     OW 4939   0.349   6.498   6.714
 1347SOL    HW1 4940   0.255   6.463   6.706
 1347SOL    HW2 4941   0.390   6.501   6.623
 1348SOL     OW 4942   6.784   6.368   5.011
 1348SOL    HW1 4943   6.865   6.348   5.066
 1348SOL    HW2 4944   6.717   6.295   5.022
 1349SOL     OW 4945   5.573   2.924   4.663
 1349SOL    HW1 4946   5.654   2.915   4.721
 1349SOL    HW2 4947   5.599   2.957   4.573
 1350SOL     OW 4948   5.354   5.029   5.163
 1350SOL    HW1 4949   5.450   5.053   5.163
 1350SOL    HW2 4950   5.326   5.002   5.256
 1351SOL     OW 4951   5.280   2.627   3.878
 1351SOL    HW1 4952   5.342   2.704   3.867
 1351SOL    HW2 4953   5.288   2.566   3.799
 1352SOL     OW 4954   6.366   6.089   4.825
 1352SOL    HW1 4955   6.320   6.177   4.812
 1352SOL    HW2 4956   6.438   6.078   4.756
 1353SOL     OW 4957   0.794   2.516   0.508
 1353SOL    HW1 4958   0.699   2.544   0.506
 1353SOL    HW2 4959   0.803   2.430   0.560
 1354SOL     OW 4960   6.880   4.718   1.817
 1354SOL    HW1 4961   6.846   4.736   1.725
 1354SOL    HW2 4962   6.912   4.623   1.822
 1355SOL     OW 4963   6.483   4.181   4.512
 1355SOL    HW1 4964   6.392   4.148   4.541
 1355SOL    HW2 4965   6.524   4.233   4.587
 1356SOL     OW 4966   3.554   3.283   2.052
 1356SOL    HW1 4967   3.512   3.330   2.130
 1356SOL    HW2 4968   3.642   3.245   2.080
 1357SOL     OW 4969   0.138   4.575   6.516
 1357SOL    HW1 4970   0.196   4.655   6.533
 1357SOL    HW2 4971   0.166   4.501   6.577
 1358SOL     OW 4972   6.169   6.475   6.598
 1358SOL    HW1 4973   6.189   6.396   6.656
 1358SOL    HW2 4974   6.095   6.528   6.639
 1359SOL     OW 4975   6.018   4.542   2.646
 1359SOL    HW1 4976   6.004   4.453   2.689
 1359SOL    HW2 4977   5.949   4.606   2.681
 1360SOL     OW 4978   2.483   3.699   0.288
 1360SOL    HW1 4979   2.525   3.627   0.343
 1360SOL    HW2 4980   2.454   3.774   0.348
 1361SOL     OW 4981   6.477   4.914   5.284
 1361SOL    HW1 4982   6.527   4.911   5.198
 1361SOL    HW2 4983   6.476   4.822   5.325
 1362SOL     OW 4984   3.925   3.526   3.071
 1362SOL    HW1 4985   3.934   3.625   3.065
 1362SOL    HW2 4986   3.990   3.482   3.010
 1363SOL     OW 4987   0.492   5.419   4.744
 1363SOL    HW1 4988   0.539   5.355   4.805
 1363SOL    HW2 4989   0.412   5.374   4.704
 1364SOL     OW 4990   5.636   4.326   0.180
 1364SOL    HW1 4991   5.726   4.308   0.139
 1364SOL    HW2 4992   5.565   4.285   0.123
 1365SOL     OW 4993   0.565   4.317   6.395
 1365SOL    HW1 4994   0.548   4.242   6.458
 1365SOL    HW2 4995   0.484   4.334   6.339
 1366SOL     OW 4996   1.420   6.155   5.818
 1366SOL    HW1 4997   1.383   6.245   5.797
 1366SOL    HW2 4998   1.360   6.109   5.883
 1367SOL     OW 4999   2.534   0.161   2.219
 1367SOL    HW1 5000   2.565   0.066   2.225
 1367SOL    HW2 5001   2.588   0.217   2.280
 1368SOL     OW 5002   4.994   6.924   4.460
 1368SOL    HW1 5003   5.090   6.898   4.470
 1368SOL    HW2 5004   4.944   6.851   4.414
 1369SOL     OW 5005   1.806   6.464   3.082
 1369SOL    HW1 5006   1.800   6.423   2.991
 1369SOL    HW2 5007   1.824   6.392   3.150
 1370SOL     OW 5008   3.277   1.004   1.884
 1370SOL    HW1 5009   3.287   1.049   1.795
 1370SOL    HW2 5010   3.361   0.956   1.907
 1371SOL     OW 5011   4.598   1.593   4.373
 1371SOL    HW1 5012   4.528   1.664   4.379
 1371SOL    HW2 5013   4.688   1.632   4.391
 1372SOL     OW 5014   1.819   3.276   0.687
 1372SOL    HW1 5015   1.891   3.336   0.720
 1372SOL    HW2 5016   1.798   3.208   0.758
 1373SOL     OW 5017   6.542   4.375   0.141
 1373SOL    HW1 5018   6.524   4.395   0.237
 1373SOL    HW2 5019   6.533   4.459   0.087
 1374SOL     OW 5020   3.945   2.260   0.808
 1374SOL    HW1 5021   3.923   2.315   0.888
 1374SOL    HW2 5022   3.899   2.298   0.727
 1375SOL     OW 5023   6.975   5.111   6.168
 1375SOL    HW1 5024   6.914   5.190   6.156
 1375SOL    HW2 5025   6.931   5.030   6.130
 1376SOL     OW 5026   5.198   3.302   3.438
 1376SOL    HW1 5027   5.132   3.314   3.364
 1376SOL    HW2 5028   5.242   3.390   3.457
 1377SOL     OW 5029   6.841   3.833   5.645
 1377SOL    HW1 5030   6.829   3.821   5.547
 1377SOL    HW2 5031   6.925   3.884   5.663
 1378SOL     OW 5032   6.585   2.203   4.867
 1378SOL    HW1 5033   6.632   2.139   4.808
 1378SOL    HW2 5034   6.618   2.296   4.849
 1379SOL     OW 5035   3.205   6.291   2.499
 1379SOL    HW1 5036   3.276   6.357   2.476
 1379SOL    HW2 5037   3.224   6.204   2.454
 1380SOL     OW 5038   0.128   6.939   2.506
 1380SOL    HW1 5039   0.138   0.007   2.477
 1380SOL    HW2 5040   0.218   6.894   2.501
 1381SOL     OW 5041   5.756   2.683   0.080
 1381SOL    HW1 5042   5.832   2.619   0.066
 1381SOL    HW2 5043   5.670   2.636   0.061
 1382SOL     OW 5044   6.018   5.307   6.907
 1382SOL    HW1 5045   6.059   5.253   6.980
 1382SOL    HW2 5046   5.921   5.324   6.929
 1383SOL     OW 5047   1.210   0.916   0.285
 1383SOL    HW1 5048   1.197   0.817   0.277
 1383SOL    HW2 5049   1.292   0.935   0.338
 1384SOL     OW 5050   3.392   1.508   3.295
 1384SOL    HW1 5051   3.440   1.443   3.236
 1384SOL    HW2 5052   3.366   1.588   3.241
 1385SOL     OW 5053   0.021   2.816   2.896
 1385SOL    HW1 5054   7.001   2.852   2.816
 1385SOL    HW2 5055   0.106   2.772   2.869
 1386SOL     OW 5056   2.362   2.682   4.403
 1386SOL    HW1 5057   2.440   2.625   4.382
 1386SOL    HW2 5058   2.348   2.749   4.330
 1387SOL     OW 5059   3.508   1.027   3.776
 1387SOL    HW1 5060   3.455   0.948   3.806
 1387SOL    HW2 5061   3.601   1.020   3.812
 1388SOL     OW 5062   6.591   6.657   4.348
 1388SOL    HW1 5063   6.618   6.693   4.437
 1388SOL    HW2 5064   6.664   6.599   4.311
 1389SOL     OW 5065   0.362   0.856   3.739
 1389SOL    HW1 5066   0.302   0.821   3.811
 1389SOL    HW2 5067   0.328   0.944   3.707
 1390SOL     OW 5068   4.124   1.269   0.091
 1390SOL    HW1 5069   4.121   1.283   0.190
 1390SOL    HW2 5070   4.043   1.310   0.049
 1391SOL     OW 5071   5.970   1.601   5.633
 1391SOL    HW1 5072   5.890   1.603   5.574
 1391SOL    HW2 5073   5.957   1.665   5.709
 1392SOL     OW 5074   4.674   5.850   6.167
 1392SOL    HW1 5075   4.704   5.795   6.245
 1392SOL    HW2 5076   4.636   5.937   6.200
 1393SOL     OW 5077   6.279   2.136   6.513
 1393SOL    HW1 5078   6.345   2.137   6.588
 1393SOL    HW2 5079   6.192   2.099   6.546
 1394SOL     OW 5080   4.454   6.554   3.955
 1394SOL    HW1 5081   4.515   6.596   4.021
 1394SOL    HW2 5082   4.361   6.553   3.991
 1395SOL     OW 5083   0.136   3.560   2.421
 1395SOL    HW1 5084   0.127   3.461   2.413
 1395SOL    HW2 5085   0.167   3.584   2.513
 1396SOL     OW 5086   1.579   0.622   4.254
 1396SOL    HW1 5087   1.644   0.583   4.188
 1396SOL    HW2 5088   1.492   0.573   4.248
 1397SOL     OW 5089   0.478   6.032   5.128
 1397SOL    HW1 5090   0.575   6.043   5.151
 1397SOL    HW2 5091   0.466   6.041   5.029
 1398SOL     OW 5092   1.734   1.155   0.447
 1398SOL    HW1 5093   1.750   1.246   0.485
 1398SOL    HW2 5094   1.638   1.146   0.421
 1399SOL     OW 5095   4.238   0.023   0.705
 1399SOL    HW1 5096   4.207   0.118   0.697
 1399SOL    HW2 5097   4.194   6.995   0.635
 1400SOL     OW 5098   6.677   0.571   4.383
 1400SOL    HW1 5099   6.616   0.599   4.457
 1400SOL    HW2 5100   6.719   0.483   4.407
 1401SOL     OW 5101   5.612   0.141   4.338
 1401SOL    HW1 5102   5.565   0.212   4.286
 1401SOL    HW2 5103   5.594   0.152   4.435
 1402SOL     OW 5104   5.949   4.065   0.470
 1402SOL    HW1 5105   5.938   3.975   0.512
 1402SOL    HW2 5106   5.970   4.054   0.373
 1403SOL     OW 5107   3.408   3.303   0.589
 1403SOL    HW1 5108   3.408   3.402   0.601
 1403SOL    HW2 5109   3.314   3.269   0.588
 1404SOL     OW 5110   4.825   0.447   1.746
 1404SOL    HW1 5111   4.762   0.370   1.744
 1404SOL    HW2 5112   4.889   0.440   1.670
 1405SOL     OW 5113   1.537   3.744   1.053
 1405SOL    HW1 5114   1.497   3.659   1.088
 1405SOL    HW2 5115   1.486   3.822   1.091
 1406SOL     OW 5116   2.139   3.675   1.650
 1406SOL    HW1 5117   2.179   3.615   1.580
 1406SOL    HW2 5118   2.092   3.619   1.718
 1407SOL     OW 5119   0.537   3.426   1.628
 1407SOL    HW1 5120   0.555   3.507   1.683
 1407SOL    HW2 5121   0.522   3.452   1.533
 1408SOL     OW 5122   6.254   5.985   6.805
 1408SOL    HW1 5123   6.163   5.946   6.816
 1408SOL    HW2 5124   6.319   5.914   6.776
 1409SOL     OW 5125   6.819   1.897   5.797
 1409SOL    HW1 5126   6.807   1.822   5.863
 1409SOL    HW2 5127   6.761   1.880   5.717
 1410SOL     OW 5128   2.359   3.162   6.227
 1410SOL    HW1 5129   2.329   3.077   6.272
 1410SOL    HW2 5130   2.284   3.198   6.171
 1411SOL     OW 5131   3.177   6.342   0.002
 1411SOL    HW1 5132   3.190   6.320   0.099
 1411SOL    HW2 5133   3.138   6.433   7.020
 1412SOL     OW 5134   0.776   3.053   0.469
 1412SOL    HW1 5135   0.818   3.118   0.532
 1412SOL    HW2 5136   0.784   2.961   0.507
 1413SOL     OW 5137   2.138   2.017   5.306
 1413SOL    HW1 5138   2.075   1.957   5.356
 1413SOL    HW2 5139   2.183   1.966   5.233
 1414SOL     OW 5140   1.233   3.132   1.848
 1414SOL    HW1 5141   1.229   3.044   1.802
 1414SOL    HW2 5142   1.281   3.123   1.935
 1415SOL     OW 5143   2.471   2.141   4.391
 1415SOL    HW1 5144   2.396   2.169   4.452
 1415SOL    HW2 5145   2.558   2.149   4.439
 1416SOL     OW 5146   4.239   0.084   5.166
 1416SOL    HW1 5147   4.142   0.083   5.189
 1416SOL    HW2 5148   4.285   0.007   5.210
 1417SOL     OW 5149   2.794   2.932   5.871
 1417SOL    HW1 5150   2.796   3.000   5.797
 1417SOL    HW2 5151   2.888   2.912   5.900
 1418SOL     OW 5152   3.521   3.748   0.171
 1418SOL    HW1 5153   3.590   3.745   0.243
 1418SOL    HW2 5154   3.521   3.838   0.128
 1419SOL     OW 5155   1.763   4.809   4.119
 1419SOL    HW1 5156   1.799   4.872   4.188
 1419SOL    HW2 5157   1.664   4.810   4.121
 1420SOL     OW 5158   3.855   5.072   2.657
 1420SOL    HW1 5159   3.937   5.082   2.713
 1420SOL    HW2 5160   3.829   5.162   2.621
 1421SOL     OW 5161   1.225   4.674   4.702
 1421SOL    HW1 5162   1.308   4.620   4.694
 1421SOL    HW2 5163   1.242   4.753   4.761
 1422SOL     OW 5164   2.398   4.207   5.643
 1422SOL    HW1 5165   2.491   4.187   5.613
 1422SOL    HW2 5166   2.338   4.131   5.618
 1423SOL     OW 5167   4.361   1.763   4.413
 1423SOL    HW1 5168   4.274   1.763   4.462
 1423SOL    HW2 5169   4.344   1.750   4.315
 1424SOL     OW 5170   6.020   3.116   6.398
 1424SOL    HW1 5171   5.976   3.118   6.308
 1424SOL    HW2 5172   6.096   3.051   6.397
 1425SOL     OW 5173   3.662   6.144   4.826
 1425SOL    HW1 5174   3.590   6.083   4.860
 1425SOL    HW2 5175   3.621   6.215   4.769
 1426SOL     OW 5176   2.180   2.011   6.441
 1426SOL    HW1 5177   2.185   1.943   6.368
 1426SOL    HW2 5178   2.171   2.103   6.401
 1427SOL     OW 5179   0.984   0.495   3.320
 1427SOL    HW1 5180   1.007   0.475   3.416
 1427SOL    HW2 5181   1.068   0.511   3.268
 1428SOL     OW 5182   0.674   2.450   2.063
 1428SOL    HW1 5183   0.759   2.422   2.106
 1428SOL    HW2 5184   0.671   2.550   2.058
 1429SOL     OW 5185   6.330   1.489   0.018
 1429SOL    HW1 5186   6.292   1.577   7.014
 1429SOL    HW2 5187   6.299   1.470   0.111
 1430SOL     OW 5188   2.797   4.725   4.093
 1430SOL    HW1 5189   2.728   4.662   4.056
 1430SOL    HW2 5190   2.754   4.811   4.119
 1431SOL     OW 5191   2.890   1.816   5.945
 1431SOL    HW1 5192   2.917   1.720   5.954
 1431SOL    HW2 5193   2.883   1.840   5.848
 1432SOL     OW 5194   2.659   1.220   0.652
 1432SOL    HW1 5195   2.673   1.319   0.663
 1432SOL    HW2 5196   2.629   1.180   0.738
 1433SOL     OW 5197   3.031   0.588   3.198
 1433SOL    HW1 5198   3.068   0.680   3.210
 1433SOL    HW2 5199   2.964   0.570   3.270
 1434SOL     OW 5200   0.382   2.733   6.474
 1434SOL    HW1 5201   0.418   2.642   6.493
 1434SOL    HW2 5202   0.294   2.746   6.520
 1435SOL     OW 5203   1.040   6.808   3.550
 1435SOL    HW1 5204   1.045   6.762   3.462
 1435SOL    HW2 5205   0.957   6.864   3.555
 1436SOL     OW 5206   5.689   3.311   0.605
 1436SOL    HW1 5207   5.744   3.294   0.523
 1436SOL    HW2 5208   5.592   3.314   0.580
 1437SOL     OW 5209   4.632   1.379   6.216
 1437SOL    HW1 5210   4.669   1.286   6.211
 1437SOL    HW2 5211   4.700   1.439   6.259
 1438SOL     OW 5212   2.123   1.051   1.003
 1438SOL    HW1 5213   2.148   1.023   1.096
 1438SOL    HW2 5214   2.026   1.032   0.988
 1439SOL     OW 5215   0.250   5.891   0.576
 1439SOL    HW1 5216   0.317   5.828   0.615
 1439SOL    HW2 5217   0.256   5.888   0.476
 1440SOL     OW 5218   3.181   2.967   4.052
 1440SOL    HW1 5219   3.119   3.036   4.015
 1440SOL    HW2 5220   3.272   2.979   4.012
 1441SOL     OW 5221   6.485   3.545   3.656
 1441SOL    HW1 5222   6.447   3.633   3.628
 1441SOL    HW2 5223   6.414   3.475   3.648
 1442SOL     OW 5224   5.610   4.575   0.497
 1442SOL    HW1 5225   5.538   4.565   0.566
 1442SOL    HW2 5226   5.570   4.585   0.407
 1443SOL     OW 5227   0.848   0.692   3.670
 1443SOL    HW1 5228   0.771   0.731   3.721
 1443SOL    HW2 5229   0.890   0.620   3.726
 1444SOL     OW 5230   4.439   6.789   2.989
 1444SOL    HW1 5231   4.530   6.749   2.981
 1444SOL    HW2 5232   4.446   6.879   3.033
 1445SOL     OW 5233   0.742   2.404   1.413
 1445SOL    HW1 5234   0.827   2.370   1.373
 1445SOL    HW2 5235   0.716   2.490   1.369
 1446SOL     OW 5236   4.034   2.063   0.603
 1446SOL    HW1 5237   4.130   2.092   0.603
 1446SOL    HW2 5238   3.978   2.133   0.646
 1447SOL     OW 5239   6.599   0.989   5.184
 1447SOL    HW1 5240   6.625   1.011   5.090
 1447SOL    HW2 5241   6.500   0.999   5.195
 1448SOL     OW 5242   6.015   1.521   0.711
 1448SOL    HW1 5243   5.938   1.538   0.773
 1448SOL    HW2 5244   6.015   1.589   0.638
 1449SOL     OW 5245   6.203   6.184   0.637
 1449SOL    HW1 5246   6.184   6.131   0.554
 1449SOL    HW2 5247   6.184   6.128   0.718
 1450SOL     OW 5248   6.174   3.093   2.905
 1450SOL    HW1 5249   6.158   3.037   2.985
 1450SOL    HW2 5250   6.124   3.056   2.827
 1451SOL     OW 5251   2.463   6.774   2.907
 1451SOL    HW1 5252   2.420   6.853   2.863
 1451SOL    HW2 5253   2.558   6.796   2.930
 1452SOL     OW 5254   5.247   0.539   4.959
 1452SOL    HW1 5255   5.229   0.554   4.862
 1452SOL    HW2 5256   5.295   0.453   4.971
 1453SOL     OW 5257   5.367   3.704   4.812
 1453SOL    HW1 5258   5.422   3.622   4.828
 1453SOL    HW2 5259   5.383   3.770   4.885
 1454SOL     OW 5260   5.679   2.875   1.815
 1454SOL    HW1 5261   5.650   2.811   1.744
 1454SOL    HW2 5262   5.609   2.880   1.886
 1455SOL     OW 5263   0.963   0.440   1.815
 1455SOL    HW1 5264   1.057   0.465   1.790
 1455SOL    HW2 5265   0.920   0.517   1.861
 1456SOL     OW 5266   6.992   6.948   5.020
 1456SOL    HW1 5267   7.001   6.970   5.117
 1456SOL    HW2 5268   6.918   6.882   5.007
 1457SOL     OW 5269   1.358   7.027   3.524
 1457SOL    HW1 5270   1.422   0.016   3.449
 1457SOL    HW2 5271   1.265   0.022   3.493
 1458SOL     OW 5272   4.953   0.300   5.425
 1458SOL    HW1 5273   4.947   0.386   5.376
 1458SOL    HW2 5274   4.861   0.262   5.437
 1459SOL     OW 5275   2.702   6.165   6.693
 1459SOL    HW1 5276   2.753   6.094   6.741
 1459SOL    HW2 5277   2.702   6.249   6.747
 1460SOL     OW 5278   0.557   6.373   0.235
 1460SOL    HW1 5279   0.472   6.357   0.184
 1460SOL    HW2 5280   0.578   6.292   0.290
 1461SOL     OW 5281   6.355   4.694   3.322
 1461SOL    HW1 5282   6.334   4.790   3.343
 1461SOL    HW2 5283   6.324   4.673   3.230
 1462SOL     OW 5284   6.600   1.465   0.553
 1462SOL    HW1 5285   6.625   1.468   0.649
 1462SOL    HW2 5286   6.667   1.412   0.502
 1463SOL     OW 5287   0.454   0.233   5.446
 1463SOL    HW1 5288   0.472   0.136   5.428
 1463SOL    HW2 5289   0.369   0.260   5.401
 1464SOL     OW 5290   0.018   0.090   0.271
 1464SOL    HW1 5291   6.967   0.037   0.306
 1464SOL    HW2 5292   0.103   0.044   0.295
 1465SOL     OW 5293   0.452   1.020   3.230
 1465SOL    HW1 5294   0.435   0.973   3.144
 1465SOL    HW2 5295   0.550   1.035   3.241
 1466SOL     OW 5296   6.927   6.356   2.539
 1466SOL    HW1 5297   6.973   6.423   2.481
 1466SOL    HW2 5298   6.920   6.269   2.490
 1467SOL     OW 5299   1.656   0.572   3.242
 1467SOL    HW1 5300   1.665   0.670   3.223
 1467SOL    HW2 5301   1.697   0.520   3.167
 1468SOL     OW 5302   5.698   5.773   3.236
 1468SOL    HW1 5303   5.626   5.826   3.282
 1468SOL    HW2 5304   5.785   5.822   3.243
 1469SOL     OW 5305   0.211   0.488   2.918
 1469SOL    HW1 5306   0.200   0.390   2.907
 1469SOL    HW2 5307   0.199   0.534   2.830
 1470SOL     OW 5308   1.173   1.067   2.991
 1470SOL    HW1 5309   1.221   1.073   3.078
 1470SOL    HW2 5310   1.116   0.985   2.989
 1471SOL     OW 5311   6.797   0.532   0.072
 1471SOL    HW1 5312   6.701   0.521   0.098
 1471SOL    HW2 5313   6.812   0.625   0.038
 1472SOL     OW 5314   4.892   6.421   4.817
 1472SOL    HW1 5315   4.952   6.359   4.868
 1472SOL    HW2 5316   4.920   6.424   4.721
 1473SOL     OW 5317   5.792   5.996   2.974
 1473SOL    HW1 5318   5.857   6.030   2.905
 1473SOL    HW2 5319   5.803   5.897   2.982
 1474SOL     OW 5320   6.329   5.484   4.144
 1474SOL    HW1 5321   6.248   5.533   4.178
 1474SOL    HW2 5322   6.383   5.545   4.086
 1475SOL     OW 5323   0.246   0.299   1.930
 1475SOL    HW1 5324   0.323   0.236   1.935
 1475SOL    HW2 5325   0.178   0.264   1.866
 1476SOL     OW 5326   1.388   0.766   1.867
 1476SOL    HW1 5327   1.304   0.730   1.906
 1476SOL    HW2 5328   1.451   0.790   1.942
 1477SOL     OW 5329   3.377   0.643   5.803
 1477SOL    HW1 5330   3.422   0.724   5.840
 1477SOL    HW2 5331   3.394   0.638   5.704
 1478SOL     OW 5332   6.235   4.670   0.894
 1478SOL    HW1 5333   6.183   4.675   0.808
 1478SOL    HW2 5334   6.241   4.762   0.934
 1479SOL     OW 5335   1.113   4.788   0.511
 1479SOL    HW1 5336   1.160   4.850   0.448
 1479SOL    HW2 5337   1.069   4.715   0.459
 1480SOL     OW 5338   2.335   1.141   6.570
 1480SOL    HW1 5339   2.266   1.078   6.607
 1480SOL    HW2 5340   2.314   1.161   6.474
 1481SOL     OW 5341   5.662   2.034   5.375
 1481SOL    HW1 5342   5.748   1.986   5.395
 1481SOL    HW2 5343   5.667   2.073   5.283
 1482SOL     OW 5344   5.907   1.599   1.331
 1482SOL    HW1 5345   5.838   1.620   1.261
 1482SOL    HW2 5346   5.864   1.599   1.421
 1483SOL     OW 5347   6.679   3.036   6.902
 1483SOL    HW1 5348   6.677   3.031   7.001
 1483SOL    HW2 5349   6.623   2.963   6.863
 1484SOL     OW 5350   6.464   4.563   2.804
 1484SOL    HW1 5351   6.455   4.481   2.861
 1484SOL    HW2 5352   6.374   4.592   2.772
 1485SOL     OW 5353   5.398   2.674   2.734
 1485SOL    HW1 5354   5.351   2.763   2.733
 1485SOL    HW2 5355   5.496   2.689   2.741
 1486SOL     OW 5356   4.502   2.556   3.327
 1486SOL    HW1 5357   4.475   2.527   3.235
 1486SOL    HW2 5358   4.534   2.650   3.324
 1487SOL     OW 5359   6.361   1.541   6.695
 1487SOL    HW1 5360   6.388   1.529   6.790
 1487SOL    HW2 5361   6.396   1.628   6.661
 1488SOL     OW 5362   4.893   1.853   2.989
 1488SOL    HW1 5363   4.850   1.935   2.953
 1488SOL    HW2 5364   4.925   1.796   2.914
 1489SOL     OW 5365   3.638   5.024   4.469
 1489SOL    HW1 5366   3.599   5.116   4.478
 1489SOL    HW2 5367   3.709   5.011   4.538
 1490SOL     OW 5368   0.907   2.045   0.569
 1490SOL    HW1 5369   0.881   1.948   0.567
 1490SOL    HW2 5370   0.831   2.100   0.533
 1491SOL     OW 5371   6.430   4.086   3.292
 1491SOL    HW1 5372   6.419   4.162   3.356
 1491SOL    HW2 5373   6.525   4.082   3.260
 1492SOL     OW 5374   5.129   1.923   1.763
 1492SOL    HW1 5375   5.129   2.022   1.777
 1492SOL    HW2 5376   5.205   1.898   1.702
 1493SOL     OW 5377   4.425   0.040   4.657
 1493SOL    HW1 5378   4.350   7.002   4.645
 1493SOL    HW2 5379   4.408   0.122   4.602
 1494SOL     OW 5380   3.440   2.677   5.388
 1494SOL    HW1 5381   3.482   2.587   5.372
 1494SOL    HW2 5382   3.511   2.742   5.415
 1495SOL     OW 5383   0.320   3.607   3.340
 1495SOL    HW1 5384   0.273   3.542   3.280
 1495SOL    HW2 5385   0.418   3.604   3.321
 1496SOL     OW 5386   0.239   0.607   1.876
 1496SOL    HW1 5387   0.274   0.519   1.844
 1496SOL    HW2 5388   0.296   0.681   1.840
 1497SOL     OW 5389   0.167   5.349   4.254
 1497SOL    HW1 5390   0.146   5.276   4.319
 1497SOL    HW2 5391   0.105   5.426   4.269
 1498SOL     OW 5392   2.414   4.635   6.289
 1498SOL    HW1 5393   2.359   4.554   6.307
 1498SOL    HW2 5394   2.440   4.637   6.193
 1499SOL     OW 5395   1.257   4.196   4.838
 1499SOL    HW1 5396   1.241   4.282   4.886
 1499SOL    HW2 5397   1.280   4.216   4.742
 1500SOL     OW 5398   5.744   0.047   0.997
 1500SOL    HW1 5399   5.668   0.073   1.057
 1500SOL    HW2 5400   5.779   0.128   0.950
 1501SOL     OW 5401   3.979   0.500   6.663
 1501SOL    HW1 5402   3.930   0.476   6.746
 1501SOL    HW2 5403   3.915   0.517   6.589
 1502SOL     OW 5404   6.579   6.661   0.116
 1502SOL    HW1 5405   6.493   6.686   0.160
 1502SOL    HW2 5406   6.564   6.583   0.056
 1503SOL     OW 5407   2.100   2.909   1.013
 1503SOL    HW1 5408   2.115   2.881   0.918
 1503SOL    HW2 5409   2.022   2.972   1.018
 1504SOL     OW 5410   2.739   0.019   4.798
 1504SOL    HW1 5411   2.812   0.066   4.848
 1504SOL    HW2 5412   2.712   0.075   4.720
 1505SOL     OW 5413   5.348   0.443   6.024
 1505SOL    HW1 5414   5.412   0.491   6.083
 1505SOL    HW2 5415   5.398   0.384   5.960
 1506SOL     OW 5416   0.887   4.832   3.691
 1506SOL    HW1 5417   0.850   4.745   3.723
 1506SOL    HW2 5418   0.975   4.850   3.736
 1507SOL     OW 5419   1.676   1.481   4.464
 1507SOL    HW1 5420   1.613   1.406   4.485
 1507SOL    HW2 5421   1.704   1.526   4.549
 1508SOL     OW 5422   4.862   0.279   0.960
 1508SOL    HW1 5423   4.840   0.342   0.886
 1508SOL    HW2 5424   4.891   0.191   0.921
 1509SOL     OW 5425   4.471   2.741   6.508
 1509SOL    HW1 5426   4.404   2.667   6.498
 1509SOL    HW2 5427   4.558   2.703   6.538
 1510SOL     OW 5428   6.688   2.700   4.464
 1510SOL    HW1 5429   6.715   2.727   4.556
 1510SOL    HW2 5430   6.755   2.734   4.398
 1511SOL     OW 5431   2.507   1.540   6.528
 1511SOL    HW1 5432   2.441   1.504   6.593
 1511SOL    HW2 5433   2.592   1.488   6.535
 1512SOL     OW 5434   6.995   0.236   2.205
 1512SOL    HW1 5435   0.035   0.167   2.178
 1512SOL    HW2 5436   7.019   0.323   2.164
 1513SOL     OW 5437   3.735   0.477   3.806
 1513SOL    HW1 5438   3.805   0.407   3.791
 1513SOL    HW2 5439   3.653   0.433   3.842
 1514SOL     OW 5440   4.999   1.451   5.106
 1514SOL    HW1 5441   4.969   1.370   5.057
 1514SOL    HW2 5442   5.048   1.512   5.044
 1515SOL     OW 5443   6.811   3.813   5.368
 1515SOL    HW1 5444   6.841   3.792   5.276
 1515SOL    HW2 5445   6.715   3.842   5.366
 1516SOL     OW 5446   0.924   0.945   1.263
 1516SOL    HW1 5447   0.887   0.977   1.350
 1516SOL    HW2 5448   0.870   0.984   1.188
 1517SOL     OW 5449   4.391   5.657   3.755
 1517SOL    HW1 5450   4.386   5.705   3.667
 1517SOL    HW2 5451   4.362   5.719   3.828
 1518SOL     OW 5452   6.915   4.420   6.798
 1518SOL    HW1 5453   6.945   4.325   6.785
 1518SOL    HW2 5454   6.924   4.444   6.895
 1519SOL     OW 5455   6.788   4.075   1.266
 1519SOL    HW1 5456   6.846   4.034   1.337
 1519SOL    HW2 5457   6.774   4.009   1.192
 1520SOL     OW 5458   2.168   3.725   2.380
 1520SOL    HW1 5459   2.246   3.717   2.318
 1520SOL    HW2 5460   2.120   3.638   2.386
 1521SOL     OW 5461   1.624   3.214   0.118
 1521SOL    HW1 5462   1.681   3.263   0.184
 1521SOL    HW2 5463   1.535   3.193   0.159
 1522SOL     OW 5464   6.704   1.847   6.424
 1522SOL    HW1 5465   6.604   1.853   6.424
 1522SOL    HW2 5466   6.742   1.921   6.480
 1523SOL     OW 5467   5.147   3.513   6.630
 1523SOL    HW1 5468   5.175   3.590   6.687
 1523SOL    HW2 5469   5.071   3.541   6.572
 1524SOL     OW 5470   0.990   1.683   1.586
 1524SOL    HW1 5471   0.951   1.759   1.636
 1524SOL    HW2 5472   0.924   1.608   1.582
 1525SOL     OW 5473   4.462   1.409   5.787
 1525SOL    HW1 5474   4.561   1.414   5.794
 1525SOL    HW2 5475   4.421   1.474   5.850
 1526SOL     OW 5476   0.556   1.360   0.876
 1526SOL    HW1 5477   0.514   1.439   0.920
 1526SOL    HW2 5478   0.539   1.364   0.777
 1527SOL     OW 5479   3.253   1.596   5.023
 1527SOL    HW1 5480   3.201   1.664   5.075
 1527SOL    HW2 5481   3.201   1.510   5.019
 1528SOL     OW 5482   4.934   5.959   2.538
 1528SOL    HW1 5483   4.963   5.864   2.532
 1528SOL    HW2 5484   4.842   5.964   2.577
 1529SOL     OW 5485   4.951   1.144   6.144
 1529SOL    HW1 5486   4.851   1.147   6.149
 1529SOL    HW2 5487   4.988   1.120   6.233
 1530SOL     OW 5488   3.232   6.526   1.581
 1530SOL    HW1 5489   3.293   6.447   1.585
 1530SOL    HW2 5490   3.184   6.527   1.494
 1531SOL     OW 5491   5.566   1.035   5.303
 1531SOL    HW1 5492   5.567   0.948   5.353
 1531SOL    HW2 5493   5.487   1.037   5.241
 1532SOL     OW 5494   3.093   1.989   5.004
 1532SOL    HW1 5495   3.124   1.967   4.912
 1532SOL    HW2 5496   3.097   2.088   5.018
 1533SOL     OW 5497   6.627   3.074   6.125
 1533SOL    HW1 5498   6.586   3.141   6.062
 1533SOL    HW2 5499   6.672   3.123   6.200
 1534SOL     OW 5500   2.012   5.385   0.158
 1534SOL    HW1 5501   2.058   5.352   0.241
 1534SOL    HW2 5502   2.032   5.324   0.082
 1535SOL     OW 5503   5.130   5.051   4.565
 1535SOL    HW1 5504   5.092   4.960   4.579
 1535SOL    HW2 5505   5.218   5.058   4.613
 1536SOL     OW 5506   2.817   5.070   4.048
 1536SOL    HW1 5507   2.903   5.022   4.030
 1536SOL    HW2 5508   2.769   5.025   4.123
 1537SOL     OW 5509   3.375   5.378   3.495
 1537SOL    HW1 5510   3.391   5.435   3.414
 1537SOL    HW2 5511   3.302   5.313   3.476
 1538SOL     OW 5512   3.018   4.260   6.456
 1538SOL    HW1 5513   3.019   4.359   6.451
 1538SOL    HW2 5514   2.929   4.226   6.425
 1539SOL     OW 5515   3.569   4.145   1.622
 1539SOL    HW1 5516   3.479   4.183   1.648
 1539SOL    HW2 5517   3.624   4.134   1.705
 1540SOL     OW 5518   0.997   0.407   4.500
 1540SOL    HW1 5519   0.984   0.411   4.401
 1540SOL    HW2 5520   1.056   0.330   4.522
 1541SOL     OW 5521   3.872   2.915   0.959
 1541SOL    HW1 5522   3.815   2.834   0.971
 1541SOL    HW2 5523   3.968   2.890   0.975
 1542SOL     OW 5524   0.287   5.830   1.896
 1542SOL    HW1 5525   0.317   5.735   1.901
 1542SOL    HW2 5526   0.362   5.890   1.922
 1543SOL     OW 5527   3.299   3.577   3.455
 1543SOL    HW1 5528   3.292   3.655   3.517
 1543SOL    HW2 5529   3.249   3.499   3.493
 1544SOL     OW 5530   2.986   3.784   2.090
 1544SOL    HW1 5531   3.028   3.695   2.109
 1544SOL    HW2 5532   3.057   3.850   2.067
 1545SOL     OW 5533   5.533   0.572   5.300
 1545SOL    HW1 5534   5.537   0.655   5.355
 1545SOL    HW2 5535   5.576   0.589   5.211
 1546SOL     OW 5536   6.125   0.603   6.410
 1546SOL    HW1 5537   6.129   0.703   6.421
 1546SOL    HW2 5538   6.207   0.571   6.363
 1547SOL     OW 5539   2.564   4.567   2.650
 1547SOL    HW1 5540   2.581   4.545   2.554
 1547SOL    HW2 5541   2.474   4.533   2.677
 1548SOL     OW 5542   3.866   4.339   5.738
 1548SOL    HW1 5543   3.800   4.414   5.750
 1548SOL    HW2 5544   3.893   4.334   5.642
 1549SOL     OW 5545   6.697   1.440   1.951
 1549SOL    HW1 5546   6.699   1.388   2.036
 1549SOL    HW2 5547   6.607   1.432   1.909
 1550SOL     OW 5548   2.629   6.849   5.502
 1550SOL    HW1 5549   2.672   6.763   5.476
 1550SOL    HW2 5550   2.568   6.880   5.428
 1551SOL     OW 5551   2.279   3.253   1.341
 1551SOL    HW1 5552   2.349   3.216   1.401
 1551SOL    HW2 5553   2.220   3.316   1.392
 1552SOL     OW 5554   1.186   6.706   0.843
 1552SOL    HW1 5555   1.232   6.618   0.856
 1552SOL    HW2 5556   1.090   6.699   0.870
 1553SOL     OW 5557   5.952   1.594   0.100
 1553SOL    HW1 5558   5.935   1.656   0.177
 1553SOL    HW2 5559   6.027   1.629   0.045
 1554SOL     OW 5560   4.171   2.305   2.683
 1554SOL    HW1 5561   4.104   2.252   2.630
 1554SOL    HW2 5562   4.229   2.357   2.620
 1555SOL     OW 5563   4.923   2.406   5.241
 1555SOL    HW1 5564   4.823   2.412   5.241
 1555SOL    HW2 5565   4.956   2.395   5.334
 1556SOL     OW 5566   3.555   7.020   0.835
 1556SOL    HW1 5567   3.508   0.082   0.830
 1556SOL    HW2 5568   3.492   6.948   0.807
 1557SOL     OW 5569   2.465   2.728   0.932
 1557SOL    HW1 5570   2.543   2.748   0.991
 1557SOL    HW2 5571   2.427   2.639   0.957
 1558SOL     OW 5572   6.153   2.042   5.321
 1558SOL    HW1 5573   6.131   2.047   5.223
 1558SOL    HW2 5574   6.201   2.126   5.348
 1559SOL     OW 5575   0.555   3.761   2.235
 1559SOL    HW1 5576   0.484   3.764   2.306
 1559SOL    HW2 5577   0.559   3.670   2.196
 1560SOL     OW 5578   3.844   1.439   0.397
 1560SOL    HW1 5579   3.902   1.360   0.417
 1560SOL    HW2 5580   3.861   1.512   0.463
 1561SOL     OW 5581   5.412   6.355   2.216
 1561SOL    HW1 5582   5.370   6.398   2.136
 1561SOL    HW2 5583   5.509   6.337   2.197
 1562SOL     OW 5584   2.486   6.452   2.414
 1562SOL    HW1 5585   2.431   6.504   2.480
 1562SOL    HW2 5586   2.486   6.356   2.439
 1563SOL     OW 5587   2.876   2.218   5.158
 1563SOL    HW1 5588   2.960   2.238   5.108
 1563SOL    HW2 5589   2.831   2.138   5.116
 1564SOL     OW 5590   1.152   1.501   2.391
 1564SOL    HW1 5591   1.209   1.470   2.467
 1564SOL    HW2 5592   1.055   1.486   2.413
 1565SOL     OW 5593   4.113   5.417   4.336
 1565SOL    HW1 5594   4.059   5.408   4.252
 1565SOL    HW2 5595   4.135   5.514   4.351
 1566SOL     OW 5596   5.673   4.566   3.782
 1566SOL    HW1 5597   5.762   4.523   3.796
 1566SOL    HW2 5598   5.646   4.556   3.686
 1567SOL     OW 5599   6.010   5.407   6.277
 1567SOL    HW1 5600   6.067   5.352   6.337
 1567SOL    HW2 5601   6.050   5.498   6.267
 1568SOL     OW 5602   2.543   6.038   3.904
 1568SOL    HW1 5603   2.588   6.127   3.892
 1568SOL    HW2 5604   2.466   6.031   3.841
 1569SOL     OW 5605   3.343   0.594   2.872
 1569SOL    HW1 5606   3.432   0.605   2.916
 1569SOL    HW2 5607   3.287   0.675   2.888
 1570SOL     OW 5608   2.976   6.972   6.401
 1570SOL    HW1 5609   2.968   6.966   6.301
 1570SOL    HW2 5610   2.886   6.954   6.442
 1571SOL     OW 5611   1.057   2.420   3.052
 1571SOL    HW1 5612   1.088   2.328   3.029
 1571SOL    HW2 5613   0.959   2.420   3.070
 1572SOL     OW 5614   1.819   5.403   1.455
 1572SOL    HW1 5615   1.903   5.358   1.426
 1572SOL    HW2 5616   1.834   5.445   1.545
 1573SOL     OW 5617   5.320   5.535   1.769
 1573SOL    HW1 5618   5.298   5.498   1.678
 1573SOL    HW2 5619   5.355   5.628   1.759
 1574SOL     OW 5620   6.016   3.301   1.940
 1574SOL    HW1 5621   5.948   3.374   1.934
 1574SOL    HW2 5622   5.985   3.230   2.003
 1575SOL     OW 5623   1.416   0.539   1.552
 1575SOL    HW1 5624   1.383   0.550   1.458
 1575SOL    HW2 5625   1.497   0.597   1.565
 1576SOL     OW 5626   0.757   6.078   2.437
 1576SOL    HW1 5627   0.725   6.158   2.386
 1576SOL    HW2 5628   0.698   6.000   2.415
 1577SOL     OW 5629   3.073   0.507   6.521
 1577SOL    HW1 5630   3.169   0.497   6.496
 1577SOL    HW2 5631   3.030   0.418   6.526
 1578SOL     OW 5632   4.649   1.018   0.348
 1578SOL    HW1 5633   4.739   0.986   0.319
 1578SOL    HW2 5634   4.589   1.024   0.268
 1579SOL     OW 5635   0.780   2.643   1.613
 1579SOL    HW1 5636   0.693   2.616   1.656
 1579SOL    HW2 5637   0.829   2.561   1.584
 1580SOL     OW 5638   3.147   4.058   3.557
 1580SOL    HW1 5639   3.066   4.012   3.593
 1580SOL    HW2 5640   3.172   4.018   3.469
 1581SOL     OW 5641   0.075   4.892   5.456
 1581SOL    HW1 5642   7.023   4.918   5.511
 1581SOL    HW2 5643   0.115   4.973   5.414
 1582SOL     OW 5644   4.159   5.917   5.121
 1582SOL    HW1 5645   4.195   5.985   5.057
 1582SOL    HW2 5646   4.215   5.917   5.205
 1583SOL     OW 5647   0.917   6.469   5.002
 1583SOL    HW1 5648   0.932   6.445   4.906
 1583SOL    HW2 5649   0.843   6.412   5.039
 1584SOL     OW 5650   1.297   4.446   6.934
 1584SOL    HW1 5651   1.337   4.432   7.024
 1584SOL    HW2 5652   1.370   4.450   6.865
 1585SOL     OW 5653   4.225   1.712   3.255
 1585SOL    HW1 5654   4.162   1.638   3.277
 1585SOL    HW2 5655   4.319   1.681   3.271
 1586SOL     OW 5656   3.521   4.922   3.234
 1586SOL    HW1 5657   3.539   5.020   3.242
 1586SOL    HW2 5658   3.434   4.900   3.278
 1587SOL     OW 5659   1.916   5.754   5.573
 1587SOL    HW1 5660   1.947   5.769   5.667
 1587SOL    HW2 5661   1.977   5.689   5.527
 1588SOL     OW 5662   4.503   0.037   2.619
 1588SOL    HW1 5663   4.434   0.054   2.689
 1588SOL    HW2 5664   4.575   7.005   2.656
 1589SOL     OW 5665   6.614   3.782   2.873
 1589SOL    HW1 5666   6.664   3.774   2.959
 1589SOL    HW2 5667   6.604   3.691   2.832
 1590SOL     OW 5668   5.321   2.153   3.579
 1590SOL    HW1 5669   5.316   2.175   3.482
 1590SOL    HW2 5670   5.415   2.163   3.611
 1591SOL     OW 5671   6.895   5.075   1.579
 1591SOL    HW1 5672   6.830   5.012   1.620
 1591SOL    HW2 5673   6.863   5.100   1.487
 1592SOL     OW 5674   1.413   4.376   0.156
 1592SOL    HW1 5675   1.435   4.317   0.234
 1592SOL    HW2 5676   1.440   4.470   0.177
 1593SOL     OW 5677   0.823   0.028   6.079
 1593SOL    HW1 5678   0.724   0.017   6.087
 1593SOL    HW2 5679   0.858   6.994   6.008
 1594SOL     OW 5680   6.747   6.500   1.956
 1594SOL    HW1 5681   6.660   6.453   1.967
 1594SOL    HW2 5682   6.798   6.458   1.880
 1595SOL     OW 5683   1.509   4.120   0.279
 1595SOL    HW1 5684   1.455   4.127   0.196
 1595SOL    HW2 5685   1.606   4.113   0.256
 1596SOL     OW 5686   5.784   3.488   3.191
 1596SOL    HW1 5687   5.707   3.539   3.229
 1596SOL    HW2 5688   5.750   3.420   3.126
 1597SOL     OW 5689   2.991   6.088   0.839
 1597SOL    HW1 5690   2.993   6.103   0.740
 1597SOL    HW2 5691   2.985   5.990   0.858
 1598SOL     OW 5692   1.295   5.543   6.747
 1598SOL    HW1 5693   1.218   5.478   6.749
 1598SOL    HW2 5694   1.319   5.567   6.841
 1599SOL     OW 5695   4.077   4.927   4.693
 1599SOL    HW1 5696   3.997   4.919   4.753
 1599SOL    HW2 5697   4.152   4.871   4.730
 1600SOL     OW 5698   2.857   0.199   2.103
 1600SOL    HW1 5699   2.786   0.239   2.045
 1600SOL    HW2 5700   2.945   0.243   2.083
 1601SOL     OW 5701   6.941   6.329   3.964
 1601SOL    HW1 5702   6.945   6.254   3.897
 1601SOL    HW2 5703   0.003   6.336   4.010
 1602SOL     OW 5704   4.745   5.356   4.078
 1602SOL    HW1 5705   4.696   5.273   4.104
 1602SOL    HW2 5706   4.684   5.435   4.088
 1603SOL     OW 5707   2.754   5.424   4.267
 1603SOL    HW1 5708   2.689   5.397   4.196
 1603SOL    HW2 5709   2.725   5.386   4.355
 1604SOL     OW 5710   4.145   4.865   1.589
 1604SOL    HW1 5711   4.123   4.814   1.672
 1604SOL    HW2 5712   4.067   4.922   1.563
 1605SOL     OW 5713   6.093   5.657   1.388
 1605SOL    HW1 5714   6.069   5.716   1.465
 1605SOL    HW2 5715   6.086   5.561   1.416
 1606SOL     OW 5716   3.820   5.202   5.183
 1606SOL    HW1 5717   3.731   5.247   5.175
 1606SOL    HW2 5718   3.893   5.270   5.176
 1607SOL     OW 5719   4.059   6.836   2.131
 1607SOL    HW1 5720   4.156   6.833   2.156
 1607SOL    HW2 5721   4.004   6.839   2.215
 1608SOL     OW 5722   6.614   0.469   3.547
 1608SOL    HW1 5723   6.632   0.562   3.579
 1608SOL    HW2 5724   6.701   0.424   3.527
 1609SOL     OW 5725   3.015   6.740   0.936
 1609SOL    HW1 5726   2.981   6.663   0.991
 1609SOL    HW2 5727   2.992   6.826   0.982
 1610SOL     OW 5728   4.666   6.441   0.797
 1610SOL    HW1 5729   4.629   6.349   0.791
 1610SOL    HW2 5730   4.763   6.441   0.773
 1611SOL     OW 5731   1.916   4.009   1.021
 1611SOL    HW1 5732   1.982   4.080   0.995
 1611SOL    HW2 5733   1.825   4.050   1.029
 1612SOL     OW 5734   3.090   6.208   1.622
 1612SOL    HW1 5735   3.094   6.195   1.522
 1612SOL    HW2 5736   3.070   6.304   1.642
 1613SOL     OW 5737   0.587   6.293   2.323
 1613SOL    HW1 5738   0.515   6.357   2.351
 1613SOL    HW2 5739   0.545   6.210   2.287
 1614SOL     OW 5740   5.642   1.926   6.162
 1614SOL    HW1 5741   5.670   1.974   6.245
 1614SOL    HW2 5742   5.696   1.843   6.151
 1615SOL     OW 5743   0.207   5.228   6.214
 1615SOL    HW1 5744   0.218   5.261   6.121
 1615SOL    HW2 5745   0.115   5.192   6.227
 1616SOL     OW 5746   3.775   0.590   4.679
 1616SOL    HW1 5747   3.779   0.689   4.664
 1616SOL    HW2 5748   3.862   0.549   4.651
 1617SOL     OW 5749   4.844   0.113   3.617
 1617SOL    HW1 5750   4.909   0.043   3.646
 1617SOL    HW2 5751   4.881   0.165   3.540
 1618SOL     OW 5752   1.380   5.597   2.494
 1618SOL    HW1 5753   1.305   5.544   2.534
 1618SOL    HW2 5754   1.344   5.656   2.421
 1619SOL     OW 5755   0.841   5.225   6.752
 1619SOL    HW1 5756   0.742   5.233   6.741
 1619SOL    HW2 5757   0.872   5.138   6.713
 1620SOL     OW 5758   3.309   5.211   1.451
 1620SOL    HW1 5759   3.372   5.287   1.467
 1620SOL    HW2 5760   3.359   5.124   1.461
 1621SOL     OW 5761   6.254   0.205   1.294
 1621SOL    HW1 5762   6.345   0.167   1.276
 1621SOL    HW2 5763   6.203   0.143   1.354
 1622SOL     OW 5764   0.265   3.816   6.033
 1622SOL    HW1 5765   0.200   3.748   6.000
 1622SOL    HW2 5766   0.242   3.841   6.127
 1623SOL     OW 5767   0.321   2.272   4.296
 1623SOL    HW1 5768   0.420   2.272   4.306
 1623SOL    HW2 5769   0.290   2.184   4.260
 1624SOL     OW 5770   4.387   1.337   0.049
 1624SOL    HW1 5771   4.294   1.315   0.079
 1624SOL    HW2 5772   4.445   1.351   0.128
 1625SOL     OW 5773   1.456   5.067   6.880
 1625SOL    HW1 5774   1.401   5.114   6.949
 1625SOL    HW2 5775   1.491   5.134   6.815
 1626SOL     OW 5776   2.825   1.375   1.847
 1626SOL    HW1 5777   2.829   1.472   1.874
 1626SOL    HW2 5778   2.844   1.318   1.927
 1627SOL     OW 5779   5.587   2.967   4.262
 1627SOL    HW1 5780   5.518   2.989   4.193
 1627SOL    HW2 5781   5.604   3.046   4.320
 1628SOL     OW 5782   4.824   5.922   6.753
 1628SOL    HW1 5783   4.822   6.021   6.737
 1628SOL    HW2 5784   4.918   5.890   6.757
 1629SOL     OW 5785   2.669   1.837   2.889
 1629SOL    HW1 5786   2.659   1.742   2.862
 1629SOL    HW2 5787   2.740   1.881   2.833
 1630SOL     OW 5788   6.617   4.129   5.894
 1630SOL    HW1 5789   6.687   4.107   5.962
 1630SOL    HW2 5790   6.544   4.181   5.938
 1631SOL     OW 5791   6.494   3.081   0.815
 1631SOL    HW1 5792   6.490   3.166   0.866
 1631SOL    HW2 5793   6.555   3.091   0.736
 1632SOL     OW 5794   4.896   4.712   2.639
 1632SOL    HW1 5795   4.853   4.692   2.551
 1632SOL    HW2 5796   4.832   4.763   2.697
 1633SOL     OW 5797   4.776   4.069   4.514
 1633SOL    HW1 5798   4.682   4.052   4.544
 1633SOL    HW2 5799   4.835   3.995   4.545
 1634SOL     OW 5800   4.069   0.905   4.463
 1634SOL    HW1 5801   4.117   0.820   4.439
 1634SOL    HW2 5802   4.066   0.965   4.383
 1635SOL     OW 5803   2.333   5.421   6.255
 1635SOL    HW1 5804   2.241   5.458   6.243
 1635SOL    HW2 5805   2.334   5.324   6.229
 1636SOL     OW 5806   3.939   5.480   0.559
 1636SOL    HW1 5807   3.912   5.570   0.592
 1636SOL    HW2 5808   4.039   5.471   0.566
 1637SOL     OW 5809   6.502   6.520   4.065
 1637SOL    HW1 5810   6.584   6.486   4.020
 1637SOL    HW2 5811   6.523   6.545   4.160
 1638SOL     OW 5812   0.283   2.890   1.377
 1638SOL    HW1 5813   0.221   2.955   1.419
 1638SOL    HW2 5814   0.295   2.912   1.280
 1639SOL     OW 5815   6.916   3.988   2.006
 1639SOL    HW1 5816   7.013   3.970   2.023
 1639SOL    HW2 5817   6.871   3.903   1.979
 1640SOL     OW 5818   0.006   0.322   0.821
 1640SOL    HW1 5819   6.969   0.363   0.886
 1640SOL    HW2 5820   0.052   0.394   0.769
 1641SOL     OW 5821   0.053   2.571   3.463
 1641SOL    HW1 5822   0.016   2.529   3.545
 1641SOL    HW2 5823   0.138   2.525   3.438
 1642SOL     OW 5824   0.034   2.822   6.281
 1642SOL    HW1 5825   0.040   2.844   6.184
 1642SOL    HW2 5826   6.976   2.860   6.318
 1643SOL     OW 5827   3.434   5.019   2.969
 1643SOL    HW1 5828   3.342   4.985   2.953
 1643SOL    HW2 5829   3.477   4.965   3.042
 1644SOL     OW 5830   5.620   3.387   6.920
 1644SOL    HW1 5831   5.643   3.307   6.976
 1644SOL    HW2 5832   5.612   3.467   6.980
 1645SOL     OW 5833   2.561   6.847   6.262
 1645SOL    HW1 5834   2.590   6.833   6.167
 1645SOL    HW2 5835   2.463   6.867   6.264
 1646SOL     OW 5836   1.891   6.325   0.208
 1646SOL    HW1 5837   1.837   6.281   0.136
 1646SOL    HW2 5838   1.970   6.268   0.229
 1647SOL     OW 5839   5.550   2.701   4.273
 1647SOL    HW1 5840   5.462   2.665   4.303
 1647SOL    HW2 5841   5.554   2.800   4.291
 1648SOL     OW 5842   5.464   6.199   0.363
 1648SOL    HW1 5843   5.471   6.173   0.267
 1648SOL    HW2 5844   5.368   6.206   0.389
 1649SOL     OW 5845   3.825   1.060   3.469
 1649SOL    HW1 5846   3.756   0.988   3.476
 1649SOL    HW2 5847   3.897   1.043   3.537
 1650SOL     OW 5848   1.234   5.441   6.116
 1650SOL    HW1 5849   1.237   5.434   6.016
 1650SOL    HW2 5850   1.146   5.481   6.144
 1651SOL     OW 5851   0.612   2.222   2.693
 1651SOL    HW1 5852   0.522   2.210   2.735
 1651SOL    HW2 5853   0.601   2.244   2.596
 1652SOL     OW 5854   0.929   3.450   1.837
 1652SOL    HW1 5855   1.004   3.403   1.884
 1652SOL    HW2 5856   0.845   3.398   1.848
 1653SOL     OW 5857   0.145   5.564   2.072
 1653SOL    HW1 5858   0.159   5.503   1.994
 1653SOL    HW2 5859   0.047   5.578   2.085
 1654SOL     OW 5860   0.329   3.020   1.126
 1654SOL    HW1 5861   0.323   3.008   1.027
 1654SOL    HW2 5862   0.327   3.117   1.148
 1655SOL     OW 5863   6.653   1.412   4.531
 1655SOL    HW1 5864   6.608   1.403   4.442
 1655SOL    HW2 5865   6.752   1.412   4.517
 1656SOL     OW 5866   2.749   5.506   3.860
 1656SOL    HW1 5867   2.778   5.432   3.920
 1656SOL    HW2 5868   2.726   5.469   3.770
 1657SOL     OW 5869   6.406   0.773   5.183
 1657SOL    HW1 5870   6.451   0.770   5.094
 1657SOL    HW2 5871   6.345   0.852   5.187
 1658SOL     OW 5872   0.241   0.228   0.884
 1658SOL    HW1 5873   0.276   0.139   0.855
 1658SOL    HW2 5874   0.148   0.240   0.850
 1659SOL     OW 5875   3.760   0.203   6.853
 1659SOL    HW1 5876   3.830   0.135   6.872
 1659SOL    HW2 5877   3.778   0.285   6.908
 1660SOL     OW 5878   1.395   0.370   2.338
 1660SOL    HW1 5879   1.338   0.290   2.323
 1660SOL    HW2 5880   1.491   0.343   2.345
 1661SOL     OW 5881   2.929   5.536   2.020
 1661SOL    HW1 5882   2.922   5.486   2.106
 1661SOL    HW2 5883   2.987   5.617   2.033
 1662SOL     OW 5884   6.554   0.529   5.224
 1662SOL    HW1 5885   6.602   0.539   5.311
 1662SOL    HW2 5886   6.515   0.616   5.197
 1663SOL     OW 5887   5.260   5.448   2.388
 1663SOL    HW1 5888   5.308   5.381   2.444
 1663SOL    HW2 5889   5.312   5.466   2.305
 1664SOL     OW 5890   1.880   0.169   5.452
 1664SOL    HW1 5891   1.880   0.126   5.362
 1664SOL    HW2 5892   1.966   0.218   5.465
 1665SOL     OW 5893   6.978   3.562   1.847
 1665SOL    HW1 5894   6.977   3.576   1.748
 1665SOL    HW2 5895   6.933   3.638   1.892
 1666SOL     OW 5896   5.671   6.798   6.890
 1666SOL    HW1 5897   5.646   6.705   6.918
 1666SOL    HW2 5898   5.601   6.862   6.919
 1667SOL     OW 5899   6.504   6.519   1.398
 1667SOL    HW1 5900   6.523   6.487   1.305
 1667SOL    HW2 5901   6.478   6.442   1.456
 1668SOL     OW 5902   4.952   4.763   3.206
 1668SOL    HW1 5903   5.001   4.678   3.221
 1668SOL    HW2 5904   5.014   4.840   3.220
 1669SOL     OW 5905   6.523   4.424   5.757
 1669SOL    HW1 5906   6.605   4.478   5.738
 1669SOL    HW2 5907   6.545   4.353   5.824
 1670SOL     OW 5908   0.827   4.784   5.626
 1670SOL    HW1 5909   0.896   4.831   5.681
 1670SOL    HW2 5910   0.854   4.786   5.529
 1671SOL     OW 5911   5.657   1.864   3.273
 1671SOL    HW1 5912   5.589   1.816   3.216
 1671SOL    HW2 5913   5.638   1.962   3.270
 1672SOL     OW 5914   1.458   4.112   6.410
 1672SOL    HW1 5915   1.522   4.073   6.344
 1672SOL    HW2 5916   1.454   4.055   6.492
 1673SOL     OW 5917   1.784   1.608   4.702
 1673SOL    HW1 5918   1.809   1.519   4.740
 1673SOL    HW2 5919   1.848   1.631   4.628
 1674SOL     OW 5920   6.310   2.823   2.288
 1674SOL    HW1 5921   6.336   2.823   2.385
 1674SOL    HW2 5922   6.371   2.884   2.237
 1675SOL     OW 5923   5.219   0.192   1.179
 1675SOL    HW1 5924   5.200   0.097   1.154
 1675SOL    HW2 5925   5.256   0.241   1.100
 1676SOL     OW 5926   2.102   2.239   2.363
 1676SOL    HW1 5927   2.132   2.325   2.321
 1676SOL    HW2 5928   2.180   2.190   2.400
 1677SOL     OW 5929   4.017   3.802   3.325
 1677SOL    HW1 5930   3.990   3.812   3.230
 1677SOL    HW2 5931   4.046   3.708   3.342
 1678SOL     OW 5932   0.422   5.710   1.422
 1678SOL    HW1 5933   0.333   5.665   1.422
 1678SOL    HW2 5934   0.413   5.802   1.461
 1679SOL     OW 5935   1.628   1.304   4.824
 1679SOL    HW1 5936   1.566   1.240   4.870
 1679SOL    HW2 5937   1.723   1.281   4.846
 1680SOL     OW 5938   5.438   3.321   5.664
 1680SOL    HW1 5939   5.457   3.306   5.567
 1680SOL    HW2 5940   5.479   3.407   5.693
 1681SOL     OW 5941   2.038   5.742   4.963
 1681SOL    HW1 5942   2.104   5.761   4.890
 1681SOL    HW2 5943   1.947   5.728   4.924
 1682SOL     OW 5944   2.360   1.064   5.905
 1682SOL    HW1 5945   2.381   1.057   6.003
 1682SOL    HW2 5946   2.399   0.986   5.857
 1683SOL     OW 5947   5.657   6.455   2.997
 1683SOL    HW1 5948   5.702   6.476   2.910
 1683SOL    HW2 5949   5.714   6.391   3.049
 1684SOL     OW 5950   0.872   4.866   1.938
 1684SOL    HW1 5951   0.778   4.874   1.904
 1684SOL    HW2 5952   0.893   4.945   1.996
 1685SOL     OW 5953   1.790   2.050   5.719
 1685SOL    HW1 5954   1.888   2.065   5.732
 1685SOL    HW2 5955   1.775   1.963   5.672
 1686SOL     OW 5956   3.704   5.666   4.129
 1686SOL    HW1 5957   3.775   5.646   4.196
 1686SOL    HW2 5958   3.702   5.765   4.110
 1687SOL     OW 5959   0.688   3.941   2.072
 1687SOL    HW1 5960   0.647   3.863   2.119
 1687SOL    HW2 5961   0.706   4.014   2.138
 1688SOL     OW 5962   1.877   2.527   3.543
 1688SOL    HW1 5963   1.826   2.516   3.628
 1688SOL    HW2 5964   1.972   2.549   3.563
 1689SOL     OW 5965   6.447   1.089   2.899
 1689SOL    HW1 5966   6.375   1.109   2.965
 1689SOL    HW2 5967   6.439   0.994   2.869
 1690SOL     OW 5968   1.038   3.047   4.360
 1690SOL    HW1 5969   0.957   3.097   4.329
 1690SOL    HW2 5970   1.062   3.076   4.453
 1691SOL     OW 5971   5.267   3.264   4.078
 1691SOL    HW1 5972   5.193   3.318   4.117
 1691SOL    HW2 5973   5.301   3.309   3.996
 1692SOL     OW 5974   5.444   5.436   1.280
 1692SOL    HW1 5975   5.388   5.353   1.283
 1692SOL    HW2 5976   5.525   5.424   1.337
 1693SOL     OW 5977   0.010   1.826   4.843
 1693SOL    HW1 5978   7.005   1.736   4.873
 1693SOL    HW2 5979   7.026   1.833   4.744
 1694SOL     OW 5980   6.108   0.665   4.617
 1694SOL    HW1 5981   6.141   0.572   4.601
 1694SOL    HW2 5982   6.116   0.718   4.532
 1695SOL     OW 5983   3.594   0.684   6.891
 1695SOL    HW1 5984   3.615   0.646   6.981
 1695SOL    HW2 5985   3.576   0.782   6.899
 1696SOL     OW 5986   3.950   5.878   0.685
 1696SOL    HW1 5987   4.035   5.860   0.735
 1696SOL    HW2 5988   3.897   5.947   0.734
 1697SOL     OW 5989   5.828   2.569   0.837
 1697SOL    HW1 5990   5.795   2.633   0.906
 1697SOL    HW2 5991   5.824   2.476   0.873
 1698SOL     OW 5992   3.143   0.910   1.455
 1698SOL    HW1 5993   3.157   0.980   1.525
 1698SOL    HW2 5994   3.185   0.825   1.485
 1699SOL     OW 5995   2.676   2.038   5.675
 1699SOL    HW1 5996   2.774   2.024   5.681
 1699SOL    HW2 5997   2.657   2.113   5.612
 1700SOL     OW 5998   5.679   3.193   3.800
 1700SOL    HW1 5999   5.596   3.179   3.745
 1700SOL    HW2 6000   5.673   3.281   3.848
 1701SOL     OW 6001   6.017   5.075   5.207
 1701SOL    HW1 6002   6.103   5.089   5.256
 1701SOL    HW2 6003   5.943   5.060   5.273
 1702SOL     OW 6004   1.065   1.434   6.427
 1702SOL    HW1 6005   0.987   1.373   6.432
 1702SOL    HW2 6006   1.104   1.447   6.518
 1703SOL     OW 6007   4.362   1.410   6.127
 1703SOL    HW1 6008   4.454   1.387   6.157
 1703SOL    HW2 6009   4.320   1.329   6.085
 1704SOL     OW 6010   1.248   1.777   6.599
 1704SOL    HW1 6011   1.157   1.743   6.577
 1704SOL    HW2 6012   1.242   1.842   6.675
 1705SOL     OW 6013   3.927   1.885   1.782
 1705SOL    HW1 6014   3.833   1.918   1.792
 1705SOL    HW2 6015   3.929   1.785   1.789
 1706SOL     OW 6016   4.782   1.566   1.252
 1706SOL    HW1 6017   4.718   1.491   1.270
 1706SOL    HW2 6018   4.864   1.553   1.308
 1707SOL     OW 6019   4.890   2.142   2.450
 1707SOL    HW1 6020   4.810   2.086   2.471
 1707SOL    HW2 6021   4.878   2.234   2.488
 1708SOL     OW 6022   4.328   5.411   1.623
 1708SOL    HW1 6023   4.377   5.451   1.546
 1708SOL    HW2 6024   4.318   5.479   1.696
 1709SOL     OW 6025   4.024   6.501   0.575
 1709SOL    HW1 6026   4.049   6.558   0.497
 1709SOL    HW2 6027   4.106   6.481   0.629
 1710SOL     OW 6028   4.140   4.934   3.126
 1710SOL    HW1 6029   4.153   4.848   3.076
 1710SOL    HW2 6030   4.185   4.928   3.215
 1711SOL     OW 6031   2.279   5.047   5.308
 1711SOL    HW1 6032   2.302   4.960   5.265
 1711SOL    HW2 6033   2.346   5.067   5.380
 1712SOL     OW 6034   6.962   2.201   4.709
 1712SOL    HW1 6035   0.014   2.159   4.755
 1712SOL    HW2 6036   6.994   2.248   4.627
 1713SOL     OW 6037   3.796   1.123   2.968
 1713SOL    HW1 6038   3.747   1.210   2.960
 1713SOL    HW2 6039   3.834   1.114   3.060
 1714SOL     OW 6040   3.610   1.717   0.200
 1714SOL    HW1 6041   3.611   1.791   0.133
 1714SOL    HW2 6042   3.683   1.652   0.180
 1715SOL     OW 6043   2.134   5.865   2.686
 1715SOL    HW1 6044   2.037   5.864   2.662
 1715SOL    HW2 6045   2.180   5.936   2.633
 1716SOL     OW 6046   4.651   6.960   4.160
 1716SOL    HW1 6047   4.626   0.031   4.159
 1716SOL    HW2 6048   4.687   6.934   4.071
 1717SOL     OW 6049   3.559   5.292   5.199
 1717SOL    HW1 6050   3.504   5.232   5.141
 1717SOL    HW2 6051   3.535   5.277   5.295
 1718SOL     OW 6052   2.672   1.891   2.431
 1718SOL    HW1 6053   2.635   1.818   2.374
 1718SOL    HW2 6054   2.766   1.911   2.402
 1719SOL     OW 6055   1.820   4.750   0.829
 1719SOL    HW1 6056   1.767   4.750   0.913
 1719SOL    HW2 6057   1.917   4.737   0.850
 1720SOL     OW 6058   0.180   2.712   5.696
 1720SOL    HW1 6059   0.178   2.659   5.780
 1720SOL    HW2 6060   0.177   2.810   5.718
 1721SOL     OW 6061   1.212   0.304   1.904
 1721SOL    HW1 6062   1.157   0.222   1.917
 1721SOL    HW2 6063   1.269   0.294   1.822
 1722SOL     OW 6064   3.602   1.837   3.130
 1722SOL    HW1 6065   3.563   1.898   3.199
 1722SOL    HW2 6066   3.700   1.855   3.121
 1723SOL     OW 6067   4.364   2.152   6.536
 1723SOL    HW1 6068   4.363   2.209   6.454
 1723SOL    HW2 6069   4.348   2.208   6.617
 1724SOL     OW 6070   6.635   2.122   1.824
 1724SOL    HW1 6071   6.627   2.156   1.730
 1724SOL    HW2 6072   6.698   2.045   1.827
 1725SOL     OW 6073   1.931   5.212   6.737
 1725SOL    HW1 6074   1.968   5.294   6.695
 1725SOL    HW2 6075   1.982   5.191   6.821
 1726SOL     OW 6076   5.536   4.007   3.978
 1726SOL    HW1 6077   5.445   4.035   4.009
 1726SOL    HW2 6078   5.530   3.970   3.885
 1727SOL     OW 6079   3.693   3.715   3.045
 1727SOL    HW1 6080   3.641   3.760   2.972
 1727SOL    HW2 6081   3.664   3.620   3.053
 1728SOL     OW 6082   4.756   4.103   5.416
 1728SOL    HW1 6083   4.768   4.139   5.323
 1728SOL    HW2 6084   4.720   4.010   5.410
 1729SOL     OW 6085   0.890   3.867   2.970
 1729SOL    HW1 6086   0.917   3.872   2.873
 1729SOL    HW2 6087   0.889   3.772   2.999
 1730SOL     OW 6088   3.172   6.290   5.169
 1730SOL    HW1 6089   3.268   6.283   5.142
 1730SOL    HW2 6090   3.160   6.367   5.232
 1731SOL     OW 6091   5.644   5.067   3.958
 1731SOL    HW1 6092   5.596   5.011   3.891
 1731SOL    HW2 6093   5.661   5.013   4.041
 1732SOL     OW 6094   1.706   4.370   6.548
 1732SOL    HW1 6095   1.680   4.297   6.484
 1732SOL    HW2 6096   1.804   4.363   6.570
 1733SOL     OW 6097   2.356   4.284   1.305
 1733SOL    HW1 6098   2.441   4.335   1.318
 1733SOL    HW2 6099   2.344   4.219   1.380
 1734SOL     OW 6100   5.888   3.026   1.138
 1734SOL    HW1 6101   5.900   2.953   1.071
 1734SOL    HW2 6102   5.977   3.062   1.164
 1735SOL     OW 6103   4.195   5.737   6.242
 1735SOL    HW1 6104   4.180   5.697   6.152
 1735SOL    HW2 6105   4.250   5.820   6.233
 1736SOL     OW 6106   4.300   4.132   0.845
 1736SOL    HW1 6107   4.383   4.099   0.802
 1736SOL    HW2 6108   4.319   4.158   0.940
 1737SOL     OW 6109   5.215   0.359   4.657
 1737SOL    HW1 6110   5.254   0.274   4.619
 1737SOL    HW2 6111   5.128   0.379   4.612
 1738SOL     OW 6112   1.596   3.858   4.710
 1738SOL    HW1 6113   1.664   3.806   4.760
 1738SOL    HW2 6114   1.528   3.895   4.774
 1739SOL     OW 6115   6.176   0.425   4.516
 1739SOL    HW1 6116   6.243   0.399   4.447
 1739SOL    HW2 6117   6.139   0.343   4.559
 1740SOL     OW 6118   6.840   1.983   4.958
 1740SOL    HW1 6119   6.929   1.948   4.929
 1740SOL    HW2 6120   6.787   1.909   4.998
 1741SOL     OW 6121   2.287   1.663   3.388
 1741SOL    HW1 6122   2.382   1.664   3.418
 1741SOL    HW2 6123   2.226   1.647   3.466
 1742SOL     OW 6124   5.672   1.236   6.095
 1742SOL    HW1 6125   5.634   1.317   6.141
 1742SOL    HW2 6126   5.628   1.154   6.131
 1743SOL     OW 6127   1.422   1.332   3.001
 1743SOL    HW1 6128   1.420   1.243   3.046
 1743SOL    HW2 6129   1.503   1.339   2.943
 1744SOL     OW 6130   5.018   2.705   3.149
 1744SOL    HW1 6131   5.027   2.620   3.097
 1744SOL    HW2 6132   4.982   2.686   3.240
 1745SOL     OW 6133   6.527   6.353   2.010
 1745SOL    HW1 6134   6.435   6.317   2.026
 1745SOL    HW2 6135   6.592   6.277   2.004
 1746SOL     OW 6136   2.093   3.695   3.935
 1746SOL    HW1 6137   2.112   3.631   4.009
 1746SOL    HW2 6138   2.088   3.645   3.848
 1747SOL     OW 6139   3.959   1.089   2.123
 1747SOL    HW1 6140   4.010   1.143   2.189
 1747SOL    HW2 6141   3.878   1.140   2.093
 1748SOL     OW 6142   6.325   1.388   4.386
 1748SOL    HW1 6143   6.265   1.316   4.350
 1748SOL    HW2 6144   6.417   1.375   4.350
 1749SOL     OW 6145   3.294   6.522   0.306
 1749SOL    HW1 6146   3.355   6.493   0.380
 1749SOL    HW2 6147   3.234   6.447   0.280
 1750SOL     OW 6148   3.981   0.229   4.810
 1750SOL    HW1 6149   4.046   0.167   4.853
 1750SOL    HW2 6150   3.898   0.235   4.867
 1751SOL     OW 6151   6.010   2.425   4.615
 1751SOL    HW1 6152   6.057   2.378   4.540
 1751SOL    HW2 6153   5.964   2.507   4.580
 1752SOL     OW 6154   6.430   1.189   1.335
 1752SOL    HW1 6155   6.505   1.232   1.385
 1752SOL    HW2 6156   6.374   1.260   1.291
 1753SOL     OW 6157   6.861   1.636   1.851
 1753SOL    HW1 6158   6.801   1.562   1.883
 1753SOL    HW2 6159   6.904   1.681   1.930
 1754SOL     OW 6160   2.262   6.014   5.950
 1754SOL    HW1 6161   2.334   6.032   6.017
 1754SOL    HW2 6162   2.203   5.941   5.985
 1755SOL     OW 6163   6.528   6.119   5.619
 1755SOL    HW1 6164   6.500   6.196   5.562
 1755SOL    HW2 6165   6.525   6.146   5.715
 1756SOL     OW 6166   4.324   6.861   6.507
 1756SOL    HW1 6167   4.338   6.958   6.486
 1756SOL    HW2 6168   4.413   6.815   6.509
 1757SOL     OW 6169   2.947   5.014   4.428
 1757SOL    HW1 6170   3.011   5.083   4.461
 1757SOL    HW2 6171   2.854   5.051   4.430
 1758SOL     OW 6172   1.309   0.182   5.022
 1758SOL    HW1 6173   1.257   0.099   5.041
 1758SOL    HW2 6174   1.331   0.186   4.925
 1759SOL     OW 6175   1.344   6.651   5.793
 1759SOL    HW1 6176   1.258   6.700   5.778
 1759SOL    HW2 6177   1.380   6.619   5.705
 1760SOL     OW 6178   6.290   1.037   5.189
 1760SOL    HW1 6179   6.317   1.103   5.120
 1760SOL    HW2 6180   6.292   1.080   5.279
 1761SOL     OW 6181   0.170   1.024   0.793
 1761SOL    HW1 6182   0.211   0.963   0.726
 1761SOL    HW2 6183   0.153   0.973   0.878
 1762SOL     OW 6184   0.460   1.431   4.875
 1762SOL    HW1 6185   0.368   1.471   4.879
 1762SOL    HW2 6186   0.521   1.492   4.824
 1763SOL     OW 6187   0.893   4.216   5.036
 1763SOL    HW1 6188   0.888   4.119   5.011
 1763SOL    HW2 6189   0.888   4.272   4.954
 1764SOL     OW 6190   0.986   3.810   2.203
 1764SOL    HW1 6191   1.047   3.741   2.165
 1764SOL    HW2 6192   0.952   3.869   2.130
 1765SOL     OW 6193   4.399   2.555   1.743
 1765SOL    HW1 6194   4.468   2.484   1.727
 1765SOL    HW2 6195   4.445   2.642   1.764
 1766SOL     OW 6196   4.993   4.240   4.219
 1766SOL    HW1 6197   5.034   4.275   4.303
 1766SOL    HW2 6198   5.053   4.258   4.142
 1767SOL     OW 6199   0.611   4.860   2.772
 1767SOL    HW1 6200   0.615   4.912   2.687
 1767SOL    HW2 6201   0.561   4.912   2.841
 1768SOL     OW 6202   4.690   0.440   0.814
 1768SOL    HW1 6203   4.598   0.463   0.847
 1768SOL    HW2 6204   4.686   0.356   0.760
 1769SOL     OW 6205   5.852   0.855   6.973
 1769SOL    HW1 6206   5.797   0.938   6.961
 1769SOL    HW2 6207   5.917   0.869   0.021
 1770SOL     OW 6208   0.703   4.364   5.834
 1770SOL    HW1 6209   0.780   4.323   5.784
 1770SOL    HW2 6210   0.694   4.319   5.923
 1771SOL     OW 6211   0.967   5.019   0.367
 1771SOL    HW1 6212   0.965   4.940   0.306
 1771SOL    HW2 6213   0.935   4.993   0.458
 1772SOL     OW 6214   3.744   5.391   3.748
 1772SOL    HW1 6215   3.656   5.347   3.735
 1772SOL    HW2 6216   3.817   5.328   3.722
 1773SOL     OW 6217   1.236   1.290   4.820
 1773SOL    HW1 6218   1.295   1.367   4.794
 1773SOL    HW2 6219   1.145   1.325   4.842
 1774SOL     OW 6220   5.798   6.901   2.188
 1774SOL    HW1 6221   5.890   6.922   2.223
 1774SOL    HW2 6222   5.803   6.821   2.128
 1775SOL     OW 6223   2.295   5.399   5.828
 1775SOL    HW1 6224   2.346   5.373   5.746
 1775SOL    HW2 6225   2.270   5.317   5.879
 1776SOL     OW 6226   4.828   0.699   5.753
 1776SOL    HW1 6227   4.813   0.741   5.663
 1776SOL    HW2 6228   4.820   0.599   5.745
 1777SOL     OW 6229   3.949   6.628   6.430
 1777SOL    HW1 6230   3.856   6.618   6.466
 1777SOL    HW2 6231   3.949   6.698   6.358
 1778SOL     OW 6232   5.283   1.237   4.216
 1778SOL    HW1 6233   5.219   1.176   4.263
 1778SOL    HW2 6234   5.251   1.254   4.123
 1779SOL     OW 6235   5.268   6.881   5.488
 1779SOL    HW1 6236   5.270   6.869   5.389
 1779SOL    HW2 6237   5.192   6.941   5.513
 1780SOL     OW 6238   1.595   5.166   4.471
 1780SOL    HW1 6239   1.552   5.180   4.381
 1780SOL    HW2 6240   1.682   5.119   4.459
 1781SOL     OW 6241   4.739   6.825   4.719
 1781SOL    HW1 6242   4.734   6.919   4.754
 1781SOL    HW2 6243   4.720   6.825   4.621
 1782SOL     OW 6244   1.899   1.515   2.704
 1782SOL    HW1 6245   1.851   1.559   2.628
 1782SOL    HW2 6246   1.994   1.546   2.706
 1783SOL     OW 6247   2.535   3.359   6.251
 1783SOL    HW1 6248   2.473   3.283   6.235
 1783SOL    HW2 6249   2.569   3.393   6.163
 1784SOL     OW 6250   2.335   0.632   1.351
 1784SOL    HW1 6251   2.300   0.546   1.313
 1784SOL    HW2 6252   2.435   0.632   1.348
 1785SOL     OW 6253   0.125   6.355   4.107
 1785SOL    HW1 6254   0.126   6.418   4.184
 1785SOL    HW2 6255   0.199   6.378   4.044
 1786SOL     OW 6256   1.629   5.456   0.776
 1786SOL    HW1 6257   1.615   5.403   0.860
 1786SOL    HW2 6258   1.705   5.416   0.725
 1787SOL     OW 6259   1.126   2.422   5.178
 1787SOL    HW1 6260   1.157   2.422   5.273
 1787SOL    HW2 6261   1.203   2.395   5.119
 1788SOL     OW 6262   4.785   3.911   0.345
 1788SOL    HW1 6263   4.844   3.973   0.294
 1788SOL    HW2 6264   4.790   3.819   0.306
 1789SOL     OW 6265   6.465   3.348   2.102
 1789SOL    HW1 6266   6.408   3.313   2.177
 1789SOL    HW2 6267   6.408   3.397   2.036
 1790SOL     OW 6268   3.139   1.606   4.736
 1790SOL    HW1 6269   3.178   1.585   4.826
 1790SOL    HW2 6270   3.050   1.649   4.748
 1791SOL     OW 6271   5.987   0.832   3.969
 1791SOL    HW1 6272   5.961   0.796   4.059
 1791SOL    HW2 6273   5.955   0.926   3.960
 1792SOL     OW 6274   6.842   1.868   5.393
 1792SOL    HW1 6275   6.753   1.835   5.363
 1792SOL    HW2 6276   6.834   1.963   5.424
 1793SOL     OW 6277   6.933   1.048   5.163
 1793SOL    HW1 6278   6.899   1.007   5.247
 1793SOL    HW2 6279   6.914   1.147   5.164
 1794SOL     OW 6280   6.093   0.643   6.840
 1794SOL    HW1 6281   6.172   0.648   6.901
 1794SOL    HW2 6282   6.101   0.713   6.769
 1795SOL     OW 6283   6.089   4.777   0.080
 1795SOL    HW1 6284   6.157   4.716   0.121
 1795SOL    HW2 6285   6.038   4.823   0.153
 1796SOL     OW 6286   1.601   0.967   5.490
 1796SOL    HW1 6287   1.649   1.049   5.523
 1796SOL    HW2 6288   1.637   0.887   5.537
 1797SOL     OW 6289   1.875   6.881   5.006
 1797SOL    HW1 6290   1.802   6.936   4.966
 1797SOL    HW2 6291   1.841   6.789   5.025
 1798SOL     OW 6292   3.924   3.027   4.435
 1798SOL    HW1 6293   3.893   2.967   4.508
 1798SOL    HW2 6294   3.955   3.114   4.475
 1799SOL     OW 6295   3.888   0.900   6.716
 1799SOL    HW1 6296   3.854   0.968   6.781
 1799SOL    HW2 6297   3.870   0.932   6.623
 1800SOL     OW 6298   4.898   4.448   3.959
 1800SOL    HW1 6299   4.849   4.400   4.032
 1800SOL    HW2 6300   4.860   4.540   3.949
 1801SOL     OW 6301   1.097   1.412   1.759
 1801SOL    HW1 6302   1.005   1.397   1.797
 1801SOL    HW2 6303   1.121   1.509   1.767
 1802SOL     OW 6304   6.306   5.210   3.663
 1802SOL    HW1 6305   6.242   5.247   3.730
 1802SOL    HW2 6306   6.324   5.279   3.593
 1803SOL     OW 6307   0.260   6.477   2.556
 1803SOL    HW1 6308   0.198   6.534   2.610
 1803SOL    HW2 6309   0.235   6.381   2.566
 1804SOL     OW 6310   3.093   3.474   6.113
 1804SOL    HW1 6311   3.042   3.437   6.035
 1804SOL    HW2 6312   3.129   3.399   6.169
 1805SOL     OW 6313   0.885   6.491   6.097
 1805SOL    HW1 6314   0.984   6.476   6.106
 1805SOL    HW2 6315   0.854   6.551   6.171
 1806SOL     OW 6316   6.780   2.095   2.503
 1806SOL    HW1 6317   6.799   2.166   2.435
 1806SOL    HW2 6318   6.693   2.114   2.548
 1807SOL     OW 6319   6.562   3.688   0.559
 1807SOL    HW1 6320   6.555   3.603   0.506
 1807SOL    HW2 6321   6.478   3.702   0.611
 1808SOL     OW 6322   5.432   2.608   5.240
 1808SOL    HW1 6323   5.446   2.707   5.240
 1808SOL    HW2 6324   5.362   2.585   5.308
 1809SOL     OW 6325   3.243   1.887   5.395
 1809SOL    HW1 6326   3.221   1.977   5.358
 1809SOL    HW2 6327   3.220   1.884   5.492
 1810SOL     OW 6328   0.566   0.580   4.036
 1810SOL    HW1 6329   0.509   0.523   3.977
 1810SOL    HW2 6330   0.534   0.573   4.130
 1811SOL     OW 6331   4.407   4.817   2.009
 1811SOL    HW1 6332   4.506   4.810   1.996
 1811SOL    HW2 6333   4.372   4.732   2.046
 1812SOL     OW 6334   4.262   0.081   5.959
 1812SOL    HW1 6335   4.322   0.055   6.035
 1812SOL    HW2 6336   4.311   0.070   5.873
 1813SOL     OW 6337   4.757   4.642   2.418
 1813SOL    HW1 6338   4.668   4.621   2.459
 1813SOL    HW2 6339   4.744   4.682   2.328
 1814SOL     OW 6340   0.127   6.884   0.955
 1814SOL    HW1 6341   0.162   6.893   0.862
 1814SOL    HW2 6342   0.199   6.906   1.020
 1815SOL     OW 6343   5.578   5.990   2.220
 1815SOL    HW1 6344   5.502   6.002   2.283
 1815SOL    HW2 6345   5.557   5.916   2.156
 1816SOL     OW 6346   4.331   6.141   5.517
 1816SOL    HW1 6347   4.348   6.136   5.615
 1816SOL    HW2 6348   4.232   6.138   5.500
 1817SOL     OW 6349   3.213   1.498   2.971
 1817SOL    HW1 6350   3.230   1.588   3.012
 1817SOL    HW2 6351   3.118   1.493   2.940
 1818SOL     OW 6352   1.924   6.562   0.057
 1818SOL    HW1 6353   1.936   6.479   0.112
 1818SOL    HW2 6354   1.935   6.642   0.115
 1819SOL     OW 6355   0.680   4.617   2.660
 1819SOL    HW1 6356   0.638   4.707   2.651
 1819SOL    HW2 6357   0.617   4.547   2.627
 1820SOL     OW 6358   3.655   0.077   2.715
 1820SOL    HW1 6359   3.630   7.008   2.702
 1820SOL    HW2 6360   3.748   0.084   2.751
 1821SOL     OW 6361   3.223   0.749   2.089
 1821SOL    HW1 6362   3.264   0.820   2.032
 1821SOL    HW2 6363   3.139   0.784   2.130
 1822SOL     OW 6364   1.393   3.136   2.059
 1822SOL    HW1 6365   1.473   3.081   2.080
 1822SOL    HW2 6366   1.343   3.155   2.143
 1823SOL     OW 6367   3.573   6.334   2.856
 1823SOL    HW1 6368   3.581   6.334   2.956
 1823SOL    HW2 6369   3.654   6.290   2.816
 1824SOL     OW 6370   4.703   4.028   0.960
 1824SOL    HW1 6371   4.641   3.997   1.032
 1824SOL    HW2 6372   4.656   4.022   0.871
 1825SOL     OW 6373   1.234   2.595   4.791
 1825SOL    HW1 6374   1.209   2.611   4.695
 1825SOL    HW2 6375   1.332   2.607   4.802
 1826SOL     OW 6376   3.660   1.188   1.717
 1826SOL    HW1 6377   3.608   1.240   1.649
 1826SOL    HW2 6378   3.640   1.090   1.707
 1827SOL     OW 6379   5.133   5.131   0.783
 1827SOL    HW1 6380   5.113   5.101   0.690
 1827SOL    HW2 6381   5.060   5.102   0.844
 1828SOL     OW 6382   1.306   3.582   5.964
 1828SOL    HW1 6383   1.348   3.503   6.010
 1828SOL    HW2 6384   1.242   3.549   5.894
 1829SOL     OW 6385   3.764   0.637   3.583
 1829SOL    HW1 6386   3.717   0.724   3.594
 1829SOL    HW2 6387   3.769   0.590   3.671
 1830SOL     OW 6388   5.976   6.962   5.247
 1830SOL    HW1 6389   5.962   6.881   5.304
 1830SOL    HW2 6390   5.955   6.940   5.151
 1831SOL     OW 6391   5.194   5.742   2.690
 1831SOL    HW1 6392   5.270   5.730   2.754
 1831SOL    HW2 6393   5.112   5.700   2.727
 1832SOL     OW 6394   2.665   4.004   0.556
 1832SOL    HW1 6395   2.637   4.074   0.490
 1832SOL    HW2 6396   2.598   3.930   0.557
 1833SOL     OW 6397   4.550   7.002   1.588
 1833SOL    HW1 6398   4.525   6.987   1.492
 1833SOL    HW2 6399   4.530   6.919   1.640
 1834SOL     OW 6400   2.965   2.590   0.537
 1834SOL    HW1 6401   2.953   2.689   0.542
 1834SOL    HW2 6402   2.889   2.544   0.584
 1835SOL     OW 6403   0.930   5.159   1.297
 1835SOL    HW1 6404   0.846   5.205   1.268
 1835SOL    HW2 6405   0.908   5.066   1.329
 1836SOL     OW 6406   5.248   1.437   2.309
 1836SOL    HW1 6407   5.170   1.450   2.248
 1836SOL    HW2 6408   5.246   1.344   2.347
 1837SOL     OW 6409   2.422   0.927   5.638
 1837SOL    HW1 6410   2.355   0.854   5.633
 1837SOL    HW2 6411   2.391   1.006   5.585
 1838SOL     OW 6412   6.963   0.772   0.511
 1838SOL    HW1 6413   6.866   0.749   0.504
 1838SOL    HW2 6414   6.997   0.800   0.421
 1839SOL     OW 6415   6.171   1.733   6.983
 1839SOL    HW1 6416   6.237   1.804   7.007
 1839SOL    HW2 6417   6.157   1.734   6.884
 1840SOL     OW 6418   3.468   0.265   3.207
 1840SOL    HW1 6419   3.415   0.294   3.127
 1840SOL    HW2 6420   3.438   0.174   3.235
 1841SOL     OW 6421   1.829   0.109   1.878
 1841SOL    HW1 6422   1.912   0.075   1.833
 1841SOL    HW2 6423   1.853   0.142   1.969
 1842SOL     OW 6424   1.638   4.584   0.700
 1842SOL    HW1 6425   1.690   4.649   0.756
 1842SOL    HW2 6426   1.583   4.525   0.760
 1843SOL     OW 6427   3.685   1.477   4.719
 1843SOL    HW1 6428   3.649   1.441   4.633
 1843SOL    HW2 6429   3.618   1.463   4.791
 1844SOL     OW 6430   4.754   1.437   5.731
 1844SOL    HW1 6431   4.846   1.475   5.745
 1844SOL    HW2 6432   4.756   1.338   5.749
 1845SOL     OW 6433   2.436   0.664   3.234
 1845SOL    HW1 6434   2.438   0.568   3.261
 1845SOL    HW2 6435   2.474   0.721   3.307
 1846SOL     OW 6436   4.513   1.069   3.167
 1846SOL    HW1 6437   4.501   0.980   3.122
 1846SOL    HW2 6438   4.429   1.093   3.216
 1847SOL     OW 6439   2.053   0.582   4.532
 1847SOL    HW1 6440   2.112   0.631   4.469
 1847SOL    HW2 6441   2.059   0.624   4.623
 1848SOL     OW 6442   2.285   5.831   4.314
 1848SOL    HW1 6443   2.203   5.889   4.316
 1848SOL    HW2 6444   2.366   5.889   4.301
 1849SOL     OW 6445   4.793   2.970   2.583
 1849SOL    HW1 6446   4.831   3.008   2.667
 1849SOL    HW2 6447   4.694   2.959   2.593
 1850SOL     OW 6448   5.134   1.686   2.106
 1850SOL    HW1 6449   5.099   1.705   2.014
 1850SOL    HW2 6450   5.059   1.654   2.164
 1851SOL     OW 6451   0.438   3.251   6.428
 1851SOL    HW1 6452   0.503   3.314   6.470
 1851SOL    HW2 6453   0.465   3.234   6.333
 1852SOL     OW 6454   1.030   3.949   1.502
 1852SOL    HW1 6455   0.972   3.869   1.488
 1852SOL    HW2 6456   0.977   4.021   1.548
 1853SOL     OW 6457   0.161   3.216   4.932
 1853SOL    HW1 6458   0.101   3.295   4.918
 1853SOL    HW2 6459   0.215   3.229   5.016
 1854SOL     OW 6460   0.961   5.889   3.404
 1854SOL    HW1 6461   1.047   5.933   3.377
 1854SOL    HW2 6462   0.943   5.812   3.344
 1855SOL     OW 6463   5.054   3.597   4.351
 1855SOL    HW1 6464   5.123   3.593   4.279
 1855SOL    HW2 6465   4.996   3.677   4.338
 1856SOL     OW 6466   3.871   2.932   6.716
 1856SOL    HW1 6467   3.943   2.879   6.670
 1856SOL    HW2 6468   3.911   3.013   6.758
 1857SOL     OW 6469   5.515   0.865   0.414
 1857SOL    HW1 6470   5.416   0.857   0.420
 1857SOL    HW2 6471   5.558   0.787   0.458
 1858SOL     OW 6472   4.629   1.953   4.287
 1858SOL    HW1 6473   4.556   1.999   4.337
 1858SOL    HW2 6474   4.714   2.005   4.295
 1859SOL     OW 6475   5.347   1.861   4.946
 1859SOL    HW1 6476   5.370   1.919   4.868
 1859SOL    HW2 6477   5.382   1.769   4.930
 1860SOL     OW 6478   0.667   1.701   4.529
 1860SOL    HW1 6479   0.741   1.688   4.463
 1860SOL    HW2 6480   0.614   1.782   4.504
 1861SOL     OW 6481   5.649   0.954   3.154
 1861SOL    HW1 6482   5.623   1.051   3.156
 1861SOL    HW2 6483   5.735   0.943   3.105
 1862SOL     OW 6484   1.977   6.367   6.705
 1862SOL    HW1 6485   1.917   6.332   6.777
 1862SOL    HW2 6486   1.984   6.299   6.631
 1863SOL     OW 6487   0.780   2.958   1.059
 1863SOL    HW1 6488   0.749   2.997   1.146
 1863SOL    HW2 6489   0.874   2.988   1.042
 1864SOL     OW 6490   2.856   5.952   4.112
 1864SOL    HW1 6491   2.815   5.862   4.095
 1864SOL    HW2 6492   2.955   5.942   4.122
 1865SOL     OW 6493   4.677   1.739   0.988
 1865SOL    HW1 6494   4.699   1.704   1.078
 1865SOL    HW2 6495   4.578   1.752   0.980
 1866SOL     OW 6496   0.044   4.020   4.498
 1866SOL    HW1 6497   7.011   3.948   4.533
 1866SOL    HW2 6498   0.038   4.100   4.558
 1867SOL     OW 6499   2.561   2.662   1.411
 1867SOL    HW1 6500   2.655   2.628   1.408
 1867SOL    HW2 6501   2.498   2.588   1.389
 1868SOL     OW 6502   4.982   3.889   4.649
 1868SOL    HW1 6503   5.077   3.865   4.632
 1868SOL    HW2 6504   4.963   3.882   4.747
 1869SOL     OW 6505   4.819   2.204   4.060
 1869SOL    HW1 6506   4.872   2.128   4.096
 1869SOL    HW2 6507   4.778   2.177   3.972
 1870SOL     OW 6508   0.957   3.942   3.870
 1870SOL    HW1 6509   0.941   3.854   3.826
 1870SOL    HW2 6510   1.049   3.974   3.848
 1871SOL     OW 6511   0.620   6.568   0.587
 1871SOL    HW1 6512   0.563   6.510   0.529
 1871SOL    HW2 6513   0.564   6.607   0.660
 1872SOL     OW 6514   3.156   2.563   0.338
 1872SOL    HW1 6515   3.101   2.586   0.418
 1872SOL    HW2 6516   3.209   2.480   0.356
 1873SOL     OW 6517   6.458   1.106   0.213
 1873SOL    HW1 6518   6.388   1.134   0.279
 1873SOL    HW2 6519   6.537   1.070   0.262
 1874SOL     OW 6520   0.864   0.058   6.358
 1874SOL    HW1 6521   0.862   0.054   6.258
 1874SOL    HW2 6522   0.803   0.130   6.390
 1875SOL     OW 6523   6.215   6.078   0.037
 1875SOL    HW1 6524   6.272   6.126   0.104
 1875SOL    HW2 6525   6.270   6.055   6.984
 1876SOL     OW 6526   5.440   6.758   5.963
 1876SOL    HW1 6527   5.469   6.759   5.867
 1876SOL    HW2 6528   5.342   6.740   5.968
 1877SOL     OW 6529   0.375   0.735   2.170
 1877SOL    HW1 6530   0.367   0.660   2.105
 1877SOL    HW2 6531   0.292   0.741   2.225
 1878SOL     OW 6532   0.448   4.321   2.926
 1878SOL    HW1 6533   0.401   4.401   2.889
 1878SOL    HW2 6534   0.514   4.288   2.859
 1879SOL     OW 6535   2.483   5.492   4.879
 1879SOL    HW1 6536   2.496   5.583   4.918
 1879SOL    HW2 6537   2.464   5.499   4.781
 1880SOL     OW 6538   0.051   2.459   3.021
 1880SOL    HW1 6539   0.145   2.454   3.054
 1880SOL    HW2 6540   7.026   2.524   3.078
 1881SOL     OW 6541   1.370   2.157   3.158
 1881SOL    HW1 6542   1.295   2.179   3.219
 1881SOL    HW2 6543   1.334   2.127   3.070
 1882SOL     OW 6544   1.292   5.774   0.269
 1882SOL    HW1 6545   1.359   5.715   0.314
 1882SOL    HW2 6546   1.266   5.849   0.330
 1883SOL     OW 6547   1.267   3.753   2.325
 1883SOL    HW1 6548   1.298   3.783   2.235
 1883SOL    HW2 6549   1.294   3.820   2.394
 1884SOL     OW 6550   3.753   0.762   0.501
 1884SOL    HW1 6551   3.779   0.668   0.476
 1884SOL    HW2 6552   3.765   0.822   0.422
 1885SOL     OW 6553   0.064   2.543   0.849
 1885SOL    HW1 6554   0.075   2.508   0.942
 1885SOL    HW2 6555   0.010   2.478   0.796
 1886SOL     OW 6556   2.207   1.632   6.353
 1886SOL    HW1 6557   2.216   1.683   6.439
 1886SOL    HW2 6558   2.112   1.601   6.343
 1887SOL     OW 6559   0.313   4.860   5.787
 1887SOL    HW1 6560   0.385   4.898   5.846
 1887SOL    HW2 6561   0.347   4.854   5.693
 1888SOL     OW 6562   1.974   1.879   5.469
 1888SOL    HW1 6563   2.028   1.860   5.551
 1888SOL    HW2 6564   1.920   1.798   5.446
 1889SOL     OW 6565   4.680   3.609   0.425
 1889SOL    HW1 6566   4.681   3.634   0.522
 1889SOL    HW2 6567   4.586   3.609   0.392
 1890SOL     OW 6568   0.724   6.262   6.027
 1890SOL    HW1 6569   0.755   6.227   6.115
 1890SOL    HW2 6570   0.714   6.361   6.031
 1891SOL     OW 6571   5.946   3.273   5.613
 1891SOL    HW1 6572   5.967   3.224   5.528
 1891SOL    HW2 6573   5.934   3.370   5.594
 1892SOL     OW 6574   3.949   6.040   1.014
 1892SOL    HW1 6575   4.022   5.975   0.996
 1892SOL    HW2 6576   3.953   6.114   0.946
 1893SOL     OW 6577   3.393   2.086   4.446
 1893SOL    HW1 6578   3.363   2.145   4.521
 1893SOL    HW2 6579   3.487   2.056   4.463
 1894SOL     OW 6580   4.441   4.085   1.628
 1894SOL    HW1 6581   4.383   4.115   1.553
 1894SOL    HW2 6582   4.434   4.150   1.704
 1895SOL     OW 6583   6.104   1.348   2.532
 1895SOL    HW1 6584   6.175   1.308   2.590
 1895SOL    HW2 6585   6.108   1.306   2.441
 1896SOL     OW 6586   5.953   1.361   4.348
 1896SOL    HW1 6587   5.995   1.445   4.313
 1896SOL    HW2 6588   6.005   1.282   4.317
 1897SOL     OW 6589   6.100   5.552   3.906
 1897SOL    HW1 6590   6.005   5.543   3.937
 1897SOL    HW2 6591   6.140   5.461   3.896
 1898SOL     OW 6592   5.416   5.691   1.459
 1898SOL    HW1 6593   5.398   5.789   1.460
 1898SOL    HW2 6594   5.514   5.675   1.454
 1899SOL     OW 6595   0.385   3.385   2.835
 1899SOL    HW1 6596   0.471   3.337   2.813
 1899SOL    HW2 6597   0.402   3.450   2.909
 1900SOL     OW 6598   1.624   6.627   6.291
 1900SOL    HW1 6599   1.707   6.679   6.273
 1900SOL    HW2 6600   1.635   6.571   6.373
 1901SOL     OW 6601   2.133   0.998   6.660
 1901SOL    HW1 6602   2.053   0.944   6.634
 1901SOL    HW2 6603   2.151   0.986   6.758
 1902SOL     OW 6604   1.339   2.462   4.513
 1902SOL    HW1 6605   1.282   2.422   4.585
 1902SOL    HW2 6606   1.291   2.456   4.425
 1903SOL     OW 6607   6.249   4.979   3.770
 1903SOL    HW1 6608   6.255   4.963   3.869
 1903SOL    HW2 6609   6.284   5.070   3.749
 1904SOL     OW 6610   0.334   0.274   4.595
 1904SOL    HW1 6611   0.416   0.316   4.557
 1904SOL    HW2 6612   0.326   0.297   4.692
 1905SOL     OW 6613   0.028   2.117   3.704
 1905SOL    HW1 6614   0.054   2.106   3.800
 1905SOL    HW2 6615   6.970   2.171   3.699
 1906SOL     OW 6616   2.701   0.436   5.675
 1906SOL    HW1 6617   2.699   0.340   5.645
 1906SOL    HW2 6618   2.720   0.440   5.773
 1907SOL     OW 6619   2.877   0.260   3.327
 1907SOL    HW1 6620   2.879   0.251   3.427
 1907SOL    HW2 6621   2.966   0.290   3.294
 1908SOL     OW 6622   4.741   1.108   5.413
 1908SOL    HW1 6623   4.833   1.071   5.420
 1908SOL    HW2 6624   4.683   1.068   5.484
 1909SOL     OW 6625   2.433   4.532   4.473
 1909SOL    HW1 6626   2.459   4.601   4.540
 1909SOL    HW2 6627   2.368   4.467   4.513
 1910SOL     OW 6628   5.231   2.383   6.818
 1910SOL    HW1 6629   5.229   2.283   6.815
 1910SOL    HW2 6630   5.164   2.416   6.886
 1911SOL     OW 6631   6.517   2.185   5.128
 1911SOL    HW1 6632   6.422   2.213   5.139
 1911SOL    HW2 6633   6.540   2.184   5.030
 1912SOL     OW 6634   3.304   6.515   2.326
 1912SOL    HW1 6635   3.302   6.416   2.309
 1912SOL    HW2 6636   3.375   6.557   2.269
 1913SOL     OW 6637   1.953   6.251   5.150
 1913SOL    HW1 6638   1.997   6.334   5.116
 1913SOL    HW2 6639   1.974   6.239   5.247
 1914SOL     OW 6640   2.296   2.684   6.534
 1914SOL    HW1 6641   2.332   2.730   6.616
 1914SOL    HW2 6642   2.226   2.617   6.561
 1915SOL     OW 6643   3.977   0.514   6.379
 1915SOL    HW1 6644   3.891   0.478   6.344
 1915SOL    HW2 6645   4.048   0.505   6.309
 1916SOL     OW 6646   4.203   5.841   1.031
 1916SOL    HW1 6647   4.278   5.867   1.092
 1916SOL    HW2 6648   4.151   5.765   1.072
 1917SOL     OW 6649   3.732   4.172   4.601
 1917SOL    HW1 6650   3.783   4.143   4.682
 1917SOL    HW2 6651   3.727   4.271   4.598
 1918SOL     OW 6652   6.216   6.533   6.192
 1918SOL    HW1 6653   6.153   6.479   6.136
 1918SOL    HW2 6654   6.268   6.472   6.252
 1919SOL     OW 6655   1.086   6.220   2.231
 1919SOL    HW1 6656   1.056   6.125   2.225
 1919SOL    HW2 6657   1.123   6.237   2.322
 1920SOL     OW 6658   0.760   4.378   3.596
 1920SOL    HW1 6659   0.760   4.287   3.638
 1920SOL    HW2 6660   0.826   4.380   3.521
 1921SOL     OW 6661   0.823   5.895   6.985
 1921SOL    HW1 6662   0.827   5.886   0.058
 1921SOL    HW2 6663   0.728   5.889   6.954
 1922SOL     OW 6664   4.006   3.406   1.494
 1922SOL    HW1 6665   3.943   3.481   1.476
 1922SOL    HW2 6666   4.018   3.395   1.592
 1923SOL     OW 6667   2.863   1.440   0.513
 1923SOL    HW1 6668   2.786   1.491   0.550
 1923SOL    HW2 6669   2.849   1.422   0.416
 1924SOL     OW 6670   6.735   4.342   1.912
 1924SOL    HW1 6671   6.638   4.331   1.891
 1924SOL    HW2 6672   6.747   4.349   2.011
 1925SOL     OW 6673   2.894   3.825   1.799
 1925SOL    HW1 6674   2.961   3.792   1.732
 1925SOL    HW2 6675   2.932   3.815   1.891
 1926SOL     OW 6676   1.591   0.661   4.518
 1926SOL    HW1 6677   1.599   0.637   4.421
 1926SOL    HW2 6678   1.508   0.716   4.531
 1927SOL     OW 6679   3.943   3.820   0.139
 1927SOL    HW1 6680   3.911   3.915   0.135
 1927SOL    HW2 6681   3.923   3.775   0.051
 1928SOL     OW 6682   6.552   3.269   5.901
 1928SOL    HW1 6683   6.521   3.226   5.817
 1928SOL    HW2 6684   6.474   3.308   5.950
 1929SOL     OW 6685   1.403   5.842   2.054
 1929SOL    HW1 6686   1.458   5.925   2.064
 1929SOL    HW2 6687   1.463   5.762   2.051
 1930SOL     OW 6688   6.196   4.521   6.823
 1930SOL    HW1 6689   6.117   4.567   6.865
 1930SOL    HW2 6690   6.215   4.562   6.734
 1931SOL     OW 6691   7.013   3.616   3.164
 1931SOL    HW1 6692   0.030   3.676   3.231
 1931SOL    HW2 6693   0.011   3.521   3.183
 1932SOL     OW 6694   5.287   3.786   2.453
 1932SOL    HW1 6695   5.203   3.802   2.401
 1932SOL    HW2 6696   5.340   3.714   2.407
 1933SOL     OW 6697   2.884   5.032   0.726
 1933SOL    HW1 6698   2.929   4.943   0.735
 1933SOL    HW2 6699   2.949   5.104   0.748
 1934SOL     OW 6700   1.630   6.978   5.590
 1934SOL    HW1 6701   1.689   0.012   5.643
 1934SOL    HW2 6702   1.536   6.985   5.624
 1935SOL     OW 6703   2.934   0.067   4.997
 1935SOL    HW1 6704   2.961   6.998   5.008
 1935SOL    HW2 6705   3.009   0.127   5.024
 1936SOL     OW 6706   5.425   5.749   5.114
 1936SOL    HW1 6707   5.378   5.808   5.180
 1936SOL    HW2 6708   5.435   5.798   5.027
 1937SOL     OW 6709   3.636   6.573   1.702
 1937SOL    HW1 6710   3.581   6.601   1.624
 1937SOL    HW2 6711   3.721   6.531   1.669
 1938SOL     OW 6712   3.688   1.510   3.293
 1938SOL    HW1 6713   3.611   1.574   3.299
 1938SOL    HW2 6714   3.706   1.470   3.383
 1939SOL     OW 6715   1.103   0.487   3.562
 1939SOL    HW1 6716   1.194   0.526   3.553
 1939SOL    HW2 6717   1.071   0.495   3.656
 1940SOL     OW 6718   4.937   5.596   6.433
 1940SOL    HW1 6719   4.912   5.684   6.474
 1940SOL    HW2 6720   4.888   5.585   6.347
 1941SOL     OW 6721   6.625   4.674   3.304
 1941SOL    HW1 6722   6.527   4.655   3.300
 1941SOL    HW2 6723   6.642   4.758   3.355
 1942SOL     OW 6724   5.510   5.769   2.065
 1942SOL    HW1 6725   5.539   5.705   1.995
 1942SOL    HW2 6726   5.493   5.719   2.151
 1943SOL     OW 6727   3.181   5.435   2.258
 1943SOL    HW1 6728   3.244   5.434   2.181
 1943SOL    HW2 6729   3.220   5.490   2.333
 1944SOL     OW 6730   5.248   1.846   6.865
 1944SOL    HW1 6731   5.292   1.843   6.954
 1944SOL    HW2 6732   5.149   1.840   6.876
 1945SOL     OW 6733   4.835   5.668   2.943
 1945SOL    HW1 6734   4.756   5.649   3.001
 1945SOL    HW2 6735   4.804   5.688   2.850
 1946SOL     OW 6736   0.952   1.034   0.897
 1946SOL    HW1 6737   1.012   1.100   0.942
 1946SOL    HW2 6738   0.881   1.005   0.960
 1947SOL     OW 6739   5.392   6.298   4.597
 1947SOL    HW1 6740   5.433   6.223   4.649
 1947SOL    HW2 6741   5.459   6.371   4.584
 1948SOL     OW 6742   6.813   5.769   4.699
 1948SOL    HW1 6743   6.843   5.674   4.711
 1948SOL    HW2 6744   6.715   5.775   4.714
 1949SOL     OW 6745   4.044   4.067   5.706
 1949SOL    HW1 6746   4.005   4.115   5.784
 1949SOL    HW2 6747   3.971   4.045   5.640
 1950SOL     OW 6748   3.712   3.824   0.395
 1950SOL    HW1 6749   3.779   3.750   0.401
 1950SOL    HW2 6750   3.759   3.912   0.395
 1951SOL     OW 6751   6.809   2.522   0.439
 1951SOL    HW1 6752   6.783   2.618   0.434
 1951SOL    HW2 6753   6.908   2.514   0.449
 1952SOL     OW 6754   3.665   2.606   0.336
 1952SOL    HW1 6755   3.578   2.571   0.369
 1952SOL    HW2 6756   3.657   2.632   0.240
 1953SOL     OW 6757   6.691   1.984   6.856
 1953SOL    HW1 6758   6.662   1.910   6.917
 1953SOL    HW2 6759   6.719   2.063   6.912
 1954SOL     OW 6760   5.382   2.083   3.915
 1954SOL    HW1 6761   5.360   2.162   3.973
 1954SOL    HW2 6762   5.313   2.012   3.928
 1955SOL     OW 6763   1.391   6.811   1.786
 1955SOL    HW1 6764   1.312   6.869   1.770
 1955SOL    HW2 6765   1.474   6.867   1.786
 1956SOL     OW 6766   5.676   6.523   2.721
 1956SOL    HW1 6767   5.578   6.517   2.743
 1956SOL    HW2 6768   5.688   6.579   2.639
 1957SOL     OW 6769   6.600   5.622   5.302
 1957SOL    HW1 6770   6.626   5.621   5.399
 1957SOL    HW2 6771   6.541   5.701   5.285
 1958SOL     OW 6772   6.292   3.432   4.170
 1958SOL    HW1 6773   6.382   3.468   4.193
 1958SOL    HW2 6774   6.267   3.462   4.078
 1959SOL     OW 6775   0.726   2.772   5.768
 1959SOL    HW1 6776   0.687   2.841   5.829
 1959SOL    HW2 6777   0.753   2.815   5.682
 1960SOL     OW 6778   6.625   4.547   1.465
 1960SOL    HW1 6779   6.680   4.485   1.409
 1960SOL    HW2 6780   6.537   4.503   1.487
 1961SOL     OW 6781   5.685   4.630   4.719
 1961SOL    HW1 6782   5.708   4.539   4.683
 1961SOL    HW2 6783   5.769   4.678   4.745
 1962SOL     OW 6784   1.416   6.163   3.581
 1962SOL    HW1 6785   1.472   6.184   3.501
 1962SOL    HW2 6786   1.442   6.074   3.618
 1963SOL     OW 6787   0.751   0.489   2.022
 1963SOL    HW1 6788   0.731   0.496   2.120
 1963SOL    HW2 6789   0.739   0.578   1.979
 1964SOL     OW 6790   4.609   2.656   1.354
 1964SOL    HW1 6791   4.629   2.708   1.271
 1964SOL    HW2 6792   4.511   2.637   1.358
 1965SOL     OW 6793   0.928   2.760   2.665
 1965SOL    HW1 6794   0.936   2.664   2.638
 1965SOL    HW2 6795   0.892   2.766   2.758
 1966SOL     OW 6796   0.606   5.360   5.319
 1966SOL    HW1 6797   0.701   5.345   5.291
 1966SOL    HW2 6798   0.599   5.447   5.368
 1967SOL     OW 6799   4.679   1.855   6.253
 1967SOL    HW1 6800   4.580   1.844   6.249
 1967SOL    HW2 6801   4.717   1.849   6.161
 1968SOL     OW 6802   3.190   6.285   0.274
 1968SOL    HW1 6803   3.101   6.322   0.304
 1968SOL    HW2 6804   3.195   6.188   0.299
 1969SOL     OW 6805   7.021   1.408   2.002
 1969SOL    HW1 6806   0.089   1.399   2.035
 1969SOL    HW2 6807   6.960   1.426   2.079
 1970SOL     OW 6808   2.628   0.875   6.122
 1970SOL    HW1 6809   2.608   0.966   6.158
 1970SOL    HW2 6810   2.556   0.849   6.057
 1971SOL     OW 6811   6.393   0.227   6.375
 1971SOL    HW1 6812   6.423   0.132   6.384
 1971SOL    HW2 6813   6.458   0.288   6.420
 1972SOL     OW 6814   0.482   2.880   2.905
 1972SOL    HW1 6815   0.482   2.950   2.977
 1972SOL    HW2 6816   0.534   2.913   2.826
 1973SOL     OW 6817   3.280   3.147   1.606
 1973SOL    HW1 6818   3.365   3.094   1.601
 1973SOL    HW2 6819   3.260   3.186   1.517
 1974SOL     OW 6820   6.095   6.203   4.144
 1974SOL    HW1 6821   6.103   6.181   4.241
 1974SOL    HW2 6822   6.175   6.256   4.115
 1975SOL     OW 6823   2.398   1.073   3.578
 1975SOL    HW1 6824   2.360   1.104   3.490
 1975SOL    HW2 6825   2.329   1.021   3.628
 1976SOL     OW 6826   0.547   6.041   0.141
 1976SOL    HW1 6827   0.583   5.952   0.112
 1976SOL    HW2 6828   0.578   6.112   0.078
 1977SOL     OW 6829   0.931   2.838   3.639
 1977SOL    HW1 6830   0.979   2.919   3.605
 1977SOL    HW2 6831   0.972   2.756   3.598
 1978SOL     OW 6832   1.477   0.872   4.298
 1978SOL    HW1 6833   1.483   0.923   4.213
 1978SOL    HW2 6834   1.495   0.775   4.281
 1979SOL     OW 6835   6.840   4.306   5.113
 1979SOL    HW1 6836   6.799   4.397   5.123
 1979SOL    HW2 6837   6.857   4.288   5.016
 1980SOL     OW 6838   2.960   0.260   0.303
 1980SOL    HW1 6839   2.938   0.214   0.389
 1980SOL    HW2 6840   3.010   0.345   0.322
 1981SOL     OW 6841   5.175   2.121   2.423
 1981SOL    HW1 6842   5.081   2.133   2.454
 1981SOL    HW2 6843   5.178   2.050   2.352
 1982SOL     OW 6844   6.187   4.366   5.321
 1982SOL    HW1 6845   6.179   4.421   5.404
 1982SOL    HW2 6846   6.283   4.362   5.293
 1983SOL     OW 6847   0.907   2.476   2.654
 1983SOL    HW1 6848   0.888   2.414   2.578
 1983SOL    HW2 6849   1.005   2.471   2.677
 1984SOL     OW 6850   5.242   1.187   5.626
 1984SOL    HW1 6851   5.223   1.191   5.724
 1984SOL    HW2 6852   5.191   1.259   5.579
 1985SOL     OW 6853   1.065   1.136   2.327
 1985SOL    HW1 6854   1.022   1.130   2.417
 1985SOL    HW2 6855   1.150   1.189   2.335
 1986SOL     OW 6856   1.269   1.497   7.012
 1986SOL    HW1 6857   1.313   1.425   0.038
 1986SOL    HW2 6858   1.217   1.457   6.936
 1987SOL     OW 6859   2.596   3.507   1.395
 1987SOL    HW1 6860   2.642   3.530   1.481
 1987SOL    HW2 6861   2.506   3.550   1.393
 1988SOL     OW 6862   5.096   4.349   0.842
 1988SOL    HW1 6863   5.012   4.296   0.854
 1988SOL    HW2 6864   5.175   4.288   0.849
 1989SOL     OW 6865   2.169   0.765   5.151
 1989SOL    HW1 6866   2.163   0.806   5.061
 1989SOL    HW2 6867   2.230   0.686   5.148
 1990SOL     OW 6868   3.260   0.035   1.733
 1990SOL    HW1 6869   3.308   0.014   1.818
 1990SOL    HW2 6870   3.229   0.130   1.735
 1991SOL     OW 6871   3.593   5.412   5.947
 1991SOL    HW1 6872   3.624   5.335   5.891
 1991SOL    HW2 6873   3.594   5.495   5.892
 1992SOL     OW 6874   2.137   6.576   6.571
 1992SOL    HW1 6875   2.226   6.608   6.602
 1992SOL    HW2 6876   2.112   6.493   6.622
 1993SOL     OW 6877   4.223   3.100   5.427
 1993SOL    HW1 6878   4.199   3.014   5.383
 1993SOL    HW2 6879   4.318   3.097   5.458
 1994SOL     OW 6880   1.700   2.244   1.604
 1994SOL    HW1 6881   1.681   2.273   1.510
 1994SOL    HW2 6882   1.615   2.238   1.655
 1995SOL     OW 6883   6.023   2.454   2.108
 1995SOL    HW1 6884   6.016   2.422   2.014
 1995SOL    HW2 6885   6.111   2.498   2.122
 1996SOL     OW 6886   2.581   3.768   0.904
 1996SOL    HW1 6887   2.599   3.692   0.966
 1996SOL    HW2 6888   2.619   3.748   0.814
 1997SOL     OW 6889   4.755   0.426   5.669
 1997SOL    HW1 6890   4.656   0.427   5.659
 1997SOL    HW2 6891   4.797   0.400   5.582
 1998SOL     OW 6892   2.979   3.714   6.132
 1998SOL    HW1 6893   3.015   3.772   6.059
 1998SOL    HW2 6894   3.022   3.624   6.127
 1999SOL     OW 6895   2.779   0.227   1.429
 1999SOL    HW1 6896   2.800   0.289   1.505
 1999SOL    HW2 6897   2.851   0.233   1.360
 2000SOL     OW 6898   4.118   1.615   5.281
 2000SOL    HW1 6899   4.020   1.614   5.303
 2000SOL    HW2 6900   4.132   1.654   5.190
 2001SOL     OW 6901   3.404   2.354   1.716
 2001SOL    HW1 6902   3.498   2.350   1.751
 2001SOL    HW2 6903   3.363   2.442   1.740
 2002SOL     OW 6904   1.286   6.041   6.062
 2002SOL    HW1 6905   1.286   6.067   6.158
 2002SOL    HW2 6906   1.287   5.941   6.054
 2003SOL     OW 6907   4.589   0.010   3.588
 2003SOL    HW1 6908   4.683   0.011   3.622
 2003SOL    HW2 6909   4.552   0.103   3.587
 2004SOL     OW 6910   4.776   1.060   4.813
 2004SOL    HW1 6911   4.684   1.022   4.802
 2004SOL    HW2 6912   4.770   1.148   4.859
 2005SOL     OW 6913   1.585   5.800   0.118
 2005SOL    HW1 6914   1.607   5.809   0.021
 2005SOL    HW2 6915   1.487   5.817   0.131
 2006SOL     OW 6916   5.240   4.106   3.241
 2006SOL    HW1 6917   5.209   4.156   3.322
 2006SOL    HW2 6918   5.177   4.031   3.222
 2007SOL     OW 6919   4.528   5.816   0.403
 2007SOL    HW1 6920   4.500   5.909   0.426
 2007SOL    HW2 6921   4.486   5.752   0.468
 2008SOL     OW 6922   0.645   5.348   3.452
 2008SOL    HW1 6923   0.741   5.321   3.462
 2008SOL    HW2 6924   0.586   5.281   3.497
 2009SOL     OW 6925   6.549   0.398   1.333
 2009SOL    HW1 6926   6.482   0.472   1.341
 2009SOL    HW2 6927   6.501   0.312   1.313
 2010SOL     OW 6928   1.652   1.075   0.780
 2010SOL    HW1 6929   1.613   1.162   0.810
 2010SOL    HW2 6930   1.690   1.086   0.688
 2011SOL     OW 6931   6.066   1.984   4.805
 2011SOL    HW1 6932   6.054   2.053   4.877
 2011SOL    HW2 6933   6.122   1.909   4.841
 2012SOL     OW 6934   0.734   3.497   1.230
 2012SOL    HW1 6935   0.661   3.545   1.278
 2012SOL    HW2 6936   0.804   3.467   1.296
 2013SOL     OW 6937   5.372   1.184   3.264
 2013SOL    HW1 6938   5.380   1.135   3.177
 2013SOL    HW2 6939   5.433   1.144   3.331
 2014SOL     OW 6940   1.205   5.202   3.016
 2014SOL    HW1 6941   1.208   5.274   3.086
 2014SOL    HW2 6942   1.285   5.143   3.027
 2015SOL     OW 6943   2.722   1.272   6.852
 2015SOL    HW1 6944   2.663   1.341   6.893
 2015SOL    HW2 6945   2.674   1.226   6.777
 2016SOL     OW 6946   0.748   6.113   5.103
 2016SOL    HW1 6947   0.802   6.105   5.187
 2016SOL    HW2 6948   0.774   6.039   5.040
 2017SOL     OW 6949   3.627   6.487   3.344
 2017SOL    HW1 6950   3.707   6.545   3.331
 2017SOL    HW2 6951   3.620   6.462   3.441
 2018SOL     OW 6952   6.657   5.786   5.869
 2018SOL    HW1 6953   6.748   5.794   5.909
 2018SOL    HW2 6954   6.601   5.864   5.898
 2019SOL     OW 6955   5.199   2.904   1.968
 2019SOL    HW1 6956   5.166   2.991   2.005
 2019SOL    HW2 6957   5.134   2.831   1.991
 2020SOL     OW 6958   1.286   4.918   4.847
 2020SOL    HW1 6959   1.329   4.981   4.782
 2020SOL    HW2 6960   1.196   4.953   4.873
 2021SOL     OW 6961   2.278   6.982   2.997
 2021SOL    HW1 6962   2.213   6.949   2.928
 2021SOL    HW2 6963   2.351   0.007   2.953
 2022SOL     OW 6964   1.841   3.658   2.152
 2022SOL    HW1 6965   1.766   3.659   2.086
 2022SOL    HW2 6966   1.835   3.738   2.211
 2023SOL     OW 6967   0.095   1.846   0.369
 2023SOL    HW1 6968   0.135   1.918   0.425
 2023SOL    HW2 6969   0.033   1.791   0.424
 2024SOL     OW 6970   6.786   0.804   2.959
 2024SOL    HW1 6971   6.854   0.731   2.958
 2024SOL    HW2 6972   6.827   0.888   2.995
 2025SOL     OW 6973   1.442   2.611   1.797
 2025SOL    HW1 6974   1.435   2.708   1.822
 2025SOL    HW2 6975   1.538   2.584   1.796
 2026SOL     OW 6976   1.210   2.158   5.962
 2026SOL    HW1 6977   1.283   2.124   6.021
 2026SOL    HW2 6978   1.227   2.254   5.939
 2027SOL     OW 6979   1.197   1.288   1.278
 2027SOL    HW1 6980   1.187   1.189   1.284
 2027SOL    HW2 6981   1.116   1.332   1.315
 2028SOL     OW 6982   3.332   1.311   6.777
 2028SOL    HW1 6983   3.400   1.353   6.837
 2028SOL    HW2 6984   3.252   1.371   6.770
 2029SOL     OW 6985   0.658   0.663   6.903
 2029SOL    HW1 6986   0.640   0.651   6.806
 2029SOL    HW2 6987   0.608   0.742   6.937
 2030SOL     OW 6988   1.936   1.634   3.862
 2030SOL    HW1 6989   1.879   1.674   3.933
 2030SOL    HW2 6990   1.896   1.653   3.772
 2031SOL     OW 6991   5.045   6.289   2.134
 2031SOL    HW1 6992   5.079   6.353   2.203
 2031SOL    HW2 6993   4.956   6.321   2.100
 2032SOL     OW 6994   5.634   5.826   1.128
 2032SOL    HW1 6995   5.635   5.803   1.225
 2032SOL    HW2 6996   5.638   5.926   1.117
 2033SOL     OW 6997   3.381   4.431   6.732
 2033SOL    HW1 6998   3.301   4.371   6.722
 2033SOL    HW2 6999   3.351   4.526   6.735
 2034SOL     OW 7000   2.389   6.841   4.023
 2034SOL    HW1 7001   2.339   6.757   4.044
 2034SOL    HW2 7002   2.373   6.908   4.095
 2035SOL     OW 7003   0.308   0.746   2.516
 2035SOL    HW1 7004   0.353   0.821   2.566
 2035SOL    HW2 7005   0.223   0.722   2.562
 2036SOL     OW 7006   0.421   5.972   2.506
 2036SOL    HW1 7007   0.323   5.992   2.520
 2036SOL    HW2 7008   0.449   6.004   2.416
 2037SOL     OW 7009   6.241   1.871   5.870
 2037SOL    HW1 7010   6.158   1.855   5.924
 2037SOL    HW2 7011   6.219   1.864   5.773
 2038SOL     OW 7012   0.656   1.697   6.574
 2038SOL    HW1 7013   0.697   1.771   6.627
 2038SOL    HW2 7014   0.720   1.666   6.504
 2039SOL     OW 7015   0.600   5.512   3.243
 2039SOL    HW1 7016   0.508   5.552   3.249
 2039SOL    HW2 7017   0.620   5.462   3.328
 2040SOL     OW 7018   3.306   2.859   5.159
 2040SOL    HW1 7019   3.369   2.798   5.207
 2040SOL    HW2 7020   3.328   2.860   5.061
 2041SOL     OW 7021   6.833   6.294   6.788
 2041SOL    HW1 7022   6.741   6.269   6.818
 2041SOL    HW2 7023   6.845   6.268   6.692
 2042SOL     OW 7024   5.974   5.636   6.775
 2042SOL    HW1 7025   5.983   5.539   6.753
 2042SOL    HW2 7026   5.888   5.651   6.825
 2043SOL     OW 7027   6.675   4.503   2.384
 2043SOL    HW1 7028   6.586   4.458   2.391
 2043SOL    HW2 7029   6.676   4.585   2.441
 2044SOL     OW 7030   4.937   0.338   2.548
 2044SOL    HW1 7031   4.861   0.316   2.487
 2044SOL    HW2 7032   5.021   0.348   2.493
 2045SOL     OW 7033   2.240   4.494   5.245
 2045SOL    HW1 7034   2.311   4.456   5.185
 2045SOL    HW2 7035   2.272   4.495   5.339
 2046SOL     OW 7036   0.142   0.529   4.546
 2046SOL    HW1 7037   0.083   0.458   4.583
 2046SOL    HW2 7038   0.233   0.522   4.585
 2047SOL     OW 7039   4.438   2.301   6.849
 2047SOL    HW1 7040   4.468   2.317   6.944
 2047SOL    HW2 7041   4.512   2.256   6.799
 2048SOL     OW 7042   3.720   6.432   6.898
 2048SOL    HW1 7043   3.816   6.411   6.914
 2048SOL    HW2 7044   3.665   6.398   6.974
 2049SOL     OW 7045   4.061   1.858   6.293
 2049SOL    HW1 7046   3.999   1.786   6.262
 2049SOL    HW2 7047   4.045   1.941   6.240
 2050SOL     OW 7048   6.125   2.892   3.768
 2050SOL    HW1 7049   6.205   2.892   3.709
 2050SOL    HW2 7050   6.045   2.921   3.715
 2051SOL     OW 7051   6.736   4.951   6.795
 2051SOL    HW1 7052   6.785   4.866   6.813
 2051SOL    HW2 7053   6.793   5.010   6.737
 2052SOL     OW 7054   0.780   4.013   6.949
 2052SOL    HW1 7055   0.780   3.979   0.017
 2052SOL    HW2 7056   0.750   3.940   6.888
 2053SOL     OW 7057   6.279   0.486   0.953
 2053SOL    HW1 7058   6.199   0.435   0.920
 2053SOL    HW2 7059   6.285   0.479   1.052
 2054SOL     OW 7060   5.120   3.003   1.504
 2054SOL    HW1 7061   5.058   2.943   1.453
 2054SOL    HW2 7062   5.174   2.948   1.567
 2055SOL     OW 7063   6.366   3.143   2.482
 2055SOL    HW1 7064   6.331   3.216   2.422
 2055SOL    HW2 7065   6.295   3.074   2.494
 2056SOL     OW 7066   2.303   1.391   2.771
 2056SOL    HW1 7067   2.240   1.367   2.698
 2056SOL    HW2 7068   2.252   1.406   2.856
 2057SOL     OW 7069   5.545   2.676   3.459
 2057SOL    HW1 7070   5.603   2.742   3.412
 2057SOL    HW2 7071   5.467   2.724   3.500
 2058SOL     OW 7072   1.381   1.785   3.588
 2058SOL    HW1 7073   1.324   1.753   3.664
 2058SOL    HW2 7074   1.335   1.765   3.501
 2059SOL     OW 7075   2.678   6.511   5.757
 2059SOL    HW1 7076   2.630   6.516   5.845
 2059SOL    HW2 7077   2.751   6.442   5.763
 2060SOL     OW 7078   6.709   3.999   0.794
 2060SOL    HW1 7079   6.778   4.046   0.849
 2060SOL    HW2 7080   6.618   4.015   0.833
 2061SOL     OW 7081   1.144   2.077   2.997
 2061SOL    HW1 7082   1.066   2.081   3.059
 2061SOL    HW2 7083   1.178   1.983   2.992
 2062SOL     OW 7084   5.531   0.368   2.883
 2062SOL    HW1 7085   5.590   0.291   2.858
 2062SOL    HW2 7086   5.518   0.369   2.982
 2063SOL     OW 7087   0.598   1.592   6.031
 2063SOL    HW1 7088   0.647   1.678   6.015
 2063SOL    HW2 7089   0.577   1.549   5.943
 2064SOL     OW 7090   0.480   1.412   5.338
 2064SOL    HW1 7091   0.549   1.360   5.288
 2064SOL    HW2 7092   0.475   1.378   5.432
 2065SOL     OW 7093   6.557   3.977   2.314
 2065SOL    HW1 7094   6.621   4.042   2.273
 2065SOL    HW2 7095   6.608   3.909   2.367
 2066SOL     OW 7096   0.570   5.864   4.172
 2066SOL    HW1 7097   0.528   5.857   4.263
 2066SOL    HW2 7098   0.510   5.919   4.113
 2067SOL     OW 7099   0.396   6.663   0.967
 2067SOL    HW1 7100   0.465   6.697   0.903
 2067SOL    HW2 7101   0.359   6.576   0.934
 2068SOL     OW 7102   0.862   1.747   5.358
 2068SOL    HW1 7103   0.835   1.712   5.448
 2068SOL    HW2 7104   0.860   1.672   5.292
 2069SOL     OW 7105   0.468   2.751   3.327
 2069SOL    HW1 7106   0.468   2.694   3.409
 2069SOL    HW2 7107   0.450   2.846   3.353
 2070SOL     OW 7108   1.981   6.831   1.982
 2070SOL    HW1 7109   2.074   6.866   1.982
 2070SOL    HW2 7110   1.926   6.883   1.916
 2071SOL     OW 7111   0.052   6.059   5.552
 2071SOL    HW1 7112   0.092   5.977   5.510
 2071SOL    HW2 7113   0.093   6.140   5.510
 2072SOL     OW 7114   4.373   6.436   1.688
 2072SOL    HW1 7115   4.357   6.376   1.609
 2072SOL    HW2 7116   4.308   6.414   1.760
 2073SOL     OW 7117   3.607   0.032   4.794
 2073SOL    HW1 7118   3.677   0.044   4.723
 2073SOL    HW2 7119   3.584   0.122   4.833
 2074SOL     OW 7120   0.667   2.774   6.826
 2074SOL    HW1 7121   0.687   2.833   6.748
 2074SOL    HW2 7122   0.752   2.743   6.868
 2075SOL     OW 7123   5.167   2.394   1.402
 2075SOL    HW1 7124   5.092   2.457   1.420
 2075SOL    HW2 7125   5.146   2.305   1.442
 2076SOL     OW 7126   5.267   6.530   0.481
 2076SOL    HW1 7127   5.273   6.533   0.381
 2076SOL    HW2 7128   5.174   6.553   0.509
 2077SOL     OW 7129   4.538   2.513   2.149
 2077SOL    HW1 7130   4.620   2.497   2.094
 2077SOL    HW2 7131   4.457   2.505   2.091
 2078SOL     OW 7132   1.667   6.456   6.499
 2078SOL    HW1 7133   1.733   6.381   6.489
 2078SOL    HW2 7134   1.687   6.507   6.583
 2079SOL     OW 7135   5.666   1.057   3.796
 2079SOL    HW1 7136   5.657   0.999   3.715
 2079SOL    HW2 7137   5.762   1.064   3.822
 2080SOL     OW 7138   1.851   0.923   4.458
 2080SOL    HW1 7139   1.920   0.899   4.389
 2080SOL    HW2 7140   1.785   0.848   4.466
 2081SOL     OW 7141   1.450   5.883   5.145
 2081SOL    HW1 7142   1.494   5.880   5.055
 2081SOL    HW2 7143   1.514   5.922   5.212
 2082SOL     OW 7144   6.754   0.423   2.829
 2082SOL    HW1 7145   6.799   0.482   2.762
 2082SOL    HW2 7146   6.822   0.382   2.890
 2083SOL     OW 7147   4.586   4.498   6.411
 2083SOL    HW1 7148   4.540   4.505   6.322
 2083SOL    HW2 7149   4.630   4.586   6.432
 2084SOL     OW 7150   6.767   4.249   3.893
 2084SOL    HW1 7151   6.795   4.208   3.979
 2084SOL    HW2 7152   6.845   4.294   3.849
 2085SOL     OW 7153   5.002   1.171   0.508
 2085SOL    HW1 7154   4.924   1.140   0.561
 2085SOL    HW2 7155   5.073   1.206   0.569
 2086SOL     OW 7156   3.102   6.408   5.434
 2086SOL    HW1 7157   3.130   6.472   5.505
 2086SOL    HW2 7158   3.020   6.442   5.388
 2087SOL     OW 7159   4.546   0.504   2.237
 2087SOL    HW1 7160   4.520   0.574   2.170
 2087SOL    HW2 7161   4.538   0.541   2.329
 2088SOL     OW 7162   2.558   5.581   0.855
 2088SOL    HW1 7163   2.567   5.672   0.897
 2088SOL    HW2 7164   2.648   5.550   0.824
 2089SOL     OW 7165   4.744   1.775   0.042
 2089SOL    HW1 7166   4.826   1.718   0.047
 2089SOL    HW2 7167   4.769   1.868   0.013
 2090SOL     OW 7168   3.983   3.541   5.277
 2090SOL    HW1 7169   4.066   3.508   5.322
 2090SOL    HW2 7170   4.006   3.617   5.216
 2091SOL     OW 7171   0.193   5.864   0.033
 2091SOL    HW1 7172   0.133   5.942   0.015
 2091SOL    HW2 7173   0.140   5.780   0.034
 2092SOL     OW 7174   4.764   5.896   0.300
 2092SOL    HW1 7175   4.783   5.833   0.225
 2092SOL    HW2 7176   4.683   5.866   0.349
 2093SOL     OW 7177   1.692   2.464   1.807
 2093SOL    HW1 7178   1.646   2.380   1.778
 2093SOL    HW2 7179   1.741   2.447   1.893
 2094SOL     OW 7180   5.441   1.799   1.832
 2094SOL    HW1 7181   5.401   1.709   1.853
 2094SOL    HW2 7182   5.408   1.866   1.899
 2095SOL     OW 7183   5.334   0.126   4.551
 2095SOL    HW1 7184   5.422   0.167   4.528
 2095SOL    HW2 7185   5.348   0.051   4.616
 2096SOL     OW 7186   4.705   4.433   2.848
 2096SOL    HW1 7187   4.685   4.374   2.769
 2096SOL    HW2 7188   4.803   4.449   2.853
 2097SOL     OW 7189   1.360   3.234   0.198
 2097SOL    HW1 7190   1.303   3.242   0.117
 2097SOL    HW2 7191   1.305   3.203   0.275
 2098SOL     OW 7192   4.357   5.292   3.217
 2098SOL    HW1 7193   4.394   5.202   3.197
 2098SOL    HW2 7194   4.371   5.314   3.314
 2099SOL     OW 7195   2.666   2.546   5.303
 2099SOL    HW1 7196   2.601   2.618   5.328
 2099SOL    HW2 7197   2.757   2.585   5.294
 2100SOL     OW 7198   3.827   3.369   5.717
 2100SOL    HW1 7199   3.807   3.449   5.661
 2100SOL    HW2 7200   3.904   3.319   5.678
 2101SOL     OW 7201   1.597   6.571   2.759
 2101SOL    HW1 7202   1.547   6.641   2.707
 2101SOL    HW2 7203   1.550   6.554   2.846
 2102SOL     OW 7204   6.780   5.353   2.112
 2102SOL    HW1 7205   6.847   5.333   2.183
 2102SOL    HW2 7206   6.778   5.278   2.046
 2103SOL     OW 7207   2.919   3.030   6.444
 2103SOL    HW1 7208   2.846   3.040   6.511
 2103SOL    HW2 7209   2.886   3.056   6.354
 2104SOL     OW 7210   1.202   3.552   6.322
 2104SOL    HW1 7211   1.250   3.466   6.339
 2104SOL    HW2 7212   1.266   3.618   6.282
 2105SOL     OW 7213   4.777   5.549   4.378
 2105SOL    HW1 7214   4.805   5.462   4.418
 2105SOL    HW2 7215   4.697   5.534   4.320
 2106SOL     OW 7216   5.198   4.451   0.161
 2106SOL    HW1 7217   5.232   4.508   0.236
 2106SOL    HW2 7218   5.271   4.439   0.093
 2107SOL     OW 7219   4.653   2.821   5.646
 2107SOL    HW1 7220   4.637   2.914   5.681
 2107SOL    HW2 7221   4.609   2.755   5.707
 2108SOL     OW 7222   6.902   6.468   5.642
 2108SOL    HW1 7223   6.952   6.500   5.561
 2108SOL    HW2 7224   6.871   6.375   5.627
 2109SOL     OW 7225   4.686   6.658   3.013
 2109SOL    HW1 7226   4.672   6.567   3.052
 2109SOL    HW2 7227   4.766   6.657   2.954
 2110SOL     OW 7228   2.529   2.531   5.863
 2110SOL    HW1 7229   2.532   2.514   5.765
 2110SOL    HW2 7230   2.531   2.629   5.880
 2111SOL     OW 7231   0.898   2.225   6.434
 2111SOL    HW1 7232   0.942   2.145   6.393
 2111SOL    HW2 7233   0.949   2.307   6.409
 2112SOL     OW 7234   4.774   2.217   1.236
 2112SOL    HW1 7235   4.680   2.183   1.229
 2112SOL    HW2 7236   4.778   2.311   1.201
 2113SOL     OW 7237   1.506   0.483   4.987
 2113SOL    HW1 7238   1.463   0.570   5.009
 2113SOL    HW2 7239   1.508   0.470   4.888
 2114SOL     OW 7240   1.375   2.941   0.869
 2114SOL    HW1 7241   1.443   2.869   0.883
 2114SOL    HW2 7242   1.323   2.922   0.785
 2115SOL     OW 7243   2.281   4.189   2.959
 2115SOL    HW1 7244   2.332   4.273   2.941
 2115SOL    HW2 7245   2.244   4.153   2.874
 2116SOL     OW 7246   6.894   4.606   3.333
 2116SOL    HW1 7247   6.796   4.616   3.319
 2116SOL    HW2 7248   6.919   4.643   3.422
 2117SOL     OW 7249   6.776   4.353   1.294
 2117SOL    HW1 7250   6.805   4.387   1.205
 2117SOL    HW2 7251   6.755   4.256   1.289
 2118SOL     OW 7252   6.644   3.569   2.161
 2118SOL    HW1 7253   6.736   3.542   2.191
 2118SOL    HW2 7254   6.591   3.487   2.139
 2119SOL     OW 7255   2.322   5.377   1.160
 2119SOL    HW1 7256   2.252   5.375   1.231
 2119SOL    HW2 7257   2.388   5.449   1.180
 2120SOL     OW 7258   0.431   4.917   4.155
 2120SOL    HW1 7259   0.399   4.824   4.138
 2120SOL    HW2 7260   0.509   4.937   4.096
 2121SOL     OW 7261   0.606   4.629   5.865
 2121SOL    HW1 7262   0.636   4.533   5.868
 2121SOL    HW2 7263   0.644   4.672   5.783
 2122SOL     OW 7264   5.828   4.384   5.666
 2122SOL    HW1 7265   5.897   4.337   5.611
 2122SOL    HW2 7266   5.778   4.448   5.608
 2123SOL     OW 7267   6.513   4.571   2.085
 2123SOL    HW1 7268   6.454   4.632   2.139
 2123SOL    HW2 7269   6.605   4.573   2.123
 2124SOL     OW 7270   2.819   1.874   2.091
 2124SOL    HW1 7271   2.782   1.956   2.048
 2124SOL    HW2 7272   2.910   1.893   2.126
 2125SOL     OW 7273   2.013   0.357   0.542
 2125SOL    HW1 7274   1.999   0.348   0.641
 2125SOL    HW2 7275   2.088   0.297   0.514
 2126SOL     OW 7276   3.526   1.021   1.004
 2126SOL    HW1 7277   3.433   1.005   0.971
 2126SOL    HW2 7278   3.582   1.056   0.930
 2127SOL     OW 7279   6.567   3.484   4.155
 2127SOL    HW1 7280   6.594   3.536   4.236
 2127SOL    HW2 7281   6.644   3.429   4.123
 2128SOL     OW 7282   6.540   3.875   4.266
 2128SOL    HW1 7283   6.462   3.871   4.203
 2128SOL    HW2 7284   6.625   3.887   4.214
 2129SOL     OW 7285   4.470   2.893   5.285
 2129SOL    HW1 7286   4.391   2.900   5.223
 2129SOL    HW2 7287   4.530   2.820   5.255
 2130SOL     OW 7288   3.759   0.343   2.623
 2130SOL    HW1 7289   3.727   0.272   2.686
 2130SOL    HW2 7290   3.683   0.404   2.601
 2131SOL     OW 7291   6.883   0.850   1.217
 2131SOL    HW1 7292   6.894   0.765   1.269
 2131SOL    HW2 7293   6.927   0.840   1.128
 2132SOL     OW 7294   4.135   1.930   1.616
 2132SOL    HW1 7295   4.117   2.012   1.561
 2132SOL    HW2 7296   4.064   1.921   1.686
 2133SOL     OW 7297   2.293   2.902   6.351
 2133SOL    HW1 7298   2.334   2.834   6.411
 2133SOL    HW2 7299   2.301   2.871   6.256
 2134SOL     OW 7300   0.473   2.343   0.338
 2134SOL    HW1 7301   0.530   2.361   0.258
 2134SOL    HW2 7302   0.504   2.400   0.414
 2135SOL     OW 7303   0.699   3.890   4.800
 2135SOL    HW1 7304   0.758   3.865   4.877
 2135SOL    HW2 7305   0.655   3.978   4.819
 2136SOL     OW 7306   2.011   4.328   3.016
 2136SOL    HW1 7307   1.981   4.277   3.097
 2136SOL    HW2 7308   2.111   4.341   3.021
 2137SOL     OW 7309   2.450   5.227   5.660
 2137SOL    HW1 7310   2.519   5.212   5.731
 2137SOL    HW2 7311   2.467   5.165   5.583
 2138SOL     OW 7312   6.350   6.582   3.266
 2138SOL    HW1 7313   6.397   6.669   3.246
 2138SOL    HW2 7314   6.333   6.575   3.364
 2139SOL     OW 7315   4.559   0.723   3.986
 2139SOL    HW1 7316   4.608   0.725   4.074
 2139SOL    HW2 7317   4.488   0.794   3.986
 2140SOL     OW 7318   2.785   6.925   4.297
 2140SOL    HW1 7319   2.793   6.851   4.364
 2140SOL    HW2 7320   2.726   6.895   4.221
 2141SOL     OW 7321   6.784   2.763   2.422
 2141SOL    HW1 7322   6.718   2.833   2.449
 2141SOL    HW2 7323   6.876   2.791   2.447
 2142SOL     OW 7324   1.213   1.583   3.219
 2142SOL    HW1 7325   1.231   1.554   3.313
 2142SOL    HW2 7326   1.297   1.575   3.165
 2143SOL     OW 7327   3.186   4.939   1.191
 2143SOL    HW1 7328   3.113   4.872   1.206
 2143SOL    HW2 7329   3.255   4.900   1.130
 2144SOL     OW 7330   0.514   5.962   4.864
 2144SOL    HW1 7331   0.612   5.951   4.881
 2144SOL    HW2 7332   0.474   5.873   4.838
 2145SOL     OW 7333   3.901   6.273   4.476
 2145SOL    HW1 7334   3.882   6.206   4.547
 2145SOL    HW2 7335   3.947   6.352   4.517
 2146SOL     OW 7336   2.442   3.061   1.189
 2146SOL    HW1 7337   2.369   3.113   1.233
 2146SOL    HW2 7338   2.428   3.061   1.090
 2147SOL     OW 7339   5.651   1.285   6.750
 2147SOL    HW1 7340   5.587   1.357   6.722
 2147SOL    HW2 7341   5.660   1.218   6.677
 2148SOL     OW 7342   5.939   3.543   6.141
 2148SOL    HW1 7343   5.868   3.477   6.165
 2148SOL    HW2 7344   6.017   3.533   6.203
 2149SOL     OW 7345   2.431   1.780   1.137
 2149SOL    HW1 7346   2.512   1.774   1.079
 2149SOL    HW2 7347   2.365   1.842   1.095
 2150SOL     OW 7348   2.208   2.500   2.251
 2150SOL    HW1 7349   2.301   2.464   2.239
 2150SOL    HW2 7350   2.209   2.577   2.315
 2151SOL     OW 7351   1.503   6.266   6.248
 2151SOL    HW1 7352   1.570   6.318   6.301
 2151SOL    HW2 7353   1.484   6.314   6.162
 2152SOL     OW 7354   4.520   4.485   2.457
 2152SOL    HW1 7355   4.485   4.468   2.365
 2152SOL    HW2 7356   4.453   4.537   2.509
 2153SOL     OW 7357   4.095   1.843   2.568
 2153SOL    HW1 7358   4.119   1.758   2.522
 2153SOL    HW2 7359   4.156   1.857   2.646
 2154SOL     OW 7360   3.516   7.016   4.056
 2154SOL    HW1 7361   3.553   7.001   3.964
 2154SOL    HW2 7362   3.588   0.024   4.115
 2155SOL     OW 7363   4.205   7.001   1.038
 2155SOL    HW1 7364   4.145   6.943   0.982
 2155SOL    HW2 7365   4.300   6.978   1.020
 2156SOL     OW 7366   0.311   0.280   4.883
 2156SOL    HW1 7367   0.409   0.297   4.895
 2156SOL    HW2 7368   0.296   0.182   4.869
 2157SOL     OW 7369   5.305   6.154   3.355
 2157SOL    HW1 7370   5.260   6.238   3.389
 2157SOL    HW2 7371   5.260   6.074   3.395
 2158SOL     OW 7372   3.767   6.189   0.287
 2158SOL    HW1 7373   3.801   6.159   0.198
 2158SOL    HW2 7374   3.743   6.110   0.342
 2159SOL     OW 7375   1.360   0.720   5.076
 2159SOL    HW1 7376   1.268   0.705   5.111
 2159SOL    HW2 7377   1.406   0.790   5.131
 2160SOL     OW 7378   4.987   4.658   6.548
 2160SOL    HW1 7379   5.083   4.649   6.519
 2160SOL    HW2 7380   4.935   4.580   6.515
 2161SOL     OW 7381   6.452   4.251   1.874
 2161SOL    HW1 7382   6.393   4.295   1.942
 2161SOL    HW2 7383   6.464   4.154   1.898
 2162SOL     OW 7384   3.114   0.263   2.371
 2162SOL    HW1 7385   3.061   0.347   2.359
 2162SOL    HW2 7386   3.053   0.184   2.361
 2163SOL     OW 7387   1.707   4.831   0.491
 2163SOL    HW1 7388   1.657   4.873   0.567
 2163SOL    HW2 7389   1.697   4.732   0.495
 2164SOL     OW 7390   1.679   2.143   6.263
 2164SOL    HW1 7391   1.740   2.219   6.284
 2164SOL    HW2 7392   1.728   2.057   6.271
 2165SOL     OW 7393   0.285   2.162   3.241
 2165SOL    HW1 7394   0.262   2.093   3.173
 2165SOL    HW2 7395   0.263   2.253   3.206
 2166SOL     OW 7396   0.670   4.050   4.268
 2166SOL    HW1 7397   0.725   3.982   4.317
 2166SOL    HW2 7398   0.636   4.117   4.334
 2167SOL     OW 7399   0.648   2.902   3.652
 2167SOL    HW1 7400   0.742   2.884   3.622
 2167SOL    HW2 7401   0.610   2.819   3.693
 2168SOL     OW 7402   1.182   1.805   2.991
 2168SOL    HW1 7403   1.215   1.747   2.917
 2168SOL    HW2 7404   1.118   1.753   3.048
 2169SOL     OW 7405   5.968   1.093   1.198
 2169SOL    HW1 7406   6.049   1.037   1.214
 2169SOL    HW2 7407   5.995   1.189   1.187
 2170SOL     OW 7408   6.922   4.034   5.190
 2170SOL    HW1 7409   6.870   3.977   5.128
 2170SOL    HW2 7410   6.903   4.130   5.172
 2171SOL     OW 7411   0.469   5.452   1.049
 2171SOL    HW1 7412   0.488   5.535   0.997
 2171SOL    HW2 7413   0.548   5.392   1.047
 2172SOL     OW 7414   2.064   2.014   6.142
 2172SOL    HW1 7415   2.032   1.977   6.055
 2172SOL    HW2 7416   2.140   2.076   6.126
 2173SOL     OW 7417   4.542   0.655   5.349
 2173SOL    HW1 7418   4.534   0.627   5.253
 2173SOL    HW2 7419   4.526   0.753   5.356
 2174SOL     OW 7420   0.046   5.790   4.846
 2174SOL    HW1 7421   0.056   5.775   4.748
 2174SOL    HW2 7422   7.008   5.724   4.883
 2175SOL     OW 7423   1.746   3.581   4.289
 2175SOL    HW1 7424   1.774   3.493   4.327
 2175SOL    HW2 7425   1.722   3.643   4.363
 2176SOL     OW 7426   5.326   1.784   1.582
 2176SOL    HW1 7427   5.399   1.797   1.649
 2176SOL    HW2 7428   5.308   1.687   1.570
 2177SOL     OW 7429   0.115   0.581   2.669
 2177SOL    HW1 7430   0.148   0.504   2.614
 2177SOL    HW2 7431   0.015   0.584   2.664
 2178SOL     OW 7432   1.636   1.234   1.979
 2178SOL    HW1 7433   1.691   1.162   1.937
 2178SOL    HW2 7434   1.637   1.315   1.920
 2179SOL     OW 7435   2.157   4.021   6.096
 2179SOL    HW1 7436   2.060   4.044   6.105
 2179SOL    HW2 7437   2.166   3.935   6.046
 2180SOL     OW 7438   1.282   3.166   2.351
 2180SOL    HW1 7439   1.251   3.259   2.333
 2180SOL    HW2 7440   1.210   3.115   2.398
 2181SOL     OW 7441   4.369   5.107   3.990
 2181SOL    HW1 7442   4.299   5.061   3.935
 2181SOL    HW2 7443   4.419   5.039   4.043
 2182SOL     OW 7444   1.275   4.967   3.643
 2182SOL    HW1 7445   1.260   5.028   3.566
 2182SOL    HW2 7446   1.373   4.955   3.658
 2183SOL     OW 7447   2.301   4.522   0.115
 2183SOL    HW1 7448   2.251   4.460   0.176
 2183SOL    HW2 7449   2.397   4.496   0.112
 2184SOL     OW 7450   4.085   7.009   6.225
 2184SOL    HW1 7451   4.013   0.051   6.230
 2184SOL    HW2 7452   4.159   0.015   6.166
 2185SOL     OW 7453   0.862   1.116   0.154
 2185SOL    HW1 7454   0.802   1.185   0.194
 2185SOL    HW2 7455   0.838   1.026   0.189
 2186SOL     OW 7456   6.836   5.638   0.232
 2186SOL    HW1 7457   6.787   5.551   0.240
 2186SOL    HW2 7458   6.803   5.702   0.301
 2187SOL     OW 7459   0.328   5.250   1.690
 2187SOL    HW1 7460   0.272   5.306   1.751
 2187SOL    HW2 7461   0.339   5.158   1.728
 2188SOL     OW 7462   1.406   5.483   5.316
 2188SOL    HW1 7463   1.475   5.551   5.291
 2188SOL    HW2 7464   1.415   5.460   5.413
 2189SOL     OW 7465   1.450   6.579   1.219
 2189SOL    HW1 7466   1.498   6.635   1.286
 2189SOL    HW2 7467   1.479   6.605   1.127
 2190SOL     OW 7468   6.627   2.876   1.490
 2190SOL    HW1 7469   6.634   2.794   1.547
 2190SOL    HW2 7470   6.693   2.944   1.521
 2191SOL     OW 7471   2.418   2.007   5.778
 2191SOL    HW1 7472   2.511   2.001   5.742
 2191SOL    HW2 7473   2.358   2.047   5.710
 2192SOL     OW 7474   5.434   1.076   2.667
 2192SOL    HW1 7475   5.336   1.053   2.660
 2192SOL    HW2 7476   5.482   1.040   2.587
 2193SOL     OW 7477   6.612   0.335   6.747
 2193SOL    HW1 7478   6.527   0.376   6.712
 2193SOL    HW2 7479   6.659   0.287   6.672
 2194SOL     OW 7480   1.791   4.095   6.695
 2194SOL    HW1 7481   1.842   4.178   6.718
 2194SOL    HW2 7482   1.768   4.095   6.598
 2195SOL     OW 7483   6.653   6.629   5.728
 2195SOL    HW1 7484   6.741   6.583   5.720
 2195SOL    HW2 7485   6.658   6.699   5.799
 2196SOL     OW 7486   3.116   6.896   4.579
 2196SOL    HW1 7487   3.155   6.910   4.670
 2196SOL    HW2 7488   3.048   6.966   4.560
 2197SOL     OW 7489   2.704   3.666   6.136
 2197SOL    HW1 7490   2.675   3.580   6.092
 2197SOL    HW2 7491   2.803   3.670   6.140
 2198SOL     OW 7492   6.250   0.089   2.010
 2198SOL    HW1 7493   6.235   0.181   1.973
 2198SOL    HW2 7494   6.208   0.083   2.100
 2199SOL     OW 7495   5.201   6.785   4.061
 2199SOL    HW1 7496   5.223   6.729   3.981
 2199SOL    HW2 7497   5.206   6.729   4.144
 2200SOL     OW 7498   1.864   2.039   4.450
 2200SOL    HW1 7499   1.839   1.960   4.393
 2200SOL    HW2 7500   1.922   2.101   4.396
 2201SOL     OW 7501   6.518   2.814   3.033
 2201SOL    HW1 7502   6.487   2.825   3.127
 2201SOL    HW2 7503   6.499   2.898   2.981
 2202SOL     OW 7504   3.683   6.009   1.977
 2202SOL    HW1 7505   3.767   5.957   1.992
 2202SOL    HW2 7506   3.706   6.103   1.950
 2203SOL     OW 7507   2.176   3.686   1.076
 2203SOL    HW1 7508   2.138   3.677   0.984
 2203SOL    HW2 7509   2.194   3.783   1.095
 2204SOL     OW 7510   4.797   2.447   1.077
 2204SOL    HW1 7511   4.725   2.393   1.033
 2204SOL    HW2 7512   4.781   2.544   1.059
 2205SOL     OW 7513   1.272   6.917   6.460
 2205SOL    HW1 7514   1.359   6.909   6.509
 2205SOL    HW2 7515   1.215   6.837   6.479
 2206SOL     OW 7516   3.255   4.120   5.739
 2206SOL    HW1 7517   3.265   4.139   5.837
 2206SOL    HW2 7518   3.160   4.092   5.721
 2207SOL     OW 7519   3.307   4.870   6.578
 2207SOL    HW1 7520   3.257   4.954   6.600
 2207SOL    HW2 7521   3.314   4.860   6.479
 2208SOL     OW 7522   1.289   5.122   3.427
 2208SOL    HW1 7523   1.329   5.200   3.377
 2208SOL    HW2 7524   1.194   5.111   3.399
 2209SOL     OW 7525   2.692   0.208   5.036
 2209SOL    HW1 7526   2.766   0.145   5.015
 2209SOL    HW2 7527   2.703   0.243   5.129
 2210SOL     OW 7528   0.296   4.441   3.872
 2210SOL    HW1 7529   0.387   4.410   3.845
 2210SOL    HW2 7530   0.245   4.365   3.912
 2211SOL     OW 7531   6.923   0.436   1.040
 2211SOL    HW1 7532   6.930   0.398   1.133
 2211SOL    HW2 7533   6.996   0.503   1.026
 2212SOL     OW 7534   2.247   5.972   0.342
 2212SOL    HW1 7535   2.204   5.890   0.305
 2212SOL    HW2 7536   2.322   5.947   0.403
 2213SOL     OW 7537   3.506   1.876   5.161
 2213SOL    HW1 7538   3.426   1.882   5.221
 2213SOL    HW2 7539   3.511   1.958   5.104
 2214SOL     OW 7540   2.918   3.550   4.871
 2214SOL    HW1 7541   2.828   3.538   4.913
 2214SOL    HW2 7542   2.981   3.482   4.907
 2215SOL     OW 7543   5.529   0.573   0.233
 2215SOL    HW1 7544   5.502   0.639   0.303
 2215SOL    HW2 7545   5.546   0.621   0.146
 2216SOL     OW 7546   1.198   1.101   6.767
 2216SOL    HW1 7547   1.126   1.052   6.719
 2216SOL    HW2 7548   1.212   1.061   6.857
 2217SOL     OW 7549   3.941   6.955   2.362
 2217SOL    HW1 7550   3.991   6.933   2.446
 2217SOL    HW2 7551   3.905   0.022   2.368
 2218SOL     OW 7552   0.071   5.110   0.111
 2218SOL    HW1 7553   0.105   5.203   0.092
 2218SOL    HW2 7554   0.114   5.077   0.195
 2219SOL     OW 7555   6.246   1.678   0.805
 2219SOL    HW1 7556   6.192   1.683   0.889
 2219SOL    HW2 7557   6.202   1.615   0.741
 2220SOL     OW 7558   2.131   5.967   5.243
 2220SOL    HW1 7559   2.165   5.895   5.184
 2220SOL    HW2 7560   2.186   6.050   5.229
 2221SOL     OW 7561   5.769   1.764   5.471
 2221SOL    HW1 7562   5.796   1.713   5.389
 2221SOL    HW2 7563   5.838   1.833   5.492
 2222SOL     OW 7564   6.010   0.367   1.552
 2222SOL    HW1 7565   5.942   0.358   1.625
 2222SOL    HW2 7566   5.975   0.327   1.468
 2223SOL     OW 7567   5.787   1.324   5.684
 2223SOL    HW1 7568   5.700   1.281   5.659
 2223SOL    HW2 7569   5.821   1.377   5.606
 2224SOL     OW 7570   6.469   3.958   0.505
 2224SOL    HW1 7571   6.477   3.859   0.507
 2224SOL    HW2 7572   6.551   3.998   0.466
 2225SOL     OW 7573   6.137   6.587   4.241
 2225SOL    HW1 7574   6.166   6.492   4.257
 2225SOL    HW2 7575   6.209   6.635   4.191
 2226SOL     OW 7576   3.953   5.175   1.000
 2226SOL    HW1 7577   3.986   5.235   0.927
 2226SOL    HW2 7578   4.030   5.124   1.038
 2227SOL     OW 7579   5.946   2.468   0.071
 2227SOL    HW1 7580   6.017   2.398   0.061
 2227SOL    HW2 7581   5.856   2.424   0.068
 2228SOL     OW 7582   4.406   5.147   1.019
 2228SOL    HW1 7583   4.348   5.228   1.025
 2228SOL    HW2 7584   4.406   5.113   0.925
 2229SOL     OW 7585   4.035   2.937   5.270
 2229SOL    HW1 7586   3.960   3.002   5.272
 2229SOL    HW2 7587   3.999   2.844   5.275
 2230SOL     OW 7588   6.425   6.715   0.944
 2230SOL    HW1 7589   6.374   6.757   1.019
 2230SOL    HW2 7590   6.516   6.755   0.939
 2231SOL     OW 7591   0.188   1.027   1.430
 2231SOL    HW1 7592   0.225   0.937   1.406
 2231SOL    HW2 7593   0.153   1.072   1.348
 2232SOL     OW 7594   1.227   1.659   4.379
 2232SOL    HW1 7595   1.179   1.655   4.291
 2232SOL    HW2 7596   1.269   1.570   4.399
 2233SOL     OW 7597   2.647   3.223   0.649
 2233SOL    HW1 7598   2.675   3.146   0.707
 2233SOL    HW2 7599   2.600   3.187   0.568
 2234SOL     OW 7600   3.576   1.590   1.222
 2234SOL    HW1 7601   3.649   1.526   1.198
 2234SOL    HW2 7602   3.612   1.660   1.284
 2235SOL     OW 7603   2.854   0.434   1.600
 2235SOL    HW1 7604   2.862   0.512   1.662
 2235SOL    HW2 7605   2.879   0.462   1.507
 2236SOL     OW 7606   2.088   3.790   6.021
 2236SOL    HW1 7607   2.141   3.709   6.042
 2236SOL    HW2 7608   2.005   3.792   6.077
 2237SOL     OW 7609   5.403   4.459   4.167
 2237SOL    HW1 7610   5.380   4.556   4.165
 2237SOL    HW2 7611   5.363   4.417   4.249
 2238SOL     OW 7612   4.885   5.696   1.668
 2238SOL    HW1 7613   4.925   5.703   1.759
 2238SOL    HW2 7614   4.923   5.767   1.609
 2239SOL     OW 7615   3.525   5.235   3.993
 2239SOL    HW1 7616   3.509   5.230   3.894
 2239SOL    HW2 7617   3.466   5.306   4.032
 2240SOL     OW 7618   3.365   5.346   2.964
 2240SOL    HW1 7619   3.427   5.323   2.889
 2240SOL    HW2 7620   3.310   5.425   2.939
 2241SOL     OW 7621   0.056   6.093   2.829
 2241SOL    HW1 7622   0.079   6.116   2.924
 2241SOL    HW2 7623   0.096   6.005   2.806
 2242SOL     OW 7624   4.962   2.818   2.412
 2242SOL    HW1 7625   5.055   2.855   2.407
 2242SOL    HW2 7626   4.912   2.864   2.486
 2243SOL     OW 7627   1.780   6.494   5.760
 2243SOL    HW1 7628   1.774   6.582   5.712
 2243SOL    HW2 7629   1.873   6.459   5.750
 2244SOL     OW 7630   2.383   6.711   0.788
 2244SOL    HW1 7631   2.462   6.771   0.780
 2244SOL    HW2 7632   2.299   6.764   0.778
 2245SOL     OW 7633   0.832   1.309   1.773
 2245SOL    HW1 7634   0.883   1.228   1.744
 2245SOL    HW2 7635   0.748   1.282   1.820
 2246SOL     OW 7636   1.751   0.836   4.004
 2246SOL    HW1 7637   1.850   0.836   3.986
 2246SOL    HW2 7638   1.729   0.909   4.068
 2247SOL     OW 7639   3.364   2.930   3.448
 2247SOL    HW1 7640   3.446   2.951   3.502
 2247SOL    HW2 7641   3.391   2.898   3.357
 2248SOL     OW 7642   6.234   4.448   4.843
 2248SOL    HW1 7643   6.244   4.484   4.936
 2248SOL    HW2 7644   6.257   4.520   4.777
 2249SOL     OW 7645   5.642   6.376   3.491
 2249SOL    HW1 7646   5.694   6.454   3.525
 2249SOL    HW2 7647   5.559   6.408   3.445
 2250SOL     OW 7648   3.516   4.074   5.077
 2250SOL    HW1 7649   3.570   4.110   5.153
 2250SOL    HW2 7650   3.521   4.137   4.999
 2251SOL     OW 7651   5.331   0.459   7.008
 2251SOL    HW1 7652   5.362   0.393   6.940
 2251SOL    HW2 7653   5.306   0.411   0.066
 2252SOL     OW 7654   4.792   2.071   2.855
 2252SOL    HW1 7655   4.763   2.054   2.761
 2252SOL    HW2 7656   4.853   2.150   2.858
 2253SOL     OW 7657   6.903   3.878   0.065
 2253SOL    HW1 7658   6.910   3.783   0.096
 2253SOL    HW2 7659   6.975   3.933   0.107
 2254SOL     OW 7660   3.543   3.269   4.737
 2254SOL    HW1 7661   3.518   3.332   4.664
 2254SOL    HW2 7662   3.473   3.271   4.808
 2255SOL     OW 7663   4.003   3.159   6.201
 2255SOL    HW1 7664   4.073   3.087   6.204
 2255SOL    HW2 7665   3.913   3.118   6.216
 2256SOL     OW 7666   4.881   6.442   1.914
 2256SOL    HW1 7667   4.926   6.412   1.830
 2256SOL    HW2 7668   4.947   6.492   1.970
 2257SOL     OW 7669   0.093   1.599   4.296
 2257SOL    HW1 7670   0.006   1.613   4.248
 2257SOL    HW2 7671   0.166   1.585   4.229
 2258SOL     OW 7672   1.440   5.108   4.254
 2258SOL    HW1 7673   1.401   5.130   4.165
 2258SOL    HW2 7674   1.371   5.123   4.325
 2259SOL     OW 7675   5.159   2.844   5.431
 2259SOL    HW1 7676   5.197   2.935   5.444
 2259SOL    HW2 7677   5.199   2.781   5.498
 2260SOL     OW 7678   0.154   4.492   1.408
 2260SOL    HW1 7679   0.188   4.507   1.316
 2260SOL    HW2 7680   0.229   4.466   1.469
 2261SOL     OW 7681   5.512   5.140   0.258
 2261SOL    HW1 7682   5.562   5.163   0.341
 2261SOL    HW2 7683   5.491   5.223   0.207
 2262SOL     OW 7684   5.842   0.348   3.856
 2262SOL    HW1 7685   5.843   0.302   3.767
 2262SOL    HW2 7686   5.932   0.342   3.898
 2263SOL     OW 7687   3.273   5.988   0.306
 2263SOL    HW1 7688   3.347   6.008   0.242
 2263SOL    HW2 7689   3.229   5.902   0.281
 2264SOL     OW 7690   2.990   5.339   6.337
 2264SOL    HW1 7691   2.920   5.308   6.401
 2264SOL    HW2 7692   2.957   5.328   6.243
 2265SOL     OW 7693   2.214   0.970   3.731
 2265SOL    HW1 7694   2.276   0.902   3.770
 2265SOL    HW2 7695   2.172   1.023   3.804
 2266SOL     OW 7696   5.213   1.291   0.666
 2266SOL    HW1 7697   5.165   1.308   0.752
 2266SOL    HW2 7698   5.210   1.373   0.609
 2267SOL     OW 7699   4.967   3.098   4.907
 2267SOL    HW1 7700   4.916   3.014   4.928
 2267SOL    HW2 7701   4.947   3.167   4.976
 2268SOL     OW 7702   5.794   3.967   6.627
 2268SOL    HW1 7703   5.741   3.948   6.544
 2268SOL    HW2 7704   5.860   3.893   6.642
 2269SOL     OW 7705   6.795   4.467   5.624
 2269SOL    HW1 7706   6.880   4.449   5.673
 2269SOL    HW2 7707   6.752   4.380   5.598
 2270SOL     OW 7708   3.303   2.436   5.915
 2270SOL    HW1 7709   3.207   2.464   5.915
 2270SOL    HW2 7710   3.334   2.423   5.821
 2271SOL     OW 7711   5.446   4.757   0.227
 2271SOL    HW1 7712   5.396   4.843   0.221
 2271SOL    HW2 7713   5.434   4.705   0.142
 2272SOL     OW 7714   6.032   2.043   6.553
 2272SOL    HW1 7715   6.006   2.054   6.457
 2272SOL    HW2 7716   5.955   2.069   6.611
 2273SOL     OW 7717   1.849   1.239   2.169
 2273SOL    HW1 7718   1.782   1.270   2.101
 2273SOL    HW2 7719   1.941   1.252   2.133
 2274SOL     OW 7720   0.927   2.082   5.850
 2274SOL    HW1 7721   1.015   2.115   5.815
 2274SOL    HW2 7722   0.936   2.056   5.946
 2275SOL     OW 7723   6.395   6.399   4.567
 2275SOL    HW1 7724   6.492   6.376   4.569
 2275SOL    HW2 7725   6.385   6.498   4.561
 2276SOL     OW 7726   2.473   5.640   1.935
 2276SOL    HW1 7727   2.395   5.628   1.996
 2276SOL    HW2 7728   2.445   5.619   1.841
 2277SOL     OW 7729   4.039   3.828   4.291
 2277SOL    HW1 7730   3.947   3.851   4.321
 2277SOL    HW2 7731   4.034   3.771   4.209
 2278SOL     OW 7732   6.209   4.031   4.504
 2278SOL    HW1 7733   6.236   3.974   4.426
 2278SOL    HW2 7734   6.145   4.102   4.472
 2279SOL     OW 7735   5.610   6.546   6.040
 2279SOL    HW1 7736   5.559   6.628   6.014
 2279SOL    HW2 7737   5.708   6.566   6.040
 2280SOL     OW 7738   6.905   0.190   4.892
 2280SOL    HW1 7739   6.823   0.233   4.929
 2280SOL    HW2 7740   6.923   0.104   4.940
 2281SOL     OW 7741   3.069   0.679   1.868
 2281SOL    HW1 7742   3.112   0.691   1.957
 2281SOL    HW2 7743   3.106   0.746   1.804
 2282SOL     OW 7744   5.729   6.950   5.540
 2282SOL    HW1 7745   5.649   6.973   5.596
 2282SOL    HW2 7746   5.740   7.018   5.467
 2283SOL     OW 7747   1.482   5.830   1.703
 2283SOL    HW1 7748   1.504   5.775   1.623
 2283SOL    HW2 7749   1.442   5.917   1.675
 2284SOL     OW 7750   1.557   2.918   0.177
 2284SOL    HW1 7751   1.626   2.989   0.165
 2284SOL    HW2 7752   1.546   2.898   0.275
 2285SOL     OW 7753   1.907   2.749   1.404
 2285SOL    HW1 7754   1.987   2.783   1.453
 2285SOL    HW2 7755   1.853   2.690   1.465
 2286SOL     OW 7756   6.000   6.950   3.690
 2286SOL    HW1 7757   6.083   6.895   3.692
 2286SOL    HW2 7758   5.920   6.891   3.701
 2287SOL     OW 7759   2.219   7.011   3.429
 2287SOL    HW1 7760   2.130   6.998   3.471
 2287SOL    HW2 7761   2.245   6.928   3.379
 2288SOL     OW 7762   5.962   4.785   4.327
 2288SOL    HW1 7763   5.863   4.788   4.324
 2288SOL    HW2 7764   6.000   4.864   4.279
 2289SOL     OW 7765   0.721   5.119   0.860
 2289SOL    HW1 7766   0.793   5.185   0.882
 2289SOL    HW2 7767   0.680   5.141   0.772
 2290SOL     OW 7768   0.420   3.611   1.064
 2290SOL    HW1 7769   0.447   3.706   1.078
 2290SOL    HW2 7770   0.499   3.559   1.032
 2291SOL     OW 7771   1.853   2.255   5.323
 2291SOL    HW1 7772   1.831   2.346   5.290
 2291SOL    HW2 7773   1.887   2.261   5.417
 2292SOL     OW 7774   0.492   1.884   4.193
 2292SOL    HW1 7775   0.520   1.937   4.274
 2292SOL    HW2 7776   0.541   1.918   4.113
 2293SOL     OW 7777   5.076   6.313   1.427
 2293SOL    HW1 7778   4.991   6.363   1.438
 2293SOL    HW2 7779   5.056   6.222   1.390
 2294SOL     OW 7780   3.404   0.455   6.918
 2294SOL    HW1 7781   3.495   0.494   6.906
 2294SOL    HW2 7782   3.355   0.456   6.830
 2295SOL     OW 7783   0.681   1.668   3.031
 2295SOL    HW1 7784   0.726   1.661   2.942
 2295SOL    HW2 7785   0.707   1.754   3.075
 2296SOL     OW 7786   4.511   5.122   0.240
 2296SOL    HW1 7787   4.594   5.075   0.210
 2296SOL    HW2 7788   4.526   5.221   0.237
 2297SOL     OW 7789   4.414   4.099   5.452
 2297SOL    HW1 7790   4.401   4.097   5.551
 2297SOL    HW2 7791   4.473   4.024   5.424
 2298SOL     OW 7792   4.119   3.168   1.765
 2298SOL    HW1 7793   4.088   3.109   1.691
 2298SOL    HW2 7794   4.106   3.121   1.853
 2299SOL     OW 7795   4.602   6.075   5.456
 2299SOL    HW1 7796   4.672   6.146   5.460
 2299SOL    HW2 7797   4.511   6.117   5.469
 2300SOL     OW 7798   1.940   5.289   2.385
 2300SOL    HW1 7799   1.960   5.347   2.464
 2300SOL    HW2 7800   1.961   5.194   2.408
 2301SOL     OW 7801   3.215   2.969   2.906
 2301SOL    HW1 7802   3.143   3.035   2.886
 2301SOL    HW2 7803   3.271   3.003   2.982
 2302SOL     OW 7804   3.743   0.276   0.814
 2302SOL    HW1 7805   3.800   0.205   0.772
 2302SOL    HW2 7806   3.733   0.257   0.911
 2303SOL     OW 7807   1.909   3.267   6.365
 2303SOL    HW1 7808   1.999   3.279   6.407
 2303SOL    HW2 7809   1.901   3.174   6.330
 2304SOL     OW 7810   4.296   6.887   3.916
 2304SOL    HW1 7811   4.386   6.910   3.881
 2304SOL    HW2 7812   4.287   6.919   4.010
 2305SOL     OW 7813   2.774   6.785   2.926
 2305SOL    HW1 7814   2.834   6.797   3.004
 2305SOL    HW2 7815   2.828   6.758   2.846
 2306SOL     OW 7816   2.696   4.970   2.005
 2306SOL    HW1 7817   2.749   5.011   2.079
 2306SOL    HW2 7818   2.665   5.041   1.942
 2307SOL     OW 7819   0.303   4.177   2.640
 2307SOL    HW1 7820   0.240   4.220   2.705
 2307SOL    HW2 7821   0.265   4.184   2.547
 2308SOL     OW 7822   1.538   6.398   0.174
 2308SOL    HW1 7823   1.511   6.382   0.269
 2308SOL    HW2 7824   1.578   6.314   0.136
 2309SOL     OW 7825   2.121   6.458   6.904
 2309SOL    HW1 7826   2.077   6.433   6.818
 2309SOL    HW2 7827   2.053   6.496   6.967
 2310SOL     OW 7828   5.606   6.342   1.250
 2310SOL    HW1 7829   5.597   6.411   1.178
 2310SOL    HW2 7830   5.516   6.305   1.272
 2311SOL     OW 7831   2.118   5.929   1.811
 2311SOL    HW1 7832   2.074   5.900   1.726
 2311SOL    HW2 7833   2.071   6.009   1.848
 2312SOL     OW 7834   3.563   6.351   3.954
 2312SOL    HW1 7835   3.514   6.368   3.869
 2312SOL    HW2 7836   3.559   6.433   4.012
 2313SOL     OW 7837   5.168   5.669   1.340
 2313SOL    HW1 7838   5.167   5.667   1.240
 2313SOL    HW2 7839   5.262   5.657   1.372
 2314SOL     OW 7840   5.382   0.262   5.081
 2314SOL    HW1 7841   5.367   0.259   5.180
 2314SOL    HW2 7842   5.294   0.251   5.035
 2315SOL     OW 7843   4.858   3.421   5.493
 2315SOL    HW1 7844   4.859   3.462   5.584
 2315SOL    HW2 7845   4.943   3.370   5.478
 2316SOL     OW 7846   2.991   0.841   4.506
 2316SOL    HW1 7847   2.966   0.788   4.587
 2316SOL    HW2 7848   2.910   0.889   4.471
 2317SOL     OW 7849   6.786   5.705   3.312
 2317SOL    HW1 7850   6.880   5.691   3.344
 2317SOL    HW2 7851   6.748   5.787   3.355
 2318SOL     OW 7852   2.347   2.854   4.180
 2318SOL    HW1 7853   2.357   2.818   4.087
 2318SOL    HW2 7854   2.344   2.954   4.177
 2319SOL     OW 7855   2.662   5.718   4.570
 2319SOL    HW1 7856   2.734   5.714   4.639
 2319SOL    HW2 7857   2.678   5.796   4.509
 2320SOL     OW 7858   0.773   3.056   4.870
 2320SOL    HW1 7859   0.797   3.149   4.896
 2320SOL    HW2 7860   0.815   2.991   4.933
 2321SOL     OW 7861   2.216   5.632   0.013
 2321SOL    HW1 7862   2.286   5.674   6.982
 2321SOL    HW2 7863   2.168   5.561   6.987
 2322SOL     OW 7864   1.406   3.961   3.471
 2322SOL    HW1 7865   1.365   4.036   3.418
 2322SOL    HW2 7866   1.415   3.880   3.412
 2323SOL     OW 7867   3.459   4.929   1.768
 2323SOL    HW1 7868   3.480   4.866   1.843
 2323SOL    HW2 7869   3.498   5.019   1.788
 2324SOL     OW 7870   6.929   5.756   0.727
 2324SOL    HW1 7871   6.884   5.683   0.676
 2324SOL    HW2 7872   6.897   5.754   0.822
 2325SOL     OW 7873   0.922   4.317   1.479
 2325SOL    HW1 7874   1.022   4.307   1.486
 2325SOL    HW2 7875   0.895   4.404   1.519
 2326SOL     OW 7876   3.518   5.731   6.629
 2326SOL    HW1 7877   3.562   5.746   6.718
 2326SOL    HW2 7878   3.588   5.707   6.561
 2327SOL     OW 7879   6.712   1.488   4.022
 2327SOL    HW1 7880   6.656   1.422   3.972
 2327SOL    HW2 7881   6.803   1.491   3.982
 2328SOL     OW 7882   1.713   1.890   2.798
 2328SOL    HW1 7883   1.792   1.834   2.825
 2328SOL    HW2 7884   1.746   1.975   2.757
 2329SOL     OW 7885   1.854   4.505   4.538
 2329SOL    HW1 7886   1.779   4.468   4.592
 2329SOL    HW2 7887   1.934   4.518   4.596
 2330SOL     OW 7888   0.540   3.867   1.114
 2330SOL    HW1 7889   0.581   3.893   1.026
 2330SOL    HW2 7890   0.612   3.846   1.180
 2331SOL     OW 7891   3.643   6.015   6.596
 2331SOL    HW1 7892   3.739   6.026   6.618
 2331SOL    HW2 7893   3.632   5.939   6.531
 2332SOL     OW 7894   5.258   1.449   5.276
 2332SOL    HW1 7895   5.214   1.469   5.364
 2332SOL    HW2 7896   5.237   1.522   5.211
 2333SOL     OW 7897   0.244   4.469   2.809
 2333SOL    HW1 7898   0.158   4.510   2.840
 2333SOL    HW2 7899   0.257   4.488   2.711
 2334SOL     OW 7900   2.173   0.718   7.018
 2334SOL    HW1 7901   2.270   0.725   0.016
 2334SOL    HW2 7902   2.138   0.810   6.998
 2335SOL     OW 7903   6.284   1.200   3.333
 2335SOL    HW1 7904   6.228   1.270   3.376
 2335SOL    HW2 7905   6.380   1.229   3.333
 2336SOL     OW 7906   4.456   2.465   4.845
 2336SOL    HW1 7907   4.372   2.466   4.899
 2336SOL    HW2 7908   4.497   2.374   4.848
 2337SOL     OW 7909   4.505   0.709   2.058
 2337SOL    HW1 7910   4.605   0.713   2.050
 2337SOL    HW2 7911   4.475   0.777   2.125
 2338SOL     OW 7912   1.038   3.211   5.440
 2338SOL    HW1 7913   1.064   3.194   5.535
 2338SOL    HW2 7914   1.118   3.196   5.380
 2339SOL     OW 7915   3.295   3.505   4.616
 2339SOL    HW1 7916   3.212   3.450   4.619
 2339SOL    HW2 7917   3.272   3.598   4.585
 2340SOL     OW 7918   6.208   4.410   0.082
 2340SOL    HW1 7919   6.256   4.326   0.106
 2340SOL    HW2 7920   6.206   4.420   7.009
 2341SOL     OW 7921   3.900   4.606   1.731
 2341SOL    HW1 7922   3.845   4.523   1.738
 2341SOL    HW2 7923   3.840   4.686   1.744
 2342SOL     OW 7924   0.824   6.958   5.099
 2342SOL    HW1 7925   0.810   7.023   5.025
 2342SOL    HW2 7926   0.875   7.002   5.173
 2343SOL     OW 7927   1.893   5.732   3.236
 2343SOL    HW1 7928   1.900   5.766   3.143
 2343SOL    HW2 7929   1.966   5.666   3.253
 2344SOL     OW 7930   1.994   6.044   0.087
 2344SOL    HW1 7931   2.037   6.127   0.122
 2344SOL    HW2 7932   1.920   6.016   0.148
 2345SOL     OW 7933   3.521   5.647   4.798
 2345SOL    HW1 7934   3.443   5.677   4.853
 2345SOL    HW2 7935   3.536   5.549   4.810
 2346SOL     OW 7936   4.095   2.831   5.597
 2346SOL    HW1 7937   4.064   2.768   5.525
 2346SOL    HW2 7938   4.195   2.836   5.596
 2347SOL     OW 7939   2.972   2.910   1.747
 2347SOL    HW1 7940   3.039   2.978   1.716
 2347SOL    HW2 7941   2.904   2.955   1.804
 2348SOL     OW 7942   2.466   0.119   3.417
 2348SOL    HW1 7943   2.471   0.213   3.451
 2348SOL    HW2 7944   2.390   0.071   3.461
 2349SOL     OW 7945   0.962   4.448   6.267
 2349SOL    HW1 7946   0.951   4.349   6.258
 2349SOL    HW2 7947   0.957   4.473   6.364
 2350SOL     OW 7948   4.666   6.997   6.475
 2350SOL    HW1 7949   4.664   6.961   6.382
 2350SOL    HW2 7950   4.736   6.947   6.528
 2351SOL     OW 7951   2.989   5.399   3.598
 2351SOL    HW1 7952   2.999   5.389   3.697
 2351SOL    HW2 7953   2.893   5.390   3.573
 2352SOL     OW 7954   0.734   4.378   2.290
 2352SOL    HW1 7955   0.775   4.406   2.376
 2352SOL    HW2 7956   0.726   4.457   2.229
 2353SOL     OW 7957   3.024   4.494   6.177
 2353SOL    HW1 7958   2.961   4.544   6.118
 2353SOL    HW2 7959   3.006   4.396   6.168
 2354SOL     OW 7960   3.455   1.404   5.985
 2354SOL    HW1 7961   3.479   1.425   5.890
 2354SOL    HW2 7962   3.409   1.316   5.989
 2355SOL     OW 7963   2.126   5.682   0.551
 2355SOL    HW1 7964   2.115   5.674   0.452
 2355SOL    HW2 7965   2.216   5.648   0.578
 2356SOL     OW 7966   1.332   3.304   6.400
 2356SOL    HW1 7967   1.393   3.229   6.376
 2356SOL    HW2 7968   1.292   3.288   6.490
 2357SOL     OW 7969   3.980   6.664   2.698
 2357SOL    HW1 7970   4.029   6.749   2.677
 2357SOL    HW2 7971   3.905   6.652   2.632
 2358SOL     OW 7972   4.116   4.896   5.045
 2358SOL    HW1 7973   4.166   4.851   4.972
 2358SOL    HW2 7974   4.019   4.904   5.020
 2359SOL     OW 7975   6.236   0.782   6.000
 2359SOL    HW1 7976   6.187   0.701   6.032
 2359SOL    HW2 7977   6.176   0.862   6.008
 2360SOL     OW 7978   5.777   4.876   6.985
 2360SOL    HW1 7979   5.768   4.792   0.012
 2360SOL    HW2 7980   5.750   4.858   6.890
 2361SOL     OW 7981   2.225   1.153   5.067
 2361SOL    HW1 7982   2.165   1.222   5.107
 2361SOL    HW2 7983   2.290   1.198   5.006
 2362SOL     OW 7984   2.233   6.987   4.790
 2362SOL    HW1 7985   2.231   0.037   4.854
 2362SOL    HW2 7986   2.144   6.980   4.744
 2363SOL     OW 7987   4.424   2.128   5.177
 2363SOL    HW1 7988   4.413   2.040   5.131
 2363SOL    HW2 7989   4.500   2.122   5.242
 2364SOL     OW 7990   1.363   1.879   2.463
 2364SOL    HW1 7991   1.329   1.934   2.540
 2364SOL    HW2 7992   1.289   1.825   2.425
 2365SOL     OW 7993   6.464   2.892   6.450
 2365SOL    HW1 7994   6.560   2.917   6.459
 2365SOL    HW2 7995   6.437   2.834   6.527
 2366SOL     OW 7996   1.872   5.687   6.244
 2366SOL    HW1 7997   1.814   5.728   6.315
 2366SOL    HW2 7998   1.819   5.618   6.194
 2367SOL     OW 7999   2.842   4.582   0.639
 2367SOL    HW1 8000   2.782   4.517   0.686
 2367SOL    HW2 8001   2.911   4.532   0.587
 2368SOL     OW 8002   4.488   0.284   3.751
 2368SOL    HW1 8003   4.468   0.291   3.653
 2368SOL    HW2 8004   4.484   0.375   3.792
 2369SOL     OW 8005   1.027   2.638   5.635
 2369SOL    HW1 8006   0.991   2.651   5.728
 2369SOL    HW2 8007   0.952   2.645   5.569
 2370SOL     OW 8008   5.106   3.634   0.017
 2370SOL    HW1 8009   5.054   3.719   0.017
 2370SOL    HW2 8010   5.047   3.559   7.016
 2371SOL     OW 8011   0.651   0.393   2.303
 2371SOL    HW1 8012   0.588   0.422   2.375
 2371SOL    HW2 8013   0.738   0.440   2.313
 2372SOL     OW 8014   6.993   2.454   2.227
 2372SOL    HW1 8015   6.925   2.389   2.259
 2372SOL    HW2 8016   6.989   2.461   2.127
 2373SOL     OW 8017   0.478   1.146   0.295
 2373SOL    HW1 8018   0.536   1.154   0.376
 2373SOL    HW2 8019   0.382   1.159   0.321
 2374SOL     OW 8020   6.035   1.136   3.535
 2374SOL    HW1 8021   6.064   1.074   3.607
 2374SOL    HW2 8022   6.003   1.084   3.456
 2375SOL     OW 8023   2.795   6.789   4.729
 2375SOL    HW1 8024   2.779   6.885   4.752
 2375SOL    HW2 8025   2.876   6.756   4.777
 2376SOL     OW 8026   6.722   2.858   4.030
 2376SOL    HW1 8027   6.667   2.779   4.005
 2376SOL    HW2 8028   6.809   2.855   3.981
 2377SOL     OW 8029   3.252   4.107   3.171
 2377SOL    HW1 8030   3.227   4.179   3.106
 2377SOL    HW2 8031   3.317   4.143   3.237
 2378SOL     OW 8032   4.886   1.903   0.516
 2378SOL    HW1 8033   4.825   1.865   0.585
 2378SOL    HW2 8034   4.907   1.998   0.540
 2379SOL     OW 8035   5.835   2.159   6.675
 2379SOL    HW1 8036   5.769   2.191   6.608
 2379SOL    HW2 8037   5.787   2.124   6.755
 2380SOL     OW 8038   0.812   0.456   6.491
 2380SOL    HW1 8039   0.763   0.532   6.448
 2380SOL    HW2 8040   0.767   0.370   6.466
 2381SOL     OW 8041   2.028   3.762   4.520
 2381SOL    HW1 8042   2.068   3.795   4.434
 2381SOL    HW2 8043   1.932   3.739   4.505
 2382SOL     OW 8044   2.451   4.406   3.800
 2382SOL    HW1 8045   2.410   4.371   3.883
 2382SOL    HW2 8046   2.388   4.393   3.723
 2383SOL     OW 8047   5.602   6.572   1.066
 2383SOL    HW1 8048   5.599   6.671   1.052
 2383SOL    HW2 8049   5.669   6.531   1.004
 2384SOL     OW 8050   5.932   0.233   3.026
 2384SOL    HW1 8051   5.912   0.140   2.998
 2384SOL    HW2 8052   6.024   0.259   2.997
 2385SOL     OW 8053   0.907   6.422   1.293
 2385SOL    HW1 8054   0.994   6.468   1.277
 2385SOL    HW2 8055   0.844   6.441   1.218
 2386SOL     OW 8056   5.305   4.765   4.319
 2386SOL    HW1 8057   5.325   4.839   4.255
 2386SOL    HW2 8058   5.353   4.782   4.405
 2387SOL     OW 8059   1.488   1.424   3.679
 2387SOL    HW1 8060   1.512   1.338   3.634
 2387SOL    HW2 8061   1.460   1.406   3.773
 2388SOL     OW 8062   1.117   2.200   3.354
 2388SOL    HW1 8063   1.121   2.291   3.314
 2388SOL    HW2 8064   1.173   2.197   3.437
 2389SOL     OW 8065   5.139   3.685   2.761
 2389SOL    HW1 8066   5.227   3.711   2.721
 2389SOL    HW2 8067   5.065   3.731   2.712
 2390SOL     OW 8068   4.102   3.362   2.922
 2390SOL    HW1 8069   4.115   3.280   2.978
 2390SOL    HW2 8070   4.020   3.353   2.867
 2391SOL     OW 8071   4.515   4.435   5.724
 2391SOL    HW1 8072   4.419   4.411   5.732
 2391SOL    HW2 8073   4.562   4.366   5.669
 2392SOL     OW 8074   3.681   6.540   5.778
 2392SOL    HW1 8075   3.676   6.601   5.857
 2392SOL    HW2 8076   3.612   6.468   5.787
 2393SOL     OW 8077   5.088   3.512   6.031
 2393SOL    HW1 8078   5.070   3.471   6.120
 2393SOL    HW2 8079   5.042   3.458   5.959
 2394SOL     OW 8080   1.583   3.138   4.630
 2394SOL    HW1 8081   1.499   3.168   4.674
 2394SOL    HW2 8082   1.621   3.060   4.680
 2395SOL     OW 8083   6.139   2.500   6.717
 2395SOL    HW1 8084   6.142   2.563   6.640
 2395SOL    HW2 8085   6.227   2.454   6.726
 2396SOL     OW 8086   4.322   5.124   1.458
 2396SOL    HW1 8087   4.342   5.105   1.554
 2396SOL    HW2 8088   4.389   5.077   1.400
 2397SOL     OW 8089   0.750   3.777   6.837
 2397SOL    HW1 8090   0.817   3.709   6.808
 2397SOL    HW2 8091   0.659   3.735   6.840
 2398SOL     OW 8092   2.735   3.576   6.704
 2398SOL    HW1 8093   2.738   3.556   6.606
 2398SOL    HW2 8094   2.677   3.509   6.750
 2399SOL     OW 8095   4.386   1.602   2.310
 2399SOL    HW1 8096   4.371   1.517   2.258
 2399SOL    HW2 8097   4.415   1.674   2.247
 2400SOL     OW 8098   3.330   4.607   7.024
 2400SOL    HW1 8099   3.279   4.585   6.941
 2400SOL    HW2 8100   3.267   4.639   0.067
 2401SOL     OW 8101   3.228   6.551   6.300
 2401SOL    HW1 8102   3.224   6.530   6.398
 2401SOL    HW2 8103   3.221   6.650   6.288
 2402SOL     OW 8104   6.949   1.005   3.722
 2402SOL    HW1 8105   6.970   1.096   3.757
 2402SOL    HW2 8106   6.944   1.008   3.622
 2403SOL     OW 8107   2.021   2.586   0.482
 2403SOL    HW1 8108   2.113   2.612   0.452
 2403SOL    HW2 8109   1.956   2.658   0.458
 2404SOL     OW 8110   4.209   0.669   1.398
 2404SOL    HW1 8111   4.220   0.743   1.331
 2404SOL    HW2 8112   4.290   0.664   1.455
 2405SOL     OW 8113   3.839   3.321   2.798
 2405SOL    HW1 8114   3.775   3.270   2.856
 2405SOL    HW2 8115   3.799   3.410   2.775
 2406SOL     OW 8116   2.776   6.622   3.170
 2406SOL    HW1 8117   2.705   6.641   3.102
 2406SOL    HW2 8118   2.774   6.525   3.194
 2407SOL     OW 8119   5.135   1.753   2.527
 2407SOL    HW1 8120   5.046   1.739   2.570
 2407SOL    HW2 8121   5.177   1.837   2.562
 2408SOL     OW 8122   4.114   5.111   3.472
 2408SOL    HW1 8123   4.035   5.171   3.462
 2408SOL    HW2 8124   4.086   5.016   3.460
 2409SOL     OW 8125   1.377   3.769   2.055
 2409SOL    HW1 8126   1.326   3.793   1.973
 2409SOL    HW2 8127   1.403   3.673   2.052
 2410SOL     OW 8128   4.750   2.023   5.764
 2410SOL    HW1 8129   4.841   2.045   5.799
 2410SOL    HW2 8130   4.741   1.924   5.754
 2411SOL     OW 8131   4.209   5.154   5.140
 2411SOL    HW1 8132   4.185   5.058   5.122
 2411SOL    HW2 8133   4.275   5.185   5.072
 2412SOL     OW 8134   4.592   4.982   1.498
 2412SOL    HW1 8135   4.538   4.898   1.505
 2412SOL    HW2 8136   4.560   5.035   1.420
 2413SOL     OW 8137   6.157   2.250   1.219
 2413SOL    HW1 8138   6.181   2.269   1.314
 2413SOL    HW2 8139   6.058   2.243   1.211
 2414SOL     OW 8140   4.828   4.349   2.378
 2414SOL    HW1 8141   4.804   4.347   2.281
 2414SOL    HW2 8142   4.805   4.438   2.416
 2415SOL     OW 8143   6.983   6.731   1.740
 2415SOL    HW1 8144   6.927   6.783   1.674
 2415SOL    HW2 8145   6.943   6.740   1.831
 2416SOL     OW 8146   4.151   2.067   5.078
 2416SOL    HW1 8147   4.064   2.025   5.104
 2416SOL    HW2 8148   4.222   1.997   5.074
 2417SOL     OW 8149   3.864   3.440   6.055
 2417SOL    HW1 8150   3.952   3.428   6.100
 2417SOL    HW2 8151   3.817   3.352   6.050
 2418SOL     OW 8152   2.998   3.875   4.235
 2418SOL    HW1 8153   2.971   3.936   4.309
 2418SOL    HW2 8154   3.037   3.791   4.273
 2419SOL     OW 8155   0.924   6.129   4.701
 2419SOL    HW1 8156   0.922   6.229   4.698
 2419SOL    HW2 8157   1.019   6.097   4.712
 2420SOL     OW 8158   2.957   1.161   1.744
 2420SOL    HW1 8159   2.974   1.135   1.839
 2420SOL    HW2 8160   2.915   1.252   1.741
 2421SOL     OW 8161   2.972   1.775   4.856
 2421SOL    HW1 8162   2.903   1.816   4.915
 2421SOL    HW2 8163   3.043   1.842   4.836
 2422SOL     OW 8164   5.759   0.941   1.981
 2422SOL    HW1 8165   5.801   1.026   1.953
 2422SOL    HW2 8166   5.799   0.865   1.931
 2423SOL     OW 8167   0.605   6.308   3.167
 2423SOL    HW1 8168   0.597   6.233   3.233
 2423SOL    HW2 8169   0.522   6.363   3.168
 2424SOL     OW 8170   6.289   6.725   6.566
 2424SOL    HW1 8171   6.262   6.632   6.592
 2424SOL    HW2 8172   6.266   6.788   6.640
 2425SOL     OW 8173   5.870   0.099   4.401
 2425SOL    HW1 8174   5.913   0.189   4.401
 2425SOL    HW2 8175   5.772   0.109   4.382
 2426SOL     OW 8176   1.118   5.439   4.420
 2426SOL    HW1 8177   1.029   5.404   4.390
 2426SOL    HW2 8178   1.106   5.488   4.506
 2427SOL     OW 8179   5.842   5.265   5.535
 2427SOL    HW1 8180   5.767   5.331   5.534
 2427SOL    HW2 8181   5.921   5.304   5.582
 2428SOL     OW 8182   6.227   0.107   3.629
 2428SOL    HW1 8183   6.161   0.034   3.612
 2428SOL    HW2 8184   6.273   0.130   3.543
 2429SOL     OW 8185   5.218   5.307   3.779
 2429SOL    HW1 8186   5.299   5.267   3.737
 2429SOL    HW2 8187   5.242   5.395   3.821
 2430SOL     OW 8188   6.223   1.964   1.193
 2430SOL    HW1 8189   6.249   1.902   1.267
 2430SOL    HW2 8190   6.205   2.055   1.230
 2431SOL     OW 8191   4.337   0.785   2.570
 2431SOL    HW1 8192   4.281   0.787   2.653
 2431SOL    HW2 8193   4.374   0.876   2.552
 2432SOL     OW 8194   3.284   6.862   3.176
 2432SOL    HW1 8195   3.193   6.891   3.145
 2432SOL    HW2 8196   3.334   6.822   3.099
 2433SOL     OW 8197   3.314   0.699   1.503
 2433SOL    HW1 8198   3.274   0.613   1.472
 2433SOL    HW2 8199   3.386   0.680   1.570
 2434SOL     OW 8200   4.490   0.403   4.912
 2434SOL    HW1 8201   4.396   0.390   4.880
 2434SOL    HW2 8202   4.545   0.322   4.891
 2435SOL     OW 8203   4.308   4.606   6.323
 2435SOL    HW1 8204   4.218   4.648   6.308
 2435SOL    HW2 8205   4.349   4.644   6.406
 2436SOL     OW 8206   1.825   5.856   1.447
 2436SOL    HW1 8207   1.734   5.818   1.462
 2436SOL    HW2 8208   1.856   5.834   1.355
 2437SOL     OW 8209   4.942   6.181   6.580
 2437SOL    HW1 8210   4.971   6.226   6.664
 2437SOL    HW2 8211   5.007   6.202   6.507
 2438SOL     OW 8212   3.640   1.084   6.441
 2438SOL    HW1 8213   3.721   1.026   6.435
 2438SOL    HW2 8214   3.589   1.061   6.524
 2439SOL     OW 8215   1.015   4.808   6.460
 2439SOL    HW1 8216   1.080   4.734   6.449
 2439SOL    HW2 8217   0.925   4.771   6.485
 2440SOL     OW 8218   4.708   5.523   5.863
 2440SOL    HW1 8219   4.771   5.555   5.792
 2440SOL    HW2 8220   4.646   5.597   5.889
 2441SOL     OW 8221   0.944   0.637   0.180
 2441SOL    HW1 8222   0.934   0.587   0.094
 2441SOL    HW2 8223   1.041   0.646   0.202
 2442SOL     OW 8224   0.114   4.639   4.940
 2442SOL    HW1 8225   0.154   4.605   5.025
 2442SOL    HW2 8226   0.036   4.698   4.960
 2443SOL     OW 8227   4.070   5.560   5.744
 2443SOL    HW1 8228   4.163   5.551   5.710
 2443SOL    HW2 8229   4.006   5.520   5.678
 2444SOL     OW 8230   3.240   4.186   6.004
 2444SOL    HW1 8231   3.276   4.106   6.053
 2444SOL    HW2 8232   3.153   4.214   6.045
 2445SOL     OW 8233   0.396   0.431   2.130
 2445SOL    HW1 8234   0.485   0.390   2.151
 2445SOL    HW2 8235   0.351   0.379   2.057
 2446SOL     OW 8236   0.030   5.298   3.873
 2446SOL    HW1 8237   0.035   5.220   3.935
 2446SOL    HW2 8238   6.981   5.358   3.901
 2447SOL     OW 8239   2.050   2.615   1.012
 2447SOL    HW1 8240   1.968   2.588   1.061
 2447SOL    HW2 8241   2.099   2.685   1.065
 2448SOL     OW 8242   0.575   0.338   4.404
 2448SOL    HW1 8243   0.615   0.274   4.338
 2448SOL    HW2 8244   0.543   0.419   4.355
 2449SOL     OW 8245   0.274   5.105   0.878
 2449SOL    HW1 8246   0.361   5.112   0.927
 2449SOL    HW2 8247   0.198   5.115   0.943
 2450SOL     OW 8248   2.466   5.044   3.160
 2450SOL    HW1 8249   2.560   5.078   3.159
 2450SOL    HW2 8250   2.459   4.966   3.222
 2451SOL     OW 8251   0.812   0.355   3.026
 2451SOL    HW1 8252   0.801   0.327   3.121
 2451SOL    HW2 8253   0.723   0.357   2.981
 2452SOL     OW 8254   1.789   3.516   2.946
 2452SOL    HW1 8255   1.758   3.561   2.862
 2452SOL    HW2 8256   1.709   3.484   2.998
 2453SOL     OW 8257   6.024   4.105   1.459
 2453SOL    HW1 8258   5.947   4.056   1.499
 2453SOL    HW2 8259   6.097   4.041   1.437
 2454SOL     OW 8260   2.698   0.860   0.924
 2454SOL    HW1 8261   2.658   0.936   0.976
 2454SOL    HW2 8262   2.626   0.816   0.870
 2455SOL     OW 8263   5.593   5.767   0.175
 2455SOL    HW1 8264   5.642   5.805   0.253
 2455SOL    HW2 8265   5.526   5.700   0.207
 2456SOL     OW 8266   5.396   6.870   1.256
 2456SOL    HW1 8267   5.371   6.937   1.326
 2456SOL    HW2 8268   5.313   6.823   1.224
 2457SOL     OW 8269   6.313   6.173   0.294
 2457SOL    HW1 8270   6.253   6.108   0.340
 2457SOL    HW2 8271   6.407   6.140   0.299
 2458SOL     OW 8272   2.318   5.742   3.243
 2458SOL    HW1 8273   2.376   5.688   3.181
 2458SOL    HW2 8274   2.375   5.786   3.312
 2459SOL     OW 8275   2.341   6.700   0.480
 2459SOL    HW1 8276   2.259   6.650   0.454
 2459SOL    HW2 8277   2.330   6.737   0.572
 2460SOL     OW 8278   1.803   0.767   1.130
 2460SOL    HW1 8279   1.759   0.683   1.163
 2460SOL    HW2 8280   1.825   0.825   1.208
 2461SOL     OW 8281   4.930   0.948   3.463
 2461SOL    HW1 8282   4.912   0.852   3.482
 2461SOL    HW2 8283   5.026   0.969   3.482
 2462SOL     OW 8284   2.565   5.213   0.010
 2462SOL    HW1 8285   2.560   5.242   0.106
 2462SOL    HW2 8286   2.481   5.241   6.989
 2463SOL     OW 8287   5.853   2.776   4.179
 2463SOL    HW1 8288   5.759   2.804   4.196
 2463SOL    HW2 8289   5.874   2.696   4.235
 2464SOL     OW 8290   1.266   5.118   1.653
 2464SOL    HW1 8291   1.324   5.064   1.713
 2464SOL    HW2 8292   1.199   5.168   1.707
 2465SOL     OW 8293   0.286   4.899   1.377
 2465SOL    HW1 8294   0.313   4.883   1.282
 2465SOL    HW2 8295   0.358   4.949   1.424
 2466SOL     OW 8296   3.227   0.487   2.142
 2466SOL    HW1 8297   3.310   0.446   2.179
 2466SOL    HW2 8298   3.248   0.575   2.101
 2467SOL     OW 8299   5.614   1.027   5.826
 2467SOL    HW1 8300   5.574   0.974   5.900
 2467SOL    HW2 8301   5.701   1.066   5.856
 2468SOL     OW 8302   6.895   6.338   2.165
 2468SOL    HW1 8303   6.891   6.436   2.186
 2468SOL    HW2 8304   6.881   6.325   2.067
 2469SOL     OW 8305   3.679   4.221   5.574
 2469SOL    HW1 8306   3.682   4.257   5.667
 2469SOL    HW2 8307   3.770   4.192   5.546
 2470SOL     OW 8308   2.540   4.038   6.004
 2470SOL    HW1 8309   2.624   4.063   5.955
 2470SOL    HW2 8310   2.460   4.069   5.952
 2471SOL     OW 8311   1.387   7.025   1.031
 2471SOL    HW1 8312   1.466   6.996   0.978
 2471SOL    HW2 8313   1.414   0.016   1.125
 2472SOL     OW 8314   5.218   1.566   4.624
 2472SOL    HW1 8315   5.308   1.545   4.585
 2472SOL    HW2 8316   5.159   1.486   4.614
 2473SOL     OW 8317   2.152   4.243   4.941
 2473SOL    HW1 8318   2.221   4.282   4.880
 2473SOL    HW2 8319   2.194   4.173   4.998
 2474SOL     OW 8320   0.579   4.623   0.304
 2474SOL    HW1 8321   0.505   4.577   0.255
 2474SOL    HW2 8322   0.567   4.608   0.402
 2475SOL     OW 8323   4.032   2.039   0.967
 2475SOL    HW1 8324   4.014   2.103   0.892
 2475SOL    HW2 8325   3.974   2.062   1.045
 2476SOL     OW 8326   0.832   2.587   3.101
 2476SOL    HW1 8327   0.742   2.583   3.057
 2476SOL    HW2 8328   0.823   2.562   3.198
 2477SOL     OW 8329   6.178   6.758   2.039
 2477SOL    HW1 8330   6.256   6.797   1.991
 2477SOL    HW2 8331   6.104   6.825   2.042
 2478SOL     OW 8332   5.455   6.988   2.458
 2478SOL    HW1 8333   5.455   6.984   2.358
 2478SOL    HW2 8334   5.476   6.898   2.495
 2479SOL     OW 8335   0.443   3.482   1.375
 2479SOL    HW1 8336   0.386   3.563   1.386
 2479SOL    HW2 8337   0.401   3.422   1.306
 2480SOL     OW 8338   7.007   2.849   1.164
 2480SOL    HW1 8339   0.025   2.761   1.147
 2480SOL    HW2 8340   0.001   2.912   1.089
 2481SOL     OW 8341   3.543   6.306   0.437
 2481SOL    HW1 8342   3.587   6.387   0.477
 2481SOL    HW2 8343   3.594   6.278   0.355
 2482SOL     OW 8344   4.570   3.474   6.126
 2482SOL    HW1 8345   4.517   3.526   6.194
 2482SOL    HW2 8346   4.657   3.521   6.109
 2483SOL     OW 8347   2.352   1.374   0.363
 2483SOL    HW1 8348   2.263   1.406   0.329
 2483SOL    HW2 8349   2.340   1.286   0.409
 2484SOL     OW 8350   2.208   0.326   1.066
 2484SOL    HW1 8351   2.234   0.284   1.153
 2484SOL    HW2 8352   2.112   0.354   1.070
 2485SOL     OW 8353   5.326   4.946   2.669
 2485SOL    HW1 8354   5.369   4.996   2.744
 2485SOL    HW2 8355   5.236   4.914   2.698
 2486SOL     OW 8356   1.297   5.342   3.266
 2486SOL    HW1 8357   1.230   5.382   3.329
 2486SOL    HW2 8358   1.389   5.367   3.297
 2487SOL     OW 8359   4.608   6.332   0.096
 2487SOL    HW1 8360   4.623   6.302   0.190
 2487SOL    HW2 8361   4.559   6.261   0.046
 2488SOL     OW 8362   2.686   4.374   1.676
 2488SOL    HW1 8363   2.718   4.284   1.706
 2488SOL    HW2 8364   2.750   4.444   1.706
 2489SOL     OW 8365   2.406   5.488   4.385
 2489SOL    HW1 8366   2.327   5.510   4.327
 2489SOL    HW2 8367   2.490   5.500   4.333
 2490SOL     OW 8368   6.668   4.991   1.096
 2490SOL    HW1 8369   6.570   5.007   1.087
 2490SOL    HW2 8370   6.685   4.893   1.109
 2491SOL     OW 8371   2.753   5.822   2.790
 2491SOL    HW1 8372   2.848   5.831   2.819
 2491SOL    HW2 8373   2.697   5.891   2.836
 2492SOL     OW 8374   4.393   2.934   6.314
 2492SOL    HW1 8375   4.421   2.883   6.395
 2492SOL    HW2 8376   4.426   3.028   6.320
 2493SOL     OW 8377   5.688   0.185   2.810
 2493SOL    HW1 8378   5.764   0.126   2.837
 2493SOL    HW2 8379   5.657   0.158   2.719
 2494SOL     OW 8380   4.874   3.057   2.825
 2494SOL    HW1 8381   4.967   3.032   2.853
 2494SOL    HW2 8382   4.808   2.998   2.872
 2495SOL     OW 8383   4.754   1.293   4.945
 2495SOL    HW1 8384   4.706   1.335   4.868
 2495SOL    HW2 8385   4.727   1.338   5.030
 2496SOL     OW 8386   1.073   5.271   0.353
 2496SOL    HW1 8387   1.044   5.176   0.338
 2496SOL    HW2 8388   1.093   5.314   0.265
 2497SOL     OW 8389   6.986   1.660   0.511
 2497SOL    HW1 8390   7.005   1.589   0.444
 2497SOL    HW2 8391   7.000   1.623   0.603
 2498SOL     OW 8392   1.981   3.235   3.430
 2498SOL    HW1 8393   2.026   3.314   3.387
 2498SOL    HW2 8394   1.971   3.162   3.362
 2499SOL     OW 8395   5.634   0.637   5.078
 2499SOL    HW1 8396   5.680   0.608   4.994
 2499SOL    HW2 8397   5.552   0.689   5.054
 2500SOL     OW 8398   4.811   3.612   6.110
 2500SOL    HW1 8399   4.800   3.652   6.201
 2500SOL    HW2 8400   4.894   3.557   6.108
 2501SOL     OW 8401   5.883   4.156   6.808
 2501SOL    HW1 8402   5.983   4.155   6.813
 2501SOL    HW2 8403   5.853   4.088   6.740
 2502SOL     OW 8404   2.301   6.717   3.748
 2502SOL    HW1 8405   2.362   6.780   3.795
 2502SOL    HW2 8406   2.207   6.733   3.777
 2503SOL     OW 8407   3.790   5.908   5.684
 2503SOL    HW1 8408   3.864   5.960   5.641
 2503SOL    HW2 8409   3.764   5.831   5.626
 2504SOL     OW 8410   2.357   4.780   4.748
 2504SOL    HW1 8411   2.372   4.797   4.651
 2504SOL    HW2 8412   2.309   4.859   4.788
 2505SOL     OW 8413   3.771   5.744   4.685
 2505SOL    HW1 8414   3.684   5.705   4.715
 2505SOL    HW2 8415   3.760   5.782   4.593
 2506SOL     OW 8416   6.331   3.231   6.135
 2506SOL    HW1 8417   6.369   3.246   6.226
 2506SOL    HW2 8418   6.317   3.133   6.121
 2507SOL     OW 8419   6.285   5.096   0.276
 2507SOL    HW1 8420   6.230   5.074   0.195
 2507SOL    HW2 8421   6.227   5.095   0.357
 2508SOL     OW 8422   3.157   2.242   1.794
 2508SOL    HW1 8423   3.079   2.297   1.823
 2508SOL    HW2 8424   3.233   2.301   1.766
 2509SOL     OW 8425   6.057   1.920   2.272
 2509SOL    HW1 8426   6.034   1.848   2.337
 2509SOL    HW2 8427   6.157   1.933   2.271
 2510SOL     OW 8428   3.214   4.945   0.725
 2510SOL    HW1 8429   3.237   5.002   0.804
 2510SOL    HW2 8430   3.140   4.882   0.751
 2511SOL     OW 8431   1.291   1.059   4.730
 2511SOL    HW1 8432   1.306   1.015   4.818
 2511SOL    HW2 8433   1.271   1.156   4.743
 2512SOL     OW 8434   5.341   4.095   4.138
 2512SOL    HW1 8435   5.256   4.057   4.176
 2512SOL    HW2 8436   5.398   4.130   4.212
 2513SOL     OW 8437   0.898   2.562   6.573
 2513SOL    HW1 8438   0.899   2.576   6.474
 2513SOL    HW2 8439   0.804   2.560   6.606
 2514SOL     OW 8440   0.349   1.757   3.999
 2514SOL    HW1 8441   0.272   1.807   3.960
 2514SOL    HW2 8442   0.391   1.813   4.071
 2515SOL     OW 8443   1.596   6.670   0.569
 2515SOL    HW1 8444   1.514   6.726   0.558
 2515SOL    HW2 8445   1.653   6.677   0.487
 2516SOL     OW 8446   6.062   5.549   3.570
 2516SOL    HW1 8447   6.117   5.591   3.643
 2516SOL    HW2 8448   6.087   5.453   3.562
 2517SOL     OW 8449   2.234   4.275   6.070
 2517SOL    HW1 8450   2.324   4.273   6.028
 2517SOL    HW2 8451   2.204   4.181   6.089
 2518SOL     OW 8452   2.403   2.830   6.744
 2518SOL    HW1 8453   2.438   2.923   6.736
 2518SOL    HW2 8454   2.391   2.808   6.841
 2519SOL     OW 8455   4.934   5.369   4.583
 2519SOL    HW1 8456   4.907   5.323   4.499
 2519SOL    HW2 8457   5.007   5.435   4.563
 2520SOL     OW 8458   1.983   3.849   0.809
 2520SOL    HW1 8459   1.952   3.927   0.864
 2520SOL    HW2 8460   1.925   3.770   0.828
 2521SOL     OW 8461   0.770   0.273   5.645
 2521SOL    HW1 8462   0.846   0.287   5.582
 2521SOL    HW2 8463   0.725   0.186   5.624
 2522SOL     OW 8464   1.444   3.539   4.336
 2522SOL    HW1 8465   1.437   3.534   4.435
 2522SOL    HW2 8466   1.538   3.522   4.308
 2523SOL     OW 8467   6.567   3.015   0.539
 2523SOL    HW1 8468   6.559   3.068   0.455
 2523SOL    HW2 8469   6.490   2.953   0.547
 2524SOL     OW 8470   0.858   6.132   4.140
 2524SOL    HW1 8471   0.841   6.034   4.139
 2524SOL    HW2 8472   0.774   6.181   4.117
 2525SOL     OW 8473   1.014   4.295   4.373
 2525SOL    HW1 8474   1.035   4.364   4.443
 2525SOL    HW2 8475   0.972   4.215   4.416
 2526SOL     OW 8476   0.128   2.913   4.279
 2526SOL    HW1 8477   0.172   2.977   4.216
 2526SOL    HW2 8478   0.103   2.961   4.363
 2527SOL     OW 8479   5.860   6.326   5.610
 2527SOL    HW1 8480   5.876   6.231   5.638
 2527SOL    HW2 8481   5.782   6.329   5.547
 2528SOL     OW 8482   5.867   5.018   0.496
 2528SOL    HW1 8483   5.793   5.083   0.512
 2528SOL    HW2 8484   5.955   5.065   0.507
 2529SOL     OW 8485   4.536   5.029   5.454
 2529SOL    HW1 8486   4.617   5.043   5.511
 2529SOL    HW2 8487   4.537   4.935   5.417
 2530SOL     OW 8488   1.172   6.001   3.870
 2530SOL    HW1 8489   1.257   5.958   3.902
 2530SOL    HW2 8490   1.100   5.932   3.865
 2531SOL     OW 8491   5.115   6.979   4.865
 2531SOL    HW1 8492   5.166   6.949   4.785
 2531SOL    HW2 8493   5.113   6.907   4.933
 2532SOL     OW 8494   0.778   5.776   0.754
 2532SOL    HW1 8495   0.862   5.758   0.703
 2532SOL    HW2 8496   0.802   5.796   0.850
 2533SOL     OW 8497   5.603   6.751   4.866
 2533SOL    HW1 8498   5.670   6.802   4.920
 2533SOL    HW2 8499   5.531   6.716   4.927
 2534SOL     OW 8500   2.393   0.383   3.542
 2534SOL    HW1 8501   2.324   0.327   3.589
 2534SOL    HW2 8502   2.360   0.405   3.450
 2535SOL     OW 8503   1.637   2.089   4.594
 2535SOL    HW1 8504   1.643   2.187   4.611
 2535SOL    HW2 8505   1.722   2.057   4.553
 2536SOL     OW 8506   6.129   1.311   3.983
 2536SOL    HW1 8507   6.205   1.304   3.920
 2536SOL    HW2 8508   6.056   1.367   3.942
 2537SOL     OW 8509   4.713   6.434   1.075
 2537SOL    HW1 8510   4.698   6.423   0.977
 2537SOL    HW2 8511   4.732   6.530   1.095
 2538SOL     OW 8512   1.941   4.888   4.803
 2538SOL    HW1 8513   1.984   4.805   4.767
 2538SOL    HW2 8514   1.972   4.904   4.897
 2539SOL     OW 8515   4.648   6.957   5.369
 2539SOL    HW1 8516   4.649   6.881   5.434
 2539SOL    HW2 8517   4.609   6.927   5.283
 2540SOL     OW 8518   5.516   0.581   1.848
 2540SOL    HW1 8519   5.541   0.574   1.945
 2540SOL    HW2 8520   5.419   0.560   1.837
 2541SOL     OW 8521   1.615   0.318   5.464
 2541SOL    HW1 8522   1.690   0.278   5.516
 2541SOL    HW2 8523   1.590   0.255   5.389
 2542SOL     OW 8524   4.266   2.242   4.290
 2542SOL    HW1 8525   4.227   2.221   4.200
 2542SOL    HW2 8526   4.364   2.222   4.289
 2543SOL     OW 8527   0.756   0.526   3.457
 2543SOL    HW1 8528   0.778   0.593   3.527
 2543SOL    HW2 8529   0.834   0.514   3.396
 2544SOL     OW 8530   6.713   4.788   1.547
 2544SOL    HW1 8531   6.669   4.702   1.520
 2544SOL    HW2 8532   6.686   4.861   1.484
 2545SOL     OW 8533   2.117   2.119   1.166
 2545SOL    HW1 8534   2.090   2.197   1.110
 2545SOL    HW2 8535   2.064   2.119   1.251
 2546SOL     OW 8536   6.634   3.398   1.781
 2546SOL    HW1 8537   6.725   3.391   1.740
 2546SOL    HW2 8538   6.621   3.322   1.845
 2547SOL     OW 8539   5.805   5.348   0.750
 2547SOL    HW1 8540   5.750   5.368   0.831
 2547SOL    HW2 8541   5.861   5.427   0.727
 2548SOL     OW 8542   1.598   6.977   4.487
 2548SOL    HW1 8543   1.563   6.903   4.544
 2548SOL    HW2 8544   1.522   7.024   4.443
 2549SOL     OW 8545   1.862   2.851   1.882
 2549SOL    HW1 8546   1.835   2.800   1.964
 2549SOL    HW2 8547   1.949   2.815   1.848
 2550SOL     OW 8548   5.589   6.876   0.492
 2550SOL    HW1 8549   5.651   6.954   0.498
 2550SOL    HW2 8550   5.639   6.797   0.455
 2551SOL     OW 8551   3.761   4.674   7.012
 2551SOL    HW1 8552   3.845   4.728   7.024
 2551SOL    HW2 8553   3.769   4.618   6.930
 2552SOL     OW 8554   2.364   4.995   6.742
 2552SOL    HW1 8555   2.384   5.087   6.709
 2552SOL    HW2 8556   2.378   4.992   6.841
 2553SOL     OW 8557   3.708   1.913   5.994
 2553SOL    HW1 8558   3.720   2.004   5.955
 2553SOL    HW2 8559   3.644   1.860   5.938
 2554SOL     OW 8560   2.350   5.312   6.896
 2554SOL    HW1 8561   2.379   5.290   6.803
 2554SOL    HW2 8562   2.255   5.343   6.896
 2555SOL     OW 8563   6.621   6.141   6.280
 2555SOL    HW1 8564   6.660   6.104   6.365
 2555SOL    HW2 8565   6.535   6.096   6.260
 2556SOL     OW 8566   3.772   7.013   1.008
 2556SOL    HW1 8567   3.731   6.991   1.097
 2556SOL    HW2 8568   3.699   0.009   0.943
 2557SOL     OW 8569   3.183   0.609   6.986
 2557SOL    HW1 8570   3.184   0.669   6.906
 2557SOL    HW2 8571   3.262   0.549   6.984
 2558SOL     OW 8572   5.765   4.099   5.613
 2558SOL    HW1 8573   5.794   4.195   5.619
 2558SOL    HW2 8574   5.836   4.040   5.653
 2559SOL     OW 8575   6.901   3.292   3.515
 2559SOL    HW1 8576   6.801   3.292   3.516
 2559SOL    HW2 8577   6.935   3.201   3.489
 2560SOL     OW 8578   5.318   3.557   3.524
 2560SOL    HW1 8579   5.279   3.575   3.614
 2560SOL    HW2 8580   5.417   3.546   3.533
 2561SOL     OW 8581   3.613   0.873   3.561
 2561SOL    HW1 8582   3.597   0.931   3.641
 2561SOL    HW2 8583   3.533   0.877   3.500
 2562SOL     OW 8584   3.221   6.713   3.410
 2562SOL    HW1 8585   3.276   6.765   3.344
 2562SOL    HW2 8586   3.128   6.703   3.375
 2563SOL     OW 8587   3.018   1.555   6.722
 2563SOL    HW1 8588   2.987   1.474   6.772
 2563SOL    HW2 8589   3.066   1.617   6.784
 2564SOL     OW 8590   2.300   0.400   0.412
 2564SOL    HW1 8591   2.386   0.452   0.414
 2564SOL    HW2 8592   2.290   0.348   0.496
 2565SOL     OW 8593   0.309   1.524   6.377
 2565SOL    HW1 8594   0.350   1.613   6.360
 2565SOL    HW2 8595   0.234   1.534   6.443
 2566SOL     OW 8596   2.759   6.938   1.071
 2566SOL    HW1 8597   2.769   6.944   1.170
 2566SOL    HW2 8598   2.837   6.980   1.026
 2567SOL     OW 8599   1.378   1.336   0.473
 2567SOL    HW1 8600   1.280   1.338   0.494
 2567SOL    HW2 8601   1.413   1.244   0.487
 2568SOL     OW 8602   2.954   0.199   1.232
 2568SOL    HW1 8603   2.947   0.165   1.138
 2568SOL    HW2 8604   3.043   0.171   1.270
 2569SOL     OW 8605   2.680   1.489   0.898
 2569SOL    HW1 8606   2.671   1.511   0.801
 2569SOL    HW2 8607   2.665   1.391   0.911
 2570SOL     OW 8608   5.795   5.692   6.300
 2570SOL    HW1 8609   5.722   5.700   6.368
 2570SOL    HW2 8610   5.777   5.755   6.225
 2571SOL     OW 8611   3.941   3.033   4.732
 2571SOL    HW1 8612   3.922   3.130   4.717
 2571SOL    HW2 8613   4.028   3.009   4.689
 2572SOL     OW 8614   3.153   5.655   1.626
 2572SOL    HW1 8615   3.089   5.594   1.671
 2572SOL    HW2 8616   3.236   5.664   1.680
 2573SOL     OW 8617   6.394   2.778   3.897
 2573SOL    HW1 8618   6.391   2.805   3.801
 2573SOL    HW2 8619   6.479   2.729   3.916
 2574SOL     OW 8620   6.187   2.516   1.049
 2574SOL    HW1 8621   6.105   2.535   1.102
 2574SOL    HW2 8622   6.249   2.459   1.102
 2575SOL     OW 8623   5.027   3.847   0.485
 2575SOL    HW1 8624   4.945   3.883   0.441
 2575SOL    HW2 8625   5.077   3.790   0.420
 2576SOL     OW 8626   3.061   0.030   3.416
 2576SOL    HW1 8627   3.058   6.962   3.385
 2576SOL    HW2 8628   3.045   0.034   3.514
 2577SOL     OW 8629   3.867   0.641   4.222
 2577SOL    HW1 8630   3.808   0.676   4.294
 2577SOL    HW2 8631   3.851   0.694   4.138
 2578SOL     OW 8632   5.275   2.962   5.049
 2578SOL    HW1 8633   5.294   2.903   4.970
 2578SOL    HW2 8634   5.351   3.025   5.063
 2579SOL     OW 8635   0.580   1.680   5.743
 2579SOL    HW1 8636   0.670   1.723   5.735
 2579SOL    HW2 8637   0.553   1.643   5.653
 2580SOL     OW 8638   1.542   2.530   5.748
 2580SOL    HW1 8639   1.579   2.439   5.731
 2580SOL    HW2 8640   1.523   2.575   5.661
 2581SOL     OW 8641   5.411   5.192   2.001
 2581SOL    HW1 8642   5.468   5.215   2.080
 2581SOL    HW2 8643   5.462   5.132   1.940
 2582SOL     OW 8644   1.852   5.469   2.610
 2582SOL    HW1 8645   1.783   5.503   2.546
 2582SOL    HW2 8646   1.809   5.455   2.700
 2583SOL     OW 8647   1.414   0.934   1.344
 2583SOL    HW1 8648   1.414   0.951   1.442
 2583SOL    HW2 8649   1.323   0.955   1.307
 2584SOL     OW 8650   3.575   6.596   1.159
 2584SOL    HW1 8651   3.497   6.591   1.096
 2584SOL    HW2 8652   3.654   6.636   1.112
 2585SOL     OW 8653   3.475   0.476   1.072
 2585SOL    HW1 8654   3.510   0.566   1.045
 2585SOL    HW2 8655   3.382   0.485   1.107
 2586SOL     OW 8656   5.664   1.747   5.055
 2586SOL    HW1 8657   5.568   1.743   5.028
 2586SOL    HW2 8658   5.689   1.664   5.104
 2587SOL     OW 8659   6.998   0.313   4.666
 2587SOL    HW1 8660   6.970   0.286   4.759
 2587SOL    HW2 8661   0.028   0.241   4.627
 2588SOL     OW 8662   5.532   0.113   1.171
 2588SOL    HW1 8663   5.434   0.127   1.185
 2588SOL    HW2 8664   5.571   0.067   1.250
 2589SOL     OW 8665   6.696   0.378   5.872
 2589SOL    HW1 8666   6.747   0.449   5.824
 2589SOL    HW2 8667   6.601   0.378   5.842
 2590SOL     OW 8668   3.274   0.035   2.604
 2590SOL    HW1 8669   3.333   6.997   2.557
 2590SOL    HW2 8670   3.194   0.055   2.548
 2591SOL     OW 8671   5.431   6.045   0.876
 2591SOL    HW1 8672   5.429   6.079   0.782
 2591SOL    HW2 8673   5.494   6.099   0.931
 2592SOL     OW 8674   3.065   5.863   1.499
 2592SOL    HW1 8675   3.102   5.796   1.563
 2592SOL    HW2 8676   3.140   5.906   1.449
 2593SOL     OW 8677   3.065   6.798   2.583
 2593SOL    HW1 8678   3.129   6.722   2.576
 2593SOL    HW2 8679   2.991   6.773   2.646
 2594SOL     OW 8680   0.255   0.272   6.354
 2594SOL    HW1 8681   0.166   0.240   6.322
 2594SOL    HW2 8682   0.307   0.196   6.392
 2595SOL     OW 8683   7.017   2.544   4.763
 2595SOL    HW1 8684   0.027   2.477   4.700
 2595SOL    HW2 8685   0.023   2.635   4.738
 2596SOL     OW 8686   3.794   2.499   1.659
 2596SOL    HW1 8687   3.764   2.427   1.723
 2596SOL    HW2 8688   3.714   2.534   1.610
 2597SOL     OW 8689   1.952   3.847   0.489
 2597SOL    HW1 8690   2.007   3.843   0.572
 2597SOL    HW2 8691   1.877   3.781   0.495
 2598SOL     OW 8692   6.495   2.982   4.501
 2598SOL    HW1 8693   6.515   2.886   4.521
 2598SOL    HW2 8694   6.399   3.001   4.522
 2599SOL     OW 8695   3.378   5.809   6.228
 2599SOL    HW1 8696   3.390   5.726   6.282
 2599SOL    HW2 8697   3.317   5.791   6.152
 2600SOL     OW 8698   4.886   3.520   3.964
 2600SOL    HW1 8699   4.890   3.453   4.039
 2600SOL    HW2 8700   4.913   3.610   3.999
 2601SOL     OW 8701   2.940   2.451   6.535
 2601SOL    HW1 8702   2.930   2.370   6.592
 2601SOL    HW2 8703   2.993   2.521   6.583
 2602SOL     OW 8704   6.814   4.946   4.187
 2602SOL    HW1 8705   6.843   4.932   4.282
 2602SOL    HW2 8706   6.765   4.865   4.155
 2603SOL     OW 8707   2.650   2.744   1.706
 2603SOL    HW1 8708   2.650   2.756   1.607
 2603SOL    HW2 8709   2.662   2.647   1.728
 2604SOL     OW 8710   5.393   0.565   1.070
 2604SOL    HW1 8711   5.378   0.474   1.031
 2604SOL    HW2 8712   5.307   0.616   1.068
 2605SOL     OW 8713   4.845   4.848   2.924
 2605SOL    HW1 8714   4.871   4.827   3.019
 2605SOL    HW2 8715   4.756   4.807   2.904
 2606SOL     OW 8716   0.222   4.572   0.002
 2606SOL    HW1 8717   0.283   4.514   0.055
 2606SOL    HW2 8718   0.256   4.666   0.004
 2607SOL     OW 8719   1.177   1.723   4.673
 2607SOL    HW1 8720   1.115   1.791   4.711
 2607SOL    HW2 8721   1.167   1.720   4.573
 2608SOL     OW 8722   5.002   0.022   2.690
 2608SOL    HW1 8723   5.024   0.111   2.650
 2608SOL    HW2 8724   4.916   7.015   2.651
 2609SOL     OW 8725   0.975   1.862   1.981
 2609SOL    HW1 8726   1.072   1.884   1.969
 2609SOL    HW2 8727   0.965   1.782   2.040
 2610SOL     OW 8728   6.876   5.320   4.965
 2610SOL    HW1 8729   6.947   5.358   5.025
 2610SOL    HW2 8730   6.793   5.304   5.018
 2611SOL     OW 8731   6.074   6.746   1.281
 2611SOL    HW1 8732   6.031   6.824   1.236
 2611SOL    HW2 8733   6.110   6.775   1.370
 2612SOL     OW 8734   5.841   6.098   4.942
 2612SOL    HW1 8735   5.938   6.073   4.935
 2612SOL    HW2 8736   5.815   6.152   4.862
 2613SOL     OW 8737   2.892   6.318   2.382
 2613SOL    HW1 8738   2.854   6.301   2.473
 2613SOL    HW2 8739   2.945   6.402   2.383
 2614SOL     OW 8740   6.264   6.086   5.928
 2614SOL    HW1 8741   6.205   6.127   5.859
 2614SOL    HW2 8742   6.318   6.013   5.888
 2615SOL     OW 8743   5.890   5.539   3.354
 2615SOL    HW1 8744   5.964   5.540   3.421
 2615SOL    HW2 8745   5.867   5.633   3.329
 2616SOL     OW 8746   4.048   3.411   3.901
 2616SOL    HW1 8747   4.032   3.489   3.962
 2616SOL    HW2 8748   4.084   3.334   3.954
 2617SOL     OW 8749   3.040   5.438   0.965
 2617SOL    HW1 8750   3.067   5.512   0.903
 2617SOL    HW2 8751   2.948   5.456   1.000
 2618SOL     OW 8752   6.927   6.282   3.293
 2618SOL    HW1 8753   6.845   6.338   3.308
 2618SOL    HW2 8754   6.900   6.189   3.269
 2619SOL     OW 8755   4.546   1.764   2.553
 2619SOL    HW1 8756   4.509   1.715   2.632
 2619SOL    HW2 8757   4.501   1.732   2.470
 2620SOL     OW 8758   1.765   5.609   3.564
 2620SOL    HW1 8759   1.743   5.671   3.488
 2620SOL    HW2 8760   1.863   5.594   3.568
 2621SOL     OW 8761   1.559   5.931   3.623
 2621SOL    HW1 8762   1.586   5.907   3.530
 2621SOL    HW2 8763   1.630   5.902   3.687
 2622SOL     OW 8764   1.668   3.102   6.082
 2622SOL    HW1 8765   1.735   3.045   6.129
 2622SOL    HW2 8766   1.621   3.048   6.012
 2623SOL     OW 8767   3.778   1.264   4.888
 2623SOL    HW1 8768   3.729   1.272   4.975
 2623SOL    HW2 8769   3.810   1.170   4.877
 2624SOL     OW 8770   6.702   2.993   3.375
 2624SOL    HW1 8771   6.724   2.959   3.466
 2624SOL    HW2 8772   6.775   3.054   3.344
 2625SOL     OW 8773   1.581   2.774   5.088
 2625SOL    HW1 8774   1.637   2.831   5.027
 2625SOL    HW2 8775   1.511   2.831   5.132
 2626SOL     OW 8776   0.427   6.262   3.740
 2626SOL    HW1 8777   0.448   6.237   3.835
 2626SOL    HW2 8778   0.391   6.182   3.692
 2627SOL     OW 8779   0.430   0.914   5.062
 2627SOL    HW1 8780   0.419   0.816   5.081
 2627SOL    HW2 8781   0.347   0.962   5.090
 2628SOL     OW 8782   3.279   6.081   6.626
 2628SOL    HW1 8783   3.193   6.112   6.667
 2628SOL    HW2 8784   3.262   6.001   6.569
 2629SOL     OW 8785   3.846   3.931   1.824
 2629SOL    HW1 8786   3.938   3.948   1.859
 2629SOL    HW2 8787   3.831   3.833   1.814
 2630SOL     OW 8788   3.490   1.978   2.352
 2630SOL    HW1 8789   3.494   2.043   2.277
 2630SOL    HW2 8790   3.582   1.962   2.388
 2631SOL     OW 8791   4.034   6.887   3.771
 2631SOL    HW1 8792   4.127   6.918   3.788
 2631SOL    HW2 8793   4.013   6.809   3.830
 2632SOL     OW 8794   3.445   2.158   6.070
 2632SOL    HW1 8795   3.348   2.179   6.080
 2632SOL    HW2 8796   3.494   2.237   6.034
 2633SOL     OW 8797   6.092   2.416   6.237
 2633SOL    HW1 8798   6.173   2.439   6.291
 2633SOL    HW2 8799   6.091   2.318   6.218
 2634SOL     OW 8800   1.900   4.233   2.725
 2634SOL    HW1 8801   1.810   4.274   2.711
 2634SOL    HW2 8802   1.945   4.275   2.804
 2635SOL     OW 8803   5.261   5.712   3.901
 2635SOL    HW1 8804   5.175   5.663   3.883
 2635SOL    HW2 8805   5.247   5.810   3.886
 2636SOL     OW 8806   5.432   0.561   6.684
 2636SOL    HW1 8807   5.477   0.537   6.598
 2636SOL    HW2 8808   5.336   0.534   6.679
 2637SOL     OW 8809   6.274   0.879   4.022
 2637SOL    HW1 8810   6.351   0.847   3.967
 2637SOL    HW2 8811   6.193   0.889   3.963
 2638SOL     OW 8812   6.036   6.904   2.351
 2638SOL    HW1 8813   6.080   6.982   2.308
 2638SOL    HW2 8814   6.086   6.820   2.328
 2639SOL     OW 8815   6.938   6.784   2.609
 2639SOL    HW1 8816   7.006   6.854   2.588
 2639SOL    HW2 8817   6.958   6.702   2.556
 2640SOL     OW 8818   0.007   6.532   5.885
 2640SOL    HW1 8819   7.018   6.630   5.895
 2640SOL    HW2 8820   6.989   6.500   5.801
 2641SOL     OW 8821   5.859   3.233   0.821
 2641SOL    HW1 8822   5.800   3.260   0.745
 2641SOL    HW2 8823   5.804   3.226   0.904
 2642SOL     OW 8824   5.477   0.530   4.669
 2642SOL    HW1 8825   5.406   0.460   4.661
 2642SOL    HW2 8826   5.510   0.553   4.578
 2643SOL     OW 8827   0.291   5.013   3.225
 2643SOL    HW1 8828   0.355   5.090   3.234
 2643SOL    HW2 8829   0.213   5.028   3.286
 2644SOL     OW 8830   0.476   4.258   5.721
 2644SOL    HW1 8831   0.528   4.256   5.636
 2644SOL    HW2 8832   0.539   4.254   5.799
 2645SOL     OW 8833   4.425   6.440   5.343
 2645SOL    HW1 8834   4.355   6.378   5.307
 2645SOL    HW2 8835   4.384   6.496   5.416
 2646SOL     OW 8836   6.519   0.012   6.537
 2646SOL    HW1 8837   6.565   6.955   6.510
 2646SOL    HW2 8838   6.473   7.025   6.625
 2647SOL     OW 8839   5.418   0.521   1.347
 2647SOL    HW1 8840   5.435   0.531   1.249
 2647SOL    HW2 8841   5.407   0.611   1.389
 2648SOL     OW 8842   6.203   6.813   3.535
 2648SOL    HW1 8843   6.238   6.721   3.516
 2648SOL    HW2 8844   6.147   6.843   3.458
 2649SOL     OW 8845   3.998   1.361   5.865
 2649SOL    HW1 8846   4.071   1.363   5.797
 2649SOL    HW2 8847   4.016   1.289   5.932
 2650SOL     OW 8848   1.172   4.357   4.164
 2650SOL    HW1 8849   1.145   4.444   4.124
 2650SOL    HW2 8850   1.102   4.326   4.228
 2651SOL     OW 8851   1.394   1.816   0.774
 2651SOL    HW1 8852   1.359   1.828   0.681
 2651SOL    HW2 8853   1.331   1.857   0.839
 2652SOL     OW 8854   3.121   3.209   3.760
 2652SOL    HW1 8855   3.058   3.282   3.787
 2652SOL    HW2 8856   3.206   3.217   3.812
 2653SOL     OW 8857   4.817   6.647   5.124
 2653SOL    HW1 8858   4.771   6.617   5.040
 2653SOL    HW2 8859   4.902   6.694   5.100
 2654SOL     OW 8860   5.155   3.083   0.139
 2654SOL    HW1 8861   5.192   3.074   0.047
 2654SOL    HW2 8862   5.157   3.179   0.167
 2655SOL     OW 8863   4.649   4.662   4.196
 2655SOL    HW1 8864   4.695   4.690   4.111
 2655SOL    HW2 8865   4.633   4.743   4.253
 2656SOL     OW 8866   4.437   4.578   3.963
 2656SOL    HW1 8867   4.395   4.651   4.017
 2656SOL    HW2 8868   4.493   4.520   4.022
 2657SOL     OW 8869   2.606   4.366   6.243
 2657SOL    HW1 8870   2.537   4.427   6.203
 2657SOL    HW2 8871   2.676   4.347   6.175
 2658SOL     OW 8872   5.440   4.777   6.508
 2658SOL    HW1 8873   5.463   4.837   6.586
 2658SOL    HW2 8874   5.523   4.731   6.477
 2659SOL     OW 8875   6.648   2.222   4.432
 2659SOL    HW1 8876   6.670   2.313   4.398
 2659SOL    HW2 8877   6.549   2.209   4.431
 2660SOL     OW 8878   0.655   2.160   1.110
 2660SOL    HW1 8879   0.568   2.202   1.084
 2660SOL    HW2 8880   0.642   2.107   1.194
 2661SOL     OW 8881   2.141   6.301   1.923
 2661SOL    HW1 8882   2.121   6.338   2.014
 2661SOL    HW2 8883   2.215   6.353   1.881
 2662SOL     OW 8884   4.453   6.513   4.980
 2662SOL    HW1 8885   4.482   6.442   5.043
 2662SOL    HW2 8886   4.533   6.554   4.935
 2663SOL     OW 8887   2.132   4.559   1.331
 2663SOL    HW1 8888   2.220   4.513   1.340
 2663SOL    HW2 8889   2.135   4.646   1.380
 2664SOL     OW 8890   3.498   4.072   3.307
 2664SOL    HW1 8891   3.594   4.044   3.304
 2664SOL    HW2 8892   3.459   4.045   3.395
 2665SOL     OW 8893   3.588   2.102   5.023
 2665SOL    HW1 8894   3.677   2.117   5.066
 2665SOL    HW2 8895   3.600   2.089   4.925
 2666SOL     OW 8896   4.964   3.938   1.000
 2666SOL    HW1 8897   4.870   3.970   1.006
 2666SOL    HW2 8898   4.965   3.839   0.983
 2667SOL     OW 8899   1.548   6.472   4.926
 2667SOL    HW1 8900   1.581   6.435   4.838
 2667SOL    HW2 8901   1.503   6.399   4.977
 2668SOL     OW 8902   6.632   3.258   3.509
 2668SOL    HW1 8903   6.593   3.241   3.600
 2668SOL    HW2 8904   6.609   3.182   3.448
 2669SOL     OW 8905   3.197   4.623   5.427
 2669SOL    HW1 8906   3.241   4.539   5.394
 2669SOL    HW2 8907   3.216   4.634   5.524
 2670SOL     OW 8908   6.100   1.469   6.585
 2670SOL    HW1 8909   6.191   1.485   6.623
 2670SOL    HW2 8910   6.038   1.438   6.657
 2671SOL     OW 8911   2.847   4.007   0.240
 2671SOL    HW1 8912   2.749   4.002   0.259
 2671SOL    HW2 8913   2.870   3.943   0.166
 2672SOL     OW 8914   1.150   5.379   0.029
 2672SOL    HW1 8915   1.174   5.475   0.016
 2672SOL    HW2 8916   1.232   5.326   0.052
 2673SOL     OW 8917   5.596   2.914   3.314
 2673SOL    HW1 8918   5.509   2.963   3.323
 2673SOL    HW2 8919   5.672   2.975   3.336
 2674SOL     OW 8920   1.610   4.464   3.835
 2674SOL    HW1 8921   1.516   4.488   3.859
 2674SOL    HW2 8922   1.610   4.384   3.775
 2675SOL     OW 8923   0.886   4.377   5.258
 2675SOL    HW1 8924   0.867   4.325   5.175
 2675SOL    HW2 8925   0.977   4.420   5.249
 2676SOL     OW 8926   4.583   1.239   2.723
 2676SOL    HW1 8927   4.645   1.199   2.790
 2676SOL    HW2 8928   4.634   1.298   2.660
 2677SOL     OW 8929   3.785   5.051   1.323
 2677SOL    HW1 8930   3.717   5.017   1.258
 2677SOL    HW2 8931   3.778   5.151   1.331
 2678SOL     OW 8932   0.381   4.891   0.723
 2678SOL    HW1 8933   0.337   4.963   0.776
 2678SOL    HW2 8934   0.364   4.905   0.626
 2679SOL     OW 8935   4.546   5.628   1.415
 2679SOL    HW1 8936   4.644   5.607   1.421
 2679SOL    HW2 8937   4.522   5.692   1.488
 2680SOL     OW 8938   1.812   1.669   0.598
 2680SOL    HW1 8939   1.796   1.743   0.533
 2680SOL    HW2 8940   1.768   1.691   0.685
 2681SOL     OW 8941   1.340   2.905   4.272
 2681SOL    HW1 8942   1.351   2.921   4.370
 2681SOL    HW2 8943   1.272   2.833   4.257
 2682SOL     OW 8944   5.476   3.018   2.413
 2682SOL    HW1 8945   5.460   3.098   2.471
 2682SOL    HW2 8946   5.527   3.044   2.332
 2683SOL     OW 8947   1.196   4.259   1.500
 2683SOL    HW1 8948   1.273   4.300   1.549
 2683SOL    HW2 8949   1.232   4.200   1.428
 2684SOL     OW 8950   4.016   5.493   2.323
 2684SOL    HW1 8951   4.106   5.486   2.280
 2684SOL    HW2 8952   3.998   5.409   2.376
 2685SOL     OW 8953   6.225   6.770   5.263
 2685SOL    HW1 8954   6.236   6.868   5.276
 2685SOL    HW2 8955   6.314   6.728   5.244
 2686SOL     OW 8956   1.978   2.308   4.285
 2686SOL    HW1 8957   2.047   2.349   4.344
 2686SOL    HW2 8958   2.012   2.304   4.191
 2687SOL     OW 8959   4.386   4.649   2.615
 2687SOL    HW1 8960   4.420   4.719   2.552
 2687SOL    HW2 8961   4.294   4.674   2.645
 2688SOL     OW 8962   4.381   6.279   6.024
 2688SOL    HW1 8963   4.391   6.205   5.957
 2688SOL    HW2 8964   4.288   6.279   6.060
 2689SOL     OW 8965   2.320   1.900   3.713
 2689SOL    HW1 8966   2.342   1.983   3.764
 2689SOL    HW2 8967   2.222   1.897   3.694
 2690SOL     OW 8968   3.239   3.345   4.052
 2690SOL    HW1 8969   3.147   3.309   4.036
 2690SOL    HW2 8970   3.267   3.401   3.975
 2691SOL     OW 8971   1.567   5.487   2.197
 2691SOL    HW1 8972   1.490   5.525   2.146
 2691SOL    HW2 8973   1.535   5.413   2.257
 2692SOL     OW 8974   5.527   5.933   4.300
 2692SOL    HW1 8975   5.548   5.983   4.216
 2692SOL    HW2 8976   5.432   5.951   4.326
 2693SOL     OW 8977   2.388   4.454   2.895
 2693SOL    HW1 8978   2.474   4.479   2.940
 2693SOL    HW2 8979   2.322   4.528   2.905
 2694SOL     OW 8980   3.370   0.889   2.750
 2694SOL    HW1 8981   3.349   0.811   2.691
 2694SOL    HW2 8982   3.467   0.886   2.776
 2695SOL     OW 8983   5.390   1.947   2.667
 2695SOL    HW1 8984   5.462   1.991   2.720
 2695SOL    HW2 8985   5.315   1.919   2.728
 2696SOL     OW 8986   3.171   2.480   5.363
 2696SOL    HW1 8987   3.236   2.556   5.376
 2696SOL    HW2 8988   3.206   2.418   5.293
 2697SOL     OW 8989   4.288   2.058   4.001
 2697SOL    HW1 8990   4.232   1.993   3.950
 2697SOL    HW2 8991   4.257   2.151   3.982
 2698SOL     OW 8992   2.025   4.706   0.555
 2698SOL    HW1 8993   2.103   4.700   0.493
 2698SOL    HW2 8994   2.053   4.747   0.641
 2699SOL     OW 8995   3.617   5.412   6.537
 2699SOL    HW1 8996   3.654   5.439   6.626
 2699SOL    HW2 8997   3.667   5.458   6.464
 2700SOL     OW 8998   1.991   3.504   2.310
 2700SOL    HW1 8999   2.029   3.424   2.263
 2700SOL    HW2 9000   1.936   3.557   2.246
 2701SOL     OW 9001   3.871   6.730   6.920
 2701SOL    HW1 9002   3.842   6.651   6.974
 2701SOL    HW2 9003   3.791   6.775   6.880
 2702SOL     OW 9004   0.115   1.295   2.875
 2702SOL    HW1 9005   0.173   1.216   2.895
 2702SOL    HW2 9006   0.170   1.368   2.835
 2703SOL     OW 9007   2.497   0.972   3.084
 2703SOL    HW1 9008   2.585   0.947   3.041
 2703SOL    HW2 9009   2.429   0.903   3.061
 2704SOL     OW 9010   1.359   5.610   0.902
 2704SOL    HW1 9011   1.450   5.614   0.944
 2704SOL    HW2 9012   1.293   5.577   0.968
 2705SOL     OW 9013   0.411   5.489   4.293
 2705SOL    HW1 9014   0.333   5.430   4.273
 2705SOL    HW2 9015   0.470   5.495   4.213
 2706SOL     OW 9016   0.467   0.760   1.774
 2706SOL    HW1 9017   0.517   0.773   1.860
 2706SOL    HW2 9018   0.452   0.848   1.731
 2707SOL     OW 9019   2.565   0.735   5.366
 2707SOL    HW1 9020   2.504   0.689   5.430
 2707SOL    HW2 9021   2.627   0.795   5.417
 2708SOL     OW 9022   2.123   2.857   1.551
 2708SOL    HW1 9023   2.106   2.923   1.625
 2708SOL    HW2 9024   2.187   2.897   1.485
 2709SOL     OW 9025   5.177   6.981   1.036
 2709SOL    HW1 9026   5.238   6.983   0.957
 2709SOL    HW2 9027   5.177   6.888   1.075
 2710SOL     OW 9028   6.402   4.101   2.507
 2710SOL    HW1 9029   6.476   4.075   2.444
 2710SOL    HW2 9030   6.325   4.038   2.495
 2711SOL     OW 9031   2.407   0.149   2.636
 2711SOL    HW1 9032   2.414   0.149   2.735
 2711SOL    HW2 9033   2.471   0.217   2.599
 2712SOL     OW 9034   3.977   4.858   0.023
 2712SOL    HW1 9035   3.938   4.948   0.007
 2712SOL    HW2 9036   4.029   4.829   6.970
 2713SOL     OW 9037   1.538   2.835   4.483
 2713SOL    HW1 9038   1.586   2.913   4.441
 2713SOL    HW2 9039   1.602   2.759   4.494
 2714SOL     OW 9040   4.875   1.998   0.236
 2714SOL    HW1 9041   4.908   1.974   0.328
 2714SOL    HW2 9042   4.950   2.035   0.182
 2715SOL     OW 9043   6.502   0.351   0.074
 2715SOL    HW1 9044   6.432   0.319   0.010
 2715SOL    HW2 9045   6.592   0.330   0.038
 2716SOL     OW 9046   6.278   5.195   1.884
 2716SOL    HW1 9047   6.289   5.174   1.787
 2716SOL    HW2 9048   6.269   5.294   1.896
 2717SOL     OW 9049   0.845   5.556   2.053
 2717SOL    HW1 9050   0.810   5.538   2.145
 2717SOL    HW2 9051   0.796   5.499   1.987
 2718SOL     OW 9052   1.653   3.568   4.026
 2718SOL    HW1 9053   1.680   3.572   4.122
 2718SOL    HW2 9054   1.588   3.641   4.005
 2719SOL     OW 9055   4.936   4.768   1.534
 2719SOL    HW1 9056   4.990   4.694   1.496
 2719SOL    HW2 9057   4.839   4.743   1.530
 2720SOL     OW 9058   2.128   5.986   3.885
 2720SOL    HW1 9059   2.157   6.010   3.978
 2720SOL    HW2 9060   2.141   5.888   3.870
 2721SOL     OW 9061   3.053   0.361   5.289
 2721SOL    HW1 9062   2.990   0.407   5.351
 2721SOL    HW2 9063   3.146   0.394   5.306
 2722SOL     OW 9064   6.262   5.533   2.718
 2722SOL    HW1 9065   6.293   5.482   2.798
 2722SOL    HW2 9066   6.210   5.472   2.657
 2723SOL     OW 9067   1.528   1.200   6.229
 2723SOL    HW1 9068   1.563   1.185   6.137
 2723SOL    HW2 9069   1.461   1.275   6.227
 2724SOL     OW 9070   3.136   6.617   5.084
 2724SOL    HW1 9071   3.206   6.600   5.015
 2724SOL    HW2 9072   3.166   6.690   5.145
 2725SOL     OW 9073   6.137   5.259   3.350
 2725SOL    HW1 9074   6.232   5.236   3.327
 2725SOL    HW2 9075   6.076   5.220   3.282
 2726SOL     OW 9076   6.079   4.178   2.059
 2726SOL    HW1 9077   6.173   4.147   2.043
 2726SOL    HW2 9078   6.073   4.276   2.040
 2727SOL     OW 9079   0.398   4.736   2.906
 2727SOL    HW1 9080   0.447   4.771   2.826
 2727SOL    HW2 9081   0.324   4.676   2.876
 2728SOL     OW 9082   3.182   0.715   4.963
 2728SOL    HW1 9083   3.110   0.781   4.983
 2728SOL    HW2 9084   3.144   0.623   4.966
 2729SOL     OW 9085   6.899   5.432   1.871
 2729SOL    HW1 9086   6.846   5.476   1.799
 2729SOL    HW2 9087   6.847   5.434   1.957
 2730SOL     OW 9088   1.763   6.819   0.781
 2730SOL    HW1 9089   1.702   6.759   0.728
 2730SOL    HW2 9090   1.855   6.782   0.781
 2731SOL     OW 9091   3.100   3.617   1.357
 2731SOL    HW1 9092   3.091   3.519   1.373
 2731SOL    HW2 9093   3.019   3.651   1.309
 2732SOL     OW 9094   5.943   3.262   2.556
 2732SOL    HW1 9095   5.940   3.334   2.626
 2732SOL    HW2 9096   5.974   3.300   2.469
 2733SOL     OW 9097   0.547   6.912   5.348
 2733SOL    HW1 9098   0.549   6.895   5.249
 2733SOL    HW2 9099   0.458   6.885   5.385
 2734SOL     OW 9100   2.139   5.358   2.567
 2734SOL    HW1 9101   2.151   5.457   2.557
 2734SOL    HW2 9102   2.208   5.311   2.511
 2735SOL     OW 9103   0.725   3.024   2.241
 2735SOL    HW1 9104   0.645   3.022   2.301
 2735SOL    HW2 9105   0.696   3.051   2.149
 2736SOL     OW 9106   5.189   0.735   4.632
 2736SOL    HW1 9107   5.196   0.755   4.534
 2736SOL    HW2 9108   5.146   0.645   4.644
 2737SOL     OW 9109   3.402   3.318   5.992
 2737SOL    HW1 9110   3.365   3.226   5.980
 2737SOL    HW2 9111   3.367   3.356   6.078
 2738SOL     OW 9112   4.823   5.481   5.102
 2738SOL    HW1 9113   4.781   5.455   5.189
 2738SOL    HW2 9114   4.842   5.399   5.048
 2739SOL     OW 9115   6.055   4.046   0.206
 2739SOL    HW1 9116   6.077   3.957   0.166
 2739SOL    HW2 9117   6.130   4.074   0.266
 2740SOL     OW 9118   5.392   2.302   2.219
 2740SOL    HW1 9119   5.477   2.251   2.231
 2740SOL    HW2 9120   5.344   2.308   2.307
 2741SOL     OW 9121   0.082   1.649   6.239
 2741SOL    HW1 9122   0.168   1.644   6.288
 2741SOL    HW2 9123   0.012   1.691   6.297
 2742SOL     OW 9124   1.816   5.972   6.017
 2742SOL    HW1 9125   1.771   5.948   5.931
 2742SOL    HW2 9126   1.754   5.958   6.093
 2743SOL     OW 9127   5.992   5.404   1.971
 2743SOL    HW1 9128   6.010   5.349   1.890
 2743SOL    HW2 9129   6.009   5.500   1.950
 2744SOL     OW 9130   4.206   2.487   0.511
 2744SOL    HW1 9131   4.130   2.547   0.488
 2744SOL    HW2 9132   4.193   2.398   0.469
 2745SOL     OW 9133   2.253   6.275   0.017
 2745SOL    HW1 9134   2.202   6.339   6.986
 2745SOL    HW2 9135   2.289   6.322   0.097
 2746SOL     OW 9136   2.188   3.056   4.663
 2746SOL    HW1 9137   2.132   3.128   4.705
 2746SOL    HW2 9138   2.209   3.081   4.569
 2747SOL     OW 9139   5.395   4.509   5.023
 2747SOL    HW1 9140   5.343   4.431   4.989
 2747SOL    HW2 9141   5.402   4.504   5.123
 2748SOL     OW 9142   3.234   1.168   2.343
 2748SOL    HW1 9143   3.320   1.153   2.391
 2748SOL    HW2 9144   3.233   1.260   2.303
 2749SOL     OW 9145   5.281   5.068   3.922
 2749SOL    HW1 9146   5.232   5.147   3.886
 2749SOL    HW2 9147   5.270   4.990   3.860
 2750SOL     OW 9148   1.044   5.488   1.339
 2750SOL    HW1 9149   0.991   5.528   1.413
 2750SOL    HW2 9150   1.086   5.403   1.370
 2751SOL     OW 9151   1.623   0.199   6.999
 2751SOL    HW1 9152   1.538   0.245   6.974
 2751SOL    HW2 9153   1.696   0.228   6.937
 2752SOL     OW 9154   4.970   5.582   5.631
 2752SOL    HW1 9155   4.914   5.627   5.561
 2752SOL    HW2 9156   5.033   5.518   5.588
 2753SOL     OW 9157   2.289   6.240   6.453
 2753SOL    HW1 9158   2.302   6.290   6.539
 2753SOL    HW2 9159   2.330   6.149   6.461
 2754SOL     OW 9160   6.389   0.106   4.884
 2754SOL    HW1 9161   6.298   0.067   4.898
 2754SOL    HW2 9162   6.403   0.181   4.949
 2755SOL     OW 9163   2.949   6.776   3.342
 2755SOL    HW1 9164   2.979   6.808   3.252
 2755SOL    HW2 9165   2.876   6.709   3.330
 2756SOL     OW 9166   5.900   4.810   3.874
 2756SOL    HW1 9167   5.976   4.750   3.848
 2756SOL    HW2 9168   5.845   4.766   3.944
 2757SOL     OW 9169   2.763   1.423   6.581
 2757SOL    HW1 9170   2.820   1.503   6.565
 2757SOL    HW2 9171   2.789   1.381   6.668
 2758SOL     OW 9172   4.914   6.203   3.206
 2758SOL    HW1 9173   4.867   6.121   3.237
 2758SOL    HW2 9174   4.977   6.179   3.132
 2759SOL     OW 9175   3.450   4.440   5.601
 2759SOL    HW1 9176   3.369   4.495   5.619
 2759SOL    HW2 9177   3.496   4.419   5.687
 2760SOL     OW 9178   6.316   5.798   2.587
 2760SOL    HW1 9179   6.256   5.865   2.631
 2760SOL    HW2 9180   6.288   5.706   2.614
 2761SOL     OW 9181   1.159   3.726   3.316
 2761SOL    HW1 9182   1.156   3.824   3.338
 2761SOL    HW2 9183   1.104   3.676   3.383
 2762SOL     OW 9184   1.328   2.250   6.865
 2762SOL    HW1 9185   1.425   2.249   6.889
 2762SOL    HW2 9186   1.298   2.345   6.852
 2763SOL     OW 9187   5.262   1.863   5.904
 2763SOL    HW1 9188   5.309   1.884   5.818
 2763SOL    HW2 9189   5.244   1.765   5.910
 2764SOL     OW 9190   0.146   5.014   2.812
 2764SOL    HW1 9191   0.082   4.977   2.878
 2764SOL    HW2 9192   0.145   4.957   2.729
 2765SOL     OW 9193   0.150   0.246   1.138
 2765SOL    HW1 9194   0.071   0.210   1.089
 2765SOL    HW2 9195   0.227   0.256   1.074
 2766SOL     OW 9196   4.343   1.018   6.666
 2766SOL    HW1 9197   4.265   1.080   6.660
 2766SOL    HW2 9198   4.399   1.043   6.746
 2767SOL     OW 9199   5.800   6.173   6.687
 2767SOL    HW1 9200   5.890   6.185   6.728
 2767SOL    HW2 9201   5.801   6.204   6.592
 2768SOL     OW 9202   4.061   0.623   0.770
 2768SOL    HW1 9203   3.962   0.610   0.763
 2768SOL    HW2 9204   4.101   0.616   0.679
 2769SOL     OW 9205   1.339   4.379   6.092
 2769SOL    HW1 9206   1.295   4.469   6.098
 2769SOL    HW2 9207   1.371   4.352   6.182
 2770SOL     OW 9208   3.497   6.353   5.731
 2770SOL    HW1 9209   3.427   6.351   5.659
 2770SOL    HW2 9210   3.545   6.266   5.733
 2771SOL     OW 9211   5.679   6.636   4.620
 2771SOL    HW1 9212   5.763   6.682   4.591
 2771SOL    HW2 9213   5.646   6.678   4.705
 2772SOL     OW 9214   3.417   0.710   2.329
 2772SOL    HW1 9215   3.371   0.683   2.413
 2772SOL    HW2 9216   3.349   0.719   2.256
 2773SOL     OW 9217   0.299   2.494   3.404
 2773SOL    HW1 9218   0.342   2.541   3.481
 2773SOL    HW2 9219   0.267   2.404   3.433
 2774SOL     OW 9220   5.050   2.927   3.003
 2774SOL    HW1 9221   5.054   2.838   3.048
 2774SOL    HW2 9222   5.134   2.942   2.951
 2775SOL     OW 9223   6.704   3.822   3.790
 2775SOL    HW1 9224   6.627   3.787   3.843
 2775SOL    HW2 9225   6.687   3.807   3.693
 2776SOL     OW 9226   4.913   5.604   6.823
 2776SOL    HW1 9227   4.911   5.699   6.852
 2776SOL    HW2 9228   4.985   5.555   6.871
 2777SOL     OW 9229   2.329   2.121   6.061
 2777SOL    HW1 9230   2.345   2.070   5.976
 2777SOL    HW2 9231   2.336   2.219   6.042
 2778SOL     OW 9232   2.054   5.850   6.100
 2778SOL    HW1 9233   1.997   5.805   6.168
 2778SOL    HW2 9234   2.002   5.923   6.055
 2779SOL     OW 9235   5.885   6.343   2.068
 2779SOL    HW1 9236   5.852   6.305   1.981
 2779SOL    HW2 9237   5.960   6.287   2.103
 2780SOL     OW 9238   0.224   0.622   6.582
 2780SOL    HW1 9239   0.296   0.568   6.627
 2780SOL    HW2 9240   0.258   0.714   6.563
 2781SOL     OW 9241   6.224   0.611   2.785
 2781SOL    HW1 9242   6.127   0.620   2.809
 2781SOL    HW2 9243   6.251   0.515   2.794
 2782SOL     OW 9244   4.587   0.978   5.625
 2782SOL    HW1 9245   4.592   1.038   5.704
 2782SOL    HW2 9246   4.589   0.883   5.655
 2783SOL     OW 9247   6.244   3.036   0.695
 2783SOL    HW1 9248   6.334   3.065   0.729
 2783SOL    HW2 9249   6.256   2.962   0.628
 2784SOL     OW 9250   3.241   1.712   2.070
 2784SOL    HW1 9251   3.238   1.812   2.065
 2784SOL    HW2 9252   3.276   1.685   2.160
 2785SOL     OW 9253   4.929   2.567   1.775
 2785SOL    HW1 9254   4.858   2.592   1.709
 2785SOL    HW2 9255   4.969   2.651   1.813
 2786SOL     OW 9256   6.393   5.981   1.348
 2786SOL    HW1 9257   6.471   5.919   1.354
 2786SOL    HW2 9258   6.323   5.940   1.289
 2787SOL     OW 9259   6.576   5.860   5.566
 2787SOL    HW1 9260   6.593   5.810   5.651
 2787SOL    HW2 9261   6.561   5.957   5.588
 2788SOL     OW 9262   3.019   6.317   6.343
 2788SOL    HW1 9263   3.053   6.251   6.411
 2788SOL    HW2 9264   3.097   6.365   6.303
 2789SOL     OW 9265   1.081   2.389   3.824
 2789SOL    HW1 9266   1.166   2.344   3.852
 2789SOL    HW2 9267   1.024   2.406   3.904
 2790SOL     OW 9268   2.812   5.010   0.460
 2790SOL    HW1 9269   2.800   4.911   0.446
 2790SOL    HW2 9270   2.850   5.026   0.550
 2791SOL     OW 9271   0.544   4.210   1.994
 2791SOL    HW1 9272   0.461   4.183   1.945
 2791SOL    HW2 9273   0.522   4.227   2.090
 2792SOL     OW 9274   3.439   0.809   4.917
 2792SOL    HW1 9275   3.347   0.780   4.944
 2792SOL    HW2 9276   3.438   0.837   4.821
 2793SOL     OW 9277   4.929   4.022   1.498
 2793SOL    HW1 9278   4.870   4.066   1.431
 2793SOL    HW2 9279   4.916   4.064   1.587
 2794SOL     OW 9280   0.046   1.235   6.569
 2794SOL    HW1 9281   0.024   1.284   6.485
 2794SOL    HW2 9282   0.067   1.140   6.547
 2795SOL     OW 9283   0.949   4.986   1.037
 2795SOL    HW1 9284   0.851   5.007   1.041
 2795SOL    HW2 9285   0.978   4.947   1.124
 2796SOL     OW 9286   0.686   5.810   5.578
 2796SOL    HW1 9287   0.643   5.896   5.552
 2796SOL    HW2 9288   0.652   5.737   5.519
 2797SOL     OW 9289   5.285   5.199   5.935
 2797SOL    HW1 9290   5.261   5.103   5.922
 2797SOL    HW2 9291   5.380   5.213   5.907
 2798SOL     OW 9292   6.495   6.033   2.265
 2798SOL    HW1 9293   6.476   6.049   2.168
 2798SOL    HW2 9294   6.436   5.960   2.299
 2799SOL     OW 9295   4.471   5.307   5.457
 2799SOL    HW1 9296   4.434   5.215   5.474
 2799SOL    HW2 9297   4.521   5.338   5.537
 2800SOL     OW 9298   5.998   0.611   0.290
 2800SOL    HW1 9299   5.953   0.685   0.339
 2800SOL    HW2 9300   5.956   0.599   0.200
 2801SOL     OW 9301   0.706   5.447   5.883
 2801SOL    HW1 9302   0.799   5.483   5.894
 2801SOL    HW2 9303   0.643   5.523   5.870
 2802SOL     OW 9304   6.744   6.279   5.310
 2802SOL    HW1 9305   6.777   6.240   5.396
 2802SOL    HW2 9306   6.744   6.379   5.317
 2803SOL     OW 9307   3.440   3.727   5.972
 2803SOL    HW1 9308   3.420   3.652   5.910
 2803SOL    HW2 9309   3.357   3.751   6.023
 2804SOL     OW 9310   0.822   2.704   3.862
 2804SOL    HW1 9311   0.854   2.750   3.780
 2804SOL    HW2 9312   0.740   2.750   3.897
 2805SOL     OW 9313   5.253   3.565   2.017
 2805SOL    HW1 9314   5.265   3.601   2.110
 2805SOL    HW2 9315   5.266   3.466   2.017
 2806SOL     OW 9316   2.377   4.156   6.474
 2806SOL    HW1 9317   2.385   4.065   6.434
 2806SOL    HW2 9318   2.469   4.193   6.490
 2807SOL     OW 9319   2.959   0.553   2.898
 2807SOL    HW1 9320   2.950   0.646   2.861
 2807SOL    HW2 9321   2.979   0.558   2.996
 2808SOL     OW 9322   5.890   5.567   0.660
 2808SOL    HW1 9323   5.802   5.606   0.631
 2808SOL    HW2 9324   5.961   5.636   0.653
 2809SOL     OW 9325   5.506   3.467   1.720
 2809SOL    HW1 9326   5.410   3.461   1.694
 2809SOL    HW2 9327   5.553   3.531   1.659
 2810SOL     OW 9328   2.389   6.149   3.271
 2810SOL    HW1 9329   2.316   6.081   3.264
 2810SOL    HW2 9330   2.388   6.208   3.190
 2811SOL     OW 9331   1.016   0.501   2.619
 2811SOL    HW1 9332   0.930   0.546   2.642
 2811SOL    HW2 9333   1.043   0.441   2.694
 2812SOL     OW 9334   0.686   3.168   0.238
 2812SOL    HW1 9335   0.624   3.114   0.181
 2812SOL    HW2 9336   0.707   3.118   0.322
 2813SOL     OW 9337   1.242   1.972   1.466
 2813SOL    HW1 9338   1.272   1.907   1.536
 2813SOL    HW2 9339   1.158   1.939   1.424
 2814SOL     OW 9340   2.905   3.795   6.748
 2814SOL    HW1 9341   2.930   3.857   6.674
 2814SOL    HW2 9342   2.825   3.742   6.721
 2815SOL     OW 9343   0.109   5.978   5.803
 2815SOL    HW1 9344   0.073   6.007   5.715
 2815SOL    HW2 9345   0.208   5.998   5.806
 2816SOL     OW 9346   6.568   5.903   5.103
 2816SOL    HW1 9347   6.494   5.962   5.135
 2816SOL    HW2 9348   6.652   5.927   5.151
 2817SOL     OW 9349   3.787   0.445   2.188
 2817SOL    HW1 9350   3.830   0.483   2.270
 2817SOL    HW2 9351   3.803   0.507   2.111
 2818SOL     OW 9352   0.735   0.931   1.052
 2818SOL    HW1 9353   0.670   1.007   1.037
 2818SOL    HW2 9354   0.684   0.848   1.073
 2819SOL     OW 9355   0.639   0.646   0.875
 2819SOL    HW1 9356   0.669   0.713   0.808
 2819SOL    HW2 9357   0.717   0.590   0.904
 2820SOL     OW 9358   1.285   2.220   2.423
 2820SOL    HW1 9359   1.246   2.135   2.386
 2820SOL    HW2 9360   1.356   2.253   2.361
 2821SOL     OW 9361   3.862   5.258   5.766
 2821SOL    HW1 9362   3.842   5.332   5.703
 2821SOL    HW2 9363   3.840   5.170   5.722
 2822SOL     OW 9364   3.893   3.005   0.707
 2822SOL    HW1 9365   3.809   3.036   0.662
 2822SOL    HW2 9366   3.874   2.985   0.803
 2823SOL     OW 9367   5.095   0.665   0.985
 2823SOL    HW1 9368   5.147   0.699   1.063
 2823SOL    HW2 9369   4.997   0.667   1.006
 2824SOL     OW 9370   1.691   3.968   5.401
 2824SOL    HW1 9371   1.692   3.887   5.460
 2824SOL    HW2 9372   1.784   3.990   5.372
 2825SOL     OW 9373   5.372   0.808   6.829
 2825SOL    HW1 9374   5.337   0.825   6.921
 2825SOL    HW2 9375   5.374   0.710   6.811
 2826SOL     OW 9376   1.420   3.403   6.128
 2826SOL    HW1 9377   1.404   3.358   6.216
 2826SOL    HW2 9378   1.517   3.422   6.117
 2827SOL     OW 9379   0.363   0.888   6.575
 2827SOL    HW1 9380   0.406   0.842   6.652
 2827SOL    HW2 9381   0.432   0.932   6.518
 2828SOL     OW 9382   1.903   3.413   1.284
 2828SOL    HW1 9383   1.864   3.344   1.344
 2828SOL    HW2 9384   1.849   3.497   1.291
 2829SOL     OW 9385   3.482   3.830   2.904
 2829SOL    HW1 9386   3.400   3.883   2.883
 2829SOL    HW2 9387   3.457   3.737   2.929
 2830SOL     OW 9388   3.663   4.512   5.423
 2830SOL    HW1 9389   3.737   4.450   5.449
 2830SOL    HW2 9390   3.594   4.513   5.495
 2831SOL     OW 9391   7.023   2.165   1.977
 2831SOL    HW1 9392   0.045   2.185   2.062
 2831SOL    HW2 9393   6.925   2.156   1.996
 2832SOL     OW 9394   0.922   3.404   1.437
 2832SOL    HW1 9395   1.000   3.441   1.487
 2832SOL    HW2 9396   0.864   3.352   1.500
 2833SOL     OW 9397   2.608   0.534   1.960
 2833SOL    HW1 9398   2.622   0.449   1.909
 2833SOL    HW2 9399   2.649   0.610   1.910
 2834SOL     OW 9400   4.608   6.107   4.521
 2834SOL    HW1 9401   4.624   6.026   4.577
 2834SOL    HW2 9402   4.615   6.189   4.577
 2835SOL     OW 9403   1.440   6.334   0.429
 2835SOL    HW1 9404   1.515   6.328   0.495
 2835SOL    HW2 9405   1.355   6.304   0.473
 2836SOL     OW 9406   3.881   6.894   3.304
 2836SOL    HW1 9407   3.870   6.795   3.307
 2836SOL    HW2 9408   3.975   6.916   3.278
 2837SOL     OW 9409   5.721   3.929   2.133
 2837SOL    HW1 9410   5.758   4.002   2.076
 2837SOL    HW2 9411   5.628   3.951   2.161
 2838SOL     OW 9412   5.240   4.044   6.092
 2838SOL    HW1 9413   5.308   4.026   6.021
 2838SOL    HW2 9414   5.287   4.065   6.178
 2839SOL     OW 9415   6.461   3.172   3.713
 2839SOL    HW1 9416   6.395   3.246   3.698
 2839SOL    HW2 9417   6.439   3.124   3.798
 2840SOL     OW 9418   1.060   5.498   2.947
 2840SOL    HW1 9419   0.991   5.512   3.017
 2840SOL    HW2 9420   1.058   5.403   2.916
 2841SOL     OW 9421   6.198   2.553   0.640
 2841SOL    HW1 9422   6.102   2.578   0.654
 2841SOL    HW2 9423   6.218   2.471   0.693
 2842SOL     OW 9424   1.059   5.722   4.514
 2842SOL    HW1 9425   1.116   5.706   4.594
 2842SOL    HW2 9426   0.965   5.739   4.542
 2843SOL     OW 9427   2.184   3.004   2.912
 2843SOL    HW1 9428   2.169   2.907   2.895
 2843SOL    HW2 9429   2.182   3.054   2.825
 2844SOL     OW 9430   4.742   4.134   1.302
 2844SOL    HW1 9431   4.674   4.081   1.251
 2844SOL    HW2 9432   4.697   4.207   1.353
 2845SOL     OW 9433   5.129   3.090   3.602
 2845SOL    HW1 9434   5.134   3.166   3.538
 2845SOL    HW2 9435   5.046   3.098   3.657
 2846SOL     OW 9436   4.466   0.508   0.063
 2846SOL    HW1 9437   4.511   0.556   7.014
 2846SOL    HW2 9438   4.398   0.444   0.027
 2847SOL     OW 9439   4.776   4.361   2.077
 2847SOL    HW1 9440   4.676   4.349   2.077
 2847SOL    HW2 9441   4.819   4.271   2.065
 2848SOL     OW 9442   0.834   2.665   4.623
 2848SOL    HW1 9443   0.815   2.640   4.529
 2848SOL    HW2 9444   0.878   2.755   4.625
 2849SOL     OW 9445   3.453   0.490   1.855
 2849SOL    HW1 9446   3.475   0.519   1.948
 2849SOL    HW2 9447   3.357   0.464   1.849
 2850SOL     OW 9448   1.927   6.520   3.453
 2850SOL    HW1 9449   1.921   6.594   3.386
 2850SOL    HW2 9450   1.900   6.554   3.543
 2851SOL     OW 9451   4.276   3.422   6.797
 2851SOL    HW1 9452   4.328   3.343   6.830
 2851SOL    HW2 9453   4.339   3.488   6.755
 2852SOL     OW 9454   6.428   4.107   6.695
 2852SOL    HW1 9455   6.351   4.123   6.632
 2852SOL    HW2 9456   6.450   4.191   6.743
 2853SOL     OW 9457   0.038   3.331   6.968
 2853SOL    HW1 9458   6.974   3.290   6.954
 2853SOL    HW2 9459   0.094   3.318   6.886
 2854SOL     OW 9460   3.359   0.838   6.439
 2854SOL    HW1 9461   3.383   0.867   6.531
 2854SOL    HW2 9462   3.301   0.907   6.396
 2855SOL     OW 9463   0.891   2.025   4.265
 2855SOL    HW1 9464   0.814   2.058   4.319
 2855SOL    HW2 9465   0.973   2.023   4.322
 2856SOL     OW 9466   1.474   3.745   3.162
 2856SOL    HW1 9467   1.444   3.664   3.212
 2856SOL    HW2 9468   1.573   3.745   3.153
 2857SOL     OW 9469   0.139   3.101   0.289
 2857SOL    HW1 9470   0.090   3.111   0.375
 2857SOL    HW2 9471   0.094   3.031   0.232
 2858SOL     OW 9472   5.449   6.259   2.861
 2858SOL    HW1 9473   5.497   6.200   2.925
 2858SOL    HW2 9474   5.510   6.333   2.832
 2859SOL     OW 9475   5.469   5.640   0.493
 2859SOL    HW1 9476   5.450   5.660   0.590
 2859SOL    HW2 9477   5.536   5.567   0.487
 2860SOL     OW 9478   1.775   6.179   1.595
 2860SOL    HW1 9479   1.847   6.156   1.530
 2860SOL    HW2 9480   1.810   6.244   1.662
 2861SOL     OW 9481   3.463   5.167   5.777
 2861SOL    HW1 9482   3.417   5.236   5.833
 2861SOL    HW2 9483   3.496   5.092   5.835
 2862SOL     OW 9484   4.451   2.956   1.429
 2862SOL    HW1 9485   4.413   2.878   1.379
 2862SOL    HW2 9486   4.417   2.956   1.523
 2863SOL     OW 9487   5.212   0.913   6.318
 2863SOL    HW1 9488   5.222   0.980   6.391
 2863SOL    HW2 9489   5.256   0.827   6.344
 2864SOL     OW 9490   4.288   3.345   1.450
 2864SOL    HW1 9491   4.326   3.282   1.517
 2864SOL    HW2 9492   4.191   3.361   1.469
 2865SOL     OW 9493   4.722   6.037   4.011
 2865SOL    HW1 9494   4.699   6.014   4.105
 2865SOL    HW2 9495   4.649   6.094   3.972
 2866SOL     OW 9496   5.554   4.475   6.872
 2866SOL    HW1 9497   5.579   4.379   6.867
 2866SOL    HW2 9498   5.591   4.524   6.794
 2867SOL     OW 9499   6.761   6.658   2.208
 2867SOL    HW1 9500   6.722   6.568   2.190
 2867SOL    HW2 9501   6.689   6.726   2.210
 2868SOL     OW 9502   0.888   1.430   5.839
 2868SOL    HW1 9503   0.975   1.423   5.790
 2868SOL    HW2 9504   0.905   1.418   5.937
 2869SOL     OW 9505   5.736   6.951   4.149
 2869SOL    HW1 9506   5.677   6.946   4.068
 2869SOL    HW2 9507   5.704   7.024   4.209
 2870SOL     OW 9508   1.318   1.734   0.511
 2870SOL    HW1 9509   1.399   1.679   0.493
 2870SOL    HW2 9510   1.236   1.678   0.499
 2871SOL     OW 9511   6.832   1.075   1.441
 2871SOL    HW1 9512   6.852   1.008   1.369
 2871SOL    HW2 9513   6.837   1.167   1.404
 2872SOL     OW 9514   2.823   1.669   1.897
 2872SOL    HW1 9515   2.831   1.752   1.953
 2872SOL    HW2 9516   2.756   1.684   1.824
 2873SOL     OW 9517   0.843   5.722   1.268
 2873SOL    HW1 9518   0.930   5.767   1.288
 2873SOL    HW2 9519   0.774   5.752   1.333
 2874SOL     OW 9520   3.275   0.428   2.605
 2874SOL    HW1 9521   3.212   0.415   2.682
 2874SOL    HW2 9522   3.245   0.371   2.529
 2875SOL     OW 9523   2.930   6.625   2.760
 2875SOL    HW1 9524   2.883   6.602   2.675
 2875SOL    HW2 9525   2.898   6.564   2.833
 2876SOL     OW 9526   1.475   6.343   2.086
 2876SOL    HW1 9527   1.543   6.384   2.024
 2876SOL    HW2 9528   1.495   6.246   2.097
 2877SOL     OW 9529   2.213   1.839   5.914
 2877SOL    HW1 9530   2.234   1.777   5.990
 2877SOL    HW2 9531   2.297   1.876   5.877
 2878SOL     OW 9532   3.367   2.972   4.622
 2878SOL    HW1 9533   3.281   3.013   4.594
 2878SOL    HW2 9534   3.436   2.987   4.550
 2879SOL     OW 9535   4.686   4.914   5.833
 2879SOL    HW1 9536   4.779   4.922   5.870
 2879SOL    HW2 9537   4.650   5.005   5.813
 2880SOL     OW 9538   0.492   2.055   3.453
 2880SOL    HW1 9539   0.432   2.126   3.417
 2880SOL    HW2 9540   0.504   1.983   3.385
 2881SOL     OW 9541   3.508   5.253   6.772
 2881SOL    HW1 9542   3.476   5.279   6.681
 2881SOL    HW2 9543   3.547   5.332   6.818
 2882SOL     OW 9544   5.824   6.157   0.742
 2882SOL    HW1 9545   5.875   6.211   0.676
 2882SOL    HW2 9546   5.839   6.192   0.834
 2883SOL     OW 9547   6.447   6.852   3.244
 2883SOL    HW1 9548   6.508   6.915   3.292
 2883SOL    HW2 9549   6.357   6.895   3.235
 2884SOL     OW 9550   6.869   4.837   2.689
 2884SOL    HW1 9551   6.801   4.790   2.633
 2884SOL    HW2 9552   6.956   4.839   2.640
 2885SOL     OW 9553   1.415   2.798   3.876
 2885SOL    HW1 9554   1.400   2.842   3.787
 2885SOL    HW2 9555   1.473   2.717   3.863
 2886SOL     OW 9556   2.583   4.239   0.412
 2886SOL    HW1 9557   2.550   4.251   0.505
 2886SOL    HW2 9558   2.565   4.323   0.360
 2887SOL     OW 9559   0.437   6.125   3.985
 2887SOL    HW1 9560   0.338   6.110   3.985
 2887SOL    HW2 9561   0.459   6.194   4.054
 2888SOL     OW 9562   0.295   6.291   0.119
 2888SOL    HW1 9563   0.255   6.358   0.056
 2888SOL    HW2 9564   0.306   6.203   0.072
 2889SOL     OW 9565   3.062   6.670   3.103
 2889SOL    HW1 9566   2.984   6.609   3.088
 2889SOL    HW2 9567   3.146   6.617   3.110
 2890SOL     OW 9568   2.429   6.057   0.820
 2890SOL    HW1 9569   2.351   6.025   0.766
 2890SOL    HW2 9570   2.399   6.131   0.881
 2891SOL     OW 9571   1.117   3.023   2.517
 2891SOL    HW1 9572   1.134   2.932   2.479
 2891SOL    HW2 9573   1.019   3.038   2.524
 2892SOL     OW 9574   6.575   3.536   1.079
 2892SOL    HW1 9575   6.508   3.605   1.052
 2892SOL    HW2 9576   6.573   3.525   1.179
 2893SOL     OW 9577   1.130   5.552   4.964
 2893SOL    HW1 9578   1.056   5.519   4.905
 2893SOL    HW2 9579   1.139   5.651   4.953
 2894SOL     OW 9580   2.092   4.191   1.875
 2894SOL    HW1 9581   2.189   4.181   1.894
 2894SOL    HW2 9582   2.074   4.168   1.779
 2895SOL     OW 9583   3.772   0.344   6.272
 2895SOL    HW1 9584   3.815   0.300   6.351
 2895SOL    HW2 9585   3.674   0.357   6.290
 2896SOL     OW 9586   5.904   6.825   5.901
 2896SOL    HW1 9587   5.866   6.916   5.885
 2896SOL    HW2 9588   5.997   6.821   5.864
 2897SOL     OW 9589   3.797   5.324   2.527
 2897SOL    HW1 9590   3.724   5.349   2.589
 2897SOL    HW2 9591   3.759   5.284   2.443
 2898SOL     OW 9592   6.238   3.927   3.382
 2898SOL    HW1 9593   6.175   3.891   3.313
 2898SOL    HW2 9594   6.314   3.973   3.336
 2899SOL     OW 9595   6.976   2.410   1.288
 2899SOL    HW1 9596   6.882   2.441   1.305
 2899SOL    HW2 9597   6.981   2.311   1.301
 2900SOL     OW 9598   3.536   3.991   7.008
 2900SOL    HW1 9599   3.462   3.935   6.970
 2900SOL    HW2 9600   3.499   4.079   0.012
 2901SOL     OW 9601   1.788   4.787   3.826
 2901SOL    HW1 9602   1.798   4.774   3.925
 2901SOL    HW2 9603   1.823   4.877   3.801
 2902SOL     OW 9604   6.882   5.637   3.690
 2902SOL    HW1 9605   6.850   5.546   3.716
 2902SOL    HW2 9606   6.899   5.640   3.591
 2903SOL     OW 9607   4.217   6.338   0.724
 2903SOL    HW1 9608   4.149   6.279   0.767
 2903SOL    HW2 9609   4.273   6.382   0.794
 2904SOL     OW 9610   3.015   4.850   5.113
 2904SOL    HW1 9611   2.959   4.767   5.122
 2904SOL    HW2 9612   3.020   4.876   5.016
 2905SOL     OW 9613   1.037   4.485   2.658
 2905SOL    HW1 9614   1.024   4.407   2.719
 2905SOL    HW2 9615   1.043   4.569   2.711
 2906SOL     OW 9616   5.128   6.161   3.019
 2906SOL    HW1 9617   5.085   6.177   2.931
 2906SOL    HW2 9618   5.213   6.110   3.007
 2907SOL     OW 9619   0.896   0.729   4.130
 2907SOL    HW1 9620   0.941   0.784   4.059
 2907SOL    HW2 9621   0.867   0.789   4.204
 2908SOL     OW 9622   5.320   0.275   3.748
 2908SOL    HW1 9623   5.277   0.310   3.664
 2908SOL    HW2 9624   5.260   0.294   3.826
 2909SOL     OW 9625   1.244   6.549   3.091
 2909SOL    HW1 9626   1.170   6.538   3.157
 2909SOL    HW2 9627   1.318   6.602   3.132
 2910SOL     OW 9628   6.584   0.823   4.236
 2910SOL    HW1 9629   6.564   0.740   4.288
 2910SOL    HW2 9630   6.675   0.817   4.196
 2911SOL     OW 9631   0.768   5.059   3.809
 2911SOL    HW1 9632   0.811   4.986   3.757
 2911SOL    HW2 9633   0.836   5.101   3.870
 2912SOL     OW 9634   0.191   6.370   0.810
 2912SOL    HW1 9635   0.258   6.339   0.743
 2912SOL    HW2 9636   0.135   6.443   0.770
 2913SOL     OW 9637   2.193   4.494   1.945
 2913SOL    HW1 9638   2.247   4.458   2.022
 2913SOL    HW2 9639   2.117   4.432   1.925
 2914SOL     OW 9640   5.408   5.286   0.826
 2914SOL    HW1 9641   5.415   5.368   0.882
 2914SOL    HW2 9642   5.401   5.205   0.885
 2915SOL     OW 9643   3.048   2.149   3.059
 2915SOL    HW1 9644   3.051   2.154   2.959
 2915SOL    HW2 9645   2.954   2.156   3.090
 2916SOL     OW 9646   2.767   5.314   6.882
 2916SOL    HW1 9647   2.773   5.413   6.867
 2916SOL    HW2 9648   2.692   5.295   6.946
 2917SOL     OW 9649   2.497   0.068   4.061
 2917SOL    HW1 9650   2.524   7.018   4.120
 2917SOL    HW2 9651   2.461   0.142   4.117
 2918SOL     OW 9652   6.375   3.751   0.733
 2918SOL    HW1 9653   6.340   3.845   0.742
 2918SOL    HW2 9654   6.396   3.715   0.823
 2919SOL     OW 9655   6.909   5.776   4.176
 2919SOL    HW1 9656   6.813   5.764   4.152
 2919SOL    HW2 9657   6.928   5.873   4.192
 2920SOL     OW 9658   1.953   0.449   1.989
 2920SOL    HW1 9659   2.023   0.496   2.042
 2920SOL    HW2 9660   1.865   0.492   2.005
 2921SOL     OW 9661   6.777   0.038   5.714
 2921SOL    HW1 9662   6.855   0.074   5.662
 2921SOL    HW2 9663   6.801   0.034   5.811
 2922SOL     OW 9664   4.263   0.099   2.787
 2922SOL    HW1 9665   4.206   0.059   2.859
 2922SOL    HW2 9666   4.260   0.199   2.794
 2923SOL     OW 9667   6.460   4.982   4.244
 2923SOL    HW1 9668   6.466   4.936   4.332
 2923SOL    HW2 9669   6.504   5.072   4.250
 2924SOL     OW 9670   6.900   1.548   4.867
 2924SOL    HW1 9671   6.974   1.559   4.934
 2924SOL    HW2 9672   6.928   1.481   4.798
 2925SOL     OW 9673   5.221   1.102   6.816
 2925SOL    HW1 9674   5.144   1.038   6.818
 2925SOL    HW2 9675   5.247   1.125   6.910
 2926SOL     OW 9676   6.795   2.166   5.398
 2926SOL    HW1 9677   6.851   2.170   5.315
 2926SOL    HW2 9678   6.817   2.244   5.456
 2927SOL     OW 9679   2.129   3.231   1.076
 2927SOL    HW1 9680   2.142   3.210   1.173
 2927SOL    HW2 9681   2.040   3.197   1.046
 2928SOL     OW 9682   6.550   1.508   0.247
 2928SOL    HW1 9683   6.595   1.496   0.336
 2928SOL    HW2 9684   6.451   1.494   0.258
 2929SOL     OW 9685   1.237   2.290   4.727
 2929SOL    HW1 9686   1.181   2.216   4.766
 2929SOL    HW2 9687   1.317   2.305   4.785
 2930SOL     OW 9688   6.361   5.369   5.670
 2930SOL    HW1 9689   6.428   5.424   5.720
 2930SOL    HW2 9690   6.384   5.272   5.679
 2931SOL     OW 9691   3.940   4.814   0.287
 2931SOL    HW1 9692   3.977   4.830   0.196
 2931SOL    HW2 9693   3.888   4.895   0.316
 2932SOL     OW 9694   6.979   5.819   2.138
 2932SOL    HW1 9695   6.893   5.814   2.086
 2932SOL    HW2 9696   0.027   5.841   2.077
 2933SOL     OW 9697   0.517   0.125   2.002
 2933SOL    HW1 9698   0.585   0.056   2.022
 2933SOL    HW2 9699   0.539   0.169   1.914
 2934SOL     OW 9700   4.189   3.126   1.128
 2934SOL    HW1 9701   4.177   3.218   1.163
 2934SOL    HW2 9702   4.153   3.120   1.035
 2935SOL     OW 9703   0.668   2.236   6.080
 2935SOL    HW1 9704   0.626   2.237   5.990
 2935SOL    HW2 9705   0.688   2.142   6.107
 2936SOL     OW 9706   4.675   0.215   0.675
 2936SOL    HW1 9707   4.612   0.138   0.689
 2936SOL    HW2 9708   4.694   0.225   0.578
 2937SOL     OW 9709   4.824   5.086   1.197
 2937SOL    HW1 9710   4.759   5.012   1.210
 2937SOL    HW2 9711   4.902   5.073   1.258
 2938SOL     OW 9712   6.347   5.625   0.134
 2938SOL    HW1 9713   6.262   5.647   0.086
 2938SOL    HW2 9714   6.377   5.534   0.108
 2939SOL     OW 9715   0.430   6.528   1.695
 2939SOL    HW1 9716   0.497   6.575   1.751
 2939SOL    HW2 9717   0.441   6.554   1.599
 2940SOL     OW 9718   5.894   5.762   4.500
 2940SOL    HW1 9719   5.829   5.834   4.523
 2940SOL    HW2 9720   5.979   5.775   4.552
 2941SOL     OW 9721   1.857   2.909   2.997
 2941SOL    HW1 9722   1.785   2.878   3.059
 2941SOL    HW2 9723   1.944   2.868   3.023
 2942SOL     OW 9724   2.819   2.099   0.249
 2942SOL    HW1 9725   2.729   2.090   0.205
 2942SOL    HW2 9726   2.863   2.009   0.253
 2943SOL     OW 9727   5.815   4.418   4.426
 2943SOL    HW1 9728   5.830   4.516   4.444
 2943SOL    HW2 9729   5.759   4.407   4.344
 2944SOL     OW 9730   2.681   6.292   3.831
 2944SOL    HW1 9731   2.726   6.314   3.744
 2944SOL    HW2 9732   2.716   6.353   3.902
 2945SOL     OW 9733   5.456   3.752   1.399
 2945SOL    HW1 9734   5.396   3.737   1.477
 2945SOL    HW2 9735   5.427   3.695   1.322
 2946SOL     OW 9736   2.770   4.352   5.987
 2946SOL    HW1 9737   2.790   4.450   5.992
 2946SOL    HW2 9738   2.764   4.324   5.892
 2947SOL     OW 9739   0.091   6.202   0.511
 2947SOL    HW1 9740   0.076   6.134   0.582
 2947SOL    HW2 9741   0.170   6.176   0.455
 2948SOL     OW 9742   5.966   4.813   3.300
 2948SOL    HW1 9743   6.049   4.868   3.314
 2948SOL    HW2 9744   5.927   4.790   3.389
 2949SOL     OW 9745   1.160   6.273   0.114
 2949SOL    HW1 9746   1.218   6.340   0.066
 2949SOL    HW2 9747   1.110   6.219   0.046
 2950SOL     OW 9748   5.587   4.776   2.804
 2950SOL    HW1 9749   5.603   4.809   2.711
 2950SOL    HW2 9750   5.505   4.718   2.805
 2951SOL     OW 9751   5.820   0.493   1.917
 2951SOL    HW1 9752   5.829   0.428   1.841
 2951SOL    HW2 9753   5.785   0.580   1.882
 2952SOL     OW 9754   6.030   0.889   5.220
 2952SOL    HW1 9755   5.970   0.927   5.292
 2952SOL    HW2 9756   6.124   0.920   5.235
 2953SOL     OW 9757   6.296   5.101   3.178
 2953SOL    HW1 9758   6.248   5.124   3.093
 2953SOL    HW2 9759   6.377   5.048   3.157
 2954SOL     OW 9760   0.704   4.463   6.585
 2954SOL    HW1 9761   0.658   4.416   6.509
 2954SOL    HW2 9762   0.637   4.484   6.656
 2955SOL     OW 9763   1.097   4.206   6.911
 2955SOL    HW1 9764   1.043   4.233   6.832
 2955SOL    HW2 9765   1.190   4.244   6.903
 2956SOL     OW 9766   7.008   4.962   4.011
 2956SOL    HW1 9767   0.053   5.012   4.058
 2956SOL    HW2 9768   6.926   4.959   4.068
 2957SOL     OW 9769   4.056   5.186   1.476
 2957SOL    HW1 9770   4.025   5.156   1.567
 2957SOL    HW2 9771   4.152   5.161   1.464
 2958SOL     OW 9772   1.865   5.352   3.227
 2958SOL    HW1 9773   1.809   5.420   3.179
 2958SOL    HW2 9774   1.962   5.367   3.206
 2959SOL     OW 9775   5.672   2.663   2.791
 2959SOL    HW1 9776   5.638   2.621   2.875
 2959SOL    HW2 9777   5.710   2.753   2.812
 2960SOL     OW 9778   3.665   0.577   0.100
 2960SOL    HW1 9779   3.681   0.500   0.162
 2960SOL    HW2 9780   3.697   0.661   0.144
 2961SOL     OW 9781   5.835   4.690   2.837
 2961SOL    HW1 9782   5.871   4.650   2.921
 2961SOL    HW2 9783   5.737   4.705   2.847
 2962SOL     OW 9784   5.177   6.672   3.506
 2962SOL    HW1 9785   5.094   6.697   3.554
 2962SOL    HW2 9786   5.194   6.574   3.517
 2963SOL     OW 9787   1.638   1.149   5.960
 2963SOL    HW1 9788   1.593   1.083   5.900
 2963SOL    HW2 9789   1.684   1.219   5.905
 2964SOL     OW 9790   0.260   3.019   6.820
 2964SOL    HW1 9791   0.227   2.925   6.827
 2964SOL    HW2 9792   0.310   3.030   6.734
 2965SOL     OW 9793   0.835   0.909   4.703
 2965SOL    HW1 9794   0.897   0.979   4.739
 2965SOL    HW2 9795   0.743   0.925   4.738
 2966SOL     OW 9796   4.529   5.718   4.073
 2966SOL    HW1 9797   4.445   5.762   4.042
 2966SOL    HW2 9798   4.602   5.737   4.007
 2967SOL     OW 9799   6.772   1.134   5.977
 2967SOL    HW1 9800   6.785   1.063   6.046
 2967SOL    HW2 9801   6.745   1.219   6.021
 2968SOL     OW 9802   2.334   3.126   0.947
 2968SOL    HW1 9803   2.301   3.122   0.853
 2968SOL    HW2 9804   2.262   3.164   1.006
 2969SOL     OW 9805   4.961   3.586   4.699
 2969SOL    HW1 9806   4.949   3.645   4.779
 2969SOL    HW2 9807   4.950   3.640   4.616
 2970SOL     OW 9808   2.721   2.753   5.564
 2970SOL    HW1 9809   2.673   2.666   5.577
 2970SOL    HW2 9810   2.707   2.785   5.470
 2971SOL     OW 9811   5.856   4.195   0.070
 2971SOL    HW1 9812   5.937   4.159   0.117
 2971SOL    HW2 9813   5.864   4.177   6.998
 2972SOL     OW 9814   5.959   4.987   0.239
 2972SOL    HW1 9815   5.916   4.995   0.328
 2972SOL    HW2 9816   5.900   5.030   0.170
 2973SOL     OW 9817   4.780   6.943   2.600
 2973SOL    HW1 9818   4.756   6.989   2.514
 2973SOL    HW2 9819   4.782   6.844   2.586
 2974SOL     OW 9820   6.179   4.628   3.076
 2974SOL    HW1 9821   6.164   4.713   3.026
 2974SOL    HW2 9822   6.224   4.562   3.016
 2975SOL     OW 9823   5.099   4.883   3.768
 2975SOL    HW1 9824   5.108   4.901   3.670
 2975SOL    HW2 9825   5.046   4.799   3.781
 2976SOL     OW 9826   4.551   2.192   3.335
 2976SOL    HW1 9827   4.651   2.189   3.326
 2976SOL    HW2 9828   4.526   2.242   3.417
 2977SOL     OW 9829   1.040   0.406   2.097
 2977SOL    HW1 9830   1.124   0.396   2.044
 2977SOL    HW2 9831   0.963   0.422   2.035
 2978SOL     OW 9832   4.200   4.000   6.687
 2978SOL    HW1 9833   4.220   3.995   6.785
 2978SOL    HW2 9834   4.126   3.937   6.665
 2979SOL     OW 9835   3.164   1.457   4.528
 2979SOL    HW1 9836   3.140   1.504   4.613
 2979SOL    HW2 9837   3.234   1.510   4.480
 2980SOL     OW 9838   3.333   4.909   6.305
 2980SOL    HW1 9839   3.316   4.818   6.267
 2980SOL    HW2 9840   3.282   4.977   6.252
 2981SOL     OW 9841   2.255   2.099   6.702
 2981SOL    HW1 9842   2.249   2.025   6.769
 2981SOL    HW2 9843   2.240   2.062   6.610
 2982SOL     OW 9844   1.973   6.697   2.303
 2982SOL    HW1 9845   1.884   6.718   2.344
 2982SOL    HW2 9846   1.970   6.717   2.205
 2983SOL     OW 9847   0.206   2.697   6.819
 2983SOL    HW1 9848   0.190   2.687   6.721
 2983SOL    HW2 9849   0.127   2.739   6.862
 2984SOL     OW 9850   6.303   4.789   6.918
 2984SOL    HW1 9851   6.284   4.754   6.827
 2984SOL    HW2 9852   6.217   4.809   6.965
 2985SOL     OW 9853   0.758   0.279   4.627
 2985SOL    HW1 9854   0.710   0.281   4.539
 2985SOL    HW2 9855   0.829   0.349   4.628
 2986SOL     OW 9856   3.147   4.041   2.343
 2986SOL    HW1 9857   3.194   4.060   2.428
 2986SOL    HW2 9858   3.072   3.977   2.360
 2987SOL     OW 9859   1.187   1.965   3.765
 2987SOL    HW1 9860   1.222   1.872   3.759
 2987SOL    HW2 9861   1.146   1.979   3.855
 2988SOL     OW 9862   0.954   0.416   1.279
 2988SOL    HW1 9863   0.990   0.493   1.227
 2988SOL    HW2 9864   0.998   0.331   1.249
 2989SOL     OW 9865   5.253   3.550   5.156
 2989SOL    HW1 9866   5.236   3.527   5.060
 2989SOL    HW2 9867   5.166   3.572   5.201
 2990SOL     OW 9868   5.417   2.378   4.468
 2990SOL    HW1 9869   5.466   2.320   4.533
 2990SOL    HW2 9870   5.420   2.473   4.499
 2991SOL     OW 9871   6.155   3.656   0.644
 2991SOL    HW1 9872   6.180   3.570   0.598
 2991SOL    HW2 9873   6.233   3.690   0.696
 2992SOL     OW 9874   0.606   4.223   4.525
 2992SOL    HW1 9875   0.605   4.320   4.499
 2992SOL    HW2 9876   0.514   4.194   4.551
 2993SOL     OW 9877   0.737   4.857   0.501
 2993SOL    HW1 9878   0.767   4.827   0.410
 2993SOL    HW2 9879   0.690   4.782   0.546
 2994SOL     OW 9880   4.999   6.371   6.814
 2994SOL    HW1 9881   4.954   6.417   6.891
 2994SOL    HW2 9882   5.055   6.437   6.764
 2995SOL     OW 9883   4.820   0.274   0.452
 2995SOL    HW1 9884   4.873   0.263   0.368
 2995SOL    HW2 9885   4.800   0.371   0.466
 2996SOL     OW 9886   1.586   1.984   4.862
 2996SOL    HW1 9887   1.585   1.996   4.763
 2996SOL    HW2 9888   1.512   1.923   4.890
 2997SOL     OW 9889   4.171   0.888   3.332
 2997SOL    HW1 9890   4.149   0.869   3.236
 2997SOL    HW2 9891   4.238   0.821   3.364
 2998SOL     OW 9892   2.756   0.738   4.114
 2998SOL    HW1 9893   2.847   0.728   4.155
 2998SOL    HW2 9894   2.687   0.718   4.183
 2999SOL     OW 9895   3.070   4.739   6.598
 2999SOL    HW1 9896   3.025   4.791   6.670
 2999SOL    HW2 9897   3.165   4.769   6.590
 3000SOL     OW 9898   2.737   3.458   5.646
 3000SOL    HW1 9899   2.750   3.389   5.574
 3000SOL    HW2 9900   2.696   3.415   5.726
 3001SOL     OW 9901   5.847   1.196   0.665
 3001SOL    HW1 9902   5.895   1.263   0.607
 3001SOL    HW2 9903   5.914   1.143   0.716
 3002SOL     OW 9904   3.007   1.502   0.890
 3002SOL    HW1 9905   2.942   1.458   0.953
 3002SOL    HW2 9906   3.054   1.431   0.837
 3003SOL     OW 9907   0.872   6.500   0.880
 3003SOL    HW1 9908   0.847   6.480   0.785
 3003SOL    HW2 9909   0.940   6.433   0.911
 3004SOL     OW 9910   1.976   4.284   4.119
 3004SOL    HW1 9911   1.967   4.365   4.060
 3004SOL    HW2 9912   1.954   4.309   4.213
 3005SOL     OW 9913   0.719   3.563   5.508
 3005SOL    HW1 9914   0.720   3.483   5.448
 3005SOL    HW2 9915   0.627   3.575   5.545
 3006SOL     OW 9916   5.398   1.792   5.681
 3006SOL    HW1 9917   5.410   1.814   5.584
 3006SOL    HW2 9918   5.485   1.764   5.720
 3007SOL     OW 9919   4.656   5.686   6.956
 3007SOL    HW1 9920   4.727   5.616   6.945
 3007SOL    HW2 9921   4.623   5.685   0.024
 3008SOL     OW 9922   3.993   2.139   6.163
 3008SOL    HW1 9923   3.901   2.172   6.139
 3008SOL    HW2 9924   4.034   2.200   6.231
 3009SOL     OW 9925   6.478   2.379   3.055
 3009SOL    HW1 9926   6.569   2.417   3.071
 3009SOL    HW2 9927   6.479   2.281   3.072
 3010SOL     OW 9928   3.637   6.118   5.793
 3010SOL    HW1 9929   3.587   6.070   5.865
 3010SOL    HW2 9930   3.688   6.052   5.738
 3011SOL     OW 9931   6.570   0.294   2.411
 3011SOL    HW1 9932   6.566   0.281   2.312
 3011SOL    HW2 9933   6.485   0.333   2.443
 3012SOL     OW 9934   2.758   3.112   6.640
 3012SOL    HW1 9935   2.772   3.068   6.729
 3012SOL    HW2 9936   2.665   3.096   6.609
 3013SOL     OW 9937   6.439   5.414   3.524
 3013SOL    HW1 9938   6.537   5.430   3.515
 3013SOL    HW2 9939   6.390   5.468   3.455
 3014SOL     OW 9940   5.215   1.085   6.530
 3014SOL    HW1 9941   5.215   1.067   6.629
 3014SOL    HW2 9942   5.142   1.149   6.507
 3015SOL     OW 9943   2.647   1.091   0.276
 3015SOL    HW1 9944   2.700   1.174   0.291
 3015SOL    HW2 9945   2.598   1.067   0.360
 3016SOL     OW 9946   3.088   6.903   4.133
 3016SOL    HW1 9947   3.142   6.987   4.135
 3016SOL    HW2 9948   3.089   6.859   4.223
 3017SOL     OW 9949   5.896   4.539   2.297
 3017SOL    HW1 9950   5.853   4.535   2.387
 3017SOL    HW2 9951   5.890   4.632   2.260
 3018SOL     OW 9952   4.010   6.869   0.138
 3018SOL    HW1 9953   3.930   6.913   0.180
 3018SOL    HW2 9954   3.985   6.833   0.048
 3019SOL     OW 9955   1.243   6.957   0.116
 3019SOL    HW1 9956   1.225   6.881   0.178
 3019SOL    HW2 9957   1.339   6.985   0.125
 3020SOL     OW 9958   4.742   3.526   6.763
 3020SOL    HW1 9959   4.727   3.601   6.827
 3020SOL    HW2 9960   4.793   3.559   6.683
 3021SOL     OW 9961   2.824   6.695   4.482
 3021SOL    HW1 9962   2.804   6.743   4.568
 3021SOL    HW2 9963   2.871   6.609   4.503
 3022SOL     OW 9964   3.935   6.039   3.870
 3022SOL    HW1 9965   3.948   5.948   3.830
 3022SOL    HW2 9966   3.897   6.100   3.801
 3023SOL     OW 9967   3.917   0.127   2.772
 3023SOL    HW1 9968   3.963   0.114   2.685
 3023SOL    HW2 9969   3.980   0.107   2.847
 3024SOL     OW 9970   6.374   6.042   5.209
 3024SOL    HW1 9971   6.331   5.962   5.250
 3024SOL    HW2 9972   6.371   6.119   5.273
 3025SOL     OW 9973   4.099   5.805   0.423
 3025SOL    HW1 9974   4.062   5.889   0.383
 3025SOL    HW2 9975   4.069   5.796   0.518
 3026SOL     OW 9976   6.689   1.025   0.330
 3026SOL    HW1 9977   6.738   1.014   0.243
 3026SOL    HW2 9978   6.756   1.033   0.404
 3027SOL     OW 9979   4.302   1.405   2.137
 3027SOL    HW1 9980   4.209   1.384   2.168
 3027SOL    HW2 9981   4.310   1.383   2.040
 3028SOL     OW 9982   1.750   4.082   6.428
 3028SOL    HW1 9983   1.840   4.122   6.409
 3028SOL    HW2 9984   1.718   4.032   6.348
 3029SOL     OW 9985   0.342   1.976   3.675
 3029SOL    HW1 9986   0.412   1.995   3.744
 3029SOL    HW2 9987   0.375   2.004   3.585
 3030SOL     OW 9988   1.378   4.246   0.816
 3030SOL    HW1 9989   1.467   4.200   0.826
 3030SOL    HW2 9990   1.317   4.189   0.762
 3031SOL     OW 9991   1.539   5.403   1.482
 3031SOL    HW1 9992   1.637   5.407   1.462
 3031SOL    HW2 9993   1.490   5.370   1.402
 3032SOL     OW 9994   1.681   6.621   3.363
 3032SOL    HW1 9995   1.734   6.705   3.368
 3032SOL    HW2 9996   1.714   6.564   3.288
 3033SOL     OW 9997   6.366   2.377   3.669
 3033SOL    HW1 9998   6.300   2.314   3.711
 3033SOL    HW2 9999   6.436   2.402   3.736
 3034SOL     OW10000   0.931   5.697   3.590
 3034SOL    HW110001   0.950   5.778   3.535
 3034SOL    HW210002   0.844   5.710   3.638
 3035SOL     OW10003   1.336   2.897   6.283
 3035SOL    HW110004   1.308   2.941   6.198
 3035SOL    HW210005   1.257   2.855   6.327
 3036SOL     OW10006   1.295   2.427   5.893
 3036SOL    HW110007   1.353   2.486   5.838
 3036SOL    HW210008   1.239   2.483   5.954
 3037SOL     OW10009   0.293   5.479   5.513
 3037SOL    HW110010   0.322   5.385   5.533
 3037SOL    HW210011   0.323   5.540   5.586
 3038SOL     OW10012   4.837   5.396   6.086
 3038SOL    HW110013   4.935   5.401   6.070
 3038SOL    HW210014   4.788   5.437   6.008
 3039SOL     OW10015   6.514   3.349   6.762
 3039SOL    HW110016   6.425   3.304   6.767
 3039SOL    HW210017   6.559   3.325   6.675
 3040SOL     OW10018   3.657   4.085   6.124
 3040SOL    HW110019   3.561   4.115   6.129
 3040SOL    HW210020   3.667   3.999   6.174
 3041SOL     OW10021   1.344   4.269   5.200
 3041SOL    HW110022   1.367   4.278   5.297
 3041SOL    HW210023   1.280   4.193   5.187
 3042SOL     OW10024   6.978   5.182   2.248
 3042SOL    HW110025   6.891   5.154   2.288
 3042SOL    HW210026   0.027   5.146   2.303
 3043SOL     OW10027   3.119   3.755   0.342
 3043SOL    HW110028   3.043   3.727   0.283
 3043SOL    HW210029   3.089   3.829   0.402
 3044SOL     OW10030   3.193   3.729   5.728
 3044SOL    HW110031   3.240   3.645   5.754
 3044SOL    HW210032   3.094   3.715   5.737
 3045SOL     OW10033   4.574   0.640   3.605
 3045SOL    HW110034   4.632   0.716   3.634
 3045SOL    HW210035   4.521   0.607   3.683
 3046SOL     OW10036   4.701   5.963   0.013
 3046SOL    HW110037   4.704   5.872   6.999
 3046SOL    HW210038   4.608   5.982   0.046
 3047SOL     OW10039   6.256   6.607   0.761
 3047SOL    HW110040   6.217   6.692   0.725
 3047SOL    HW210041   6.326   6.629   0.829
 3048SOL     OW10042   4.506   3.231   0.890
 3048SOL    HW110043   4.536   3.190   0.804
 3048SOL    HW210044   4.425   3.288   0.874
 3049SOL     OW10045   0.841   0.603   4.645
 3049SOL    HW110046   0.908   0.583   4.573
 3049SOL    HW210047   0.851   0.698   4.675
 3050SOL     OW10048   2.373   2.594   1.646
 3050SOL    HW110049   2.442   2.667   1.653
 3050SOL    HW210050   2.412   2.518   1.595
 3051SOL     OW10051   2.915   6.934   6.133
 3051SOL    HW110052   2.888   6.853   6.080
 3051SOL    HW210053   2.839   6.999   6.134
 3052SOL     OW10054   5.625   6.213   2.478
 3052SOL    HW110055   5.620   6.308   2.508
 3052SOL    HW210056   5.687   6.206   2.400
 3053SOL     OW10057   1.391   4.442   0.522
 3053SOL    HW110058   1.357   4.486   0.604
 3053SOL    HW210059   1.316   4.394   0.476
 3054SOL     OW10060   5.644   0.928   3.543
 3054SOL    HW110061   5.555   0.909   3.586
 3054SOL    HW210062   5.640   1.014   3.494
 3055SOL     OW10063   6.357   6.985   6.208
 3055SOL    HW110064   6.276   6.929   6.229
 3055SOL    HW210065   6.440   6.936   6.234
 3056SOL     OW10066   5.300   1.593   5.835
 3056SOL    HW110067   5.310   1.675   5.779
 3056SOL    HW210068   5.386   1.542   5.833
 3057SOL     OW10069   5.802   6.153   3.836
 3057SOL    HW110070   5.846   6.212   3.904
 3057SOL    HW210071   5.820   6.057   3.858
 3058SOL     OW10072   6.359   4.124   1.124
 3058SOL    HW110073   6.266   4.116   1.086
 3058SOL    HW210074   6.354   4.135   1.223
 3059SOL     OW10075   2.559   2.503   4.346
 3059SOL    HW110076   2.519   2.413   4.328
 3059SOL    HW210077   2.645   2.491   4.396
 3060SOL     OW10078   2.608   4.838   6.563
 3060SOL    HW110079   2.575   4.926   6.528
 3060SOL    HW210080   2.531   4.784   6.596
 3061SOL     OW10081   5.776   4.894   6.085
 3061SOL    HW110082   5.854   4.850   6.131
 3061SOL    HW210083   5.768   4.988   6.117
 3062SOL     OW10084   4.066   4.986   1.225
 3062SOL    HW110085   3.968   4.971   1.240
 3062SOL    HW210086   4.100   5.052   1.293
 3063SOL     OW10087   0.570   4.674   0.604
 3063SOL    HW110088   0.553   4.576   0.592
 3063SOL    HW210089   0.493   4.716   0.651
 3064SOL     OW10090   4.409   3.032   0.104
 3064SOL    HW110091   4.326   2.977   0.109
 3064SOL    HW210092   4.489   2.973   0.115
 3065SOL     OW10093   0.840   1.628   6.378
 3065SOL    HW110094   0.927   1.635   6.428
 3065SOL    HW210095   0.836   1.699   6.308
 3066SOL     OW10096   4.645   5.307   5.706
 3066SOL    HW110097   4.716   5.257   5.655
 3066SOL    HW210098   4.689   5.369   5.771
 3067SOL     OW10099   2.191   1.816   0.330
 3067SOL    HW110100   2.127   1.831   0.255
 3067SOL    HW210101   2.266   1.882   0.323
 3068SOL     OW10102   0.612   0.941   1.491
 3068SOL    HW110103   0.514   0.954   1.505
 3068SOL    HW210104   0.656   1.029   1.472
 3069SOL     OW10105   5.634   6.815   3.343
 3069SOL    HW110106   5.537   6.830   3.363
 3069SOL    HW210107   5.668   6.740   3.400
 3070SOL     OW10108   2.965   1.359   6.918
 3070SOL    HW110109   2.890   1.297   6.897
 3070SOL    HW210110   2.954   1.396   7.010
 3071SOL     OW10111   6.521   4.229   3.786
 3071SOL    HW110112   6.510   4.323   3.753
 3071SOL    HW210113   6.610   4.220   3.831
 3072SOL     OW10114   2.080   5.495   6.838
 3072SOL    HW110115   1.992   5.477   6.880
 3072SOL    HW210116   2.070   5.501   6.739
 3073SOL     OW10117   0.015   4.532   0.979
 3073SOL    HW110118   0.010   4.628   1.005
 3073SOL    HW210119   0.090   4.519   0.914
 3074SOL     OW10120   0.664   4.321   1.302
 3074SOL    HW110121   0.584   4.340   1.358
 3074SOL    HW210122   0.747   4.334   1.357
 3075SOL     OW10123   2.582   4.835   3.762
 3075SOL    HW110124   2.483   4.827   3.751
 3075SOL    HW210125   2.626   4.758   3.716
 3076SOL     OW10126   0.185   1.044   5.109
 3076SOL    HW110127   0.199   1.143   5.098
 3076SOL    HW210128   0.088   1.026   5.126
 3077SOL     OW10129   6.356   3.673   1.770
 3077SOL    HW110130   6.412   3.667   1.853
 3077SOL    HW210131   6.280   3.736   1.787
 3078SOL     OW10132   6.729   3.145   2.287
 3078SOL    HW110133   6.750   3.240   2.312
 3078SOL    HW210134   6.707   3.093   2.370
 3079SOL     OW10135   2.795   2.383   4.472
 3079SOL    HW110136   2.778   2.318   4.398
 3079SOL    HW210137   2.884   2.363   4.513
 3080SOL     OW10138   4.634   4.382   1.752
 3080SOL    HW110139   4.702   4.389   1.825
 3080SOL    HW210140   4.551   4.340   1.788
 3081SOL     OW10141   0.990   4.171   0.153
 3081SOL    HW110142   1.047   4.186   0.072
 3081SOL    HW210143   0.900   4.211   0.138
 3082SOL     OW10144   2.838   5.336   4.791
 3082SOL    HW110145   2.764   5.304   4.732
 3082SOL    HW210146   2.856   5.268   4.862
 3083SOL     OW10147   2.545   5.341   2.207
 3083SOL    HW110148   2.639   5.335   2.239
 3083SOL    HW210149   2.537   5.412   2.138
 3084SOL     OW10150   0.933   3.373   2.797
 3084SOL    HW110151   1.027   3.373   2.762
 3084SOL    HW210152   0.869   3.380   2.720
 3085SOL     OW10153   5.039   4.702   0.334
 3085SOL    HW110154   5.024   4.708   0.433
 3085SOL    HW210155   5.119   4.644   0.316
 3086SOL     OW10156   5.203   1.040   0.338
 3086SOL    HW110157   5.222   0.946   0.368
 3086SOL    HW210158   5.110   1.065   0.366
 3087SOL     OW10159   2.266   6.248   2.251
 3087SOL    HW110160   2.338   6.272   2.316
 3087SOL    HW210161   2.221   6.331   2.218
 3088SOL     OW10162   0.866   3.289   5.647
 3088SOL    HW110163   0.832   3.314   5.738
 3088SOL    HW210164   0.810   3.334   5.577
 3089SOL     OW10165   4.760   1.098   4.536
 3089SOL    HW110166   4.803   1.092   4.626
 3089SOL    HW210167   4.808   1.167   4.481
 3090SOL     OW10168   1.216   1.395   2.120
 3090SOL    HW110169   1.172   1.424   2.205
 3090SOL    HW210170   1.149   1.351   2.061
 3091SOL     OW10171   1.059   1.311   0.463
 3091SOL    HW110172   1.052   1.228   0.407
 3091SOL    HW210173   1.022   1.293   0.554
 3092SOL     OW10174   5.221   0.116   2.263
 3092SOL    HW110175   5.244   0.140   2.357
 3092SOL    HW210176   5.142   0.170   2.233
 3093SOL     OW10177   5.749   5.857   6.087
 3093SOL    HW110178   5.800   5.941   6.107
 3093SOL    HW210179   5.812   5.790   6.047
 3094SOL     OW10180   2.425   1.116   4.425
 3094SOL    HW110181   2.471   1.134   4.512
 3094SOL    HW210182   2.493   1.100   4.354
 3095SOL     OW10183   2.761   3.170   5.377
 3095SOL    HW110184   2.737   3.266   5.363
 3095SOL    HW210185   2.704   3.112   5.319
 3096SOL     OW10186   0.309   3.335   5.140
 3096SOL    HW110187   0.328   3.294   5.229
 3096SOL    HW210188   0.296   3.433   5.151
 3097SOL     OW10189   5.665   2.818   6.788
 3097SOL    HW110190   5.664   2.720   6.805
 3097SOL    HW210191   5.632   2.867   6.869
 3098SOL     OW10192   2.041   2.395   2.583
 3098SOL    HW110193   2.039   2.341   2.499
 3098SOL    HW210194   1.950   2.397   2.624
 3099SOL     OW10195   0.641   6.050   3.267
 3099SOL    HW110196   0.701   5.973   3.247
 3099SOL    HW210197   0.634   6.061   3.366
 3100SOL     OW10198   6.569   6.162   2.715
 3100SOL    HW110199   6.520   6.142   2.631
 3100SOL    HW210200   6.662   6.191   2.692
 3101SOL     OW10201   5.069   0.047   5.577
 3101SOL    HW110202   5.119   0.102   5.644
 3101SOL    HW210203   5.031   0.107   5.507
 3102SOL     OW10204   0.102   5.522   0.434
 3102SOL    HW110205   0.188   5.526   0.486
 3102SOL    HW210206   0.077   5.614   0.404
 3103SOL     OW10207   4.042   0.415   1.190
 3103SOL    HW110208   4.025   0.332   1.136
 3103SOL    HW210209   4.137   0.417   1.220
 3104SOL     OW10210   4.560   0.158   6.650
 3104SOL    HW110211   4.588   0.112   6.735
 3104SOL    HW210212   4.586   0.102   6.572
 3105SOL     OW10213   5.131   3.422   1.040
 3105SOL    HW110214   5.230   3.419   1.024
 3105SOL    HW210215   5.087   3.472   0.966
 3106SOL     OW10216   5.133   1.173   5.178
 3106SOL    HW110217   5.076   1.202   5.101
 3106SOL    HW210218   5.153   1.253   5.235
 3107SOL     OW10219   4.061   1.628   4.299
 3107SOL    HW110220   4.040   1.609   4.395
 3107SOL    HW210221   3.977   1.635   4.246
 3108SOL     OW10222   2.282   4.412   4.255
 3108SOL    HW110223   2.238   4.493   4.294
 3108SOL    HW210224   2.334   4.365   4.326
 3109SOL     OW10225   6.157   0.446   5.029
 3109SOL    HW110226   6.135   0.470   5.124
 3109SOL    HW210227   6.076   0.412   4.983
 3110SOL     OW10228   2.621   4.594   3.666
 3110SOL    HW110229   2.628   4.576   3.568
 3110SOL    HW210230   2.554   4.531   3.706
 3111SOL     OW10231   6.392   4.853   3.990
 3111SOL    HW110232   6.406   4.873   4.087
 3111SOL    HW210233   6.299   4.877   3.964
 3112SOL     OW10234   3.562   2.885   6.579
 3112SOL    HW110235   3.506   2.961   6.547
 3112SOL    HW210236   3.633   2.865   6.511
 3113SOL     OW10237   3.268   5.598   2.474
 3113SOL    HW110238   3.335   5.537   2.518
 3113SOL    HW210239   3.209   5.639   2.544
 3114SOL     OW10240   3.631   1.020   0.666
 3114SOL    HW110241   3.580   1.035   0.581
 3114SOL    HW210242   3.690   0.940   0.655
 3115SOL     OW10243   4.110   4.310   5.273
 3115SOL    HW110244   4.164   4.240   5.321
 3115SOL    HW210245   4.169   4.360   5.210
 3116SOL     OW10246   0.799   2.283   0.708
 3116SOL    HW110247   0.733   2.208   0.700
 3116SOL    HW210248   0.867   2.261   0.778
 3117SOL     OW10249   4.808   2.429   6.053
 3117SOL    HW110250   4.902   2.431   6.088
 3117SOL    HW210251   4.763   2.345   6.086
 3118SOL     OW10252   1.336   0.214   3.267
 3118SOL    HW110253   1.254   0.174   3.307
 3118SOL    HW210254   1.408   0.146   3.264
 3119SOL     OW10255   3.006   2.440   5.588
 3119SOL    HW110256   3.067   2.448   5.509
 3119SOL    HW210257   2.988   2.531   5.625
 3120SOL     OW10258   3.312   0.429   5.307
 3120SOL    HW110259   3.350   0.337   5.310
 3120SOL    HW210260   3.353   0.479   5.230
 3121SOL     OW10261   5.249   2.072   4.276
 3121SOL    HW110262   5.167   2.102   4.325
 3121SOL    HW210263   5.269   2.138   4.204
 3122SOL     OW10264   4.431   4.571   4.529
 3122SOL    HW110265   4.395   4.590   4.438
 3122SOL    HW210266   4.357   4.539   4.588
 3123SOL     OW10267   1.957   0.425   3.602
 3123SOL    HW110268   2.034   0.361   3.593
 3123SOL    HW210269   1.957   0.488   3.524
 3124SOL     OW10270   5.574   6.443   4.448
 3124SOL    HW110271   5.649   6.438   4.383
 3124SOL    HW210272   5.604   6.496   4.528
 3125SOL     OW10273   0.959   2.924   5.361
 3125SOL    HW110274   1.010   3.008   5.342
 3125SOL    HW210275   1.007   2.846   5.322
 3126SOL     OW10276   5.676   4.989   5.308
 3126SOL    HW110277   5.694   5.040   5.224
 3126SOL    HW210278   5.670   4.891   5.288
 3127SOL     OW10279   0.919   2.311   4.941
 3127SOL    HW110280   0.973   2.391   4.915
 3127SOL    HW210281   0.822   2.336   4.945
 3128SOL     OW10282   3.069   0.933   0.620
 3128SOL    HW110283   2.976   0.899   0.609
 3128SOL    HW210284   3.132   0.855   0.625
 3129SOL     OW10285   5.217   2.996   0.978
 3129SOL    HW110286   5.167   3.007   0.892
 3129SOL    HW210287   5.172   3.046   1.051
 3130SOL     OW10288   1.671   4.122   0.982
 3130SOL    HW110289   1.600   4.129   1.052
 3130SOL    HW210290   1.630   4.089   0.897
 3131SOL     OW10291   0.061   3.309   2.446
 3131SOL    HW110292   0.133   3.258   2.398
 3131SOL    HW210293   0.063   3.286   2.543
 3132SOL     OW10294   4.497   4.696   6.794
 3132SOL    HW110295   4.528   4.616   6.743
 3132SOL    HW210296   4.552   4.705   6.878
 3133SOL     OW10297   3.412   0.933   3.317
 3133SOL    HW110298   3.363   0.972   3.239
 3133SOL    HW210299   3.346   0.902   3.385
 3134SOL     OW10300   3.749   4.890   2.170
 3134SOL    HW110301   3.788   4.800   2.187
 3134SOL    HW210302   3.694   4.888   2.087
 3135SOL     OW10303   5.757   6.994   6.191
 3135SOL    HW110304   5.856   6.982   6.192
 3135SOL    HW210305   5.712   6.907   6.214
 3136SOL     OW10306   5.962   1.077   2.528
 3136SOL    HW110307   6.058   1.052   2.519
 3136SOL    HW210308   5.939   1.148   2.461
 3137SOL     OW10309   0.031   0.439   2.038
 3137SOL    HW110310   0.106   0.389   1.995
 3137SOL    HW210311   7.017   0.502   1.972
 3138SOL     OW10312   5.615   5.572   3.527
 3138SOL    HW110313   5.518   5.549   3.520
 3138SOL    HW210314   5.646   5.610   3.439
 3139SOL     OW10315   3.503   4.797   1.320
 3139SOL    HW110316   3.500   4.875   1.383
 3139SOL    HW210317   3.548   4.824   1.235
 3140SOL     OW10318   6.821   6.212   5.558
 3140SOL    HW110319   6.742   6.165   5.597
 3140SOL    HW210320   6.900   6.152   5.559
 3141SOL     OW10321   0.138   2.093   0.508
 3141SOL    HW110322   0.102   2.161   0.445
 3141SOL    HW210323   0.096   2.106   0.598
 3142SOL     OW10324   4.293   0.569   2.881
 3142SOL    HW110325   4.342   0.573   2.969
 3142SOL    HW210326   4.245   0.655   2.866
 3143SOL     OW10327   6.607   1.778   7.017
 3143SOL    HW110328   6.604   1.679   7.002
 3143SOL    HW210329   6.523   1.808   0.035
 3144SOL     OW10330   4.153   4.022   6.949
 3144SOL    HW110331   4.061   4.047   6.979
 3144SOL    HW210332   4.221   4.073   7.003
 3145SOL     OW10333   1.900   6.586   1.901
 3145SOL    HW110334   1.962   6.545   1.834
 3145SOL    HW210335   1.931   6.679   1.923
 3146SOL     OW10336   1.001   0.900   5.022
 3146SOL    HW110337   1.016   0.947   4.935
 3146SOL    HW210338   1.059   0.940   5.093
 3147SOL     OW10339   3.462   5.285   6.325
 3147SOL    HW110340   3.522   5.359   6.297
 3147SOL    HW210341   3.409   5.312   6.405
 3148SOL     OW10342   0.167   6.992   3.317
 3148SOL    HW110343   0.215   0.042   3.275
 3148SOL    HW210344   0.091   7.026   3.372
 3149SOL     OW10345   3.003   1.185   6.578
 3149SOL    HW110346   3.038   1.147   6.664
 3149SOL    HW210347   2.909   1.153   6.563
 3150SOL     OW10348   6.544   5.372   5.933
 3150SOL    HW110349   6.542   5.448   5.869
 3150SOL    HW210350   6.506   5.402   6.021
 3151SOL     OW10351   6.885   1.870   6.226
 3151SOL    HW110352   6.849   1.850   6.135
 3151SOL    HW210353   6.818   1.844   6.296
 3152SOL     OW10354   1.351   4.354   6.474
 3152SOL    HW110355   1.384   4.378   6.566
 3152SOL    HW210356   1.390   4.267   6.446
 3153SOL     OW10357   6.321   4.408   0.634
 3153SOL    HW110358   6.295   4.500   0.664
 3153SOL    HW210359   6.353   4.355   0.712
 3154SOL     OW10360   5.830   0.956   1.636
 3154SOL    HW110361   5.876   0.917   1.557
 3154SOL    HW210362   5.877   1.040   1.663
 3155SOL     OW10363   6.648   4.463   0.732
 3155SOL    HW110364   6.702   4.504   0.659
 3155SOL    HW210365   6.615   4.373   0.704
 3156SOL     OW10366   3.319   4.028   2.111
 3156SOL    HW110367   3.266   4.062   2.188
 3156SOL    HW210368   3.284   3.939   2.083
 3157SOL     OW10369   1.091   2.109   4.894
 3157SOL    HW110370   1.074   2.035   4.959
 3157SOL    HW210371   1.030   2.186   4.915
 3158SOL     OW10372   2.522   1.945   5.370
 3158SOL    HW110373   2.599   1.928   5.431
 3158SOL    HW210374   2.469   1.861   5.359
 3159SOL     OW10375   5.286   0.089   0.537
 3159SOL    HW110376   5.310   0.044   0.623
 3159SOL    HW210377   5.342   0.171   0.525
 3160SOL     OW10378   1.886   0.030   5.222
 3160SOL    HW110379   1.865   6.965   5.188
 3160SOL    HW210380   1.943   0.078   5.155
 3161SOL     OW10381   1.969   2.821   2.585
 3161SOL    HW110382   1.901   2.892   2.602
 3161SOL    HW210383   1.940   2.766   2.507
 3162SOL     OW10384   2.402   5.355   0.201
 3162SOL    HW110385   2.385   5.357   0.299
 3162SOL    HW210386   2.395   5.447   0.164
 3163SOL     OW10387   3.987   3.619   0.300
 3163SOL    HW110388   3.986   3.703   0.247
 3163SOL    HW210389   4.038   3.548   0.250
 3164SOL     OW10390   3.711   5.889   2.234
 3164SOL    HW110391   3.753   5.809   2.193
 3164SOL    HW210392   3.655   5.937   2.166
 3165SOL     OW10393   1.267   5.141   0.965
 3165SOL    HW110394   1.227   5.082   0.895
 3165SOL    HW210395   1.195   5.173   1.027
 3166SOL     OW10396   4.358   0.981   4.016
 3166SOL    HW110397   4.338   1.001   4.112
 3166SOL    HW210398   4.402   1.060   3.974
 3167SOL     OW10399   5.926   4.558   0.495
 3167SOL    HW110400   5.833   4.553   0.458
 3167SOL    HW210401   5.970   4.468   0.489
 3168SOL     OW10402   5.537   2.098   1.418
 3168SOL    HW110403   5.600   2.038   1.467
 3168SOL    HW210404   5.453   2.048   1.397
 3169SOL     OW10405   1.969   4.601   2.939
 3169SOL    HW110406   1.949   4.653   3.021
 3169SOL    HW210407   1.973   4.503   2.961
 3170SOL     OW10408   4.442   5.931   2.118
 3170SOL    HW110409   4.360   5.966   2.164
 3170SOL    HW210410   4.484   6.005   2.065
 3171SOL     OW10411   5.400   2.224   1.843
 3171SOL    HW110412   5.352   2.291   1.901
 3171SOL    HW210413   5.454   2.273   1.774
 3172SOL     OW10414   0.533   5.357   7.006
 3172SOL    HW110415   0.538   5.430   0.048
 3172SOL    HW210416   0.449   5.368   6.953
 3173SOL     OW10417   2.744   2.663   0.100
 3173SOL    HW110418   2.650   2.627   0.095
 3173SOL    HW210419   2.780   2.674   0.007
 3174SOL     OW10420   2.231   2.532   6.197
 3174SOL    HW110421   2.303   2.577   6.249
 3174SOL    HW210422   2.143   2.549   6.240
 3175SOL     OW10423   5.873   1.469   2.266
 3175SOL    HW110424   5.806   1.539   2.290
 3175SOL    HW210425   5.962   1.511   2.252
 3176SOL     OW10426   0.242   3.107   5.357
 3176SOL    HW110427   0.327   3.080   5.312
 3176SOL    HW210428   0.167   3.052   5.320
 3177SOL     OW10429   5.194   4.322   4.053
 3177SOL    HW110430   5.246   4.241   4.027
 3177SOL    HW210431   5.258   4.393   4.086
 3178SOL     OW10432   6.374   1.878   0.078
 3178SOL    HW110433   6.348   1.874   0.174
 3178SOL    HW210434   6.379   1.973   0.048
 3179SOL     OW10435   1.616   1.537   2.131
 3179SOL    HW110436   1.714   1.515   2.132
 3179SOL    HW210437   1.564   1.455   2.153
 3180SOL     OW10438   5.729   6.254   0.409
 3180SOL    HW110439   5.774   6.166   0.393
 3180SOL    HW210440   5.630   6.240   0.420
 3181SOL     OW10441   6.614   1.089   4.288
 3181SOL    HW110442   6.602   0.990   4.279
 3181SOL    HW210443   6.632   1.111   4.384
 3182SOL     OW10444   2.893   0.663   6.366
 3182SOL    HW110445   2.909   0.599   6.441
 3182SOL    HW210446   2.829   0.734   6.395
 3183SOL     OW10447   4.512   4.822   2.386
 3183SOL    HW110448   4.529   4.792   2.292
 3183SOL    HW210449   4.592   4.871   2.421
 3184SOL     OW10450   0.426   1.868   3.131
 3184SOL    HW110451   0.331   1.878   3.161
 3184SOL    HW210452   0.442   1.928   3.053
 3185SOL     OW10453   6.234   6.513   5.809
 3185SOL    HW110454   6.178   6.486   5.888
 3185SOL    HW210455   6.330   6.516   5.836
 3186SOL     OW10456   2.591   1.489   0.303
 3186SOL    HW110457   2.673   1.432   0.302
 3186SOL    HW210458   2.513   1.435   0.335
 3187SOL     OW10459   3.483   5.247   2.194
 3187SOL    HW110460   3.431   5.272   2.112
 3187SOL    HW210461   3.455   5.156   2.225
 3188SOL     OW10462   2.099   5.742   4.677
 3188SOL    HW110463   2.189   5.699   4.676
 3188SOL    HW210464   2.028   5.672   4.684
 3189SOL     OW10465   1.809   1.373   0.172
 3189SOL    HW110466   1.804   1.372   0.271
 3189SOL    HW210467   1.745   1.441   0.136
 3190SOL     OW10468   6.702   5.763   6.468
 3190SOL    HW110469   6.702   5.675   6.515
 3190SOL    HW210470   6.737   5.751   6.375
 3191SOL     OW10471   4.944   5.675   1.932
 3191SOL    HW110472   5.026   5.618   1.933
 3191SOL    HW210473   4.870   5.628   1.979
 3192SOL     OW10474   0.167   2.774   0.748
 3192SOL    HW110475   0.107   2.698   0.775
 3192SOL    HW210476   0.111   2.854   0.725
 3193SOL     OW10477   4.167   1.145   4.950
 3193SOL    HW110478   4.149   1.088   4.870
 3193SOL    HW210479   4.208   1.090   5.023
 3194SOL     OW10480   0.883   1.106   5.571
 3194SOL    HW110481   0.937   1.175   5.522
 3194SOL    HW210482   0.819   1.152   5.633
 3195SOL     OW10483   0.437   1.302   1.506
 3195SOL    HW110484   0.437   1.401   1.495
 3195SOL    HW210485   0.503   1.262   1.443
 3196SOL     OW10486   6.936   0.773   6.471
 3196SOL    HW110487   7.001   0.849   6.471
 3196SOL    HW210488   6.856   0.798   6.415
 3197SOL     OW10489   2.435   6.884   5.329
 3197SOL    HW110490   2.336   6.898   5.338
 3197SOL    HW210491   2.454   6.786   5.317
 3198SOL     OW10492   6.042   2.357   3.518
 3198SOL    HW110493   6.066   2.428   3.453
 3198SOL    HW210494   6.063   2.387   3.611
 3199SOL     OW10495   5.668   4.961   3.040
 3199SOL    HW110496   5.723   5.041   3.018
 3199SOL    HW210497   5.704   4.881   2.993
 3200SOL     OW10498   6.284   3.348   2.859
 3200SOL    HW110499   6.224   3.270   2.873
 3200SOL    HW210500   6.374   3.316   2.828
 3201SOL     OW10501   6.042   4.954   3.603
 3201SOL    HW110502   6.111   4.945   3.674
 3201SOL    HW210503   5.953   4.927   3.640
 3202SOL     OW10504   1.055   5.583   0.853
 3202SOL    HW110505   1.030   5.656   0.789
 3202SOL    HW210506   1.104   5.512   0.803
 3203SOL     OW10507   5.330   1.201   1.480
 3203SOL    HW110508   5.383   1.137   1.535
 3203SOL    HW210509   5.390   1.270   1.440
 3204SOL     OW10510   2.982   1.155   2.939
 3204SOL    HW110511   3.054   1.164   3.008
 3204SOL    HW210512   3.022   1.155   2.848
 3205SOL     OW10513   4.790   2.343   5.492
 3205SOL    HW110514   4.849   2.368   5.569
 3205SOL    HW210515   4.733   2.421   5.467
 3206SOL     OW10516   2.493   3.865   1.217
 3206SOL    HW110517   2.453   3.774   1.227
 3206SOL    HW210518   2.466   3.903   1.129
 3207SOL     OW10519   1.273   1.137   6.385
 3207SOL    HW110520   1.295   1.101   6.475
 3207SOL    HW210521   1.317   1.226   6.373
 3208SOL     OW10522   5.501   6.039   6.465
 3208SOL    HW110523   5.584   5.985   6.474
 3208SOL    HW210524   5.421   5.979   6.470
 3209SOL     OW10525   3.384   5.384   4.888
 3209SOL    HW110526   3.345   5.460   4.941
 3209SOL    HW210527   3.372   5.299   4.938
 3210SOL     OW10528   0.847   5.139   1.626
 3210SOL    HW110529   0.885   5.054   1.663
 3210SOL    HW210530   0.902   5.216   1.656
 3211SOL     OW10531   1.967   4.817   0.311
 3211SOL    HW110532   1.880   4.779   0.281
 3211SOL    HW210533   1.976   4.806   0.410
 3212SOL     OW10534   3.213   6.745   2.106
 3212SOL    HW110535   3.284   6.677   2.087
 3212SOL    HW210536   3.160   6.761   2.023
 3213SOL     OW10537   1.781   0.080   6.125
 3213SOL    HW110538   1.754   0.014   6.054
 3213SOL    HW210539   1.857   0.135   6.092
 3214SOL     OW10540   4.776   6.655   2.573
 3214SOL    HW110541   4.701   6.610   2.622
 3214SOL    HW210542   4.863   6.616   2.603
 3215SOL     OW10543   0.979   3.638   1.096
 3215SOL    HW110544   0.900   3.583   1.071
 3215SOL    HW210545   1.058   3.612   1.040
 3216SOL     OW10546   5.700   5.109   1.142
 3216SOL    HW110547   5.662   5.021   1.170
 3216SOL    HW210548   5.698   5.116   1.042
 3217SOL     OW10549   0.248   5.593   2.331
 3217SOL    HW110550   0.240   5.681   2.379
 3217SOL    HW210551   0.201   5.599   2.243
 3218SOL     OW10552   5.764   2.388   3.485
 3218SOL    HW110553   5.735   2.325   3.558
 3218SOL    HW210554   5.862   2.376   3.468
 3219SOL     OW10555   6.932   0.742   4.716
 3219SOL    HW110556   6.851   0.777   4.670
 3219SOL    HW210557   7.014   0.769   4.666
 3220SOL     OW10558   0.673   5.901   6.393
 3220SOL    HW110559   0.656   5.912   6.490
 3220SOL    HW210560   0.586   5.907   6.343
 3221SOL     OW10561   3.182   6.547   2.674
 3221SOL    HW110562   3.206   6.458   2.713
 3221SOL    HW210563   3.101   6.583   2.719
 3222SOL     OW10564   3.033   1.101   2.004
 3222SOL    HW110565   2.986   1.029   2.055
 3222SOL    HW210566   3.121   1.067   1.972
 3223SOL     OW10567   2.319   6.389   0.267
 3223SOL    HW110568   2.269   6.474   0.252
 3223SOL    HW210569   2.373   6.396   0.351
 3224SOL     OW10570   4.983   2.413   4.984
 3224SOL    HW110571   4.956   2.394   5.079
 3224SOL    HW210572   5.073   2.457   4.983
 3225SOL     OW10573   4.243   1.589   4.907
 3225SOL    HW110574   4.259   1.518   4.975
 3225SOL    HW210575   4.175   1.558   4.841
 3226SOL     OW10576   1.777   0.197   1.468
 3226SOL    HW110577   1.764   0.234   1.560
 3226SOL    HW210578   1.707   0.233   1.407
 3227SOL     OW10579   3.400   3.118   6.489
 3227SOL    HW110580   3.400   3.081   6.396
 3227SOL    HW210581   3.308   3.111   6.528
 3228SOL     OW10582   0.055   4.012   0.349
 3228SOL    HW110583   0.090   3.918   0.356
 3228SOL    HW210584   7.002   4.022   0.409
 3229SOL     OW10585   3.554   0.606   5.368
 3229SOL    HW110586   3.551   0.548   5.287
 3229SOL    HW210587   3.462   0.619   5.404
 3230SOL     OW10588   1.615   5.387   5.781
 3230SOL    HW110589   1.679   5.311   5.797
 3230SOL    HW210590   1.649   5.444   5.707
 3231SOL     OW10591   2.464   0.863   2.754
 3231SOL    HW110592   2.502   0.810   2.678
 3231SOL    HW210593   2.515   0.948   2.765
 3232SOL     OW10594   4.295   5.809   3.974
 3232SOL    HW110595   4.247   5.890   4.007
 3232SOL    HW210596   4.248   5.727   4.007
 3233SOL     OW10597   7.013   2.819   0.495
 3233SOL    HW110598   7.017   2.896   0.559
 3233SOL    HW210599   6.919   2.805   0.465
 3234SOL     OW10600   1.503   2.864   0.431
 3234SOL    HW110601   1.550   2.782   0.465
 3234SOL    HW210602   1.551   2.945   0.463
 3235SOL     OW10603   6.598   6.873   2.192
 3235SOL    HW110604   6.652   6.957   2.200
 3235SOL    HW210605   6.546   6.875   2.107
 3236SOL     OW10606   1.171   4.553   0.651
 3236SOL    HW110607   1.083   4.532   0.693
 3236SOL    HW210608   1.166   4.645   0.611
 3237SOL     OW10609   6.191   1.489   3.040
 3237SOL    HW110610   6.131   1.412   3.061
 3237SOL    HW210611   6.246   1.468   2.959
 3238SOL     OW10612   6.432   5.373   0.005
 3238SOL    HW110613   6.379   5.288   0.004
 3238SOL    HW210614   6.516   5.359   0.057
 3239SOL     OW10615   6.828   6.911   3.757
 3239SOL    HW110616   6.743   6.893   3.805
 3239SOL    HW210617   6.809   6.926   3.660
 3240SOL     OW10618   0.469   0.466   5.597
 3240SOL    HW110619   0.472   0.371   5.564
 3240SOL    HW210620   0.508   0.527   5.528
 3241SOL     OW10621   4.989   1.532   5.830
 3241SOL    HW110622   4.960   1.555   5.923
 3241SOL    HW210623   5.026   1.613   5.786
 3242SOL     OW10624   4.695   3.329   5.822
 3242SOL    HW110625   4.670   3.241   5.783
 3242SOL    HW210626   4.641   3.401   5.779
 3243SOL     OW10627   4.539   5.429   0.245
 3243SOL    HW110628   4.594   5.416   0.328
 3243SOL    HW210629   4.551   5.522   0.212
 3244SOL     OW10630   5.779   6.214   0.104
 3244SOL    HW110631   5.740   6.220   0.196
 3244SOL    HW210632   5.862   6.160   0.106
 3245SOL     OW10633   4.911   1.974   4.154
 3245SOL    HW110634   4.949   1.947   4.243
 3245SOL    HW210635   4.926   1.901   4.088
 3246SOL     OW10636   6.388   0.053   2.849
 3246SOL    HW110637   6.391   0.152   2.831
 3246SOL    HW210638   6.375   0.004   2.763
 3247SOL     OW10639   6.402   4.803   2.182
 3247SOL    HW110640   6.343   4.796   2.263
 3247SOL    HW210641   6.383   4.890   2.135
 3248SOL     OW10642   5.342   2.292   2.585
 3248SOL    HW110643   5.437   2.262   2.576
 3248SOL    HW210644   5.281   2.214   2.568
 3249SOL     OW10645   3.138   4.086   4.069
 3249SOL    HW110646   3.196   4.050   3.996
 3249SOL    HW210647   3.110   4.012   4.130
 3250SOL     OW10648   5.066   0.441   2.866
 3250SOL    HW110649   5.123   0.424   2.785
 3250SOL    HW210650   5.016   0.527   2.855
 3251SOL     OW10651   2.574   1.058   4.184
 3251SOL    HW110652   2.664   1.034   4.222
 3251SOL    HW210653   2.528   0.975   4.153
 3252SOL     OW10654   2.596   0.631   2.620
 3252SOL    HW110655   2.582   0.588   2.710
 3252SOL    HW210656   2.686   0.603   2.585
 3253SOL     OW10657   4.410   3.607   0.277
 3253SOL    HW110658   4.341   3.677   0.258
 3253SOL    HW210659   4.409   3.540   0.204
 3254SOL     OW10660   5.359   6.974   6.127
 3254SOL    HW110661   5.308   6.940   6.206
 3254SOL    HW210662   5.408   6.899   6.083
 3255SOL     OW10663   5.379   6.191   1.255
 3255SOL    HW110664   5.331   6.278   1.255
 3255SOL    HW210665   5.316   6.118   1.227
 3256SOL     OW10666   3.870   1.748   1.021
 3256SOL    HW110667   3.772   1.766   1.009
 3256SOL    HW210668   3.921   1.792   0.947
 3257SOL     OW10669   2.342   1.756   2.063
 3257SOL    HW110670   2.272   1.691   2.090
 3257SOL    HW210671   2.306   1.849   2.068
 3258SOL     OW10672   3.733   5.445   3.406
 3258SOL    HW110673   3.698   5.377   3.342
 3258SOL    HW210674   3.657   5.484   3.458
 3259SOL     OW10675   5.245   5.396   4.252
 3259SOL    HW110676   5.309   5.332   4.294
 3259SOL    HW210677   5.158   5.350   4.233
 3260SOL     OW10678   1.488   3.502   1.470
 3260SOL    HW110679   1.576   3.489   1.516
 3260SOL    HW210680   1.448   3.590   1.498
 3261SOL     OW10681   5.105   0.689   1.983
 3261SOL    HW110682   5.075   0.668   2.076
 3261SOL    HW210683   5.084   0.785   1.962
 3262SOL     OW10684   3.960   2.201   1.840
 3262SOL    HW110685   3.886   2.234   1.899
 3262SOL    HW210686   3.938   2.109   1.808
 3263SOL     OW10687   3.409   1.291   3.072
 3263SOL    HW110688   3.365   1.201   3.067
 3263SOL    HW210689   3.342   1.362   3.051
 3264SOL     OW10690   1.976   5.366   1.140
 3264SOL    HW110691   1.978   5.275   1.182
 3264SOL    HW210692   2.027   5.430   1.197
 3265SOL     OW10693   5.672   6.793   6.393
 3265SOL    HW110694   5.729   6.810   6.474
 3265SOL    HW210695   5.654   6.695   6.385
 3266SOL     OW10696   2.852   4.177   6.801
 3266SOL    HW110697   2.789   4.127   6.860
 3266SOL    HW210698   2.914   4.113   6.755
 3267SOL     OW10699   2.785   6.999   1.985
 3267SOL    HW110700   2.809   0.055   2.035
 3267SOL    HW210701   2.866   6.940   1.976
 3268SOL     OW10702   1.653   4.791   1.062
 3268SOL    HW110703   1.566   4.834   1.040
 3268SOL    HW210704   1.637   4.698   1.094
 3269SOL     OW10705   0.102   5.391   1.521
 3269SOL    HW110706   0.020   5.334   1.512
 3269SOL    HW210707   0.166   5.349   1.585
 3270SOL     OW10708   1.586   3.405   6.707
 3270SOL    HW110709   1.676   3.431   6.743
 3270SOL    HW210710   1.597   3.358   6.620
 3271SOL     OW10711   6.589   3.029   1.221
 3271SOL    HW110712   6.559   2.944   1.264
 3271SOL    HW210713   6.664   3.010   1.157
 3272SOL     OW10714   2.834   4.438   6.741
 3272SOL    HW110715   2.853   4.479   6.651
 3272SOL    HW210716   2.815   4.341   6.729
 3273SOL     OW10717   6.034   4.965   6.535
 3273SOL    HW110718   6.118   4.987   6.584
 3273SOL    HW210719   5.974   5.045   6.533
 3274SOL     OW10720   5.858   0.259   1.327
 3274SOL    HW110721   5.761   0.269   1.349
 3274SOL    HW210722   5.877   0.303   1.239
 3275SOL     OW10723   4.748   0.902   0.852
 3275SOL    HW110724   4.784   0.808   0.850
 3275SOL    HW210725   4.662   0.904   0.902
 3276SOL     OW10726   4.389   6.179   7.017
 3276SOL    HW110727   4.308   6.216   0.036
 3276SOL    HW210728   4.365   6.149   6.925
 3277SOL     OW10729   3.522   1.607   0.501
 3277SOL    HW110730   3.438   1.661   0.507
 3277SOL    HW210731   3.591   1.646   0.562
 3278SOL     OW10732   0.751   0.812   6.070
 3278SOL    HW110733   0.792   0.740   6.127
 3278SOL    HW210734   0.780   0.901   6.103
 3279SOL     OW10735   5.351   0.340   0.968
 3279SOL    HW110736   5.416   0.288   0.912
 3279SOL    HW210737   5.273   0.368   0.911
 3280SOL     OW10738   4.933   4.442   4.596
 3280SOL    HW110739   4.887   4.442   4.507
 3280SOL    HW210740   5.032   4.445   4.582
 3281SOL     OW10741   0.773   4.842   1.443
 3281SOL    HW110742   0.696   4.796   1.487
 3281SOL    HW210743   0.834   4.880   1.513
 3282SOL     OW10744   6.545   4.606   4.889
 3282SOL    HW110745   6.498   4.561   4.965
 3282SOL    HW210746   6.640   4.576   4.887
 3283SOL     OW10747   3.657   0.917   1.680
 3283SOL    HW110748   3.635   0.820   1.691
 3283SOL    HW210749   3.752   0.926   1.649
 3284SOL     OW10750   1.014   5.962   5.233
 3284SOL    HW110751   0.938   5.898   5.221
 3284SOL    HW210752   1.100   5.911   5.233
 3285SOL     OW10753   5.306   2.082   4.751
 3285SOL    HW110754   5.300   2.059   4.654
 3285SOL    HW210755   5.264   2.171   4.768
 3286SOL     OW10756   3.535   2.605   1.559
 3286SOL    HW110757   3.484   2.526   1.526
 3286SOL    HW210758   3.472   2.675   1.592
 3287SOL     OW10759   0.726   0.452   0.267
 3287SOL    HW110760   0.777   0.536   0.285
 3287SOL    HW210761   0.631   0.464   0.299
 3288SOL     OW10762   1.749   6.997   0.249
 3288SOL    HW110763   1.755   0.067   0.225
 3288SOL    HW210764   1.752   6.988   0.348
 3289SOL     OW10765   2.730   1.910   6.162
 3289SOL    HW110766   2.797   1.880   6.095
 3289SOL    HW210767   2.717   2.009   6.155
 3290SOL     OW10768   0.032   5.110   1.013
 3290SOL    HW110769   6.969   5.106   1.056
 3290SOL    HW210770   0.103   5.102   1.083
 3291SOL     OW10771   2.905   0.894   5.848
 3291SOL    HW110772   2.956   0.963   5.797
 3291SOL    HW210773   2.968   0.825   5.885
 3292SOL     OW10774   0.469   1.297   0.621
 3292SOL    HW110775   0.550   1.268   0.571
 3292SOL    HW210776   0.447   1.392   0.597
 3293SOL     OW10777   6.328   4.961   1.547
 3293SOL    HW110778   6.339   4.905   1.464
 3293SOL    HW210779   6.332   4.902   1.628
 3294SOL     OW10780   4.912   2.092   6.145
 3294SOL    HW110781   4.961   2.175   6.175
 3294SOL    HW210782   4.814   2.111   6.139
 3295SOL     OW10783   1.000   3.708   1.758
 3295SOL    HW110784   0.980   3.622   1.805
 3295SOL    HW210785   1.085   3.747   1.795
 3296SOL     OW10786   0.634   0.775   3.827
 3296SOL    HW110787   0.633   0.697   3.889
 3296SOL    HW210788   0.540   0.797   3.800
 3297SOL     OW10789   3.023   1.483   5.560
 3297SOL    HW110790   2.964   1.403   5.567
 3297SOL    HW210791   3.071   1.496   5.648
 3298SOL     OW10792   6.455   2.460   5.452
 3298SOL    HW110793   6.371   2.511   5.430
 3298SOL    HW210794   6.438   2.362   5.441
 3299SOL     OW10795   3.966   6.046   3.036
 3299SOL    HW110796   4.007   5.991   3.109
 3299SOL    HW210797   3.900   5.991   2.986
 3300SOL     OW10798   1.953   0.462   6.176
 3300SOL    HW110799   1.943   0.390   6.244
 3300SOL    HW210800   1.898   0.541   6.201
 3301SOL     OW10801   1.982   3.275   3.707
 3301SOL    HW110802   1.973   3.282   3.608
 3301SOL    HW210803   1.906   3.221   3.743
 3302SOL     OW10804   1.091   4.683   5.759
 3302SOL    HW110805   1.035   4.672   5.841
 3302SOL    HW210806   1.184   4.709   5.785
 3303SOL     OW10807   3.397   3.559   0.022
 3303SOL    HW110808   3.460   3.633   0.047
 3303SOL    HW210809   3.304   3.595   0.014
 3304SOL     OW10810   1.631   5.499   6.074
 3304SOL    HW110811   1.676   5.428   6.129
 3304SOL    HW210812   1.622   5.468   5.980
 3305SOL     OW10813   2.793   0.735   1.927
 3305SOL    HW110814   2.791   0.823   1.973
 3305SOL    HW210815   2.888   0.705   1.915
 3306SOL     OW10816   0.946   5.511   4.722
 3306SOL    HW110817   0.882   5.445   4.762
 3306SOL    HW210818   0.894   5.579   4.669
 3307SOL     OW10819   0.965   0.058   5.315
 3307SOL    HW110820   0.940   0.016   5.402
 3307SOL    HW210821   1.053   0.021   5.284
 3308SOL     OW10822   3.264   5.744   1.123
 3308SOL    HW110823   3.353   5.697   1.132
 3308SOL    HW210824   3.200   5.705   1.189
 3309SOL     OW10825   6.391   4.499   4.527
 3309SOL    HW110826   6.395   4.449   4.440
 3309SOL    HW210827   6.313   4.562   4.526
 3310SOL     OW10828   0.494   4.161   5.077
 3310SOL    HW110829   0.468   4.082   5.134
 3310SOL    HW210830   0.412   4.214   5.056
 3311SOL     OW10831   3.322   3.974   0.258
 3311SOL    HW110832   3.370   4.010   0.338
 3311SOL    HW210833   3.288   3.882   0.278
 3312SOL     OW10834   4.332   2.929   5.914
 3312SOL    HW110835   4.303   3.022   5.895
 3312SOL    HW210836   4.412   2.930   5.974
 3313SOL     OW10837   1.265   6.788   3.697
 3313SOL    HW110838   1.329   6.851   3.651
 3313SOL    HW210839   1.174   6.800   3.658
 3314SOL     OW10840   2.718   0.279   1.829
 3314SOL    HW110841   2.705   0.182   1.805
 3314SOL    HW210842   2.740   0.330   1.746
 3315SOL     OW10843   0.650   4.155   4.846
 3315SOL    HW110844   0.612   4.166   4.938
 3315SOL    HW210845   0.672   4.245   4.808
 3316SOL     OW10846   4.224   0.478   5.174
 3316SOL    HW110847   4.205   0.560   5.119
 3316SOL    HW210848   4.159   0.474   5.250
 3317SOL     OW10849   4.928   2.125   2.179
 3317SOL    HW110850   5.017   2.083   2.159
 3317SOL    HW210851   4.920   2.141   2.277
 3318SOL     OW10852   1.590   1.172   0.173
 3318SOL    HW110853   1.577   1.215   0.083
 3318SOL    HW210854   1.686   1.180   0.200
 3319SOL     OW10855   5.800   0.565   3.620
 3319SOL    HW110856   5.717   0.596   3.666
 3319SOL    HW210857   5.875   0.557   3.686
 3320SOL     OW10858   6.375   0.543   0.230
 3320SOL    HW110859   6.287   0.566   0.188
 3320SOL    HW210860   6.426   0.482   0.170
 3321SOL     OW10861   5.862   1.810   1.009
 3321SOL    HW110862   5.822   1.722   0.986
 3321SOL    HW210863   5.795   1.883   0.993
 3322SOL     OW10864   0.611   2.538   1.105
 3322SOL    HW110865   0.578   2.597   1.031
 3322SOL    HW210866   0.606   2.587   1.192
 3323SOL     OW10867   2.338   2.318   1.030
 3323SOL    HW110868   2.375   2.371   0.954
 3323SOL    HW210869   2.294   2.235   0.996
 3324SOL     OW10870   4.283   5.364   5.968
 3324SOL    HW110871   4.334   5.287   6.006
 3324SOL    HW210872   4.243   5.417   6.043
 3325SOL     OW10873   0.201   3.738   6.919
 3325SOL    HW110874   0.175   3.799   6.845
 3325SOL    HW210875   0.277   3.679   6.890
 3326SOL     OW10876   4.414   1.426   1.486
 3326SOL    HW110877   4.388   1.464   1.397
 3326SOL    HW210878   4.333   1.422   1.546
 3327SOL     OW10879   2.651   5.374   1.411
 3327SOL    HW110880   2.563   5.339   1.444
 3327SOL    HW210881   2.638   5.419   1.323
 3328SOL     OW10882   3.974   1.858   0.736
 3328SOL    HW110883   4.031   1.906   0.669
 3328SOL    HW210884   3.890   1.910   0.752
 3329SOL     OW10885   5.512   0.301   5.815
 3329SOL    HW110886   5.568   0.358   5.754
 3329SOL    HW210887   5.529   0.204   5.796
 3330SOL     OW10888   6.377   3.313   1.428
 3330SOL    HW110889   6.344   3.223   1.402
 3330SOL    HW210890   6.320   3.351   1.501
 3331SOL     OW10891   2.644   3.234   1.282
 3331SOL    HW110892   2.622   3.327   1.311
 3331SOL    HW210893   2.564   3.191   1.241
 3332SOL     OW10894   6.051   5.496   0.214
 3332SOL    HW110895   6.132   5.491   0.272
 3332SOL    HW210896   6.068   5.558   0.138
 3333SOL     OW10897   4.386   6.017   6.297
 3333SOL    HW110898   4.329   6.094   6.326
 3333SOL    HW210899   4.448   6.046   6.224
 3334SOL     OW10900   3.657   3.415   1.170
 3334SOL    HW110901   3.678   3.324   1.135
 3334SOL    HW210902   3.601   3.408   1.252
 3335SOL     OW10903   4.554   5.133   5.187
 3335SOL    HW110904   4.501   5.218   5.193
 3335SOL    HW210905   4.567   5.095   5.279
 3336SOL     OW10906   3.169   5.131   4.957
 3336SOL    HW110907   3.073   5.149   4.980
 3336SOL    HW210908   3.176   5.111   4.859
 3337SOL     OW10909   2.950   3.160   2.060
 3337SOL    HW110910   2.850   3.151   2.064
 3337SOL    HW210911   2.973   3.241   2.006
 3338SOL     OW10912   6.340   3.654   0.987
 3338SOL    HW110913   6.317   3.750   1.001
 3338SOL    HW210914   6.263   3.597   1.015
 3339SOL     OW10915   6.818   0.036   6.808
 3339SOL    HW110916   6.786   0.092   6.731
 3339SOL    HW210917   6.779   0.072   6.893
 3340SOL     OW10918   3.506   0.311   1.476
 3340SOL    HW110919   3.431   0.364   1.516
 3340SOL    HW210920   3.589   0.367   1.473
 3341SOL     OW10921   1.925   6.014   3.548
 3341SOL    HW110922   1.886   6.041   3.636
 3341SOL    HW210923   2.011   6.064   3.534
 3342SOL     OW10924   2.132   6.369   3.918
 3342SOL    HW110925   2.143   6.290   3.978
 3342SOL    HW210926   2.045   6.364   3.870
 3343SOL     OW10927   5.401   2.683   0.327
 3343SOL    HW110928   5.437   2.655   0.416
 3343SOL    HW210929   5.397   2.782   0.321
 3344SOL     OW10930   5.650   3.664   4.651
 3344SOL    HW110931   5.643   3.616   4.738
 3344SOL    HW210932   5.591   3.745   4.652
 3345SOL     OW10933   2.249   3.540   5.995
 3345SOL    HW110934   2.285   3.457   6.038
 3345SOL    HW210935   2.323   3.606   5.983
 3346SOL     OW10936   1.557   1.150   1.667
 3346SOL    HW110937   1.633   1.103   1.713
 3346SOL    HW210938   1.583   1.168   1.572
 3347SOL     OW10939   0.550   5.513   3.826
 3347SOL    HW110940   0.610   5.443   3.787
 3347SOL    HW210941   0.569   5.601   3.783
 3348SOL     OW10942   3.080   3.301   3.248
 3348SOL    HW110943   3.006   3.343   3.195
 3348SOL    HW210944   3.053   3.210   3.277
 3349SOL     OW10945   0.518   4.692   4.689
 3349SOL    HW110946   0.475   4.625   4.749
 3349SOL    HW210947   0.612   4.710   4.720
 3350SOL     OW10948   1.240   2.168   6.618
 3350SOL    HW110949   1.195   2.256   6.605
 3350SOL    HW210950   1.277   2.163   6.711
 3351SOL     OW10951   5.198   0.180   2.520
 3351SOL    HW110952   5.229   0.273   2.502
 3351SOL    HW210953   5.243   0.145   2.602
 3352SOL     OW10954   6.901   3.632   0.347
 3352SOL    HW110955   6.971   3.696   0.379
 3352SOL    HW210956   6.927   3.595   0.258
 3353SOL     OW10957   1.216   6.611   1.704
 3353SOL    HW110958   1.262   6.692   1.668
 3353SOL    HW210959   1.245   6.595   1.799
 3354SOL     OW10960   6.227   2.605   4.078
 3354SOL    HW110961   6.311   2.655   4.057
 3354SOL    HW210962   6.155   2.632   4.013
 3355SOL     OW10963   1.338   1.310   0.188
 3355SOL    HW110964   1.406   1.237   0.177
 3355SOL    HW210965   1.373   1.379   0.251
 3356SOL     OW10966   1.934   3.115   0.374
 3356SOL    HW110967   1.872   3.189   0.348
 3356SOL    HW210968   2.005   3.151   0.434
 3357SOL     OW10969   2.424   4.942   1.817
 3357SOL    HW110970   2.362   4.865   1.834
 3357SOL    HW210971   2.465   4.972   1.903
 3358SOL     OW10972   4.655   7.019   1.904
 3358SOL    HW110973   4.653   0.049   1.822
 3358SOL    HW210974   4.563   6.984   1.922
 3359SOL     OW10975   6.652   0.495   4.116
 3359SOL    HW110976   6.639   0.396   4.104
 3359SOL    HW210977   6.653   0.516   4.214
 3360SOL     OW10978   0.079   1.138   1.176
 3360SOL    HW110979   7.012   1.139   1.141
 3360SOL    HW210980   0.115   1.231   1.178
 3361SOL     OW10981   0.378   4.728   2.282
 3361SOL    HW110982   0.391   4.629   2.295
 3361SOL    HW210983   0.397   4.751   2.186
 3362SOL     OW10984   3.592   1.378   4.479
 3362SOL    HW110985   3.566   1.282   4.467
 3362SOL    HW210986   3.517   1.437   4.449
 3363SOL     OW10987   0.450   0.543   6.217
 3363SOL    HW110988   0.543   0.574   6.236
 3363SOL    HW210989   0.437   0.451   6.254
 3364SOL     OW10990   1.394   4.696   4.391
 3364SOL    HW110991   1.465   4.744   4.441
 3364SOL    HW210992   1.428   4.607   4.362
 3365SOL     OW10993   0.683   2.446   4.913
 3365SOL    HW110994   0.664   2.531   4.863
 3365SOL    HW210995   0.620   2.438   4.990
 3366SOL     OW10996   6.558   0.668   4.952
 3366SOL    HW110997   6.634   0.610   4.923
 3366SOL    HW210998   6.476   0.643   4.900
 3367SOL     OW10999   2.017   2.589   2.084
 3367SOL    HW111000   2.064   2.642   2.013
 3367SOL    HW211001   2.083   2.531   2.132
 3368SOL     OW11002   0.301   6.093   6.947
 3368SOL    HW111003   0.290   6.007   6.997
 3368SOL    HW211004   0.261   6.085   6.856
 3369SOL     OW11005   3.589   2.281   5.729
 3369SOL    HW111006   3.527   2.356   5.703
 3369SOL    HW211007   3.625   2.238   5.646
 3370SOL     OW11008   6.493   6.337   5.415
 3370SOL    HW111009   6.468   6.433   5.419
 3370SOL    HW211010   6.588   6.328   5.386
 3371SOL     OW11011   0.408   4.193   2.258
 3371SOL    HW111012   0.331   4.131   2.248
 3371SOL    HW211013   0.481   4.148   2.309
 3372SOL     OW11014   1.241   1.428   2.805
 3372SOL    HW111015   1.297   1.417   2.723
 3372SOL    HW211016   1.299   1.421   2.886
 3373SOL     OW11017   6.299   1.227   3.685
 3373SOL    HW111018   6.239   1.251   3.608
 3373SOL    HW211019   6.307   1.127   3.690
 3374SOL     OW11020   3.112   5.564   4.215
 3374SOL    HW111021   3.080   5.508   4.139
 3374SOL    HW211022   3.187   5.518   4.262
 3375SOL     OW11023   4.278   4.655   4.319
 3375SOL    HW111024   4.187   4.681   4.353
 3375SOL    HW211025   4.289   4.687   4.225
 3376SOL     OW11026   3.951   3.119   3.054
 3376SOL    HW111027   3.957   3.067   2.968
 3376SOL    HW211028   3.858   3.115   3.089
 3377SOL     OW11029   0.146   6.488   4.408
 3377SOL    HW111030   0.195   6.574   4.395
 3377SOL    HW211031   0.203   6.423   4.458
 3378SOL     OW11032   6.886   0.636   1.407
 3378SOL    HW111033   6.937   0.551   1.402
 3378SOL    HW211034   6.802   0.622   1.460
 3379SOL     OW11035   6.624   5.272   6.386
 3379SOL    HW111036   6.567   5.190   6.389
 3379SOL    HW211037   6.688   5.266   6.310
 3380SOL     OW11038   5.993   5.660   5.943
 3380SOL    HW111039   5.965   5.663   5.847
 3380SOL    HW211040   6.046   5.742   5.964
 3381SOL     OW11041   2.244   2.209   0.336
 3381SOL    HW111042   2.343   2.221   0.343
 3381SOL    HW211043   2.209   2.263   0.259
 3382SOL     OW11044   1.092   1.234   1.019
 3382SOL    HW111045   1.142   1.273   0.942
 3382SOL    HW211046   1.137   1.260   1.104
 3383SOL     OW11047   5.433   5.066   2.921
 3383SOL    HW111048   5.401   5.161   2.927
 3383SOL    HW211049   5.515   5.055   2.977
 3384SOL     OW11050   3.109   3.060   4.856
 3384SOL    HW111051   3.135   2.966   4.876
 3384SOL    HW211052   3.022   3.081   4.901
 3385SOL     OW11053   0.517   3.777   3.924
 3385SOL    HW111054   0.552   3.827   4.003
 3385SOL    HW211055   0.580   3.703   3.901
 3386SOL     OW11056   6.088   2.793   5.446
 3386SOL    HW111057   6.042   2.804   5.358
 3386SOL    HW211058   6.154   2.868   5.458
 3387SOL     OW11059   2.341   0.685   2.943
 3387SOL    HW111060   2.385   0.730   2.865
 3387SOL    HW211061   2.407   0.676   3.018
 3388SOL     OW11062   6.110   3.494   1.013
 3388SOL    HW111063   6.130   3.402   0.981
 3388SOL    HW211064   6.067   3.490   1.103
 3389SOL     OW11065   4.384   5.244   4.647
 3389SOL    HW111066   4.431   5.160   4.673
 3389SOL    HW211067   4.338   5.231   4.559
 3390SOL     OW11068   5.058   4.618   5.872
 3390SOL    HW111069   5.002   4.666   5.940
 3390SOL    HW211070   5.068   4.522   5.898
 3391SOL     OW11071   5.463   2.550   4.895
 3391SOL    HW111072   5.515   2.506   4.968
 3391SOL    HW211073   5.499   2.642   4.878
 3392SOL     OW11074   2.640   1.137   3.337
 3392SOL    HW111075   2.553   1.140   3.386
 3392SOL    HW211076   2.630   1.180   3.247
 3393SOL     OW11077   6.953   6.428   0.555
 3393SOL    HW111078   0.011   6.383   0.527
 3393SOL    HW211079   6.874   6.373   0.526
 3394SOL     OW11080   5.936   3.580   0.809
 3394SOL    HW111081   5.983   3.541   0.887
 3394SOL    HW211082   6.000   3.588   0.732
 3395SOL     OW11083   6.899   3.574   3.925
 3395SOL    HW111084   6.887   3.656   3.981
 3395SOL    HW211085   6.833   3.574   3.851
 3396SOL     OW11086   0.295   2.418   3.151
 3396SOL    HW111087   0.389   2.404   3.120
 3396SOL    HW211088   0.296   2.453   3.245
 3397SOL     OW11089   2.950   1.363   5.846
 3397SOL    HW111090   2.969   1.271   5.810
 3397SOL    HW211091   2.859   1.392   5.819
 3398SOL     OW11092   0.813   6.706   4.379
 3398SOL    HW111093   0.859   6.656   4.306
 3398SOL    HW211094   0.845   6.800   4.381
 3399SOL     OW11095   4.722   4.159   4.235
 3399SOL    HW111096   4.706   4.122   4.326
 3399SOL    HW211097   4.812   4.202   4.230
 3400SOL     OW11098   4.014   0.926   5.187
 3400SOL    HW111099   4.095   0.983   5.202
 3400SOL    HW211100   3.932   0.983   5.192
 3401SOL     OW11101   0.196   3.604   0.809
 3401SOL    HW111102   0.100   3.594   0.835
 3401SOL    HW211103   0.236   3.681   0.857
 3402SOL     OW11104   4.428   6.277   0.541
 3402SOL    HW111105   4.386   6.321   0.620
 3402SOL    HW211106   4.455   6.184   0.565
 3403SOL     OW11107   3.474   0.330   4.425
 3403SOL    HW111108   3.470   0.257   4.357
 3403SOL    HW211109   3.463   0.419   4.380
 3404SOL     OW11110   4.269   1.594   0.279
 3404SOL    HW111111   4.325   1.614   0.359
 3404SOL    HW211112   4.231   1.501   0.288
 3405SOL     OW11113   6.326   3.887   4.030
 3405SOL    HW111114   6.378   3.814   3.986
 3405SOL    HW211115   6.277   3.850   4.109
 3406SOL     OW11116   1.453   4.176   1.831
 3406SOL    HW111117   1.467   4.138   1.739
 3406SOL    HW211118   1.418   4.269   1.824
 3407SOL     OW11119   1.733   5.237   0.203
 3407SOL    HW111120   1.726   5.237   0.103
 3407SOL    HW211121   1.657   5.185   0.242
 3408SOL     OW11122   5.149   4.435   4.900
 3408SOL    HW111123   5.118   4.345   4.929
 3408SOL    HW211124   5.082   4.504   4.928
 3409SOL     OW11125   3.288   6.279   5.586
 3409SOL    HW111126   3.245   6.304   5.673
 3409SOL    HW211127   3.224   6.294   5.511
 3410SOL     OW11128   5.868   5.714   0.410
 3410SOL    HW111129   5.949   5.706   0.351
 3410SOL    HW211130   5.811   5.632   0.399
 3411SOL     OW11131   0.309   2.647   1.885
 3411SOL    HW111132   0.320   2.730   1.830
 3411SOL    HW211133   0.235   2.661   1.952
 3412SOL     OW11134   4.569   2.644   6.982
 3412SOL    HW111135   4.639   2.577   6.958
 3412SOL    HW211136   4.570   2.719   6.916
 3413SOL     OW11137   5.076   1.145   2.985
 3413SOL    HW111138   5.099   1.239   3.010
 3413SOL    HW211139   4.977   1.133   2.989
 3414SOL     OW11140   2.083   1.513   5.639
 3414SOL    HW111141   2.116   1.462   5.719
 3414SOL    HW211142   2.014   1.579   5.668
 3415SOL     OW11143   2.102   4.070   4.026
 3415SOL    HW111144   2.046   4.152   4.029
 3415SOL    HW211145   2.143   4.053   4.115
 3416SOL     OW11146   6.739   5.485   6.844
 3416SOL    HW111147   6.761   5.456   6.752
 3416SOL    HW211148   6.787   5.428   6.910
 3417SOL     OW11149   6.325   5.942   3.411
 3417SOL    HW111150   6.267   5.988   3.478
 3417SOL    HW211151   6.281   5.945   3.321
 3418SOL     OW11152   3.909   6.894   4.694
 3418SOL    HW111153   3.976   6.936   4.755
 3418SOL    HW211154   3.852   6.964   4.652
 3419SOL     OW11155   3.006   5.616   5.510
 3419SOL    HW111156   2.990   5.549   5.437
 3419SOL    HW211157   3.066   5.689   5.475
 3420SOL     OW11158   5.426   2.589   3.201
 3420SOL    HW111159   5.352   2.529   3.231
 3420SOL    HW211160   5.486   2.609   3.279
 3421SOL     OW11161   6.145   0.357   6.783
 3421SOL    HW111162   6.132   0.323   6.690
 3421SOL    HW211163   6.108   0.450   6.790
 3422SOL     OW11164   2.278   6.461   0.844
 3422SOL    HW111165   2.244   6.409   0.765
 3422SOL    HW211166   2.310   6.550   0.815
 3423SOL     OW11167   2.167   6.888   0.743
 3423SOL    HW111168   2.099   6.897   0.670
 3423SOL    HW211169   2.163   6.969   0.802
 3424SOL     OW11170   2.816   6.758   2.361
 3424SOL    HW111171   2.753   6.709   2.301
 3424SOL    HW211172   2.900   6.704   2.372
 3425SOL     OW11173   5.060   4.321   1.837
 3425SOL    HW111174   5.073   4.297   1.933
 3425SOL    HW211175   4.994   4.259   1.795
 3426SOL     OW11176   2.999   2.853   6.968
 3426SOL    HW111177   3.038   2.772   7.014
 3426SOL    HW211178   3.063   2.885   6.899
 3427SOL     OW11179   6.828   0.018   6.212
 3427SOL    HW111180   6.884   0.080   6.265
 3427SOL    HW211181   6.765   0.070   6.154
 3428SOL     OW11182   3.555   4.997   1.121
 3428SOL    HW111183   3.490   5.069   1.141
 3428SOL    HW211184   3.620   5.028   1.051
 3429SOL     OW11185   0.406   1.706   6.715
 3429SOL    HW111186   0.461   1.720   6.632
 3429SOL    HW211187   0.382   1.609   6.722
 3430SOL     OW11188   0.298   6.897   5.464
 3430SOL    HW111189   0.221   6.897   5.401
 3430SOL    HW211190   0.304   6.807   5.508
 3431SOL     OW11191   2.043   0.013   1.035
 3431SOL    HW111192   2.115   0.055   0.979
 3431SOL    HW211193   1.976   0.083   1.062
 3432SOL     OW11194   2.454   2.609   6.317
 3432SOL    HW111195   2.532   2.671   6.308
 3432SOL    HW211196   2.427   2.605   6.413
 3433SOL     OW11197   1.222   6.795   6.136
 3433SOL    HW111198   1.284   6.716   6.129
 3433SOL    HW211199   1.275   6.879   6.144
 3434SOL     OW11200   3.615   2.798   1.125
 3434SOL    HW111201   3.516   2.810   1.125
 3434SOL    HW211202   3.646   2.784   1.219
 3435SOL     OW11203   1.261   2.256   1.436
 3435SOL    HW111204   1.285   2.315   1.513
 3435SOL    HW211205   1.205   2.179   1.469
 3436SOL     OW11206   3.914   6.568   5.633
 3436SOL    HW111207   3.930   6.666   5.620
 3436SOL    HW211208   3.850   6.554   5.708
 3437SOL     OW11209   3.960   0.204   6.446
 3437SOL    HW111210   4.034   0.265   6.475
 3437SOL    HW211211   3.981   0.110   6.471
 3438SOL     OW11212   1.223   2.520   6.915
 3438SOL    HW111213   1.227   2.617   6.890
 3438SOL    HW211214   1.137   2.481   6.883
 3439SOL     OW11215   2.069   0.235   5.847
 3439SOL    HW111216   2.052   0.333   5.857
 3439SOL    HW211217   2.054   0.190   5.935
 3440SOL     OW11218   4.514   3.485   1.548
 3440SOL    HW111219   4.429   3.461   1.502
 3440SOL    HW211220   4.571   3.403   1.557
 3441SOL     OW11221   5.080   0.317   3.886
 3441SOL    HW111222   5.005   0.384   3.891
 3441SOL    HW211223   5.108   0.292   3.979
 3442SOL     OW11224   3.388   4.978   2.552
 3442SOL    HW111225   3.312   4.932   2.597
 3442SOL    HW211226   3.383   5.076   2.572
 3443SOL     OW11227   5.507   0.738   2.430
 3443SOL    HW111228   5.564   0.810   2.468
 3443SOL    HW211229   5.541   0.712   2.340
 3444SOL     OW11230   5.405   4.974   7.018
 3444SOL    HW111231   5.417   4.877   6.995
 3444SOL    HW211232   5.371   4.981   0.085
 3445SOL     OW11233   5.757   5.155   4.448
 3445SOL    HW111234   5.793   5.161   4.355
 3445SOL    HW211235   5.806   5.084   4.498
 3446SOL     OW11236   6.248   1.091   3.095
 3446SOL    HW111237   6.207   1.002   3.114
 3446SOL    HW211238   6.268   1.138   3.181
 3447SOL     OW11239   5.756   4.322   0.666
 3447SOL    HW111240   5.703   4.256   0.719
 3447SOL    HW211241   5.718   4.327   0.573
 3448SOL     OW11242   3.067   0.115   0.695
 3448SOL    HW111243   2.994   0.136   0.631
 3448SOL    HW211244   3.153   0.153   0.662
 3449SOL     OW11245   5.843   6.544   3.936
 3449SOL    HW111246   5.866   6.458   3.981
 3449SOL    HW211247   5.869   6.620   3.996
 3450SOL     OW11248   0.612   2.497   0.109
 3450SOL    HW111249   0.694   2.553   0.117
 3450SOL    HW211250   0.549   2.537   0.042
 3451SOL     OW11251   0.576   5.430   2.972
 3451SOL    HW111252   0.645   5.360   2.959
 3451SOL    HW211253   0.578   5.463   3.067
 3452SOL     OW11254   5.568   1.720   0.300
 3452SOL    HW111255   5.511   1.665   0.362
 3452SOL    HW211256   5.608   1.661   0.230
 3453SOL     OW11257   6.897   5.927   6.071
 3453SOL    HW111258   6.997   5.927   6.067
 3453SOL    HW211259   6.862   6.011   6.031
 3454SOL     OW11260   2.016   1.022   5.600
 3454SOL    HW111261   2.113   1.024   5.625
 3454SOL    HW211262   1.990   0.929   5.574
 3455SOL     OW11263   1.965   2.993   4.454
 3455SOL    HW111264   2.046   3.051   4.458
 3455SOL    HW211265   1.990   2.899   4.479
 3456SOL     OW11266   5.454   6.617   2.322
 3456SOL    HW111267   5.451   6.633   2.421
 3456SOL    HW211268   5.448   6.518   2.304
 3457SOL     OW11269   2.586   5.349   4.072
 3457SOL    HW111270   2.518   5.280   4.048
 3457SOL    HW211271   2.546   5.440   4.061
 3458SOL     OW11272   5.367   6.803   0.635
 3458SOL    HW111273   5.327   6.723   0.590
 3458SOL    HW211274   5.453   6.827   0.591
 3459SOL     OW11275   5.790   3.963   3.151
 3459SOL    HW111276   5.825   3.899   3.083
 3459SOL    HW211277   5.866   4.000   3.205
 3460SOL     OW11278   2.896   3.642   0.198
 3460SOL    HW111279   2.823   3.676   0.139
 3460SOL    HW211280   2.900   3.543   0.191
 3461SOL     OW11281   4.502   5.787   4.462
 3461SOL    HW111282   4.599   5.801   4.485
 3461SOL    HW211283   4.451   5.871   4.480
 3462SOL     OW11284   6.878   3.596   2.540
 3462SOL    HW111285   6.919   3.681   2.507
 3462SOL    HW211286   6.921   3.571   2.627
 3463SOL     OW11287   1.148   3.341   3.071
 3463SOL    HW111288   1.152   3.439   3.088
 3463SOL    HW211289   1.160   3.292   3.157
 3464SOL     OW11290   6.529   2.178   6.679
 3464SOL    HW111291   6.586   2.208   6.603
 3464SOL    HW211292   6.577   2.108   6.731
 3465SOL     OW11293   0.588   3.120   2.011
 3465SOL    HW111294   0.644   3.178   1.951
 3465SOL    HW211295   0.496   3.112   1.973
 3466SOL     OW11296   6.722   4.739   6.324
 3466SOL    HW111297   6.694   4.656   6.276
 3466SOL    HW211298   6.642   4.781   6.368
 3467SOL     OW11299   2.065   2.007   0.469
 3467SOL    HW111300   2.092   1.923   0.422
 3467SOL    HW211301   2.104   2.086   0.422
 3468SOL     OW11302   5.054   1.266   3.272
 3468SOL    HW111303   4.979   1.200   3.264
 3468SOL    HW211304   5.140   1.221   3.249
 3469SOL     OW11305   4.478   0.047   4.374
 3469SOL    HW111306   4.440   0.118   4.434
 3469SOL    HW211307   4.522   7.003   4.430
 3470SOL     OW11308   0.751   2.214   1.956
 3470SOL    HW111309   0.789   2.254   1.873
 3470SOL    HW211310   0.687   2.279   1.998
 3471SOL     OW11311   4.620   4.441   3.547
 3471SOL    HW111312   4.544   4.506   3.534
 3471SOL    HW211313   4.663   4.459   3.635
 3472SOL     OW11314   2.462   0.958   1.536
 3472SOL    HW111315   2.550   1.001   1.518
 3472SOL    HW211316   2.431   0.910   1.453
 3473SOL     OW11317   6.481   3.250   2.685
 3473SOL    HW111318   6.511   3.345   2.673
 3473SOL    HW211319   6.434   3.219   2.603
 3474SOL     OW11320   0.222   4.445   2.537
 3474SOL    HW111321   0.131   4.478   2.514
 3474SOL    HW211322   0.279   4.445   2.455
 3475SOL     OW11323   0.854   4.678   4.393
 3475SOL    HW111324   0.895   4.731   4.467
 3475SOL    HW211325   0.849   4.734   4.311
 3476SOL     OW11326   2.779   2.319   2.488
 3476SOL    HW111327   2.727   2.243   2.527
 3476SOL    HW211328   2.778   2.312   2.388
 3477SOL     OW11329   1.780   5.091   0.868
 3477SOL    HW111330   1.796   5.034   0.949
 3477SOL    HW211331   1.727   5.172   0.895
 3478SOL     OW11332   2.352   5.791   6.341
 3478SOL    HW111333   2.439   5.797   6.390
 3478SOL    HW211334   2.369   5.795   6.243
 3479SOL     OW11335   0.868   0.601   2.944
 3479SOL    HW111336   0.841   0.513   2.983
 3479SOL    HW211337   0.824   0.614   2.855
 3480SOL     OW11338   6.985   6.308   5.196
 3480SOL    HW111339   6.891   6.309   5.230
 3480SOL    HW211340   0.021   6.291   5.272
 3481SOL     OW11341   4.972   0.573   0.504
 3481SOL    HW111342   5.046   0.541   0.564
 3481SOL    HW211343   4.947   0.667   0.530
 3482SOL     OW11344   6.599   0.906   2.318
 3482SOL    HW111345   6.685   0.903   2.267
 3482SOL    HW211346   6.599   0.987   2.377
 3483SOL     OW11347   5.149   1.965   2.187
 3483SOL    HW111348   5.234   1.979   2.137
 3483SOL    HW211349   5.117   1.871   2.174
 3484SOL     OW11350   1.270   2.836   0.624
 3484SOL    HW111351   1.235   2.743   0.624
 3484SOL    HW211352   1.347   2.843   0.560
 3485SOL     OW11353   2.082   1.611   4.195
 3485SOL    HW111354   2.090   1.686   4.130
 3485SOL    HW211355   2.173   1.576   4.217
 3486SOL     OW11356   2.031   0.259   3.040
 3486SOL    HW111357   2.029   0.358   3.028
 3486SOL    HW211358   2.121   0.231   3.075
 3487SOL     OW11359   0.314   2.003   0.700
 3487SOL    HW111360   0.269   2.039   0.781
 3487SOL    HW211361   0.253   2.011   0.621
 3488SOL     OW11362   5.686   1.262   5.219
 3488SOL    HW111363   5.656   1.179   5.266
 3488SOL    HW211364   5.612   1.328   5.217
 3489SOL     OW11365   3.896   0.199   2.135
 3489SOL    HW111366   3.840   0.280   2.153
 3489SOL    HW211367   3.991   0.218   2.161
 3490SOL     OW11368   4.260   4.527   1.273
 3490SOL    HW111369   4.224   4.440   1.238
 3490SOL    HW211370   4.242   4.533   1.372
 3491SOL     OW11371   4.646   2.168   6.084
 3491SOL    HW111372   4.645   2.170   5.984
 3491SOL    HW211373   4.555   2.191   6.118
 3492SOL     OW11374   6.398   4.337   0.935
 3492SOL    HW111375   6.485   4.382   0.957
 3492SOL    HW211376   6.385   4.259   0.995
 3493SOL     OW11377   4.906   3.791   4.058
 3493SOL    HW111378   4.906   3.786   4.158
 3493SOL    HW211379   4.833   3.852   4.027
 3494SOL     OW11380   2.296   1.074   1.725
 3494SOL    HW111381   2.361   1.021   1.670
 3494SOL    HW211382   2.213   1.089   1.672
 3495SOL     OW11383   6.151   4.625   1.747
 3495SOL    HW111384   6.129   4.548   1.687
 3495SOL    HW211385   6.241   4.609   1.789
 3496SOL     OW11386   5.999   5.059   1.125
 3496SOL    HW111387   6.045   4.971   1.127
 3496SOL    HW211388   5.900   5.045   1.117
 3497SOL     OW11389   3.006   1.611   3.539
 3497SOL    HW111390   3.028   1.514   3.546
 3497SOL    HW211391   2.934   1.634   3.604
 3498SOL     OW11392   3.292   1.537   1.356
 3498SOL    HW111393   3.195   1.556   1.364
 3498SOL    HW211394   3.345   1.612   1.395
 3499SOL     OW11395   5.679   4.410   4.183
 3499SOL    HW111396   5.714   4.344   4.116
 3499SOL    HW211397   5.583   4.429   4.165
 3500SOL     OW11398   1.719   3.353   3.422
 3500SOL    HW111399   1.818   3.340   3.416
 3500SOL    HW211400   1.699   3.438   3.472
 3501SOL     OW11401   3.099   6.262   5.973
 3501SOL    HW111402   3.085   6.170   5.937
 3501SOL    HW211403   3.156   6.258   6.055
 3502SOL     OW11404   6.923   1.844   1.196
 3502SOL    HW111405   6.998   1.890   1.149
 3502SOL    HW211406   6.840   1.851   1.141
 3503SOL     OW11407   6.119   6.063   4.976
 3503SOL    HW111408   6.199   6.034   4.923
 3503SOL    HW211409   6.114   6.010   5.061
 3504SOL     OW11410   2.402   0.182   1.702
 3504SOL    HW111411   2.325   0.220   1.753
 3504SOL    HW211412   2.469   0.143   1.766
 3505SOL     OW11413   5.228   4.208   5.852
 3505SOL    HW111414   5.191   4.126   5.895
 3505SOL    HW211415   5.200   4.289   5.903
 3506SOL     OW11416   5.207   5.315   4.997
 3506SOL    HW111417   5.212   5.254   5.076
 3506SOL    HW211418   5.142   5.277   4.930
 3507SOL     OW11419   3.116   0.775   1.072
 3507SOL    HW111420   3.054   0.808   1.001
 3507SOL    HW211421   3.205   0.820   1.062
 3508SOL     OW11422   2.052   2.018   5.788
 3508SOL    HW111423   2.095   2.108   5.795
 3508SOL    HW211424   2.114   1.949   5.826
 3509SOL     OW11425   5.393   0.109   0.108
 3509SOL    HW111426   5.410   0.046   0.183
 3509SOL    HW211427   5.343   0.189   0.141
 3510SOL     OW11428   1.342   1.071   2.009
 3510SOL    HW111429   1.351   1.129   2.090
 3510SOL    HW211430   1.341   1.128   1.927
 3511SOL     OW11431   1.825   4.208   1.317
 3511SOL    HW111432   1.761   4.206   1.394
 3511SOL    HW211433   1.870   4.119   1.308
 3512SOL     OW11434   0.316   4.861   0.449
 3512SOL    HW111435   0.277   4.947   0.415
 3512SOL    HW211436   0.350   4.807   0.372
 3513SOL     OW11437   5.892   1.933   0.682
 3513SOL    HW111438   5.975   1.933   0.626
 3513SOL    HW211439   5.881   2.023   0.725
 3514SOL     OW11440   0.118   1.024   2.107
 3514SOL    HW111441   0.106   0.927   2.083
 3514SOL    HW211442   0.213   1.050   2.091
 3515SOL     OW11443   4.579   6.281   2.609
 3515SOL    HW111444   4.614   6.232   2.689
 3515SOL    HW211445   4.624   6.246   2.526
 3516SOL     OW11446   4.971   0.048   0.863
 3516SOL    HW111447   4.900   7.011   0.833
 3516SOL    HW211448   5.045   7.024   0.908
 3517SOL     OW11449   1.002   1.874   1.389
 3517SOL    HW111450   0.911   1.916   1.385
 3517SOL    HW211451   1.001   1.799   1.455
 3518SOL     OW11452   4.906   2.786   4.990
 3518SOL    HW111453   4.949   2.790   5.080
 3518SOL    HW211454   4.970   2.746   4.924
 3519SOL     OW11455   1.509   0.630   5.863
 3519SOL    HW111456   1.437   0.645   5.931
 3519SOL    HW211457   1.591   0.681   5.889
 3520SOL     OW11458   3.445   6.037   0.106
 3520SOL    HW111459   3.402   6.063   0.019
 3520SOL    HW211460   3.516   5.968   0.089
 3521SOL     OW11461   5.084   2.545   0.402
 3521SOL    HW111462   5.140   2.604   0.460
 3521SOL    HW211463   5.050   2.468   0.456
 3522SOL     OW11464   0.508   5.104   1.027
 3522SOL    HW111465   0.589   5.083   0.973
 3522SOL    HW211466   0.535   5.151   1.111
 3523SOL     OW11467   1.316   4.733   5.194
 3523SOL    HW111468   1.268   4.687   5.269
 3523SOL    HW211469   1.409   4.698   5.188
 3524SOL     OW11470   4.765   1.278   1.452
 3524SOL    HW111471   4.689   1.331   1.413
 3524SOL    HW211472   4.740   1.245   1.543
 3525SOL     OW11473   6.463   4.457   3.688
 3525SOL    HW111474   6.478   4.544   3.733
 3525SOL    HW211475   6.373   4.456   3.645
 3526SOL     OW11476   2.068   6.762   3.843
 3526SOL    HW111477   2.022   6.677   3.814
 3526SOL    HW211478   2.047   6.780   3.939
 3527SOL     OW11479   5.607   3.058   6.291
 3527SOL    HW111480   5.624   3.044   6.389
 3527SOL    HW211481   5.516   3.098   6.279
 3528SOL     OW11482   1.230   6.554   5.375
 3528SOL    HW111483   1.237   6.647   5.339
 3528SOL    HW211484   1.315   6.531   5.424
 3529SOL     OW11485   4.066   0.129   0.355
 3529SOL    HW111486   4.107   0.112   0.265
 3529SOL    HW211487   4.058   0.042   0.404
 3530SOL     OW11488   6.365   6.158   1.700
 3530SOL    HW111489   6.306   6.079   1.717
 3530SOL    HW211490   6.460   6.127   1.691
 3531SOL     OW11491   5.077   2.683   1.121
 3531SOL    HW111492   5.008   2.744   1.082
 3531SOL    HW211493   5.163   2.733   1.133
 3532SOL     OW11494   2.457   6.777   1.733
 3532SOL    HW111495   2.370   6.779   1.782
 3532SOL    HW211496   2.523   6.722   1.785
 3533SOL     OW11497   0.794   1.650   2.754
 3533SOL    HW111498   0.818   1.706   2.675
 3533SOL    HW211499   0.875   1.601   2.787
 3534SOL     OW11500   0.285   1.784   1.079
 3534SOL    HW111501   0.355   1.827   1.022
 3534SOL    HW211502   0.222   1.855   1.113
 3535SOL     OW11503   2.044   5.310   6.341
 3535SOL    HW111504   2.080   5.218   6.332
 3535SOL    HW211505   2.056   5.360   6.255
 3536SOL     OW11506   3.396   1.791   2.777
 3536SOL    HW111507   3.383   1.853   2.700
 3536SOL    HW211508   3.357   1.831   2.860
 3537SOL     OW11509   2.783   5.682   2.266
 3537SOL    HW111510   2.838   5.744   2.322
 3537SOL    HW211511   2.812   5.588   2.283
 3538SOL     OW11512   2.304   0.007   5.998
 3538SOL    HW111513   2.290   6.938   6.021
 3538SOL    HW211514   2.348   0.013   5.908
 3539SOL     OW11515   3.636   2.877   5.437
 3539SOL    HW111516   3.696   2.951   5.466
 3539SOL    HW211517   3.672   2.837   5.353
 3540SOL     OW11518   1.757   2.382   5.002
 3540SOL    HW111519   1.839   2.325   5.011
 3540SOL    HW211520   1.687   2.332   4.951
 3541SOL     OW11521   1.828   2.806   6.082
 3541SOL    HW111522   1.788   2.829   6.171
 3541SOL    HW211523   1.910   2.752   6.095
 3542SOL     OW11524   1.530   5.330   3.425
 3542SOL    HW111525   1.574   5.257   3.373
 3542SOL    HW211526   1.578   5.344   3.511
 3543SOL     OW11527   0.684   2.286   4.676
 3543SOL    HW111528   0.693   2.211   4.742
 3543SOL    HW211529   0.684   2.373   4.725
 3544SOL     OW11530   2.118   4.392   5.704
 3544SOL    HW111531   2.082   4.371   5.613
 3544SOL    HW211532   2.216   4.373   5.707
 3545SOL     OW11533   4.228   5.686   0.237
 3545SOL    HW111534   4.181   5.734   0.312
 3545SOL    HW211535   4.202   5.726   0.150
 3546SOL     OW11536   1.587   4.100   3.921
 3546SOL    HW111537   1.655   4.073   3.989
 3546SOL    HW211538   1.507   4.138   3.968
 3547SOL     OW11539   6.691   4.637   3.887
 3547SOL    HW111540   6.614   4.671   3.833
 3547SOL    HW211541   6.772   4.630   3.829
 3548SOL     OW11542   5.687   1.653   5.992
 3548SOL    HW111543   5.678   1.647   5.893
 3548SOL    HW211544   5.774   1.611   6.020
 3549SOL     OW11545   6.347   5.210   6.117
 3549SOL    HW111546   6.399   5.126   6.135
 3549SOL    HW211547   6.319   5.212   6.021
 3550SOL     OW11548   6.022   2.543   2.529
 3550SOL    HW111549   6.109   2.507   2.562
 3550SOL    HW211550   5.985   2.483   2.459
 3551SOL     OW11551   3.393   0.151   2.819
 3551SOL    HW111552   3.357   0.139   2.727
 3551SOL    HW211553   3.487   0.117   2.824
 3552SOL     OW11554   5.367   5.967   1.484
 3552SOL    HW111555   5.299   6.028   1.524
 3552SOL    HW211556   5.405   6.008   1.401
 3553SOL     OW11557   5.320   3.955   1.136
 3553SOL    HW111558   5.267   3.898   1.072
 3553SOL    HW211559   5.262   3.979   1.214
 3554SOL     OW11560   4.126   2.706   1.059
 3554SOL    HW111561   4.160   2.671   0.972
 3554SOL    HW211562   4.082   2.632   1.109
 3555SOL     OW11563   0.803   4.000   3.462
 3555SOL    HW111564   0.734   3.930   3.480
 3555SOL    HW211565   0.808   4.018   3.364
 3556SOL     OW11566   4.517   0.976   3.505
 3556SOL    HW111567   4.448   0.905   3.488
 3556SOL    HW211568   4.524   1.035   3.425
 3557SOL     OW11569   0.983   0.376   4.214
 3557SOL    HW111570   1.076   0.359   4.180
 3557SOL    HW211571   0.924   0.401   4.137
 3558SOL     OW11572   1.271   6.091   1.032
 3558SOL    HW111573   1.244   6.151   1.108
 3558SOL    HW211574   1.193   6.034   1.006
 3559SOL     OW11575   0.417   6.526   4.678
 3559SOL    HW111576   0.394   6.616   4.641
 3559SOL    HW211577   0.458   6.536   4.769
 3560SOL     OW11578   1.558   5.697   1.461
 3560SOL    HW111579   1.515   5.607   1.476
 3560SOL    HW211580   1.508   5.745   1.389
 3561SOL     OW11581   4.276   4.551   5.515
 3561SOL    HW111582   4.187   4.591   5.495
 3561SOL    HW211583   4.264   4.470   5.572
 3562SOL     OW11584   5.236   0.782   4.054
 3562SOL    HW111585   5.215   0.823   3.965
 3562SOL    HW211586   5.157   0.730   4.085
 3563SOL     OW11587   5.771   0.797   1.039
 3563SOL    HW111588   5.769   0.891   1.006
 3563SOL    HW211589   5.850   0.749   1.000
 3564SOL     OW11590   1.604   4.479   4.148
 3564SOL    HW111591   1.694   4.481   4.191
 3564SOL    HW211592   1.615   4.480   4.049
 3565SOL     OW11593   3.614   5.947   5.377
 3565SOL    HW111594   3.559   5.892   5.315
 3565SOL    HW211595   3.702   5.903   5.392
 3566SOL     OW11596   6.606   3.590   6.186
 3566SOL    HW111597   6.557   3.630   6.109
 3566SOL    HW211598   6.607   3.491   6.178
 3567SOL     OW11599   1.207   3.129   0.385
 3567SOL    HW111600   1.191   3.031   0.380
 3567SOL    HW211601   1.121   3.178   0.376
 3568SOL     OW11602   5.041   6.033   3.889
 3568SOL    HW111603   4.992   6.016   3.804
 3568SOL    HW211604   5.006   6.117   3.932
 3569SOL     OW11605   3.074   2.507   6.116
 3569SOL    HW111606   3.025   2.458   6.189
 3569SOL    HW211607   3.010   2.567   6.068
 3570SOL     OW11608   4.905   0.329   4.837
 3570SOL    HW111609   4.988   0.274   4.825
 3570SOL    HW211610   4.853   0.295   4.915
 3571SOL     OW11611   2.169   0.904   4.919
 3571SOL    HW111612   2.100   0.902   4.847
 3571SOL    HW211613   2.178   0.997   4.954
 3572SOL     OW11614   5.575   3.893   2.496
 3572SOL    HW111615   5.504   3.933   2.438
 3572SOL    HW211616   5.584   3.947   2.580
 3573SOL     OW11617   6.164   3.897   2.487
 3573SOL    HW111618   6.076   3.860   2.456
 3573SOL    HW211619   6.170   3.890   2.586
 3574SOL     OW11620   1.206   3.500   0.575
 3574SOL    HW111621   1.295   3.514   0.620
 3574SOL    HW211622   1.217   3.513   0.476
 3575SOL     OW11623   4.825   5.679   2.443
 3575SOL    HW111624   4.920   5.658   2.421
 3575SOL    HW211625   4.769   5.597   2.435
 3576SOL     OW11626   0.526   2.017   0.053
 3576SOL    HW111627   0.457   2.061   0.111
 3576SOL    HW211628   0.481   1.949   7.021
 3577SOL     OW11629   2.093   3.032   6.758
 3577SOL    HW111630   2.192   3.049   6.757
 3577SOL    HW211631   2.044   3.119   6.759
 3578SOL     OW11632   5.292   1.668   1.124
 3578SOL    HW111633   5.210   1.668   1.068
 3578SOL    HW211634   5.316   1.762   1.150
 3579SOL     OW11635   6.832   2.653   2.832
 3579SOL    HW111636   6.882   2.707   2.900
 3579SOL    HW211637   6.891   2.579   2.799
 3580SOL     OW11638   6.191   2.793   0.001
 3580SOL    HW111639   6.258   2.863   7.006
 3580SOL    HW211640   6.134   2.774   6.947
 3581SOL     OW11641   0.432   5.878   2.824
 3581SOL    HW111642   0.514   5.913   2.781
 3581SOL    HW211643   0.424   5.915   2.917
 3582SOL     OW11644   2.189   4.519   5.960
 3582SOL    HW111645   2.185   4.422   5.987
 3582SOL    HW211646   2.150   4.529   5.869
 3583SOL     OW11647   1.557   5.000   0.222
 3583SOL    HW111648   1.618   4.988   0.143
 3583SOL    HW211649   1.583   4.937   0.294
 3584SOL     OW11650   5.399   4.732   5.518
 3584SOL    HW111651   5.318   4.689   5.556
 3584SOL    HW211652   5.447   4.668   5.459
 3585SOL     OW11653   2.888   2.184   4.794
 3585SOL    HW111654   2.947   2.215   4.869
 3585SOL    HW211655   2.940   2.187   4.709
 3586SOL     OW11656   6.761   1.697   5.081
 3586SOL    HW111657   6.802   1.654   5.000
 3586SOL    HW211658   6.695   1.634   5.122
 3587SOL     OW11659   2.404   5.776   6.080
 3587SOL    HW111660   2.352   5.741   6.002
 3587SOL    HW211661   2.498   5.744   6.075
 3588SOL     OW11662   6.724   2.869   5.047
 3588SOL    HW111663   6.626   2.884   5.033
 3588SOL    HW211664   6.745   2.872   5.145
 3589SOL     OW11665   5.828   0.212   6.898
 3589SOL    HW111666   5.779   0.219   6.985
 3589SOL    HW211667   5.926   0.202   6.916
 3590SOL     OW11668   0.199   3.557   0.221
 3590SOL    HW111669   0.113   3.570   0.173
 3590SOL    HW211670   0.239   3.469   0.194
 3591SOL     OW11671   5.944   3.783   0.484
 3591SOL    HW111672   5.984   3.766   0.394
 3591SOL    HW211673   6.006   3.750   0.555
 3592SOL     OW11674   0.524   0.070   3.240
 3592SOL    HW111675   0.566   0.161   3.238
 3592SOL    HW211676   0.566   0.012   3.170
 3593SOL     OW11677   0.362   4.295   6.180
 3593SOL    HW111678   0.357   4.395   6.183
 3593SOL    HW211679   0.278   4.257   6.219
 3594SOL     OW11680   4.763   0.532   4.320
 3594SOL    HW111681   4.842   0.515   4.379
 3594SOL    HW211682   4.679   0.511   4.369
 3595SOL     OW11683   5.274   5.870   6.412
 3595SOL    HW111684   5.189   5.913   6.379
 3595SOL    HW211685   5.263   5.771   6.413
 3596SOL     OW11686   5.227   2.824   3.587
 3596SOL    HW111687   5.205   2.896   3.653
 3596SOL    HW211688   5.193   2.849   3.497
 3597SOL     OW11689   2.023   2.723   5.460
 3597SOL    HW111690   2.078   2.650   5.501
 3597SOL    HW211691   2.064   2.750   5.373
 3598SOL     OW11692   1.981   6.505   5.437
 3598SOL    HW111693   1.971   6.548   5.347
 3598SOL    HW211694   2.019   6.413   5.427
 3599SOL     OW11695   4.537   1.978   0.733
 3599SOL    HW111696   4.594   1.923   0.673
 3599SOL    HW211697   4.591   2.010   0.811
 3600SOL     OW11698   0.506   3.252   2.247
 3600SOL    HW111699   0.531   3.208   2.161
 3600SOL    HW211700   0.421   3.304   2.234
 3601SOL     OW11701   5.316   2.478   5.901
 3601SOL    HW111702   5.335   2.468   5.804
 3601SOL    HW211703   5.355   2.563   5.935
 3602SOL     OW11704   1.166   3.540   0.930
 3602SOL    HW111705   1.159   3.443   0.904
 3602SOL    HW211706   1.256   3.575   0.906
 3603SOL     OW11707   3.561   1.119   4.441
 3603SOL    HW111708   3.654   1.090   4.459
 3603SOL    HW211709   3.544   1.117   4.342
 3604SOL     OW11710   6.656   0.196   4.086
 3604SOL    HW111711   6.752   0.173   4.097
 3604SOL    HW211712   6.607   0.177   4.172
 3605SOL     OW11713   1.112   4.363   3.823
 3605SOL    HW111714   1.111   4.356   3.723
 3605SOL    HW211715   1.058   4.289   3.862
 3606SOL     OW11716   0.830   6.455   3.214
 3606SOL    HW111717   0.897   6.381   3.207
 3606SOL    HW211718   0.746   6.429   3.166
 3607SOL     OW11719   5.509   3.744   1.965
 3607SOL    HW111720   5.439   3.710   1.903
 3607SOL    HW211721   5.530   3.674   2.033
 3608SOL     OW11722   4.952   1.509   4.239
 3608SOL    HW111723   4.861   1.509   4.282
 3608SOL    HW211724   5.014   1.565   4.294
 3609SOL     OW11725   2.247   0.253   4.399
 3609SOL    HW111726   2.194   0.171   4.378
 3609SOL    HW211727   2.236   0.275   4.496
 3610SOL     OW11728   1.272   0.773   5.651
 3610SOL    HW111729   1.339   0.708   5.614
 3610SOL    HW211730   1.283   0.779   5.750
 3611SOL     OW11731   4.008   4.795   3.695
 3611SOL    HW111732   3.993   4.793   3.596
 3611SOL    HW211733   4.061   4.715   3.722
 3612SOL     OW11734   0.101   1.246   6.838
 3612SOL    HW111735   0.072   1.218   6.747
 3612SOL    HW211736   0.041   1.204   6.907
 3613SOL     OW11737   4.655   4.705   1.856
 3613SOL    HW111738   4.657   4.787   1.799
 3613SOL    HW211739   4.743   4.658   1.849
 3614SOL     OW11740   3.148   3.681   0.041
 3614SOL    HW111741   3.142   3.781   0.042
 3614SOL    HW211742   3.056   3.642   0.049
 3615SOL     OW11743   5.753   2.340   6.265
 3615SOL    HW111744   5.827   2.405   6.281
 3615SOL    HW211745   5.727   2.342   6.169
 3616SOL     OW11746   1.142   0.471   6.688
 3616SOL    HW111747   1.056   0.430   6.717
 3616SOL    HW211748   1.194   0.500   6.769
 3617SOL     OW11749   4.499   0.721   5.767
 3617SOL    HW111750   4.508   0.642   5.707
 3617SOL    HW211751   4.548   0.705   5.852
 3618SOL     OW11752   2.682   3.433   5.338
 3618SOL    HW111753   2.599   3.477   5.373
 3618SOL    HW211754   2.730   3.497   5.277
 3619SOL     OW11755   5.554   3.757   6.846
 3619SOL    HW111756   5.628   3.750   6.913
 3619SOL    HW211757   5.583   3.716   6.759
 3620SOL     OW11758   5.704   5.279   5.934
 3620SOL    HW111759   5.686   5.373   5.962
 3620SOL    HW211760   5.793   5.249   5.969
 3621SOL     OW11761   3.453   3.642   4.787
 3621SOL    HW111762   3.390   3.600   4.723
 3621SOL    HW211763   3.405   3.709   4.843
 3622SOL     OW11764   2.262   1.014   0.309
 3622SOL    HW111765   2.313   0.930   0.294
 3622SOL    HW211766   2.214   1.010   0.397
 3623SOL     OW11767   6.940   5.512   4.752
 3623SOL    HW111768   6.927   5.448   4.828
 3623SOL    HW211769   0.003   5.496   4.710
 3624SOL     OW11770   1.447   6.940   2.446
 3624SOL    HW111771   1.474   6.931   2.350
 3624SOL    HW211772   1.347   6.933   2.452
 3625SOL     OW11773   0.206   3.529   6.236
 3625SOL    HW111774   0.290   3.502   6.189
 3625SOL    HW211775   0.138   3.560   6.169
 3626SOL     OW11776   0.478   3.075   4.281
 3626SOL    HW111777   0.565   3.088   4.233
 3626SOL    HW211778   0.441   3.164   4.308
 3627SOL     OW11779   4.806   3.163   1.752
 3627SOL    HW111780   4.754   3.248   1.751
 3627SOL    HW211781   4.763   3.099   1.817
 3628SOL     OW11782   1.323   1.255   1.824
 3628SOL    HW111783   1.401   1.245   1.762
 3628SOL    HW211784   1.257   1.318   1.783
 3629SOL     OW11785   1.206   0.487   4.685
 3629SOL    HW111786   1.164   0.567   4.728
 3629SOL    HW211787   1.204   0.499   4.586
 3630SOL     OW11788   6.728   2.989   3.641
 3630SOL    HW111789   6.826   3.004   3.627
 3630SOL    HW211790   6.692   3.062   3.700
 3631SOL     OW11791   1.427   6.546   3.436
 3631SOL    HW111792   1.398   6.509   3.524
 3631SOL    HW211793   1.522   6.575   3.441
 3632SOL     OW11794   4.948   4.808   0.081
 3632SOL    HW111795   5.024   4.792   0.019
 3632SOL    HW211796   4.953   4.743   0.157
 3633SOL     OW11797   4.421   2.703   5.755
 3633SOL    HW111798   4.420   2.617   5.805
 3633SOL    HW211799   4.381   2.775   5.812
 3634SOL     OW11800   1.836   6.201   6.162
 3634SOL    HW111801   1.827   6.286   6.109
 3634SOL    HW211802   1.861   6.126   6.100
 3635SOL     OW11803   2.584   1.513   0.627
 3635SOL    HW111804   2.625   1.603   0.615
 3635SOL    HW211805   2.500   1.508   0.573
 3636SOL     OW11806   6.789   5.965   1.360
 3636SOL    HW111807   6.795   5.982   1.262
 3636SOL    HW211808   6.705   5.914   1.380
 3637SOL     OW11809   1.025   2.635   1.245
 3637SOL    HW111810   0.985   2.561   1.190
 3637SOL    HW211811   1.105   2.673   1.198
 3638SOL     OW11812   6.684   4.232   2.674
 3638SOL    HW111813   6.613   4.239   2.605
 3638SOL    HW211814   6.703   4.322   2.713
 3639SOL     OW11815   3.631   4.945   6.544
 3639SOL    HW111816   3.536   4.914   6.544
 3639SOL    HW211817   3.644   5.010   6.469
 3640SOL     OW11818   5.163   1.733   0.817
 3640SOL    HW111819   5.104   1.736   0.898
 3640SOL    HW211820   5.106   1.722   0.735
 3641SOL     OW11821   5.618   4.002   1.083
 3641SOL    HW111822   5.680   3.924   1.088
 3641SOL    HW211823   5.531   3.978   1.125
 3642SOL     OW11824   4.949   2.208   6.850
 3642SOL    HW111825   4.855   2.200   6.881
 3642SOL    HW211826   4.955   2.179   6.754
 3643SOL     OW11827   4.139   6.560   6.037
 3643SOL    HW111828   4.180   6.633   5.982
 3643SOL    HW211829   4.188   6.553   6.124
 3644SOL     OW11830   2.601   0.551   1.329
 3644SOL    HW111831   2.577   0.455   1.347
 3644SOL    HW211832   2.698   0.565   1.346
 3645SOL     OW11833   1.356   3.927   4.137
 3645SOL    HW111834   1.284   3.993   4.119
 3645SOL    HW211835   1.320   3.854   4.195
 3646SOL     OW11836   1.705   4.751   4.822
 3646SOL    HW111837   1.741   4.664   4.854
 3646SOL    HW211838   1.781   4.811   4.796
 3647SOL     OW11839   2.792   5.929   6.835
 3647SOL    HW111840   2.871   5.919   6.896
 3647SOL    HW211841   2.710   5.942   6.890
 3648SOL     OW11842   4.947   6.054   2.810
 3648SOL    HW111843   4.987   6.023   2.723
 3648SOL    HW211844   4.850   6.075   2.797
 3649SOL     OW11845   6.671   3.757   0.290
 3649SOL    HW111846   6.730   3.677   0.293
 3649SOL    HW211847   6.656   3.791   0.383
 3650SOL     OW11848   6.078   4.319   0.523
 3650SOL    HW111849   6.153   4.367   0.569
 3650SOL    HW211850   6.114   4.240   0.474
 3651SOL     OW11851   1.695   1.171   4.405
 3651SOL    HW111852   1.674   1.139   4.498
 3651SOL    HW211853   1.747   1.102   4.357
 3652SOL     OW11854   5.635   6.882   3.049
 3652SOL    HW111855   5.645   6.886   3.149
 3652SOL    HW211856   5.577   6.805   3.024
 3653SOL     OW11857   1.669   1.150   3.274
 3653SOL    HW111858   1.638   1.243   3.293
 3653SOL    HW211859   1.615   1.086   3.328
 3654SOL     OW11860   4.832   6.125   0.468
 3654SOL    HW111861   4.815   6.060   0.395
 3654SOL    HW211862   4.893   6.197   0.435
 3655SOL     OW11863   2.953   1.262   4.075
 3655SOL    HW111864   3.009   1.327   4.126
 3655SOL    HW211865   2.887   1.313   4.019
 3656SOL     OW11866   1.299   5.601   1.465
 3656SOL    HW111867   1.307   5.676   1.400
 3656SOL    HW211868   1.245   5.527   1.423
 3657SOL     OW11869   4.608   5.785   5.554
 3657SOL    HW111870   4.608   5.882   5.529
 3657SOL    HW211871   4.652   5.732   5.482
 3658SOL     OW11872   1.774   5.076   6.564
 3658SOL    HW111873   1.696   5.134   6.541
 3658SOL    HW211874   1.840   5.128   6.617
 3659SOL     OW11875   0.589   2.054   6.574
 3659SOL    HW111876   0.550   2.074   6.484
 3659SOL    HW211877   0.568   2.129   6.637
 3660SOL     OW11878   6.174   5.805   5.111
 3660SOL    HW111879   6.211   5.806   5.018
 3660SOL    HW211880   6.238   5.758   5.171
 3661SOL     OW11881   0.402   0.577   4.646
 3661SOL    HW111882   0.487   0.551   4.690
 3661SOL    HW211883   0.419   0.600   4.550
 3662SOL     OW11884   3.846   0.855   4.575
 3662SOL    HW111885   3.931   0.863   4.523
 3662SOL    HW211886   3.837   0.933   4.637
 3663SOL     OW11887   1.915   2.942   0.171
 3663SOL    HW111888   1.886   2.858   0.218
 3663SOL    HW211889   1.931   3.014   0.238
 3664SOL     OW11890   4.117   1.645   1.923
 3664SOL    HW111891   4.022   1.616   1.910
 3664SOL    HW211892   4.130   1.673   2.019
 3665SOL     OW11893   0.776   5.792   5.824
 3665SOL    HW111894   0.725   5.783   5.739
 3665SOL    HW211895   0.841   5.716   5.832
 3666SOL     OW11896   0.869   3.427   3.243
 3666SOL    HW111897   0.875   3.484   3.160
 3666SOL    HW211898   0.960   3.396   3.269
 3667SOL     OW11899   0.883   1.126   3.781
 3667SOL    HW111900   0.785   1.146   3.776
 3667SOL    HW211901   0.926   1.149   3.694
 3668SOL     OW11902   1.456   0.697   1.161
 3668SOL    HW111903   1.463   0.791   1.195
 3668SOL    HW211904   1.493   0.693   1.068
 3669SOL     OW11905   5.710   1.753   3.851
 3669SOL    HW111906   5.699   1.687   3.777
 3669SOL    HW211907   5.726   1.844   3.812
 3670SOL     OW11908   3.280   5.123   0.930
 3670SOL    HW111909   3.217   5.195   0.899
 3670SOL    HW211910   3.296   5.133   1.028
 3671SOL     OW11911   6.680   1.114   3.746
 3671SOL    HW111912   6.669   1.158   3.656
 3671SOL    HW211913   6.749   1.043   3.740
 3672SOL     OW11914   4.829   1.685   2.562
 3672SOL    HW111915   4.787   1.594   2.559
 3672SOL    HW211916   4.760   1.754   2.539
 3673SOL     OW11917   3.786   5.631   6.591
 3673SOL    HW111918   3.832   5.552   6.632
 3673SOL    HW211919   3.834   5.657   6.507
 3674SOL     OW11920   1.194   5.888   5.540
 3674SOL    HW111921   1.102   5.924   5.557
 3674SOL    HW211922   1.210   5.882   5.442
 3675SOL     OW11923   0.407   2.792   3.852
 3675SOL    HW111924   0.462   2.787   3.936
 3675SOL    HW211925   0.400   2.887   3.823
 3676SOL     OW11926   5.641   2.776   2.462
 3676SOL    HW111927   5.584   2.702   2.427
 3676SOL    HW211928   5.598   2.864   2.441
 3677SOL     OW11929   2.293   0.963   5.270
 3677SOL    HW111930   2.230   0.887   5.250
 3677SOL    HW211931   2.285   1.032   5.199
 3678SOL     OW11932   1.537   1.651   4.029
 3678SOL    HW111933   1.608   1.631   4.097
 3678SOL    HW211934   1.465   1.581   4.034
 3679SOL     OW11935   6.498   0.125   3.792
 3679SOL    HW111936   6.410   0.160   3.824
 3679SOL    HW211937   6.558   0.110   3.871
 3680SOL     OW11938   4.542   2.207   4.218
 3680SOL    HW111939   4.606   2.242   4.287
 3680SOL    HW211940   4.589   2.140   4.160
 3681SOL     OW11941   0.581   0.922   6.401
 3681SOL    HW111942   0.644   0.984   6.446
 3681SOL    HW211943   0.550   0.963   6.315
 3682SOL     OW11944   5.495   2.134   0.552
 3682SOL    HW111945   5.572   2.159   0.612
 3682SOL    HW211946   5.440   2.064   0.597
 3683SOL     OW11947   0.620   1.231   4.927
 3683SOL    HW111948   0.535   1.284   4.924
 3683SOL    HW211949   0.697   1.289   4.899
 3684SOL     OW11950   1.585   5.962   6.883
 3684SOL    HW111951   1.581   6.010   6.795
 3684SOL    HW211952   1.661   5.898   6.882
 3685SOL     OW11953   2.916   6.508   5.220
 3685SOL    HW111954   2.886   6.448   5.146
 3685SOL    HW211955   2.989   6.568   5.188
 3686SOL     OW11956   6.442   4.368   4.070
 3686SOL    HW111957   6.511   4.429   4.031
 3686SOL    HW211958   6.413   4.301   4.002
 3687SOL     OW11959   4.921   6.810   3.501
 3687SOL    HW111960   4.869   6.841   3.422
 3687SOL    HW211961   4.991   6.879   3.524
 3688SOL     OW11962   6.096   3.270   7.009
 3688SOL    HW111963   6.024   3.207   0.012
 3688SOL    HW211964   6.054   3.357   6.980
 3689SOL     OW11965   2.253   2.142   5.530
 3689SOL    HW111966   2.225   2.131   5.435
 3689SOL    HW211967   2.353   2.149   5.534
 3690SOL     OW11968   4.650   5.884   0.974
 3690SOL    HW111969   4.572   5.942   1.000
 3690SOL    HW211970   4.668   5.894   0.876
 3691SOL     OW11971   2.706   2.197   5.957
 3691SOL    HW111972   2.791   2.242   5.933
 3691SOL    HW211973   2.667   2.153   5.876
 3692SOL     OW11974   6.756   4.462   6.229
 3692SOL    HW111975   6.855   4.462   6.224
 3692SOL    HW211976   6.725   4.383   6.283
 3693SOL     OW11977   2.113   1.906   2.510
 3693SOL    HW111978   2.055   1.889   2.430
 3693SOL    HW211979   2.089   1.843   2.583
 3694SOL     OW11980   1.229   6.882   1.486
 3694SOL    HW111981   1.254   6.811   1.421
 3694SOL    HW211982   1.148   6.931   1.454
 3695SOL     OW11983   6.342   2.065   1.771
 3695SOL    HW111984   6.278   2.014   1.828
 3695SOL    HW211985   6.433   2.066   1.814
 3696SOL     OW11986   4.716   0.177   5.477
 3696SOL    HW111987   4.656   0.235   5.422
 3696SOL    HW211988   4.710   0.082   5.445
 3697SOL     OW11989   6.627   6.123   3.211
 3697SOL    HW111990   6.646   6.218   3.238
 3697SOL    HW211991   6.675   6.102   3.126
 3698SOL     OW11992   2.023   1.298   3.556
 3698SOL    HW111993   2.108   1.250   3.578
 3698SOL    HW211994   1.990   1.268   3.467
 3699SOL     OW11995   2.482   2.004   3.245
 3699SOL    HW111996   2.580   1.985   3.235
 3699SOL    HW211997   2.464   2.031   3.340
 3700SOL     OW11998   1.283   5.335   4.880
 3700SOL    HW111999   1.220   5.408   4.907
 3700SOL    HW212000   1.348   5.319   4.955
 3701SOL     OW12001   0.834   6.424   2.309
 3701SOL    HW112002   0.902   6.392   2.375
 3701SOL    HW212003   0.759   6.358   2.304
 3702SOL     OW12004   5.398   6.262   3.683
 3702SOL    HW112005   5.303   6.246   3.711
 3702SOL    HW212006   5.439   6.176   3.653
 3703SOL     OW12007   0.679   0.650   6.372
 3703SOL    HW112008   0.626   0.731   6.398
 3703SOL    HW212009   0.769   0.678   6.339
 3704SOL     OW12010   5.719   3.235   1.057
 3704SOL    HW112011   5.626   3.213   1.027
 3704SOL    HW212012   5.757   3.157   1.107
 3705SOL     OW12013   4.568   4.886   3.573
 3705SOL    HW112014   4.650   4.894   3.515
 3705SOL    HW212015   4.507   4.963   3.555
 3706SOL     OW12016   1.012   3.954   6.822
 3706SOL    HW112017   0.934   3.978   6.879
 3706SOL    HW212018   1.079   4.029   6.824
 3707SOL     OW12019   4.182   5.554   3.996
 3707SOL    HW112020   4.092   5.534   4.035
 3707SOL    HW212021   4.246   5.481   4.022
 3708SOL     OW12022   4.853   0.008   1.156
 3708SOL    HW112023   4.921   0.015   1.083
 3708SOL    HW212024   4.774   0.066   1.133
 3709SOL     OW12025   2.090   6.934   1.374
 3709SOL    HW112026   2.175   6.961   1.419
 3709SOL    HW212027   2.105   6.930   1.275
 3710SOL     OW12028   0.734   5.713   5.150
 3710SOL    HW112029   0.658   5.648   5.153
 3710SOL    HW212030   0.793   5.698   5.230
 3711SOL     OW12031   1.382   5.899   4.816
 3711SOL    HW112032   1.376   5.843   4.734
 3711SOL    HW212033   1.477   5.907   4.844
 3712SOL     OW12034   1.814   5.779   6.629
 3712SOL    HW112035   1.899   5.830   6.621
 3712SOL    HW212036   1.747   5.815   6.564
 3713SOL     OW12037   0.624   0.177   4.869
 3713SOL    HW112038   0.671   0.258   4.834
 3713SOL    HW212039   0.641   0.099   4.809
 3714SOL     OW12040   6.827   5.200   0.020
 3714SOL    HW112041   6.915   5.156   0.039
 3714SOL    HW212042   6.773   5.142   6.986
 3715SOL     OW12043   0.497   5.136   2.652
 3715SOL    HW112044   0.423   5.147   2.586
 3715SOL    HW212045   0.459   5.107   2.740
 3716SOL     OW12046   5.813   5.133   4.824
 3716SOL    HW112047   5.912   5.129   4.840
 3716SOL    HW212048   5.786   5.058   4.764
 3717SOL     OW12049   6.365   1.114   0.627
 3717SOL    HW112050   6.453   1.083   0.660
 3717SOL    HW212051   6.339   1.198   0.674
 3718SOL     OW12052   0.232   0.468   6.912
 3718SOL    HW112053   0.235   0.524   6.995
 3718SOL    HW212054   0.199   0.376   6.934
 3719SOL     OW12055   4.415   3.115   6.546
 3719SOL    HW112056   4.323   3.098   6.581
 3719SOL    HW212057   4.432   3.214   6.543
 3720SOL     OW12058   5.473   3.660   0.345
 3720SOL    HW112059   5.498   3.572   0.387
 3720SOL    HW212060   5.529   3.733   0.384
 3721SOL     OW12061   6.646   5.049   0.704
 3721SOL    HW112062   6.600   4.978   0.651
 3721SOL    HW212063   6.717   5.007   0.762
 3722SOL     OW12064   5.446   6.630   1.396
 3722SOL    HW112065   5.432   6.711   1.340
 3722SOL    HW212066   5.402   6.551   1.353
 3723SOL     OW12067   4.646   5.036   6.951
 3723SOL    HW112068   4.550   5.045   6.977
 3723SOL    HW212069   4.691   4.970   7.010
 3724SOL     OW12070   1.986   4.938   5.063
 3724SOL    HW112071   1.924   4.871   5.106
 3724SOL    HW212072   2.008   5.010   5.129
 3725SOL     OW12073   0.732   6.409   6.892
 3725SOL    HW112074   0.747   6.473   6.968
 3725SOL    HW212075   0.656   6.348   6.916
 3726SOL     OW12076   5.603   3.583   5.684
 3726SOL    HW112077   5.644   3.532   5.760
 3726SOL    HW212078   5.604   3.681   5.705
 3727SOL     OW12079   6.856   3.161   4.622
 3727SOL    HW112080   6.838   3.136   4.717
 3727SOL    HW212081   6.772   3.196   4.581
 3728SOL     OW12082   2.109   3.849   6.546
 3728SOL    HW112083   2.020   3.807   6.532
 3728SOL    HW212084   2.148   3.876   6.458
 3729SOL     OW12085   0.824   0.500   4.027
 3729SOL    HW112086   0.726   0.491   4.012
 3729SOL    HW212087   0.843   0.583   4.079
 3730SOL     OW12088   3.982   6.210   5.825
 3730SOL    HW112089   3.904   6.273   5.828
 3730SOL    HW212090   3.971   6.148   5.747
 3731SOL     OW12091   0.696   1.618   0.218
 3731SOL    HW112092   0.598   1.599   0.211
 3731SOL    HW212093   0.709   1.708   0.260
 3732SOL     OW12094   1.848   2.019   0.962
 3732SOL    HW112095   1.813   2.042   1.053
 3732SOL    HW212096   1.780   1.968   0.911
 3733SOL     OW12097   1.983   2.662   3.824
 3733SOL    HW112098   2.041   2.685   3.902
 3733SOL    HW212099   2.033   2.604   3.761
 3734SOL     OW12100   4.003   0.604   1.717
 3734SOL    HW112101   3.991   0.636   1.623
 3734SOL    HW212102   4.038   0.510   1.715
 3735SOL     OW12103   3.951   0.460   2.797
 3735SOL    HW112104   3.891   0.402   2.742
 3735SOL    HW212105   4.039   0.414   2.809
 3736SOL     OW12106   6.858   1.376   1.417
 3736SOL    HW112107   6.951   1.343   1.434
 3736SOL    HW212108   6.861   1.449   1.348
 3737SOL     OW12109   6.242   2.198   3.854
 3737SOL    HW112110   6.326   2.180   3.906
 3737SOL    HW212111   6.163   2.163   3.905
 3738SOL     OW12112   6.227   5.902   1.120
 3738SOL    HW112113   6.297   5.892   1.048
 3738SOL    HW212114   6.144   5.854   1.093
 3739SOL     OW12115   3.001   4.676   1.643
 3739SOL    HW112116   3.081   4.727   1.673
 3739SOL    HW212117   2.956   4.635   1.722
 3740SOL     OW12118   6.076   5.759   0.660
 3740SOL    HW112119   6.021   5.835   0.694
 3740SOL    HW212120   6.173   5.784   0.663
 3741SOL     OW12121   4.074   3.232   6.535
 3741SOL    HW112122   4.103   3.143   6.568
 3741SOL    HW212123   3.986   3.224   6.487
 3742SOL     OW12124   4.517   0.014   0.744
 3742SOL    HW112125   4.426   0.041   0.775
 3742SOL    HW212126   4.536   6.947   0.772
 3743SOL     OW12127   5.165   4.538   1.716
 3743SOL    HW112128   5.215   4.532   1.630
 3743SOL    HW212129   5.137   4.447   1.745
 3744SOL     OW12130   0.747   6.294   2.636
 3744SOL    HW112131   0.763   6.220   2.571
 3744SOL    HW212132   0.655   6.330   2.622
 3745SOL     OW12133   5.100   3.820   2.245
 3745SOL    HW112134   5.007   3.856   2.244
 3745SOL    HW212135   5.098   3.724   2.273
 3746SOL     OW12136   6.179   0.525   3.307
 3746SOL    HW112137   6.126   0.490   3.384
 3746SOL    HW212138   6.268   0.556   3.340
 3747SOL     OW12139   5.028   6.357   5.622
 3747SOL    HW112140   5.040   6.454   5.641
 3747SOL    HW212141   5.111   6.321   5.579
 3748SOL     OW12142   5.202   0.536   2.397
 3748SOL    HW112143   5.266   0.550   2.472
 3748SOL    HW212144   5.171   0.625   2.362
 3749SOL     OW12145   1.800   4.938   3.200
 3749SOL    HW112146   1.895   4.956   3.173
 3749SOL    HW212147   1.799   4.871   3.274
 3750SOL     OW12148   6.031   4.111   0.755
 3750SOL    HW112149   6.034   4.202   0.797
 3750SOL    HW212150   6.003   4.120   0.659
 3751SOL     OW12151   0.584   2.582   0.798
 3751SOL    HW112152   0.676   2.545   0.785
 3751SOL    HW212153   0.590   2.673   0.840
 3752SOL     OW12154   0.588   0.024   0.479
 3752SOL    HW112155   0.649   0.063   0.411
 3752SOL    HW212156   0.501   7.025   0.435
 3753SOL     OW12157   0.421   6.978   4.285
 3753SOL    HW112158   0.462   0.041   4.302
 3753SOL    HW212159   0.485   6.921   4.233
 3754SOL     OW12160   4.739   6.197   1.670
 3754SOL    HW112161   4.714   6.160   1.581
 3754SOL    HW212162   4.717   6.294   1.674
 3755SOL     OW12163   5.514   5.696   4.704
 3755SOL    HW112164   5.539   5.715   4.609
 3755SOL    HW212165   5.562   5.760   4.765
 3756SOL     OW12166   1.485   0.718   6.211
 3756SOL    HW112167   1.583   0.702   6.211
 3756SOL    HW212168   1.462   0.787   6.280
 3757SOL     OW12169   3.629   6.069   6.880
 3757SOL    HW112170   3.620   6.042   6.784
 3757SOL    HW212171   3.574   6.152   6.896
 3758SOL     OW12172   1.512   1.302   4.581
 3758SOL    HW112173   1.555   1.315   4.671
 3758SOL    HW212174   1.522   1.207   4.553
 3759SOL     OW12175   3.999   4.648   5.453
 3759SOL    HW112176   4.026   4.689   5.366
 3759SOL    HW212177   4.028   4.707   5.528
 3760SOL     OW12178   0.795   4.036   4.584
 3760SOL    HW112179   0.726   4.107   4.569
 3760SOL    HW212180   0.764   3.974   4.656
 3761SOL     OW12181   0.786   6.700   5.152
 3761SOL    HW112182   0.822   6.793   5.142
 3761SOL    HW212183   0.849   6.635   5.109
 3762SOL     OW12184   1.025   5.170   6.943
 3762SOL    HW112185   1.065   5.256   6.974
 3762SOL    HW212186   0.955   5.189   6.874
 3763SOL     OW12187   6.495   4.928   0.239
 3763SOL    HW112188   6.430   4.994   0.277
 3763SOL    HW212189   6.508   4.947   0.142
 3764SOL     OW12190   2.292   0.275   4.126
 3764SOL    HW112191   2.352   0.353   4.106
 3764SOL    HW212192   2.285   0.264   4.225
 3765SOL     OW12193   5.283   1.292   1.933
 3765SOL    HW112194   5.218   1.340   1.992
 3765SOL    HW212195   5.327   1.219   1.985
 3766SOL     OW12196   0.609   0.973   4.837
 3766SOL    HW112197   0.615   1.071   4.856
 3766SOL    HW212198   0.555   0.929   4.909
 3767SOL     OW12199   2.603   5.297   0.582
 3767SOL    HW112200   2.594   5.202   0.610
 3767SOL    HW212201   2.517   5.329   0.544
 3768SOL     OW12202   2.657   5.695   5.991
 3768SOL    HW112203   2.757   5.684   5.997
 3768SOL    HW212204   2.629   5.695   5.895
 3769SOL     OW12205   5.388   5.374   5.621
 3769SOL    HW112206   5.441   5.366   5.536
 3769SOL    HW212207   5.424   5.310   5.688
 3770SOL     OW12208   1.667   0.650   6.542
 3770SOL    HW112209   1.656   0.747   6.518
 3770SOL    HW212210   1.739   0.609   6.486
 3771SOL     OW12211   5.730   2.037   0.381
 3771SOL    HW112212   5.701   1.988   0.464
 3771SOL    HW212213   5.688   1.995   0.301
 3772SOL     OW12214   6.718   1.478   0.801
 3772SOL    HW112215   6.813   1.472   0.769
 3772SOL    HW212216   6.716   1.467   0.900
 3773SOL     OW12217   5.532   2.630   6.079
 3773SOL    HW112218   5.581   2.595   5.999
 3773SOL    HW212219   5.566   2.721   6.101
 3774SOL     OW12220   1.165   6.907   6.882
 3774SOL    HW112221   1.066   6.905   6.900
 3774SOL    HW212222   1.214   6.917   6.968
 3775SOL     OW12223   5.114   4.219   2.090
 3775SOL    HW112224   5.069   4.224   2.179
 3775SOL    HW212225   5.208   4.250   2.098
 3776SOL     OW12226   3.309   1.583   0.770
 3776SOL    HW112227   3.319   1.664   0.712
 3776SOL    HW212228   3.232   1.528   0.737
 3777SOL     OW12229   3.033   4.830   4.207
 3777SOL    HW112230   3.002   4.878   4.288
 3777SOL    HW212231   2.957   4.779   4.166
 3778SOL     OW12232   2.456   5.672   2.983
 3778SOL    HW112233   2.388   5.600   2.971
 3778SOL    HW212234   2.547   5.635   2.962
 3779SOL     OW12235   2.156   4.420   0.615
 3779SOL    HW112236   2.090   4.449   0.684
 3779SOL    HW212237   2.174   4.496   0.552
 3780SOL     OW12238   4.177   4.703   5.254
 3780SOL    HW112239   4.171   4.753   5.168
 3780SOL    HW212240   4.219   4.613   5.238
 3781SOL     OW12241   1.782   6.488   4.480
 3781SOL    HW112242   1.832   6.406   4.451
 3781SOL    HW212243   1.845   6.550   4.526
 3782SOL     OW12244   2.705   2.034   4.661
 3782SOL    HW112245   2.623   2.044   4.718
 3782SOL    HW212246   2.783   2.077   4.706
 3783SOL     OW12247   5.685   6.317   5.393
 3783SOL    HW112248   5.597   6.362   5.402
 3783SOL    HW212249   5.722   6.333   5.301
 3784SOL     OW12250   4.877   1.896   3.441
 3784SOL    HW112251   4.781   1.923   3.437
 3784SOL    HW212252   4.892   1.818   3.381
 3785SOL     OW12253   2.120   1.416   6.880
 3785SOL    HW112254   2.108   1.504   6.926
 3785SOL    HW212255   2.133   1.344   6.948
 3786SOL     OW12256   3.093   6.257   3.359
 3786SOL    HW112257   3.037   6.255   3.442
 3786SOL    HW212258   3.176   6.311   3.376
 3787SOL     OW12259   6.162   6.092   3.627
 3787SOL    HW112260   6.158   6.186   3.591
 3787SOL    HW212261   6.202   6.094   3.718
 3788SOL     OW12262   0.320   2.994   3.344
 3788SOL    HW112263   0.275   2.978   3.256
 3788SOL    HW212264   0.419   3.002   3.330
 3789SOL     OW12265   1.536   3.254   3.994
 3789SOL    HW112266   1.469   3.324   4.017
 3789SOL    HW212267   1.513   3.168   4.041
 3790SOL     OW12268   1.574   3.893   5.122
 3790SOL    HW112269   1.544   3.812   5.172
 3790SOL    HW212270   1.599   3.965   5.188
 3791SOL     OW12271   6.516   0.291   0.837
 3791SOL    HW112272   6.485   0.226   0.767
 3791SOL    HW212273   6.437   0.336   0.878
 3792SOL     OW12274   6.772   0.906   4.513
 3792SOL    HW112275   6.731   0.818   4.488
 3792SOL    HW212276   6.702   0.966   4.552
 3793SOL     OW12277   3.084   0.115   2.843
 3793SOL    HW112278   3.003   0.055   2.839
 3793SOL    HW212279   3.164   0.064   2.810
 3794SOL     OW12280   3.357   4.589   1.209
 3794SOL    HW112281   3.346   4.631   1.119
 3794SOL    HW212282   3.400   4.654   1.272
 3795SOL     OW12283   3.975   6.384   0.267
 3795SOL    HW112284   3.894   6.325   0.272
 3795SOL    HW212285   4.033   6.368   0.347
 3796SOL     OW12286   2.438   2.371   1.511
 3796SOL    HW112287   2.467   2.363   1.415
 3796SOL    HW212288   2.495   2.313   1.568
 3797SOL     OW12289   6.659   4.729   2.537
 3797SOL    HW112290   6.652   4.783   2.453
 3797SOL    HW212291   6.604   4.772   2.608
 3798SOL     OW12292   3.456   5.513   3.271
 3798SOL    HW112293   3.426   5.521   3.177
 3798SOL    HW212294   3.508   5.595   3.297
 3799SOL     OW12295   0.611   2.294   4.227
 3799SOL    HW112296   0.591   2.391   4.219
 3799SOL    HW212297   0.627   2.255   4.136
 3800SOL     OW12298   5.336   2.911   4.791
 3800SOL    HW112299   5.425   2.917   4.746
 3800SOL    HW212300   5.263   2.920   4.722
 3801SOL     OW12301   6.921   6.496   4.812
 3801SOL    HW112302   6.882   6.462   4.897
 3801SOL    HW212303   6.988   6.430   4.777
 3802SOL     OW12304   0.159   1.624   4.558
 3802SOL    HW112305   0.152   1.606   4.460
 3802SOL    HW212306   0.104   1.705   4.580
 3803SOL     OW12307   3.716   1.241   2.030
 3803SOL    HW112308   3.761   1.312   1.976
 3803SOL    HW212309   3.661   1.183   1.969
 3804SOL     OW12310   5.292   2.284   4.087
 3804SOL    HW112311   5.359   2.358   4.078
 3804SOL    HW212312   5.208   2.310   4.039
 3805SOL     OW12313   2.615   3.808   1.693
 3805SOL    HW112314   2.687   3.838   1.755
 3805SOL    HW212315   2.566   3.888   1.657
 3806SOL     OW12316   1.879   3.284   7.023
 3806SOL    HW112317   1.786   3.277   0.033
 3806SOL    HW212318   1.930   3.353   0.047
 3807SOL     OW12319   2.477   1.333   4.198
 3807SOL    HW112320   2.413   1.354   4.124
 3807SOL    HW212321   2.525   1.248   4.177
 3808SOL     OW12322   3.441   1.331   1.173
 3808SOL    HW112323   3.505   1.275   1.225
 3808SOL    HW212324   3.447   1.426   1.205
 3809SOL     OW12325   6.446   2.113   0.412
 3809SOL    HW112326   6.513   2.043   0.438
 3809SOL    HW212327   6.447   2.187   0.478
 3810SOL     OW12328   4.391   2.480   5.281
 3810SOL    HW112329   4.370   2.484   5.379
 3810SOL    HW212330   4.307   2.489   5.228
 3811SOL     OW12331   0.965   4.761   4.629
 3811SOL    HW112332   1.054   4.724   4.652
 3811SOL    HW212333   0.896   4.724   4.691
 3812SOL     OW12334   5.482   1.476   5.570
 3812SOL    HW112335   5.513   1.386   5.600
 3812SOL    HW212336   5.382   1.477   5.564
 3813SOL     OW12337   4.684   4.287   0.690
 3813SOL    HW112338   4.605   4.348   0.691
 3813SOL    HW212339   4.724   4.282   0.781
 3814SOL     OW12340   6.507   6.217   1.417
 3814SOL    HW112341   6.512   6.263   1.329
 3814SOL    HW212342   6.461   6.128   1.406
 3815SOL     OW12343   4.940   2.177   0.574
 3815SOL    HW112344   5.018   2.238   0.564
 3815SOL    HW212345   4.858   2.231   0.597
 3816SOL     OW12346   6.813   6.151   0.886
 3816SOL    HW112347   6.860   6.129   0.801
 3816SOL    HW212348   6.733   6.209   0.866
 3817SOL     OW12349   4.869   2.860   3.876
 3817SOL    HW112350   4.784   2.821   3.912
 3817SOL    HW212351   4.946   2.833   3.935
 3818SOL     OW12352   5.166   6.756   1.171
 3818SOL    HW112353   5.098   6.751   1.244
 3818SOL    HW212354   5.179   6.665   1.132
 3819SOL     OW12355   5.359   4.866   0.497
 3819SOL    HW112356   5.337   4.932   0.424
 3819SOL    HW212357   5.457   4.867   0.514
 3820SOL     OW12358   6.578   6.927   4.199
 3820SOL    HW112359   6.570   7.022   4.227
 3820SOL    HW212360   6.651   6.883   4.252
 3821SOL     OW12361   1.819   3.284   1.963
 3821SOL    HW112362   1.770   3.208   1.920
 3821SOL    HW212363   1.784   3.297   2.056
 3822SOL     OW12364   0.979   5.570   2.510
 3822SOL    HW112365   0.931   5.607   2.590
 3822SOL    HW212366   0.965   5.630   2.431
 3823SOL     OW12367   3.967   2.262   5.486
 3823SOL    HW112368   3.925   2.270   5.576
 3823SOL    HW212369   4.067   2.261   5.496
 3824SOL     OW12370   5.932   1.533   6.061
 3824SOL    HW112371   5.912   1.494   6.150
 3824SOL    HW212372   5.988   1.470   6.008
 3825SOL     OW12373   0.443   0.439   0.377
 3825SOL    HW112374   0.400   0.395   0.299
 3825SOL    HW212375   0.419   0.390   0.461
 3826SOL     OW12376   0.434   3.597   6.489
 3826SOL    HW112377   0.358   3.533   6.478
 3826SOL    HW212378   0.518   3.547   6.508
 3827SOL     OW12379   3.663   4.000   0.688
 3827SOL    HW112380   3.689   4.068   0.757
 3827SOL    HW212381   3.685   4.036   0.597
 3828SOL     OW12382   4.525   2.116   1.277
 3828SOL    HW112383   4.455   2.187   1.280
 3828SOL    HW212384   4.505   2.053   1.202
 3829SOL     OW12385   2.094   4.536   3.995
 3829SOL    HW112386   2.133   4.628   3.985
 3829SOL    HW212387   2.163   4.475   4.033
 3830SOL     OW12388   0.619   0.487   4.830
 3830SOL    HW112389   0.695   0.509   4.768
 3830SOL    HW212390   0.643   0.515   4.923
 3831SOL     OW12391   4.566   2.211   2.466
 3831SOL    HW112392   4.606   2.302   2.457
 3831SOL    HW212393   4.473   2.211   2.430
 3832SOL     OW12394   6.230   0.346   2.406
 3832SOL    HW112395   6.309   0.400   2.435
 3832SOL    HW212396   6.146   0.392   2.438
 3833SOL     OW12397   0.790   6.173   6.297
 3833SOL    HW112398   0.772   6.076   6.315
 3833SOL    HW212399   0.879   6.198   6.335
 3834SOL     OW12400   3.623   2.645   0.067
 3834SOL    HW112401   3.625   2.614   6.999
 3834SOL    HW212402   3.556   2.718   0.077
 3835SOL     OW12403   3.189   4.888   5.321
 3835SOL    HW112404   3.133   4.877   5.239
 3835SOL    HW212405   3.205   4.798   5.362
 3836SOL     OW12406   2.235   3.106   5.228
 3836SOL    HW112407   2.318   3.060   5.201
 3836SOL    HW212408   2.162   3.039   5.242
 3837SOL     OW12409   4.799   3.234   6.770
 3837SOL    HW112410   4.764   3.327   6.758
 3837SOL    HW212411   4.764   3.176   6.696
 3838SOL     OW12412   6.017   4.106   4.265
 3838SOL    HW112413   6.024   4.194   4.313
 3838SOL    HW212414   5.976   4.120   4.175
 3839SOL     OW12415   4.652   6.435   4.186
 3839SOL    HW112416   4.726   6.450   4.253
 3839SOL    HW212417   4.616   6.523   4.156
 3840SOL     OW12418   1.292   1.244   5.326
 3840SOL    HW112419   1.363   1.215   5.261
 3840SOL    HW212420   1.319   1.220   5.419
 3841SOL     OW12421   0.560   3.808   5.091
 3841SOL    HW112422   0.586   3.715   5.063
 3841SOL    HW212423   0.539   3.809   5.189
 3842SOL     OW12424   1.402   5.162   0.535
 3842SOL    HW112425   1.467   5.093   0.566
 3842SOL    HW212426   1.441   5.253   0.549
 3843SOL     OW12427   6.900   3.372   1.365
 3843SOL    HW112428   6.908   3.466   1.399
 3843SOL    HW212429   6.806   3.341   1.374
 3844SOL     OW12430   0.045   4.657   5.292
 3844SOL    HW112431   0.109   4.580   5.292
 3844SOL    HW212432   0.055   4.708   5.377
 3845SOL     OW12433   3.272   2.874   2.655
 3845SOL    HW112434   3.204   2.800   2.654
 3845SOL    HW212435   3.269   2.920   2.744
 3846SOL     OW12436   0.353   4.452   4.252
 3846SOL    HW112437   0.398   4.368   4.220
 3846SOL    HW212438   0.385   4.529   4.196
 3847SOL     OW12439   6.361   1.076   6.119
 3847SOL    HW112440   6.285   1.125   6.076
 3847SOL    HW212441   6.352   1.082   6.219
 3848SOL     OW12442   2.379   5.404   2.839
 3848SOL    HW112443   2.354   5.454   2.756
 3848SOL    HW212444   2.317   5.326   2.850
 3849SOL     OW12445   0.443   1.337   5.616
 3849SOL    HW112446   0.363   1.392   5.640
 3849SOL    HW212447   0.416   1.241   5.607
 3850SOL     OW12448   2.411   3.584   1.618
 3850SOL    HW112449   2.471   3.661   1.639
 3850SOL    HW212450   2.385   3.537   1.703
 3851SOL     OW12451   1.611   4.352   2.967
 3851SOL    HW112452   1.639   4.263   3.004
 3851SOL    HW212453   1.638   4.357   2.871
 3852SOL     OW12454   4.683   6.599   4.871
 3852SOL    HW112455   4.746   6.528   4.839
 3852SOL    HW212456   4.681   6.675   4.806
 3853SOL     OW12457   1.591   3.485   2.682
 3853SOL    HW112458   1.640   3.520   2.602
 3853SOL    HW212459   1.624   3.393   2.704
 3854SOL     OW12460   0.623   3.583   3.268
 3854SOL    HW112461   0.584   3.599   3.177
 3854SOL    HW212462   0.707   3.530   3.259
 3855SOL     OW12463   5.533   5.357   6.816
 3855SOL    HW112464   5.516   5.320   6.725
 3855SOL    HW212465   5.484   5.443   6.827
 3856SOL     OW12466   0.106   6.901   5.257
 3856SOL    HW112467   0.085   6.804   5.247
 3856SOL    HW212468   0.169   6.929   5.184
 3857SOL     OW12469   1.450   6.895   5.064
 3857SOL    HW112470   1.418   6.821   5.004
 3857SOL    HW212471   1.442   6.982   5.016
 3858SOL     OW12472   1.014   5.986   5.958
 3858SOL    HW112473   1.100   6.013   6.001
 3858SOL    HW212474   0.953   5.948   6.028
 3859SOL     OW12475   6.784   1.741   3.145
 3859SOL    HW112476   6.732   1.658   3.126
 3859SOL    HW212477   6.865   1.744   3.086
 3860SOL     OW12478   2.203   6.183   4.137
 3860SOL    HW112479   2.299   6.204   4.152
 3860SOL    HW212480   2.148   6.264   4.153
 3861SOL     OW12481   5.860   4.436   1.055
 3861SOL    HW112482   5.784   4.448   0.991
 3861SOL    HW212483   5.947   4.444   1.006
 3862SOL     OW12484   6.656   0.167   6.067
 3862SOL    HW112485   6.557   0.154   6.054
 3862SOL    HW212486   6.689   0.235   6.002
 3863SOL     OW12487   3.926   4.105   0.101
 3863SOL    HW112488   3.901   4.169   0.173
 3863SOL    HW212489   3.860   4.111   0.026
 3864SOL     OW12490   4.384   2.030   6.116
 3864SOL    HW112491   4.472   2.038   6.067
 3864SOL    HW212492   4.385   1.946   6.171
 3865SOL     OW12493   3.559   0.629   1.656
 3865SOL    HW112494   3.543   0.585   1.744
 3865SOL    HW212495   3.617   0.570   1.599
 3866SOL     OW12496   4.153   0.647   0.473
 3866SOL    HW112497   4.058   0.636   0.444
 3866SOL    HW212498   4.213   0.639   0.393
 3867SOL     OW12499   2.151   3.797   3.340
 3867SOL    HW112500   2.190   3.811   3.431
 3867SOL    HW212501   2.166   3.878   3.284
 3868SOL     OW12502   2.365   5.536   1.686
 3868SOL    HW112503   2.379   5.448   1.643
 3868SOL    HW212504   2.298   5.589   1.634
 3869SOL     OW12505   0.030   2.481   3.741
 3869SOL    HW112506   0.069   2.422   3.811
 3869SOL    HW212507   0.068   2.573   3.750
 3870SOL     OW12508   2.982   5.142   6.893
 3870SOL    HW112509   3.062   5.203   6.891
 3870SOL    HW212510   2.899   5.197   6.897
 3871SOL     OW12511   3.356   0.272   2.263
 3871SOL    HW112512   3.268   0.250   2.306
 3871SOL    HW212513   3.406   0.187   2.244
 3872SOL     OW12514   3.873   3.260   0.915
 3872SOL    HW112515   3.958   3.230   0.872
 3872SOL    HW212516   3.861   3.215   1.003
 3873SOL     OW12517   5.633   5.318   1.472
 3873SOL    HW112518   5.658   5.376   1.549
 3873SOL    HW212519   5.714   5.273   1.435
 3874SOL     OW12520   4.240   0.023   0.167
 3874SOL    HW112521   4.199   6.995   0.094
 3874SOL    HW212522   4.257   6.993   0.247
 3875SOL     OW12523   0.989   4.019   2.466
 3875SOL    HW112524   1.000   3.929   2.508
 3875SOL    HW212525   1.053   4.028   2.389
 3876SOL     OW12526   5.233   5.574   6.513
 3876SOL    HW112527   5.138   5.601   6.526
 3876SOL    HW212528   5.238   5.506   6.439
 3877SOL     OW12529   6.609   1.639   1.195
 3877SOL    HW112530   6.592   1.644   1.294
 3877SOL    HW212531   6.555   1.564   1.157
 3878SOL     OW12532   3.168   6.517   5.865
 3878SOL    HW112533   3.132   6.432   5.903
 3878SOL    HW212534   3.248   6.546   5.918
 3879SOL     OW12535   4.495   6.012   0.596
 3879SOL    HW112536   4.568   5.950   0.626
 3879SOL    HW212537   4.407   5.980   0.632
 3880SOL     OW12538   6.122   4.274   2.481
 3880SOL    HW112539   6.182   4.251   2.557
 3880SOL    HW212540   6.148   4.364   2.444
 3881SOL     OW12541   1.763   5.483   0.342
 3881SOL    HW112542   1.774   5.406   0.280
 3881SOL    HW212543   1.794   5.457   0.434
 3882SOL     OW12544   6.274   1.125   6.379
 3882SOL    HW112545   6.250   1.222   6.373
 3882SOL    HW212546   6.347   1.114   6.447
 3883SOL     OW12547   4.641   1.118   4.118
 3883SOL    HW112548   4.598   1.121   4.027
 3883SOL    HW212549   4.606   1.195   4.173
 3884SOL     OW12550   1.225   6.372   4.699
 3884SOL    HW112551   1.272   6.395   4.785
 3884SOL    HW212552   1.211   6.273   4.695
 3885SOL     OW12553   6.578   1.411   4.254
 3885SOL    HW112554   6.588   1.311   4.252
 3885SOL    HW212555   6.609   1.450   4.168
 3886SOL     OW12556   6.461   0.420   5.506
 3886SOL    HW112557   6.549   0.440   5.549
 3886SOL    HW212558   6.387   0.453   5.563
 3887SOL     OW12559   4.449   1.439   5.523
 3887SOL    HW112560   4.476   1.533   5.506
 3887SOL    HW212561   4.465   1.416   5.619
 3888SOL     OW12562   0.012   1.457   0.313
 3888SOL    HW112563   6.970   1.486   0.246
 3888SOL    HW212564   0.086   1.410   0.266
 3889SOL     OW12565   0.692   5.668   6.779
 3889SOL    HW112566   0.744   5.586   6.804
 3889SOL    HW212567   0.654   5.710   6.862
 3890SOL     OW12568   5.531   6.004   3.373
 3890SOL    HW112569   5.581   6.030   3.456
 3890SOL    HW212570   5.450   6.061   3.365
 3891SOL     OW12571   5.245   5.589   4.964
 3891SOL    HW112572   5.312   5.625   5.029
 3891SOL    HW212573   5.216   5.498   4.992
 3892SOL     OW12574   0.253   6.828   2.880
 3892SOL    HW112575   0.202   6.822   2.965
 3892SOL    HW212576   0.218   6.761   2.815
 3893SOL     OW12577   3.883   5.552   3.929
 3893SOL    HW112578   3.825   5.585   4.004
 3893SOL    HW212579   3.826   5.503   3.863
 3894SOL     OW12580   4.406   2.622   0.371
 3894SOL    HW112581   4.334   2.588   0.431
 3894SOL    HW212582   4.458   2.544   0.335
 3895SOL     OW12583   1.448   1.609   5.311
 3895SOL    HW112584   1.520   1.558   5.264
 3895SOL    HW212585   1.485   1.697   5.342
 3896SOL     OW12586   0.122   2.028   6.053
 3896SOL    HW112587   0.211   2.042   6.010
 3896SOL    HW212588   0.049   2.058   5.990
 3897SOL     OW12589   2.637   6.586   2.231
 3897SOL    HW112590   2.678   6.511   2.180
 3897SOL    HW212591   2.568   6.550   2.293
 3898SOL     OW12592   3.941   3.526   4.206
 3898SOL    HW112593   3.857   3.552   4.254
 3898SOL    HW212594   3.932   3.432   4.172
 3899SOL     OW12595   4.634   1.377   5.161
 3899SOL    HW112596   4.571   1.317   5.211
 3899SOL    HW212597   4.597   1.470   5.158
 3900SOL     OW12598   6.483   2.813   3.292
 3900SOL    HW112599   6.470   2.739   3.358
 3900SOL    HW212600   6.570   2.859   3.309
 3901SOL     OW12601   0.959   6.421   4.745
 3901SOL    HW112602   1.054   6.391   4.734
 3901SOL    HW212603   0.942   6.499   4.685
 3902SOL     OW12604   5.613   4.889   1.575
 3902SOL    HW112605   5.596   4.959   1.506
 3902SOL    HW212606   5.618   4.799   1.532
 3903SOL     OW12607   4.179   2.217   0.398
 3903SOL    HW112608   4.254   2.176   0.449
 3903SOL    HW212609   4.158   2.161   0.318
 3904SOL     OW12610   1.231   0.291   0.338
 3904SOL    HW112611   1.174   0.357   0.387
 3904SOL    HW212612   1.174   0.229   0.285
 3905SOL     OW12613   6.825   6.781   6.118
 3905SOL    HW112614   6.800   6.863   6.170
 3905SOL    HW212615   6.877   6.809   6.036
 3906SOL     OW12616   1.806   4.767   4.449
 3906SOL    HW112617   1.837   4.677   4.478
 3906SOL    HW212618   1.706   4.768   4.443
 3907SOL     OW12619   0.012   0.850   4.309
 3907SOL    HW112620   6.959   0.798   4.280
 3907SOL    HW212621   0.014   0.857   4.409
 3908SOL     OW12622   1.514   0.935   5.238
 3908SOL    HW112623   1.572   0.857   5.210
 3908SOL    HW212624   1.516   0.943   5.337
 3909SOL     OW12625   5.121   2.619   5.650
 3909SOL    HW112626   5.148   2.665   5.736
 3909SOL    HW212627   5.044   2.558   5.668
 3910SOL     OW12628   3.119   2.845   1.515
 3910SOL    HW112629   3.088   2.808   1.603
 3910SOL    HW212630   3.041   2.855   1.454
 3911SOL     OW12631   5.746   0.726   1.792
 3911SOL    HW112632   5.765   0.796   1.724
 3911SOL    HW212633   5.652   0.694   1.782
 3912SOL     OW12634   3.511   2.035   6.751
 3912SOL    HW112635   3.560   2.105   6.699
 3912SOL    HW212636   3.548   1.945   6.730
 3913SOL     OW12637   4.180   6.266   0.408
 3913SOL    HW112638   4.128   6.240   0.489
 3913SOL    HW212639   4.271   6.296   0.436
 3914SOL     OW12640   6.046   1.351   1.170
 3914SOL    HW112641   6.079   1.434   1.215
 3914SOL    HW212642   5.959   1.370   1.125
 3915SOL     OW12643   4.726   5.367   0.483
 3915SOL    HW112644   4.814   5.321   0.468
 3915SOL    HW212645   4.736   5.465   0.470
 3916SOL     OW12646   2.084   0.617   2.941
 3916SOL    HW112647   2.068   0.539   2.880
 3916SOL    HW212648   2.175   0.655   2.922
 3917SOL     OW12649   2.625   4.915   0.785
 3917SOL    HW112650   2.616   4.902   0.686
 3917SOL    HW212651   2.717   4.948   0.806
 3918SOL     OW12652   5.614   0.606   0.895
 3918SOL    HW112653   5.666   0.691   0.904
 3918SOL    HW212654   5.537   0.608   0.958
 3919SOL     OW12655   4.233   0.644   1.000
 3919SOL    HW112656   4.197   0.723   1.050
 3919SOL    HW212657   4.177   0.629   0.918
 3920SOL     OW12658   3.152   1.034   6.386
 3920SOL    HW112659   3.093   0.996   6.315
 3920SOL    HW212660   3.097   1.081   6.454
 3921SOL     OW12661   0.594   2.953   5.919
 3921SOL    HW112662   0.512   2.904   5.948
 3921SOL    HW212663   0.568   3.030   5.861
 3922SOL     OW12664   4.734   4.968   1.736
 3922SOL    HW112665   4.723   5.043   1.801
 3922SOL    HW212666   4.674   4.983   1.658
 3923SOL     OW12667   5.471   0.941   2.044
 3923SOL    HW112668   5.454   1.033   2.078
 3923SOL    HW212669   5.568   0.931   2.022
 3924SOL     OW12670   6.951   4.847   4.986
 3924SOL    HW112671   7.015   4.916   5.019
 3924SOL    HW212672   6.885   4.890   4.924
 3925SOL     OW12673   4.808   3.699   0.150
 3925SOL    HW112674   4.841   3.605   0.162
 3925SOL    HW212675   4.886   3.760   0.135
 3926SOL     OW12676   1.292   0.852   5.931
 3926SOL    HW112677   1.198   0.819   5.922
 3926SOL    HW212678   1.301   0.900   6.019
 3927SOL     OW12679   0.090   2.773   4.692
 3927SOL    HW112680   0.181   2.746   4.722
 3927SOL    HW212681   0.097   2.824   4.606
 3928SOL     OW12682   2.046   6.576   3.150
 3928SOL    HW112683   2.129   6.549   3.101
 3928SOL    HW212684   1.966   6.538   3.103
 3929SOL     OW12685   6.916   2.182   5.159
 3929SOL    HW112686   6.899   2.105   5.097
 3929SOL    HW212687   6.931   2.265   5.106
 3930SOL     OW12688   0.932   3.658   4.182
 3930SOL    HW112689   0.952   3.560   4.180
 3930SOL    HW212690   1.017   3.710   4.172
 3931SOL     OW12691   1.710   2.582   1.540
 3931SOL    HW112692   1.721   2.558   1.636
 3931SOL    HW212693   1.679   2.502   1.488
 3932SOL     OW12694   1.588   6.017   4.032
 3932SOL    HW112695   1.518   5.949   4.011
 3932SOL    HW212696   1.574   6.050   4.126
 3933SOL     OW12697   2.178   4.995   0.332
 3933SOL    HW112698   2.152   4.900   0.317
 3933SOL    HW212699   2.115   5.055   0.283
 3934SOL     OW12700   0.615   1.398   2.604
 3934SOL    HW112701   0.613   1.494   2.631
 3934SOL    HW212702   0.633   1.341   2.684
 3935SOL     OW12703   6.162   3.308   6.557
 3935SOL    HW112704   6.257   3.337   6.546
 3935SOL    HW212705   6.139   3.242   6.485
 3936SOL     OW12706   6.878   5.525   5.304
 3936SOL    HW112707   6.864   5.583   5.224
 3936SOL    HW212708   6.970   5.486   5.302
 3937SOL     OW12709   0.168   6.324   2.268
 3937SOL    HW112710   0.148   6.300   2.363
 3937SOL    HW212711   0.116   6.406   2.243
 3938SOL     OW12712   6.692   4.038   3.210
 3938SOL    HW112713   6.783   4.078   3.207
 3938SOL    HW212714   6.685   3.964   3.143
 3939SOL     OW12715   0.399   1.169   2.587
 3939SOL    HW112716   0.488   1.213   2.583
 3939SOL    HW212717   0.354   1.175   2.498
 3940SOL     OW12718   3.151   4.819   1.825
 3940SOL    HW112719   3.251   4.811   1.832
 3940SOL    HW212720   3.112   4.825   1.917
 3941SOL     OW12721   5.800   6.434   4.299
 3941SOL    HW112722   5.840   6.404   4.212
 3941SOL    HW212723   5.824   6.530   4.316
 3942SOL     OW12724   1.013   6.227   6.418
 3942SOL    HW112725   1.025   6.325   6.401
 3942SOL    HW212726   0.985   6.213   6.513
 3943SOL     OW12727   1.433   3.212   1.493
 3943SOL    HW112728   1.447   3.303   1.455
 3943SOL    HW212729   1.455   3.213   1.591
 3944SOL     OW12730   6.670   2.293   6.475
 3944SOL    HW112731   6.655   2.349   6.394
 3944SOL    HW212732   6.696   2.200   6.448
 3945SOL     OW12733   0.754   1.023   3.091
 3945SOL    HW112734   0.786   1.114   3.118
 3945SOL    HW212735   0.820   0.954   3.121
 3946SOL     OW12736   0.859   2.804   0.613
 3946SOL    HW112737   0.805   2.776   0.693
 3946SOL    HW212738   0.888   2.722   0.563
 3947SOL     OW12739   6.028   5.748   1.022
 3947SOL    HW112740   5.993   5.742   0.928
 3947SOL    HW212741   5.978   5.686   1.081
 3948SOL     OW12742   1.723   2.406   5.922
 3948SOL    HW112743   1.632   2.420   5.961
 3948SOL    HW212744   1.762   2.495   5.897
 3949SOL     OW12745   6.202   6.663   2.311
 3949SOL    HW112746   6.178   6.584   2.367
 3949SOL    HW212747   6.192   6.639   2.214
 3950SOL     OW12748   3.685   4.183   1.262
 3950SOL    HW112749   3.712   4.103   1.207
 3950SOL    HW212750   3.639   4.250   1.203
 3951SOL     OW12751   0.210   1.240   5.432
 3951SOL    HW112752   0.174   1.331   5.452
 3951SOL    HW212753   0.139   1.171   5.446
 3952SOL     OW12754   6.437   2.887   5.073
 3952SOL    HW112755   6.410   2.793   5.096
 3952SOL    HW212756   6.367   2.951   5.107
 3953SOL     OW12757   3.684   4.550   6.720
 3953SOL    HW112758   3.687   4.473   6.657
 3953SOL    HW212759   3.589   4.577   6.735
 3954SOL     OW12760   0.804   3.934   5.049
 3954SOL    HW112761   0.711   3.898   5.056
 3954SOL    HW212762   0.836   3.963   5.139
 3955SOL     OW12763   5.093   5.387   6.931
 3955SOL    HW112764   5.072   5.380   6.834
 3955SOL    HW212765   5.185   5.351   6.948
 3956SOL     OW12766   0.134   2.615   5.958
 3956SOL    HW112767   0.133   2.709   5.992
 3956SOL    HW212768   0.216   2.569   5.993
 3957SOL     OW12769   2.158   6.999   4.320
 3957SOL    HW112770   2.085   6.986   4.387
 3957SOL    HW212771   2.119   7.003   4.228
 3958SOL     OW12772   6.013   5.940   5.824
 3958SOL    HW112773   5.930   5.980   5.785
 3958SOL    HW212774   6.082   5.929   5.752
 3959SOL     OW12775   3.213   4.931   6.960
 3959SOL    HW112776   3.201   4.967   6.868
 3959SOL    HW212777   3.305   4.892   6.969
 3960SOL     OW12778   4.033   3.026   0.318
 3960SOL    HW112779   4.109   2.977   0.276
 3960SOL    HW212780   3.947   2.993   0.281
 3961SOL     OW12781   4.763   0.890   1.877
 3961SOL    HW112782   4.727   0.816   1.819
 3961SOL    HW212783   4.759   0.862   1.973
 3962SOL     OW12784   0.883   0.096   6.717
 3962SOL    HW112785   0.914   0.014   6.765
 3962SOL    HW212786   0.797   0.077   6.669
 3963SOL     OW12787   4.925   5.675   4.166
 3963SOL    HW112788   4.861   5.642   4.235
 3963SOL    HW212789   5.013   5.695   4.210
 3964SOL     OW12790   5.093   5.739   5.855
 3964SOL    HW112791   5.164   5.669   5.850
 3964SOL    HW212792   5.013   5.711   5.803
 3965SOL     OW12793   3.151   3.970   0.038
 3965SOL    HW112794   3.103   4.057   0.041
 3965SOL    HW212795   3.229   3.972   0.100
 3966SOL     OW12796   6.349   4.521   5.105
 3966SOL    HW112797   6.262   4.553   5.140
 3966SOL    HW212798   6.395   4.465   5.174
 3967SOL     OW12799   0.505   5.994   5.929
 3967SOL    HW112800   0.532   5.949   5.844
 3967SOL    HW212801   0.540   6.088   5.929
 3968SOL     OW12802   5.141   0.989   2.547
 3968SOL    HW112803   5.073   1.013   2.617
 3968SOL    HW212804   5.174   0.896   2.564
 3969SOL     OW12805   0.487   5.064   2.955
 3969SOL    HW112806   0.388   5.058   2.942
 3969SOL    HW212807   0.507   5.114   3.039
 3970SOL     OW12808   4.687   4.746   3.179
 3970SOL    HW112809   4.657   4.655   3.207
 3970SOL    HW212810   4.780   4.762   3.211
 3971SOL     OW12811   2.021   5.719   3.569
 3971SOL    HW112812   1.980   5.808   3.548
 3971SOL    HW212813   2.104   5.732   3.623
 3972SOL     OW12814   0.631   6.791   0.863
 3972SOL    HW112815   0.641   6.808   0.961
 3972SOL    HW212816   0.634   6.877   0.813
 3973SOL     OW12817   3.017   3.915   4.516
 3973SOL    HW112818   3.005   3.953   4.608
 3973SOL    HW212819   3.065   3.981   4.458
 3974SOL     OW12820   6.679   0.852   6.416
 3974SOL    HW112821   6.592   0.871   6.460
 3974SOL    HW212822   6.671   0.771   6.358
 3975SOL     OW12823   6.461   1.586   6.430
 3975SOL    HW112824   6.481   1.522   6.504
 3975SOL    HW212825   6.497   1.550   6.344
 3976SOL     OW12826   1.262   3.973   0.732
 3976SOL    HW112827   1.267   3.881   0.770
 3976SOL    HW212828   1.253   3.968   0.633
 3977SOL     OW12829   2.594   6.377   6.539
 3977SOL    HW112830   2.659   6.444   6.502
 3977SOL    HW212831   2.645   6.300   6.578
 3978SOL     OW12832   5.963   2.085   5.748
 3978SOL    HW112833   5.867   2.075   5.772
 3978SOL    HW212834   6.008   2.145   5.814
 3979SOL     OW12835   0.915   6.828   2.046
 3979SOL    HW112836   1.002   6.877   2.043
 3979SOL    HW212837   0.921   6.753   2.113
 3980SOL     OW12838   4.847   3.044   4.554
 3980SOL    HW112839   4.892   3.125   4.590
 3980SOL    HW212840   4.794   3.000   4.626
 3981SOL     OW12841   6.755   1.991   0.686
 3981SOL    HW112842   6.752   1.899   0.646
 3981SOL    HW212843   6.774   2.058   0.615
 3982SOL     OW12844   2.673   2.049   3.916
 3982SOL    HW112845   2.745   2.055   3.848
 3982SOL    HW212846   2.711   2.063   4.007
 3983SOL     OW12847   2.976   6.638   3.966
 3983SOL    HW112848   3.019   6.726   3.951
 3983SOL    HW212849   3.046   6.566   3.969
 3984SOL     OW12850   1.659   6.449   1.916
 3984SOL    HW112851   1.752   6.485   1.922
 3984SOL    HW212852   1.609   6.499   1.845
 3985SOL     OW12853   2.448   3.407   0.687
 3985SOL    HW112854   2.532   3.353   0.683
 3985SOL    HW212855   2.434   3.439   0.780
 3986SOL     OW12856   0.120   1.947   1.617
 3986SOL    HW112857   0.071   1.861   1.627
 3986SOL    HW212858   0.140   1.984   1.708
 3987SOL     OW12859   2.188   4.904   6.461
 3987SOL    HW112860   2.155   4.913   6.555
 3987SOL    HW212861   2.237   4.817   6.451
 3988SOL     OW12862   4.345   3.033   0.677
 3988SOL    HW112863   4.357   3.079   0.589
 3988SOL    HW212864   4.382   2.940   0.671
 3989SOL     OW12865   6.317   6.681   0.198
 3989SOL    HW112866   6.262   6.747   0.147
 3989SOL    HW212867   6.259   6.607   0.231
 3990SOL     OW12868   0.698   3.042   4.084
 3990SOL    HW112869   0.769   3.054   4.014
 3990SOL    HW212870   0.609   3.030   4.039
 3991SOL     OW12871   0.615   2.276   3.527
 3991SOL    HW112872   0.559   2.309   3.603
 3991SOL    HW212873   0.573   2.195   3.486
 3992SOL     OW12874   4.487   3.657   6.294
 3992SOL    HW112875   4.458   3.665   6.389
 3992SOL    HW212876   4.409   3.676   6.234
 3993SOL     OW12877   3.097   2.199   2.779
 3993SOL    HW112878   3.091   2.187   2.680
 3993SOL    HW212879   3.155   2.278   2.800
 3994SOL     OW12880   2.591   2.501   3.917
 3994SOL    HW112881   2.682   2.461   3.915
 3994SOL    HW212882   2.533   2.449   3.981
 3995SOL     OW12883   2.256   4.393   3.566
 3995SOL    HW112884   2.176   4.348   3.605
 3995SOL    HW212885   2.303   4.330   3.504
 3996SOL     OW12886   0.692   1.029   3.548
 3996SOL    HW112887   0.621   0.958   3.549
 3996SOL    HW212888   0.687   1.082   3.633
 3997SOL     OW12889   5.203   3.803   3.004
 3997SOL    HW112890   5.298   3.774   3.009
 3997SOL    HW212891   5.153   3.742   2.943
 3998SOL     OW12892   6.476   2.095   3.055
 3998SOL    HW112893   6.555   2.034   3.045
 3998SOL    HW212894   6.408   2.074   2.985
 3999SOL     OW12895   6.081   3.588   2.506
 3999SOL    HW112896   6.171   3.616   2.473
 3999SOL    HW212897   6.016   3.589   2.430
 4000SOL     OW12898   2.667   5.415   2.501
 4000SOL    HW112899   2.576   5.429   2.462
 4000SOL    HW212900   2.679   5.474   2.580
 4001SOL     OW12901   2.655   3.881   5.660
 4001SOL    HW112902   2.583   3.815   5.679
 4001SOL    HW212903   2.680   3.876   5.563
 4002SOL     OW12904   3.826   3.317   4.803
 4002SOL    HW112905   3.733   3.303   4.769
 4002SOL    HW212906   3.884   3.352   4.730
 4003SOL     OW12907   3.050   1.386   6.195
 4003SOL    HW112908   3.104   1.435   6.126
 4003SOL    HW212909   3.080   1.413   6.286
 4004SOL     OW12910   0.055   3.697   2.917
 4004SOL    HW112911   0.066   3.674   3.014
 4004SOL    HW212912   0.037   3.795   2.908
 4005SOL     OW12913   4.304   3.801   0.821
 4005SOL    HW112914   4.223   3.831   0.771
 4005SOL    HW212915   4.385   3.844   0.782
 4006SOL     OW12916   5.062   5.261   2.308
 4006SOL    HW112917   4.984   5.322   2.310
 4006SOL    HW212918   5.139   5.302   2.357
 4007SOL     OW12919   0.742   1.930   3.101
 4007SOL    HW112920   0.651   1.963   3.126
 4007SOL    HW212921   0.809   2.003   3.114
 4008SOL     OW12922   2.771   0.237   0.079
 4008SOL    HW112923   2.720   0.321   0.061
 4008SOL    HW212924   2.825   0.248   0.163
 4009SOL     OW12925   5.022   1.251   1.205
 4009SOL    HW112926   4.989   1.186   1.274
 4009SOL    HW212927   5.063   1.330   1.251
 4010SOL     OW12928   3.880   4.615   1.396
 4010SOL    HW112929   3.830   4.620   1.310
 4010SOL    HW212930   3.822   4.647   1.471
 4011SOL     OW12931   6.972   6.009   0.712
 4011SOL    HW112932   0.021   6.018   0.777
 4011SOL    HW212933   6.954   5.912   0.695
 4012SOL     OW12934   4.323   0.156   2.078
 4012SOL    HW112935   4.311   0.120   2.171
 4012SOL    HW212936   4.302   0.083   2.012
 4013SOL     OW12937   1.603   0.579   0.820
 4013SOL    HW112938   1.563   0.500   0.867
 4013SOL    HW212939   1.553   0.596   0.735
 4014SOL     OW12940   3.257   6.101   3.863
 4014SOL    HW112941   3.243   6.002   3.852
 4014SOL    HW212942   3.174   6.150   3.835
 4015SOL     OW12943   4.456   5.147   6.094
 4015SOL    HW112944   4.427   5.056   6.123
 4015SOL    HW212945   4.481   5.145   5.997
 4016SOL     OW12946   3.273   5.247   6.938
 4016SOL    HW112947   3.292   5.204   7.027
 4016SOL    HW212948   3.347   5.225   6.874
 4017SOL     OW12949   0.312   5.197   5.329
 4017SOL    HW112950   0.354   5.217   5.240
 4017SOL    HW212951   0.382   5.201   5.401
 4018SOL     OW12952   3.903   6.553   2.165
 4018SOL    HW112953   3.836   6.619   2.198
 4018SOL    HW212954   3.939   6.583   2.077
 4019SOL     OW12955   5.212   3.267   2.037
 4019SOL    HW112956   5.155   3.241   1.960
 4019SOL    HW212957   5.212   3.193   2.105
 4020SOL     OW12958   6.902   3.810   4.630
 4020SOL    HW112959   6.859   3.856   4.708
 4020SOL    HW212960   6.852   3.725   4.610
 4021SOL     OW12961   3.351   3.529   5.819
 4021SOL    HW112962   3.365   3.514   5.721
 4021SOL    HW212963   3.375   3.445   5.869
 4022SOL     OW12964   3.968   6.718   0.378
 4022SOL    HW112965   4.009   6.765   0.300
 4022SOL    HW212966   3.882   6.676   0.351
 4023SOL     OW12967   0.030   1.032   5.618
 4023SOL    HW112968   0.022   1.076   5.707
 4023SOL    HW212969   0.098   0.958   5.623
 4024SOL     OW12970   1.823   5.251   4.182
 4024SOL    HW112971   1.763   5.331   4.186
 4024SOL    HW212972   1.838   5.215   4.274
 4025SOL     OW12973   1.047   5.955   4.362
 4025SOL    HW112974   1.072   5.871   4.409
 4025SOL    HW212975   1.113   5.974   4.290
 4026SOL     OW12976   6.233   6.328   4.783
 4026SOL    HW112977   6.298   6.355   4.712
 4026SOL    HW212978   6.140   6.324   4.744
 4027SOL     OW12979   2.349   1.826   6.842
 4027SOL    HW112980   2.345   1.810   6.743
 4027SOL    HW212981   2.380   1.742   6.888
 4028SOL     OW12982   4.476   1.293   3.642
 4028SOL    HW112983   4.480   1.356   3.720
 4028SOL    HW212984   4.458   1.345   3.558
 4029SOL     OW12985   2.975   4.232   6.125
 4029SOL    HW112986   2.958   4.138   6.153
 4029SOL    HW212987   2.894   4.269   6.080
 4030SOL     OW12988   6.962   0.953   1.671
 4030SOL    HW112989   6.934   1.012   1.746
 4030SOL    HW212990   6.910   0.977   1.589
 4031SOL     OW12991   5.382   6.983   2.984
 4031SOL    HW112992   5.376   0.029   3.052
 4031SOL    HW212993   5.469   6.934   2.996
 4032SOL     OW12994   6.990   0.063   2.691
 4032SOL    HW112995   0.012   7.007   2.664
 4032SOL    HW212996   6.907   0.038   2.742
 4033SOL     OW12997   2.663   2.099   2.614
 4033SOL    HW112998   2.601   2.085   2.691
 4033SOL    HW212999   2.672   2.014   2.562
 4034SOL     OW13000   5.973   1.950   5.509
 4034SOL    HW113001   5.975   2.012   5.588
 4034SOL    HW213002   6.030   1.987   5.436
 4035SOL     OW13003   6.821   1.675   1.508
 4035SOL    HW113004   6.918   1.693   1.490
 4035SOL    HW213005   6.813   1.612   1.585
 4036SOL     OW13006   4.138   4.847   2.300
 4036SOL    HW113007   4.045   4.837   2.335
 4036SOL    HW213008   4.199   4.875   2.374
 4037SOL     OW13009   2.468   1.402   6.276
 4037SOL    HW113010   2.490   1.466   6.350
 4037SOL    HW213011   2.424   1.452   6.201
 4038SOL     OW13012   4.979   2.886   0.165
 4038SOL    HW113013   4.971   2.855   0.070
 4038SOL    HW213014   5.036   2.969   0.168
 4039SOL     OW13015   4.331   5.720   1.628
 4039SOL    HW113016   4.313   5.673   1.715
 4039SOL    HW213017   4.399   5.793   1.644
 4040SOL     OW13018   2.877   6.000   4.528
 4040SOL    HW113019   2.820   5.960   4.456
 4040SOL    HW213020   2.878   6.100   4.518
 4041SOL     OW13021   2.405   6.254   0.987
 4041SOL    HW113022   2.339   6.319   0.948
 4041SOL    HW213023   2.453   6.297   1.063
 4042SOL     OW13024   6.029   6.376   3.548
 4042SOL    HW113025   5.941   6.422   3.542
 4042SOL    HW213026   6.065   6.384   3.642
 4043SOL     OW13027   6.802   2.019   6.608
 4043SOL    HW113028   6.746   2.000   6.689
 4043SOL    HW213029   6.886   2.065   6.636
 4044SOL     OW13030   5.375   5.333   2.877
 4044SOL    HW113031   5.421   5.420   2.860
 4044SOL    HW213032   5.279   5.349   2.896
 4045SOL     OW13033   4.144   6.391   5.574
 4045SOL    HW113034   4.056   6.426   5.608
 4045SOL    HW213035   4.127   6.321   5.505
 4046SOL     OW13036   0.989   1.971   2.618
 4046SOL    HW113037   0.932   1.965   2.701
 4046SOL    HW213038   1.084   1.988   2.644
 4047SOL     OW13039   2.324   2.750   7.002
 4047SOL    HW113040   2.367   2.679   0.030
 4047SOL    HW213041   2.227   2.728   6.988
 4048SOL     OW13042   5.621   1.498   1.960
 4048SOL    HW113043   5.598   1.586   2.001
 4048SOL    HW213044   5.720   1.487   1.957
 4049SOL     OW13045   4.815   5.846   6.487
 4049SOL    HW113046   4.829   5.855   6.586
 4049SOL    HW213047   4.722   5.873   6.464
 4050SOL     OW13048   1.107   6.227   1.775
 4050SOL    HW113049   1.095   6.301   1.709
 4050SOL    HW213050   1.084   6.260   1.866
 4051SOL     OW13051   4.633   1.214   6.648
 4051SOL    HW113052   4.583   1.206   6.561
 4051SOL    HW213053   4.583   1.275   6.709
 4052SOL     OW13054   5.727   2.388   3.208
 4052SOL    HW113055   5.733   2.400   3.307
 4052SOL    HW213056   5.816   2.362   3.171
 4053SOL     OW13057   2.310   6.353   4.530
 4053SOL    HW113058   2.289   6.451   4.535
 4053SOL    HW213059   2.373   6.329   4.604
 4054SOL     OW13060   5.285   4.145   0.894
 4054SOL    HW113061   5.318   4.109   0.981
 4054SOL    HW213062   5.265   4.069   0.831
 4055SOL     OW13063   2.246   4.427   0.903
 4055SOL    HW113064   2.326   4.469   0.861
 4055SOL    HW213065   2.195   4.495   0.955
 4056SOL     OW13066   5.631   3.511   1.027
 4056SOL    HW113067   5.673   3.599   1.049
 4056SOL    HW213068   5.694   3.437   1.051
 4057SOL     OW13069   6.987   2.897   0.114
 4057SOL    HW113070   7.006   2.925   0.019
 4057SOL    HW213071   7.016   2.802   0.126
 4058SOL     OW13072   3.212   6.593   4.680
 4058SOL    HW113073   3.115   6.582   4.698
 4058SOL    HW213074   3.262   6.596   4.767
 4059SOL     OW13075   0.003   2.140   3.185
 4059SOL    HW113076   7.008   2.237   3.189
 4059SOL    HW213077   6.960   2.088   3.236
 4060SOL     OW13078   5.460   4.871   5.749
 4060SOL    HW113079   5.437   4.804   5.678
 4060SOL    HW213080   5.512   4.946   5.709
 4061SOL     OW13081   2.864   4.750   2.452
 4061SOL    HW113082   2.823   4.693   2.381
 4061SOL    HW213083   2.879   4.695   2.534
 4062SOL     OW13084   2.411   0.398   2.405
 4062SOL    HW113085   2.410   0.469   2.335
 4062SOL    HW213086   2.322   0.354   2.409
 4063SOL     OW13087   6.072   0.103   0.545
 4063SOL    HW113088   6.155   0.157   0.531
 4063SOL    HW213089   6.092   0.029   0.609
 4064SOL     OW13090   2.647   1.761   4.370
 4064SOL    HW113091   2.603   1.724   4.452
 4064SOL    HW213092   2.721   1.822   4.397
 4065SOL     OW13093   0.912   0.040   1.641
 4065SOL    HW113094   0.905   0.140   1.650
 4065SOL    HW213095   0.908   0.015   1.544
 4066SOL     OW13096   6.544   4.819   2.774
 4066SOL    HW113097   6.621   4.828   2.838
 4066SOL    HW213098   6.517   4.723   2.769
 4067SOL     OW13099   5.683   4.186   3.362
 4067SOL    HW113100   5.599   4.187   3.308
 4067SOL    HW213101   5.699   4.277   3.400
 4068SOL     OW13102   2.276   2.230   4.577
 4068SOL    HW113103   2.246   2.304   4.638
 4068SOL    HW213104   2.284   2.146   4.630
 4069SOL     OW13105   4.112   5.197   6.917
 4069SOL    HW113106   4.031   5.151   6.882
 4069SOL    HW213107   4.162   5.239   6.841
 4070SOL     OW13108   0.438   2.500   2.850
 4070SOL    HW113109   0.481   2.463   2.932
 4070SOL    HW213110   0.509   2.526   2.784
 4071SOL     OW13111   1.313   1.499   4.696
 4071SOL    HW113112   1.315   1.457   4.605
 4071SOL    HW213113   1.255   1.581   4.694
 4072SOL     OW13114   0.787   5.725   4.579
 4072SOL    HW113115   0.717   5.668   4.535
 4072SOL    HW213116   0.763   5.822   4.567
 4073SOL     OW13117   2.492   6.116   6.143
 4073SOL    HW113118   2.574   6.124   6.085
 4073SOL    HW213119   2.475   6.204   6.188
 4074SOL     OW13120   0.447   4.488   1.422
 4074SOL    HW113121   0.405   4.514   1.334
 4074SOL    HW213122   0.501   4.565   1.456
 4075SOL     OW13123   4.932   1.988   1.204
 4075SOL    HW113124   4.939   1.943   1.293
 4075SOL    HW213125   4.873   2.068   1.212
 4076SOL     OW13126   2.495   3.041   6.574
 4076SOL    HW113127   2.433   3.001   6.507
 4076SOL    HW213128   2.443   3.097   6.638
 4077SOL     OW13129   4.088   2.090   0.172
 4077SOL    HW113130   4.174   2.070   0.127
 4077SOL    HW213131   4.048   2.005   0.207
 4078SOL     OW13132   2.432   5.082   2.190
 4078SOL    HW113133   2.348   5.091   2.137
 4078SOL    HW213134   2.479   5.170   2.194
 4079SOL     OW13135   1.868   1.431   3.261
 4079SOL    HW113136   1.843   1.431   3.165
 4079SOL    HW213137   1.959   1.472   3.272
 4080SOL     OW13138   4.896   2.784   6.404
 4080SOL    HW113139   4.918   2.726   6.325
 4080SOL    HW213140   4.960   2.766   6.478
 4081SOL     OW13141   1.565   2.814   3.608
 4081SOL    HW113142   1.623   2.773   3.537
 4081SOL    HW213143   1.608   2.802   3.697
 4082SOL     OW13144   0.944   4.253   0.519
 4082SOL    HW113145   0.979   4.169   0.479
 4082SOL    HW213146   0.853   4.272   0.482
 4083SOL     OW13147   6.602   3.515   2.622
 4083SOL    HW113148   6.521   3.556   2.581
 4083SOL    HW213149   6.677   3.518   2.557
 4084SOL     OW13150   5.519   2.490   4.036
 4084SOL    HW113151   5.517   2.566   4.100
 4084SOL    HW213152   5.494   2.522   3.945
 4085SOL     OW13153   3.441   5.240   1.149
 4085SOL    HW113154   3.367   5.279   1.203
 4085SOL    HW213155   3.522   5.298   1.156
 4086SOL     OW13156   2.018   5.530   1.645
 4086SOL    HW113157   1.931   5.551   1.689
 4086SOL    HW213158   2.082   5.493   1.713
 4087SOL     OW13159   2.902   2.078   3.739
 4087SOL    HW113160   2.836   2.025   3.685
 4087SOL    HW213161   2.994   2.044   3.720
 4088SOL     OW13162   0.589   2.096   0.671
 4088SOL    HW113163   0.497   2.057   0.676
 4088SOL    HW213164   0.650   2.046   0.732
 4089SOL     OW13165   6.130   6.433   3.809
 4089SOL    HW113166   6.058   6.454   3.875
 4089SOL    HW213167   6.212   6.485   3.831
 4090SOL     OW13168   1.925   4.134   6.108
 4090SOL    HW113169   1.918   4.201   6.034
 4090SOL    HW213170   1.914   4.180   6.196
 4091SOL     OW13171   6.665   6.343   0.558
 4091SOL    HW113172   6.679   6.402   0.478
 4091SOL    HW213173   6.572   6.355   0.592
 4092SOL     OW13174   6.233   3.047   5.184
 4092SOL    HW113175   6.156   3.073   5.242
 4092SOL    HW213176   6.262   3.126   5.130
 4093SOL     OW13177   4.439   0.271   3.490
 4093SOL    HW113178   4.350   0.229   3.510
 4093SOL    HW213179   4.426   0.348   3.427
 4094SOL     OW13180   2.397   6.083   4.451
 4094SOL    HW113181   2.323   6.054   4.511
 4094SOL    HW213182   2.389   6.180   4.431
 4095SOL     OW13183   0.732   3.493   6.992
 4095SOL    HW113184   0.716   3.418   6.929
 4095SOL    HW213185   0.830   3.511   6.999
 4096SOL     OW13186   4.498   5.351   0.681
 4096SOL    HW113187   4.591   5.346   0.646
 4096SOL    HW213188   4.487   5.434   0.735
 4097SOL     OW13189   3.816   4.242   6.280
 4097SOL    HW113190   3.868   4.320   6.246
 4097SOL    HW213191   3.761   4.203   6.206
 4098SOL     OW13192   0.813   3.153   1.611
 4098SOL    HW113193   0.874   3.110   1.677
 4098SOL    HW213194   0.742   3.088   1.584
 4099SOL     OW13195   2.949   4.689   1.084
 4099SOL    HW113196   2.987   4.604   1.047
 4099SOL    HW213197   2.849   4.685   1.084
 4100SOL     OW13198   6.535   5.741   4.900
 4100SOL    HW113199   6.549   5.787   4.987
 4100SOL    HW213200   6.581   5.652   4.902
 4101SOL     OW13201   5.828   0.856   0.592
 4101SOL    HW113202   5.890   0.900   0.527
 4101SOL    HW213203   5.795   0.923   0.659
 4102SOL     OW13204   6.615   0.803   1.098
 4102SOL    HW113205   6.666   0.861   1.161
 4102SOL    HW213206   6.636   0.707   1.116
 4103SOL     OW13207   0.492   0.773   1.043
 4103SOL    HW113208   0.530   0.757   1.133
 4103SOL    HW213209   0.533   0.710   0.977
 4104SOL     OW13210   0.734   4.851   2.352
 4104SOL    HW113211   0.726   4.767   2.299
 4104SOL    HW213212   0.799   4.913   2.309
 4105SOL     OW13213   3.853   5.720   1.066
 4105SOL    HW113214   3.936   5.698   1.118
 4105SOL    HW213215   3.824   5.813   1.086
 4106SOL     OW13216   6.971   1.805   4.567
 4106SOL    HW113217   6.980   1.893   4.519
 4106SOL    HW213218   6.874   1.785   4.583
 4107SOL     OW13219   1.808   6.197   0.974
 4107SOL    HW113220   1.756   6.129   1.026
 4107SOL    HW213221   1.905   6.171   0.972
 4108SOL     OW13222   0.241   4.364   5.835
 4108SOL    HW113223   0.262   4.461   5.853
 4108SOL    HW213224   0.321   4.319   5.797
 4109SOL     OW13225   4.716   6.174   5.090
 4109SOL    HW113226   4.784   6.239   5.125
 4109SOL    HW213227   4.736   6.083   5.125
 4110SOL     OW13228   4.301   2.537   6.478
 4110SOL    HW113229   4.269   2.477   6.551
 4110SOL    HW213230   4.304   2.486   6.392
 4111SOL     OW13231   3.838   3.291   6.432
 4111SOL    HW113232   3.821   3.389   6.442
 4111SOL    HW213233   3.790   3.257   6.351
 4112SOL     OW13234   4.784   0.508   5.194
 4112SOL    HW113235   4.705   0.544   5.144
 4112SOL    HW213236   4.861   0.572   5.185
 4113SOL     OW13237   4.918   6.334   4.550
 4113SOL    HW113238   4.854   6.261   4.575
 4113SOL    HW213239   4.867   6.418   4.533
 4114SOL     OW13240   3.376   2.075   4.156
 4114SOL    HW113241   3.366   2.080   4.255
 4114SOL    HW213242   3.428   1.993   4.132
 4115SOL     OW13243   3.883   6.108   2.321
 4115SOL    HW113244   3.827   6.032   2.289
 4115SOL    HW213245   3.909   6.166   2.244
 4116SOL     OW13246   3.697   2.191   1.583
 4116SOL    HW113247   3.709   2.251   1.662
 4116SOL    HW213248   3.634   2.117   1.607
 4117SOL     OW13249   0.692   5.409   1.846
 4117SOL    HW113250   0.703   5.361   1.758
 4117SOL    HW213251   0.610   5.466   1.842
 4118SOL     OW13252   2.774   6.712   0.254
 4118SOL    HW113253   2.804   6.617   0.242
 4118SOL    HW213254   2.839   6.774   0.211
 4119SOL     OW13255   4.066   2.183   3.606
 4119SOL    HW113256   4.065   2.174   3.507
 4119SOL    HW213257   4.155   2.152   3.641
 4120SOL     OW13258   4.661   0.493   0.530
 4120SOL    HW113259   4.704   0.481   0.620
 4120SOL    HW213260   4.649   0.590   0.511
 4121SOL     OW13261   5.523   1.493   5.308
 4121SOL    HW113262   5.426   1.481   5.284
 4121SOL    HW213263   5.533   1.492   5.407
 4122SOL     OW13264   0.915   5.926   5.617
 4122SOL    HW113265   0.899   5.917   5.715
 4122SOL    HW213266   0.857   5.860   5.568
 4123SOL     OW13267   4.361   4.836   5.839
 4123SOL    HW113268   4.358   4.843   5.740
 4123SOL    HW213269   4.401   4.920   5.877
 4124SOL     OW13270   6.243   4.888   6.299
 4124SOL    HW113271   6.164   4.903   6.359
 4124SOL    HW213272   6.225   4.930   6.210
 4125SOL     OW13273   4.964   1.552   2.310
 4125SOL    HW113274   5.050   1.565   2.360
 4125SOL    HW213275   4.941   1.454   2.309
 4126SOL     OW13276   1.041   3.850   3.561
 4126SOL    HW113277   1.005   3.906   3.486
 4126SOL    HW213278   1.103   3.904   3.616
 4127SOL     OW13279   4.579   4.380   4.990
 4127SOL    HW113280   4.593   4.342   4.899
 4127SOL    HW213281   4.510   4.453   4.986
 4128SOL     OW13282   1.698   3.441   1.622
 4128SOL    HW113283   1.704   3.440   1.721
 4128SOL    HW213284   1.730   3.353   1.585
 4129SOL     OW13285   5.037   1.391   6.942
 4129SOL    HW113286   4.972   1.317   6.957
 4129SOL    HW213287   5.088   1.374   6.858
 4130SOL     OW13288   0.172   2.991   5.691
 4130SOL    HW113289   0.187   3.087   5.671
 4130SOL    HW213290   0.101   2.955   5.632
 4131SOL     OW13291   1.368   5.871   3.989
 4131SOL    HW113292   1.319   5.825   4.063
 4131SOL    HW213293   1.365   5.813   3.907
 4132SOL     OW13294   4.993   4.413   3.623
 4132SOL    HW113295   4.939   4.351   3.566
 4132SOL    HW213296   4.954   4.505   3.619
 4133SOL     OW13297   3.058   6.914   1.605
 4133SOL    HW113298   2.998   6.903   1.683
 4133SOL    HW213299   3.116   6.995   1.618
 4134SOL     OW13300   1.966   2.929   0.652
 4134SOL    HW113301   1.978   2.831   0.668
 4134SOL    HW213302   1.870   2.954   0.663
 4135SOL     OW13303   2.086   0.993   2.432
 4135SOL    HW113304   2.126   0.991   2.340
 4135SOL    HW213305   2.153   0.960   2.498
 4136SOL     OW13306   1.673   2.100   2.634
 4136SOL    HW113307   1.642   2.043   2.558
 4136SOL    HW213308   1.606   2.097   2.708
 4137SOL     OW13309   1.529   4.517   1.085
 4137SOL    HW113310   1.486   4.446   1.140
 4137SOL    HW213311   1.463   4.554   1.020
 4138SOL     OW13312   3.934   5.307   3.034
 4138SOL    HW113313   3.914   5.210   3.045
 4138SOL    HW213314   3.995   5.337   3.108
 4139SOL     OW13315   2.535   2.138   4.873
 4139SOL    HW113316   2.536   2.140   4.973
 4139SOL    HW213317   2.569   2.225   4.838
 4140SOL     OW13318   2.990   0.857   5.078
 4140SOL    HW113319   3.020   0.834   5.170
 4140SOL    HW213320   2.990   0.957   5.066
 4141SOL     OW13321   5.343   6.720   1.658
 4141SOL    HW113322   5.359   6.662   1.579
 4141SOL    HW213323   5.246   6.718   1.681
 4142SOL     OW13324   6.506   5.622   1.034
 4142SOL    HW113325   6.512   5.720   1.051
 4142SOL    HW213326   6.413   5.599   1.006
 4143SOL     OW13327   0.389   2.925   0.295
 4143SOL    HW113328   0.328   2.865   0.243
 4143SOL    HW213329   0.339   3.008   0.321
 4144SOL     OW13330   5.011   3.356   6.903
 4144SOL    HW113331   4.948   3.297   6.852
 4144SOL    HW213332   5.075   3.398   6.840
 4145SOL     OW13333   0.019   5.831   1.380
 4145SOL    HW113334   0.035   5.848   1.283
 4145SOL    HW213335   6.983   5.900   1.416
 4146SOL     OW13336   0.093   0.965   5.898
 4146SOL    HW113337   0.122   0.919   5.814
 4146SOL    HW213338   0.161   1.033   5.924
 4147SOL     OW13339   4.291   2.139   5.734
 4147SOL    HW113340   4.284   2.139   5.635
 4147SOL    HW213341   4.218   2.082   5.773
 4148SOL     OW13342   0.955   0.091   4.248
 4148SOL    HW113343   0.925   0.046   4.332
 4148SOL    HW213344   0.961   0.190   4.262
 4149SOL     OW13345   0.498   2.520   0.555
 4149SOL    HW113346   0.492   2.535   0.654
 4149SOL    HW213347   0.446   2.592   0.508
 4150SOL     OW13348   0.200   0.850   5.654
 4150SOL    HW113349   0.217   0.752   5.663
 4150SOL    HW213350   0.276   0.892   5.604
 4151SOL     OW13351   4.535   6.633   6.388
 4151SOL    HW113352   4.590   6.609   6.308
 4151SOL    HW213353   4.571   6.586   6.469
 4152SOL     OW13354   3.080   6.121   0.582
 4152SOL    HW113355   3.170   6.142   0.619
 4152SOL    HW213356   3.057   6.189   0.512
 4153SOL     OW13357   4.433   5.178   6.535
 4153SOL    HW113358   4.460   5.203   6.442
 4153SOL    HW213359   4.484   5.234   6.601
 4154SOL     OW13360   0.210   4.290   5.053
 4154SOL    HW113361   0.214   4.339   5.140
 4154SOL    HW213362   0.117   4.296   5.016
 4155SOL     OW13363   6.273   2.143   3.376
 4155SOL    HW113364   6.233   2.151   3.468
 4155SOL    HW213365   6.238   2.061   3.332
 4156SOL     OW13366   5.559   6.587   5.106
 4156SOL    HW113367   5.504   6.631   5.177
 4156SOL    HW213368   5.500   6.529   5.049
 4157SOL     OW13369   4.278   6.696   3.667
 4157SOL    HW113370   4.286   6.760   3.744
 4157SOL    HW213371   4.329   6.612   3.688
 4158SOL     OW13372   1.639   5.466   4.214
 4158SOL    HW113373   1.595   5.458   4.125
 4158SOL    HW213374   1.662   5.562   4.231
 4159SOL     OW13375   2.021   2.927   3.840
 4159SOL    HW113376   2.031   2.836   3.800
 4159SOL    HW213377   1.933   2.966   3.814
 4160SOL     OW13378   0.112   0.888   1.014
 4160SOL    HW113379   0.130   0.800   1.057
 4160SOL    HW213380   0.115   0.960   1.083
 4161SOL     OW13381   1.807   6.470   6.050
 4161SOL    HW113382   1.797   6.536   5.975
 4161SOL    HW213383   1.832   6.519   6.134
 4162SOL     OW13384   6.069   6.433   5.474
 4162SOL    HW113385   5.999   6.396   5.535
 4162SOL    HW213386   6.043   6.526   5.446
 4163SOL     OW13387   6.050   0.376   3.515
 4163SOL    HW113388   5.969   0.321   3.537
 4163SOL    HW213389   6.111   0.378   3.594
 4164SOL     OW13390   0.965   6.767   6.173
 4164SOL    HW113391   0.945   6.765   6.271
 4164SOL    HW213392   1.063   6.779   6.159
 4165SOL     OW13393   4.576   0.110   0.209
 4165SOL    HW113394   4.515   0.061   0.272
 4165SOL    HW213395   4.580   0.206   0.235
 4166SOL     OW13396   6.107   3.420   1.312
 4166SOL    HW113397   6.178   3.352   1.332
 4166SOL    HW213398   6.146   3.512   1.317
 4167SOL     OW13399   1.783   4.174   0.267
 4167SOL    HW113400   1.841   4.186   0.348
 4167SOL    HW213401   1.772   4.263   0.221
 4168SOL     OW13402   0.328   5.398   1.267
 4168SOL    HW113403   0.392   5.431   1.197
 4168SOL    HW213404   0.297   5.475   1.323
 4169SOL     OW13405   5.949   3.361   3.641
 4169SOL    HW113406   5.959   3.399   3.549
 4169SOL    HW213407   5.931   3.263   3.635
 4170SOL     OW13408   2.965   3.143   5.142
 4170SOL    HW113409   2.892   3.158   5.208
 4170SOL    HW213410   3.034   3.083   5.183
 4171SOL     OW13411   5.587   4.643   1.474
 4171SOL    HW113412   5.516   4.605   1.414
 4171SOL    HW213413   5.671   4.657   1.421
 4172SOL     OW13414   0.161   2.138   6.288
 4172SOL    HW113415   0.170   2.101   6.196
 4172SOL    HW213416   0.064   2.156   6.307
 4173SOL     OW13417   6.013   3.303   4.876
 4173SOL    HW113418   6.013   3.346   4.786
 4173SOL    HW213419   5.994   3.205   4.866
 4174SOL     OW13420   5.440   0.524   4.306
 4174SOL    HW113421   5.344   0.498   4.295
 4174SOL    HW213422   5.462   0.598   4.243
 4175SOL     OW13423   2.848   6.069   3.866
 4175SOL    HW113424   2.753   6.100   3.860
 4175SOL    HW213425   2.859   6.014   3.949
 4176SOL     OW13426   2.642   6.610   1.916
 4176SOL    HW113427   2.737   6.594   1.889
 4176SOL    HW213428   2.639   6.650   2.008
 4177SOL     OW13429   6.844   4.570   4.923
 4177SOL    HW113430   6.856   4.606   4.831
 4177SOL    HW213431   6.889   4.631   4.989
 4178SOL     OW13432   4.271   0.687   4.365
 4178SOL    HW113433   4.285   0.595   4.400
 4178SOL    HW213434   4.228   0.683   4.275
 4179SOL     OW13435   5.399   3.029   4.057
 4179SOL    HW113436   5.391   3.003   3.961
 4179SOL    HW213437   5.341   3.109   4.075
 4180SOL     OW13438   5.597   3.332   1.954
 4180SOL    HW113439   5.657   3.266   1.908
 4180SOL    HW213440   5.560   3.395   1.886
 4181SOL     OW13441   1.932   2.305   6.108
 4181SOL    HW113442   1.998   2.366   6.065
 4181SOL    HW213443   1.841   2.320   6.068
 4182SOL     OW13444   0.521   6.490   2.675
 4182SOL    HW113445   0.585   6.566   2.668
 4182SOL    HW213446   0.436   6.513   2.629
 4183SOL     OW13447   3.514   0.882   1.430
 4183SOL    HW113448   3.438   0.817   1.427
 4183SOL    HW213449   3.555   0.882   1.521
 4184SOL     OW13450   4.492   5.016   1.248
 4184SOL    HW113451   4.448   5.082   1.188
 4184SOL    HW213452   4.475   4.923   1.214
 4185SOL     OW13453   0.618   5.515   2.556
 4185SOL    HW113454   0.552   5.587   2.576
 4185SOL    HW213455   0.571   5.426   2.555
 4186SOL     OW13456   1.523   4.579   0.299
 4186SOL    HW113457   1.612   4.616   0.326
 4186SOL    HW213458   1.485   4.526   0.374
 4187SOL     OW13459   3.769   2.981   5.977
 4187SOL    HW113460   3.717   3.065   5.992
 4187SOL    HW213461   3.857   3.004   5.935
 4188SOL     OW13462   4.937   6.589   4.020
 4188SOL    HW113463   5.004   6.578   4.093
 4188SOL    HW213464   4.891   6.501   4.003
 4189SOL     OW13465   3.149   1.173   4.503
 4189SOL    HW113466   3.211   1.114   4.554
 4189SOL    HW213467   3.186   1.265   4.498
 4190SOL     OW13468   2.227   0.069   6.751
 4190SOL    HW113469   2.272   0.023   6.675
 4190SOL    HW213470   2.289   0.072   6.829
 4191SOL     OW13471   5.483   3.771   2.996
 4191SOL    HW113472   5.523   3.711   3.066
 4191SOL    HW213473   5.499   3.867   3.020
 4192SOL     OW13474   6.534   0.908   3.961
 4192SOL    HW113475   6.525   0.938   4.056
 4192SOL    HW213476   6.575   0.981   3.906
 4193SOL     OW13477   1.901   6.525   1.540
 4193SOL    HW113478   1.938   6.533   1.448
 4193SOL    HW213479   1.864   6.614   1.569
 4194SOL     OW13480   6.567   1.797   5.361
 4194SOL    HW113481   6.562   1.702   5.328
 4194SOL    HW213482   6.533   1.858   5.290
 4195SOL     OW13483   3.244   0.395   1.507
 4195SOL    HW113484   3.197   0.383   1.595
 4195SOL    HW213485   3.210   0.327   1.442
 4196SOL     OW13486   6.305   1.858   3.881
 4196SOL    HW113487   6.343   1.920   3.811
 4196SOL    HW213488   6.372   1.847   3.955
 4197SOL     OW13489   4.553   4.950   4.099
 4197SOL    HW113490   4.591   4.946   4.007
 4197SOL    HW213491   4.620   4.914   4.164
 4198SOL     OW13492   6.184   3.761   6.760
 4198SOL    HW113493   6.149   3.794   6.672
 4198SOL    HW213494   6.117   3.700   6.801
 4199SOL     OW13495   1.763   3.518   6.347
 4199SOL    HW113496   1.824   3.443   6.370
 4199SOL    HW213497   1.734   3.510   6.251
 4200SOL     OW13498   2.715   6.701   5.253
 4200SOL    HW113499   2.777   6.626   5.230
 4200SOL    HW213500   2.761   6.766   5.313
 4201SOL     OW13501   5.597   6.526   4.102
 4201SOL    HW113502   5.607   6.488   4.010
 4201SOL    HW213503   5.677   6.503   4.156
 4202SOL     OW13504   4.010   5.277   6.006
 4202SOL    HW113505   4.100   5.262   5.966
 4202SOL    HW213506   3.940   5.271   5.934
 4203SOL     OW13507   4.083   5.716   2.014
 4203SOL    HW113508   4.018   5.652   1.972
 4203SOL    HW213509   4.121   5.675   2.096
 4204SOL     OW13510   3.704   2.879   2.073
 4204SOL    HW113511   3.736   2.784   2.073
 4204SOL    HW213512   3.604   2.880   2.068
 4205SOL     OW13513   3.411   5.354   4.343
 4205SOL    HW113514   3.414   5.329   4.440
 4205SOL    HW213515   3.385   5.274   4.289
 4206SOL     OW13516   5.347   1.194   5.919
 4206SOL    HW113517   5.267   1.254   5.916
 4206SOL    HW213518   5.330   1.119   5.982
 4207SOL     OW13519   2.174   1.756   1.644
 4207SOL    HW113520   2.251   1.811   1.614
 4207SOL    HW213521   2.205   1.662   1.661
 4208SOL     OW13522   1.437   2.480   0.282
 4208SOL    HW113523   1.461   2.384   0.272
 4208SOL    HW213524   1.350   2.499   0.237
 4209SOL     OW13525   0.949   1.312   4.757
 4209SOL    HW113526   0.944   1.319   4.658
 4209SOL    HW213527   0.927   1.400   4.798
 4210SOL     OW13528   3.320   3.138   1.925
 4210SOL    HW113529   3.285   3.170   1.837
 4210SOL    HW213530   3.417   3.162   1.933
 4211SOL     OW13531   5.092   6.225   6.306
 4211SOL    HW113532   5.065   6.129   6.307
 4211SOL    HW213533   5.092   6.259   6.212
 4212SOL     OW13534   6.278   2.261   2.213
 4212SOL    HW113535   6.191   2.308   2.200
 4212SOL    HW213536   6.353   2.323   2.187
 4213SOL     OW13537   2.164   0.869   2.665
 4213SOL    HW113538   2.189   0.939   2.731
 4213SOL    HW213539   2.107   0.800   2.709
 4214SOL     OW13540   6.862   4.006   6.020
 4214SOL    HW113541   6.863   3.913   5.982
 4214SOL    HW213542   6.920   4.065   5.965
 4215SOL     OW13543   6.867   5.668   5.014
 4215SOL    HW113544   6.857   5.766   4.997
 4215SOL    HW213545   6.787   5.619   4.980
 4216SOL     OW13546   1.609   2.267   3.264
 4216SOL    HW113547   1.542   2.206   3.222
 4216SOL    HW213548   1.690   2.215   3.290
 4217SOL     OW13549   6.455   0.589   3.361
 4217SOL    HW113550   6.542   0.546   3.383
 4217SOL    HW213551   6.471   0.665   3.297
 4218SOL     OW13552   5.430   0.166   1.757
 4218SOL    HW113553   5.461   0.255   1.723
 4218SOL    HW213554   5.459   0.156   1.853
 4219SOL     OW13555   2.722   4.760   5.296
 4219SOL    HW113556   2.748   4.688   5.233
 4219SOL    HW213557   2.786   4.762   5.373
 4220SOL     OW13558   6.227   3.419   3.194
 4220SOL    HW113559   6.293   3.486   3.227
 4220SOL    HW213560   6.220   3.425   3.094
 4221SOL     OW13561   6.693   5.814   6.178
 4221SOL    HW113562   6.620   5.882   6.184
 4221SOL    HW213563   6.775   5.857   6.141
 4222SOL     OW13564   5.825   2.199   1.989
 4222SOL    HW113565   5.777   2.275   2.033
 4222SOL    HW213566   5.899   2.235   1.932
 4223SOL     OW13567   3.857   2.967   3.972
 4223SOL    HW113568   3.925   2.940   4.040
 4223SOL    HW213569   3.766   2.963   4.012
 4224SOL     OW13570   5.030   3.359   4.152
 4224SOL    HW113571   4.997   3.275   4.196
 4224SOL    HW213572   5.030   3.434   4.218
 4225SOL     OW13573   5.267   0.933   5.215
 4225SOL    HW113574   5.232   1.026   5.200
 4225SOL    HW213575   5.236   0.900   5.304
 4226SOL     OW13576   2.155   0.239   3.573
 4226SOL    HW113577   2.110   0.243   3.483
 4226SOL    HW213578   2.179   0.144   3.594
 4227SOL     OW13579   3.265   4.152   6.329
 4227SOL    HW113580   3.271   4.066   6.380
 4227SOL    HW213581   3.190   4.207   6.365
 4228SOL     OW13582   6.026   5.226   3.589
 4228SOL    HW113583   6.040   5.129   3.606
 4228SOL    HW213584   6.061   5.249   3.497
 4229SOL     OW13585   4.025   4.660   6.338
 4229SOL    HW113586   3.967   4.740   6.325
 4229SOL    HW213587   4.068   4.664   6.428
 4230SOL     OW13588   2.520   0.588   4.903
 4230SOL    HW113589   2.544   0.683   4.884
 4230SOL    HW213590   2.519   0.573   5.002
 4231SOL     OW13591   5.431   6.425   4.929
 4231SOL    HW113592   5.347   6.448   4.881
 4231SOL    HW213593   5.426   6.330   4.961
 4232SOL     OW13594   0.594   4.945   1.892
 4232SOL    HW113595   0.582   4.991   1.804
 4232SOL    HW213596   0.595   5.014   1.965
 4233SOL     OW13597   6.697   0.524   0.738
 4233SOL    HW113598   6.711   0.488   0.646
 4233SOL    HW213599   6.643   0.459   0.792
 4234SOL     OW13600   1.645   5.878   5.365
 4234SOL    HW113601   1.736   5.879   5.407
 4234SOL    HW213602   1.578   5.851   5.433
 4235SOL     OW13603   5.688   4.053   5.189
 4235SOL    HW113604   5.767   3.996   5.213
 4235SOL    HW213605   5.667   4.114   5.266
 4236SOL     OW13606   6.894   3.066   3.042
 4236SOL    HW113607   6.846   3.126   2.978
 4236SOL    HW213608   6.965   3.015   2.994
 4237SOL     OW13609   6.364   4.336   4.334
 4237SOL    HW113610   6.391   4.345   4.238
 4237SOL    HW213611   6.393   4.247   4.369
 4238SOL     OW13612   4.242   4.684   3.780
 4238SOL    HW113613   4.282   4.613   3.839
 4238SOL    HW213614   4.278   4.773   3.806
 4239SOL     OW13615   5.284   6.920   4.433
 4239SOL    HW113616   5.369   6.869   4.446
 4239SOL    HW213617   5.299   7.016   4.458
 4240SOL     OW13618   2.623   5.946   6.310
 4240SOL    HW113619   2.554   5.994   6.256
 4240SOL    HW213620   2.687   5.901   6.248
 4241SOL     OW13621   6.095   0.333   0.796
 4241SOL    HW113622   6.106   0.268   0.871
 4241SOL    HW213623   6.166   0.318   0.727
 4242SOL     OW13624   2.265   6.801   3.250
 4242SOL    HW113625   2.279   6.703   3.234
 4242SOL    HW213626   2.229   6.843   3.168
 4243SOL     OW13627   0.754   3.685   2.613
 4243SOL    HW113628   0.731   3.588   2.602
 4243SOL    HW213629   0.765   3.727   2.523
 4244SOL     OW13630   4.692   5.832   1.260
 4244SOL    HW113631   4.771   5.774   1.280
 4244SOL    HW213632   4.688   5.848   1.161
 4245SOL     OW13633   0.004   2.661   0.213
 4245SOL    HW113634   6.951   2.613   0.178
 4245SOL    HW213635   0.023   2.631   0.307
 4246SOL     OW13636   5.280   3.545   3.146
 4246SOL    HW113637   5.327   3.501   3.069
 4246SOL    HW213638   5.183   3.519   3.145
 4247SOL     OW13639   2.450   5.167   4.341
 4247SOL    HW113640   2.441   5.151   4.243
 4247SOL    HW213641   2.400   5.250   4.365
 4248SOL     OW13642   1.512   0.412   3.424
 4248SOL    HW113643   1.461   0.344   3.371
 4248SOL    HW213644   1.570   0.466   3.363
 4249SOL     OW13645   0.029   1.848   3.572
 4249SOL    HW113646   0.032   1.940   3.611
 4249SOL    HW213647   6.962   1.813   3.578
 4250SOL     OW13648   0.135   5.909   4.236
 4250SOL    HW113649   0.105   5.970   4.163
 4250SOL    HW213650   0.209   5.851   4.202
 4251SOL     OW13651   6.181   2.683   6.485
 4251SOL    HW113652   6.180   2.741   6.404
 4251SOL    HW213653   6.240   2.604   6.468
 4252SOL     OW13654   6.042   5.384   5.998
 4252SOL    HW113655   6.029   5.481   5.978
 4252SOL    HW213656   6.031   5.369   6.096
 4253SOL     OW13657   3.824   6.236   2.778
 4253SOL    HW113658   3.846   6.147   2.737
 4253SOL    HW213659   3.890   6.256   2.851
 4254SOL     OW13660   1.970   4.539   1.636
 4254SOL    HW113661   1.946   4.510   1.729
 4254SOL    HW213662   1.997   4.459   1.582
 4255SOL     OW13663   0.316   3.458   4.041
 4255SOL    HW113664   0.272   3.503   3.963
 4255SOL    HW213665   0.362   3.526   4.097
 4256SOL     OW13666   0.956   5.673   1.809
 4256SOL    HW113667   0.931   5.630   1.896
 4256SOL    HW213668   1.038   5.729   1.822
 4257SOL     OW13669   6.522   1.356   4.808
 4257SOL    HW113670   6.431   1.347   4.769
 4257SOL    HW213671   6.575   1.422   4.755
 4258SOL     OW13672   3.550   5.731   1.187
 4258SOL    HW113673   3.593   5.800   1.128
 4258SOL    HW213674   3.560   5.759   1.283
 4259SOL     OW13675   1.724   6.673   1.167
 4259SOL    HW113676   1.650   6.676   1.100
 4259SOL    HW213677   1.758   6.579   1.174
 4260SOL     OW13678   5.118   7.020   4.165
 4260SOL    HW113679   5.131   6.927   4.132
 4260SOL    HW213680   5.136   7.023   4.263
 4261SOL     OW13681   2.037   0.107   4.068
 4261SOL    HW113682   1.959   0.170   4.063
 4261SOL    HW213683   2.101   0.128   3.994
 4262SOL     OW13684   1.603   4.446   5.448
 4262SOL    HW113685   1.642   4.533   5.478
 4262SOL    HW213686   1.519   4.463   5.397
 4263SOL     OW13687   3.000   1.790   3.330
 4263SOL    HW113688   2.972   1.744   3.246
 4263SOL    HW213689   3.014   1.723   3.402
 4264SOL     OW13690   5.775   1.397   4.571
 4264SOL    HW113691   5.683   1.363   4.552
 4264SOL    HW213692   5.828   1.397   4.486
 4265SOL     OW13693   3.354   0.316   0.532
 4265SOL    HW113694   3.366   0.262   0.449
 4265SOL    HW213695   3.398   0.270   0.609
 4266SOL     OW13696   1.780   0.241   0.207
 4266SOL    HW113697   1.739   0.301   0.276
 4266SOL    HW213698   1.731   0.252   0.120
 4267SOL     OW13699   2.177   3.826   3.620
 4267SOL    HW113700   2.152   3.734   3.649
 4267SOL    HW213701   2.247   3.863   3.682
 4268SOL     OW13702   1.655   4.941   7.000
 4268SOL    HW113703   1.575   4.981   6.954
 4268SOL    HW213704   1.669   4.848   6.967
 4269SOL     OW13705   3.297   1.596   3.937
 4269SOL    HW113706   3.392   1.622   3.954
 4269SOL    HW213707   3.294   1.516   3.878
 4270SOL     OW13708   3.804   3.186   1.411
 4270SOL    HW113709   3.779   3.282   1.398
 4270SOL    HW213710   3.876   3.180   1.480
 4271SOL     OW13711   6.589   0.819   0.526
 4271SOL    HW113712   6.603   0.824   0.625
 4271SOL    HW213713   6.612   0.907   0.484
 4272SOL     OW13714   6.822   3.291   5.811
 4272SOL    HW113715   6.842   3.195   5.830
 4272SOL    HW213716   6.725   3.308   5.827
 4273SOL     OW13717   5.120   6.247   5.189
 4273SOL    HW113718   5.058   6.204   5.255
 4273SOL    HW213719   5.214   6.223   5.211
 4274SOL     OW13720   0.850   6.828   2.427
 4274SOL    HW113721   0.764   6.780   2.414
 4274SOL    HW213722   0.924   6.778   2.381
 4275SOL     OW13723   0.021   2.039   4.398
 4275SOL    HW113724   0.095   2.022   4.333
 4275SOL    HW213725   6.967   2.072   4.349
 4276SOL     OW13726   3.250   4.921   3.237
 4276SOL    HW113727   3.191   4.921   3.318
 4276SOL    HW213728   3.220   4.993   3.174
 4277SOL     OW13729   6.869   4.817   3.561
 4277SOL    HW113730   6.895   4.876   3.638
 4277SOL    HW213731   6.872   4.722   3.590
 4278SOL     OW13732   6.713   6.452   3.926
 4278SOL    HW113733   6.723   6.523   3.857
 4278SOL    HW213734   6.800   6.404   3.938
 4279SOL     OW13735   1.347   1.197   2.416
 4279SOL    HW113736   1.412   1.141   2.467
 4279SOL    HW213737   1.377   1.204   2.321
 4280SOL     OW13738   6.034   6.948   6.163
 4280SOL    HW113739   6.079   6.889   6.230
 4280SOL    HW213740   6.074   6.933   6.073
 4281SOL     OW13741   4.527   5.404   3.840
 4281SOL    HW113742   4.466   5.377   3.915
 4281SOL    HW213743   4.517   5.502   3.823
 4282SOL     OW13744   3.726   4.250   0.796
 4282SOL    HW113745   3.823   4.256   0.774
 4282SOL    HW213746   3.697   4.335   0.840
 4283SOL     OW13747   4.882   1.025   3.210
 4283SOL    HW113748   4.881   1.000   3.307
 4283SOL    HW213749   4.915   0.948   3.156
 4284SOL     OW13750   3.902   5.653   6.878
 4284SOL    HW113751   3.942   5.577   6.827
 4284SOL    HW213752   3.957   5.736   6.865
 4285SOL     OW13753   3.152   0.394   6.077
 4285SOL    HW113754   3.239   0.356   6.109
 4285SOL    HW213755   3.132   0.478   6.127
 4286SOL     OW13756   6.963   0.836   6.812
 4286SOL    HW113757   6.960   0.830   6.712
 4286SOL    HW213758   6.888   0.893   6.844
 4287SOL     OW13759   4.464   1.108   6.947
 4287SOL    HW113760   4.442   1.197   6.987
 4287SOL    HW213761   4.558   1.084   6.969
 4288SOL     OW13762   6.545   5.958   1.999
 4288SOL    HW113763   6.611   5.889   2.029
 4288SOL    HW213764   6.591   6.047   1.993
 4289SOL     OW13765   0.532   2.609   5.373
 4289SOL    HW113766   0.630   2.588   5.367
 4289SOL    HW213767   0.506   2.617   5.469
 4290SOL     OW13768   6.783   6.620   3.736
 4290SOL    HW113769   6.785   6.719   3.753
 4290SOL    HW213770   6.777   6.603   3.638
 4291SOL     OW13771   4.839   3.052   6.353
 4291SOL    HW113772   4.863   2.955   6.347
 4291SOL    HW213773   4.814   3.086   6.262
 4292SOL     OW13774   5.699   2.373   0.014
 4292SOL    HW113775   5.623   2.421   0.058
 4292SOL    HW213776   5.693   2.275   0.035
 4293SOL     OW13777   4.468   3.570   6.639
 4293SOL    HW113778   4.468   3.670   6.630
 4293SOL    HW213779   4.541   3.543   6.701
 4294SOL     OW13780   2.435   1.940   6.256
 4294SOL    HW113781   2.520   1.895   6.229
 4294SOL    HW213782   2.409   2.007   6.187
 4295SOL     OW13783   4.135   6.476   2.832
 4295SOL    HW113784   4.069   6.525   2.775
 4295SOL    HW213785   4.087   6.409   2.889
 4296SOL     OW13786   3.308   6.857   0.822
 4296SOL    HW113787   3.261   6.878   0.908
 4296SOL    HW213788   3.245   6.812   0.760
 4297SOL     OW13789   6.622   6.113   1.640
 4297SOL    HW113790   6.686   6.041   1.614
 4297SOL    HW213791   6.589   6.160   1.558
 4298SOL     OW13792   3.812   6.453   1.213
 4298SOL    HW113793   3.861   6.461   1.126
 4298SOL    HW213794   3.741   6.523   1.217
 4299SOL     OW13795   0.443   3.177   7.012
 4299SOL    HW113796   0.389   3.139   6.936
 4299SOL    HW213797   0.381   3.217   0.052
 4300SOL     OW13798   3.220   0.354   0.911
 4300SOL    HW113799   3.135   0.368   0.860
 4300SOL    HW213800   3.230   0.425   0.981
 4301SOL     OW13801   2.907   6.735   1.279
 4301SOL    HW113802   2.823   6.690   1.250
 4301SOL    HW213803   2.886   6.827   1.314
 4302SOL     OW13804   6.736   0.234   6.982
 4302SOL    HW113805   6.828   0.270   6.993
 4302SOL    HW213806   6.702   0.257   6.890
 4303SOL     OW13807   6.904   4.579   3.690
 4303SOL    HW113808   6.923   4.487   3.725
 4303SOL    HW213809   6.990   4.630   3.684
 4304SOL     OW13810   3.740   4.182   1.860
 4304SOL    HW113811   3.703   4.172   1.952
 4304SOL    HW213812   3.794   4.101   1.837
 4305SOL     OW13813   0.543   6.808   5.097
 4305SOL    HW113814   0.576   6.810   5.002
 4305SOL    HW213815   0.617   6.778   5.157
 4306SOL     OW13816   4.964   3.749   4.897
 4306SOL    HW113817   5.041   3.792   4.944
 4306SOL    HW213818   4.903   3.706   4.964
 4307SOL     OW13819   5.634   2.797   5.755
 4307SOL    HW113820   5.624   2.758   5.663
 4307SOL    HW213821   5.659   2.724   5.819
 4308SOL     OW13822   5.515   4.945   1.834
 4308SOL    HW113823   5.535   4.914   1.742
 4308SOL    HW213824   5.459   4.877   1.881
 4309SOL     OW13825   0.920   3.173   6.919
 4309SOL    HW113826   0.951   3.162   7.014
 4309SOL    HW213827   0.952   3.096   6.865
 4310SOL     OW13828   1.438   2.625   2.129
 4310SOL    HW113829   1.356   2.599   2.180
 4310SOL    HW213830   1.415   2.701   2.068
 4311SOL     OW13831   1.266   6.557   2.271
 4311SOL    HW113832   1.319   6.485   2.315
 4311SOL    HW213833   1.328   6.630   2.241
 4312SOL     OW13834   0.895   5.293   2.411
 4312SOL    HW113835   0.957   5.367   2.436
 4312SOL    HW213836   0.846   5.262   2.492
 4313SOL     OW13837   3.891   2.050   6.911
 4313SOL    HW113838   3.949   1.999   6.975
 4313SOL    HW213839   3.944   2.072   6.829
 4314SOL     OW13840   6.356   2.077   5.631
 4314SOL    HW113841   6.305   1.992   5.621
 4314SOL    HW213842   6.422   2.086   5.557
 4315SOL     OW13843   1.866   1.711   3.602
 4315SOL    HW113844   1.854   1.766   3.519
 4315SOL    HW213845   1.779   1.670   3.628
 4316SOL     OW13846   5.179   6.841   2.566
 4316SOL    HW113847   5.132   6.920   2.605
 4316SOL    HW213848   5.148   6.828   2.472
 4317SOL     OW13849   4.403   0.865   5.455
 4317SOL    HW113850   4.456   0.909   5.527
 4317SOL    HW213851   4.424   0.908   5.367
 4318SOL     OW13852   0.513   0.840   4.412
 4318SOL    HW113853   0.458   0.892   4.477
 4318SOL    HW213854   0.597   0.892   4.391
 4319SOL     OW13855   1.693   1.996   1.222
 4319SOL    HW113856   1.708   1.919   1.285
 4319SOL    HW213857   1.755   2.070   1.246
 4320SOL     OW13858   3.748   5.982   0.467
 4320SOL    HW113859   3.704   5.984   0.557
 4320SOL    HW213860   3.838   5.941   0.475
 4321SOL     OW13861   6.885   5.156   3.308
 4321SOL    HW113862   6.811   5.117   3.363
 4321SOL    HW213863   6.864   5.145   3.211
 4322SOL     OW13864   0.488   3.235   5.488
 4322SOL    HW113865   0.441   3.151   5.460
 4322SOL    HW213866   0.578   3.239   5.443
 4323SOL     OW13867   3.987   5.430   6.703
 4323SOL    HW113868   4.078   5.388   6.702
 4323SOL    HW213869   3.919   5.362   6.678
 4324SOL     OW13870   6.933   3.276   5.569
 4324SOL    HW113871   0.006   3.271   5.578
 4324SOL    HW213872   6.894   3.314   5.653
 4325SOL     OW13873   2.584   1.760   2.176
 4325SOL    HW113874   2.496   1.773   2.130
 4325SOL    HW213875   2.657   1.791   2.116
 4326SOL     OW13876   5.305   2.951   2.640
 4326SOL    HW113877   5.229   2.993   2.591
 4326SOL    HW213878   5.382   2.938   2.578
 4327SOL     OW13879   4.041   5.857   3.215
 4327SOL    HW113880   4.137   5.850   3.187
 4327SOL    HW213881   3.995   5.770   3.198
 4328SOL     OW13882   6.459   4.882   4.493
 4328SOL    HW113883   6.518   4.816   4.540
 4328SOL    HW213884   6.431   4.953   4.558
 4329SOL     OW13885   5.799   3.201   5.337
 4329SOL    HW113886   5.878   3.207   5.276
 4329SOL    HW213887   5.799   3.113   5.383
 4330SOL     OW13888   2.587   6.906   5.030
 4330SOL    HW113889   2.654   6.833   5.045
 4330SOL    HW213890   2.619   6.966   4.957
 4331SOL     OW13891   0.262   0.298   1.519
 4331SOL    HW113892   0.269   0.397   1.533
 4331SOL    HW213893   0.319   0.272   1.441
 4332SOL     OW13894   5.882   3.820   2.741
 4332SOL    HW113895   5.835   3.735   2.719
 4332SOL    HW213896   5.814   3.892   2.755
 4333SOL     OW13897   4.894   2.153   4.902
 4333SOL    HW113898   4.927   2.239   4.939
 4333SOL    HW213899   4.966   2.084   4.909
 4334SOL     OW13900   1.264   2.733   2.809
 4334SOL    HW113901   1.217   2.712   2.894
 4334SOL    HW213902   1.279   2.832   2.803
 4335SOL     OW13903   3.286   3.173   1.042
 4335SOL    HW113904   3.349   3.223   0.983
 4335SOL    HW213905   3.284   3.216   1.132
 4336SOL     OW13906   2.380   4.848   5.154
 4336SOL    HW113907   2.306   4.783   5.137
 4336SOL    HW213908   2.393   4.905   5.073
 4337SOL     OW13909   1.190   6.160   2.482
 4337SOL    HW113910   1.252   6.094   2.439
 4337SOL    HW213911   1.101   6.117   2.498
 4338SOL     OW13912   6.085   0.137   6.308
 4338SOL    HW113913   6.177   0.164   6.281
 4338SOL    HW213914   6.053   0.062   6.251
 4339SOL     OW13915   4.214   2.359   6.724
 4339SOL    HW113916   4.147   2.383   6.794
 4339SOL    HW213917   4.300   2.333   6.767
 4340SOL     OW13918   6.129   3.219   0.925
 4340SOL    HW113919   6.180   3.139   0.893
 4340SOL    HW213920   6.038   3.219   0.883
 4341SOL     OW13921   0.954   5.731   2.281
 4341SOL    HW113922   0.970   5.820   2.239
 4341SOL    HW213923   0.933   5.664   2.210
 4342SOL     OW13924   4.975   3.598   3.102
 4342SOL    HW113925   4.935   3.654   3.029
 4342SOL    HW213926   4.953   3.637   3.191
 4343SOL     OW13927   3.460   0.080   6.406
 4343SOL    HW113928   3.514   0.059   6.488
 4343SOL    HW213929   3.370   0.037   6.413
 4344SOL     OW13930   0.559   2.660   3.079
 4344SOL    HW113931   0.535   2.698   3.168
 4344SOL    HW213932   0.511   2.711   3.007
 4345SOL     OW13933   2.988   3.332   2.823
 4345SOL    HW113934   2.998   3.415   2.768
 4345SOL    HW213935   3.059   3.266   2.797
 4346SOL     OW13936   2.123   2.748   2.822
 4346SOL    HW113937   2.068   2.785   2.748
 4346SOL    HW213938   2.064   2.719   2.898
 4347SOL     OW13939   6.173   6.069   1.491
 4347SOL    HW113940   6.151   6.166   1.481
 4347SOL    HW213941   6.265   6.051   1.456
 4348SOL     OW13942   6.914   6.059   4.170
 4348SOL    HW113943   6.816   6.051   4.150
 4348SOL    HW213944   6.945   6.152   4.148
 4349SOL     OW13945   0.188   3.713   3.560
 4349SOL    HW113946   0.127   3.634   3.564
 4349SOL    HW213947   0.253   3.701   3.485
 4350SOL     OW13948   5.651   1.605   4.710
 4350SOL    HW113949   5.706   1.686   4.733
 4350SOL    HW213950   5.711   1.532   4.677
 4351SOL     OW13951   1.635   6.054   1.826
 4351SOL    HW113952   1.669   6.110   1.751
 4351SOL    HW213953   1.583   5.977   1.790
 4352SOL     OW13954   5.322   3.605   0.728
 4352SOL    HW113955   5.384   3.536   0.691
 4352SOL    HW213956   5.242   3.613   0.668
 4353SOL     OW13957   3.148   3.117   6.574
 4353SOL    HW113958   3.066   3.101   6.519
 4353SOL    HW213959   3.126   3.180   6.648
 4354SOL     OW13960   1.056   0.561   5.727
 4354SOL    HW113961   0.969   0.575   5.680
 4354SOL    HW213962   1.062   0.625   5.803
 4355SOL     OW13963   1.156   6.588   3.376
 4355SOL    HW113964   1.113   6.506   3.413
 4355SOL    HW213965   1.255   6.582   3.388
 4356SOL     OW13966   4.583   3.115   5.698
 4356SOL    HW113967   4.494   3.122   5.742
 4356SOL    HW213968   4.571   3.114   5.599
 4357SOL     OW13969   0.342   1.274   1.759
 4357SOL    HW113970   0.355   1.291   1.661
 4357SOL    HW213971   0.246   1.254   1.776
 4358SOL     OW13972   0.493   1.169   0.018
 4358SOL    HW113973   0.483   1.139   0.113
 4358SOL    HW213974   0.517   1.266   0.016
 4359SOL     OW13975   1.860   0.671   6.318
 4359SOL    HW113976   1.863   0.771   6.307
 4359SOL    HW213977   1.943   0.640   6.362
 4360SOL     OW13978   0.984   2.557   3.578
 4360SOL    HW113979   1.050   2.548   3.503
 4360SOL    HW213980   1.006   2.489   3.649
 4361SOL     OW13981   2.217   2.860   1.264
 4361SOL    HW113982   2.232   2.762   1.273
 4361SOL    HW213983   2.181   2.880   1.172
 4362SOL     OW13984   0.637   6.416   3.770
 4362SOL    HW113985   0.562   6.354   3.749
 4362SOL    HW213986   0.707   6.408   3.699
 4363SOL     OW13987   4.195   0.366   2.730
 4363SOL    HW113988   4.241   0.436   2.785
 4363SOL    HW213989   4.220   0.377   2.634
 4364SOL     OW13990   2.890   3.600   2.505
 4364SOL    HW113991   2.950   3.559   2.573
 4364SOL    HW213992   2.808   3.543   2.495
 4365SOL     OW13993   3.212   2.106   1.440
 4365SOL    HW113994   3.267   2.183   1.406
 4365SOL    HW213995   3.240   2.022   1.394
 4366SOL     OW13996   6.245   5.946   5.581
 4366SOL    HW113997   6.248   5.870   5.516
 4366SOL    HW213998   6.239   6.033   5.531
 4367SOL     OW13999   3.480   5.204   2.765
 4367SOL    HW114000   3.576   5.227   2.778
 4367SOL    HW214001   3.452   5.138   2.835
 4368SOL     OW14002   3.918   6.052   2.585
 4368SOL    HW114003   3.917   6.069   2.486
 4368SOL    HW214004   3.874   5.965   2.604
 4369SOL     OW14005   5.122   5.420   2.941
 4369SOL    HW114006   5.185   5.478   2.992
 4369SOL    HW214007   5.046   5.475   2.906
 4370SOL     OW14008   4.070   3.810   1.514
 4370SOL    HW114009   4.167   3.832   1.511
 4370SOL    HW214010   4.040   3.798   1.608
 4371SOL     OW14011   2.652   0.826   2.451
 4371SOL    HW114012   2.615   0.767   2.523
 4371SOL    HW214013   2.683   0.769   2.375
 4372SOL     OW14014   1.801   3.353   4.462
 4372SOL    HW114015   1.731   3.391   4.523
 4372SOL    HW214016   1.787   3.255   4.452
 4373SOL     OW14017   4.904   0.838   6.200
 4373SOL    HW114018   4.999   0.866   6.187
 4373SOL    HW214019   4.897   0.739   6.198
 4374SOL     OW14020   2.742   2.341   1.249
 4374SOL    HW114021   2.747   2.331   1.348
 4374SOL    HW214022   2.833   2.353   1.211
 4375SOL     OW14023   3.702   0.295   3.382
 4375SOL    HW114024   3.754   0.377   3.360
 4375SOL    HW214025   3.665   0.255   3.298
 4376SOL     OW14026   6.594   0.159   1.969
 4376SOL    HW114027   6.648   0.233   2.009
 4376SOL    HW214028   6.498   0.172   1.993
 4377SOL     OW14029   6.707   6.071   0.556
 4377SOL    HW114030   6.799   6.067   0.595
 4377SOL    HW214031   6.681   6.166   0.541
 4378SOL     OW14032   1.566   4.922   2.042
 4378SOL    HW114033   1.609   4.832   2.041
 4378SOL    HW214034   1.596   4.972   2.124
 4379SOL     OW14035   2.164   0.276   1.822
 4379SOL    HW114036   2.143   0.274   1.920
 4379SOL    HW214037   2.107   0.345   1.778
 4380SOL     OW14038   2.252   5.681   5.127
 4380SOL    HW114039   2.270   5.591   5.166
 4380SOL    HW214040   2.169   5.678   5.071
 4381SOL     OW14041   3.218   5.114   4.686
 4381SOL    HW114042   3.216   5.017   4.662
 4381SOL    HW214043   3.138   5.160   4.646
 4382SOL     OW14044   4.709   4.312   4.727
 4382SOL    HW114045   4.776   4.270   4.789
 4382SOL    HW214046   4.745   4.313   4.634
 4383SOL     OW14047   0.701   1.868   5.128
 4383SOL    HW114048   0.734   1.899   5.217
 4383SOL    HW214049   0.602   1.857   5.130
 4384SOL     OW14050   5.011   0.357   1.572
 4384SOL    HW114051   5.107   0.371   1.549
 4384SOL    HW214052   4.964   0.318   1.493
 4385SOL     OW14053   6.556   1.909   4.140
 4385SOL    HW114054   6.641   1.856   4.148
 4385SOL    HW214055   6.478   1.851   4.165
 4386SOL     OW14056   1.156   4.574   6.479
 4386SOL    HW114057   1.238   4.535   6.436
 4386SOL    HW214058   1.171   4.581   6.578
 4387SOL     OW14059   6.945   2.142   1.630
 4387SOL    HW114060   6.969   2.230   1.669
 4387SOL    HW214061   0.001   2.088   1.615
 4388SOL     OW14062   3.906   0.980   6.439
 4388SOL    HW114063   3.970   1.054   6.459
 4388SOL    HW214064   3.956   0.894   6.434
 4389SOL     OW14065   5.634   1.734   1.669
 4389SOL    HW114066   5.700   1.664   1.695
 4389SOL    HW214067   5.568   1.748   1.744
 4390SOL     OW14068   4.022   2.377   1.639
 4390SOL    HW114069   4.019   2.311   1.713
 4390SOL    HW214070   3.943   2.438   1.645
 4391SOL     OW14071   0.969   5.764   6.575
 4391SOL    HW114072   0.871   5.776   6.592
 4391SOL    HW214073   0.993   5.807   6.489
 4392SOL     OW14074   5.622   3.747   5.142
 4392SOL    HW114075   5.701   3.802   5.171
 4392SOL    HW214076   5.573   3.714   5.223
 4393SOL     OW14077   4.809   6.857   3.246
 4393SOL    HW114078   4.858   6.936   3.208
 4393SOL    HW214079   4.793   6.790   3.173
 4394SOL     OW14080   5.538   5.689   2.414
 4394SOL    HW114081   5.624   5.735   2.389
 4394SOL    HW214082   5.493   5.740   2.487
 4395SOL     OW14083   4.418   2.456   0.662
 4395SOL    HW114084   4.351   2.478   0.592
 4395SOL    HW214085   4.381   2.385   0.722
 4396SOL     OW14086   2.465   1.841   4.078
 4396SOL    HW114087   2.408   1.905   4.129
 4396SOL    HW214088   2.541   1.890   4.035
 4397SOL     OW14089   0.472   1.142   4.005
 4397SOL    HW114090   0.563   1.102   4.009
 4397SOL    HW214091   0.438   1.158   4.098
 4398SOL     OW14092   1.410   4.355   4.285
 4398SOL    HW114093   1.326   4.345   4.233
 4398SOL    HW214094   1.477   4.406   4.231
 4399SOL     OW14095   2.791   0.629   0.840
 4399SOL    HW114096   2.703   0.585   0.825
 4399SOL    HW214097   2.778   0.722   0.874
 4400SOL     OW14098   2.285   6.256   4.971
 4400SOL    HW114099   2.250   6.203   5.048
 4400SOL    HW214100   2.290   6.353   4.997
 4401SOL     OW14101   6.563   5.561   5.741
 4401SOL    HW114102   6.593   5.645   5.786
 4401SOL    HW214103   6.629   5.537   5.670
 4402SOL     OW14104   1.558   6.179   2.502
 4402SOL    HW114105   1.588   6.113   2.432
 4402SOL    HW214106   1.483   6.139   2.555
 4403SOL     OW14107   6.615   6.885   3.932
 4403SOL    HW114108   6.596   6.913   4.026
 4403SOL    HW214109   6.529   6.872   3.883
 4404SOL     OW14110   1.256   3.705   4.259
 4404SOL    HW114111   1.222   3.745   4.344
 4404SOL    HW214112   1.349   3.671   4.272
 4405SOL     OW14113   3.270   4.651   6.181
 4405SOL    HW114114   3.284   4.633   6.084
 4405SOL    HW214115   3.187   4.605   6.213
 4406SOL     OW14116   5.054   4.456   0.592
 4406SOL    HW114117   5.078   4.425   0.683
 4406SOL    HW214118   5.035   4.554   0.594
 4407SOL     OW14119   0.202   5.615   0.848
 4407SOL    HW114120   0.118   5.668   0.833
 4407SOL    HW214121   0.193   5.562   0.932
 4408SOL     OW14122   4.813   0.622   0.971
 4408SOL    HW114123   4.762   0.547   0.929
 4408SOL    HW214124   4.777   0.639   1.063
 4409SOL     OW14125   3.513   0.526   2.140
 4409SOL    HW114126   3.501   0.566   2.231
 4409SOL    HW214127   3.607   0.495   2.128
 4410SOL     OW14128   1.986   4.691   6.833
 4410SOL    HW114129   2.044   4.634   6.775
 4410SOL    HW214130   2.007   4.787   6.818
 4411SOL     OW14131   3.418   2.917   3.194
 4411SOL    HW114132   3.449   2.884   3.105
 4411SOL    HW214133   3.356   2.994   3.181
 4412SOL     OW14134   4.321   1.847   5.070
 4412SOL    HW114135   4.264   1.779   5.024
 4412SOL    HW214136   4.337   1.819   5.164
 4413SOL     OW14137   5.041   5.912   5.500
 4413SOL    HW114138   5.050   5.836   5.436
 4413SOL    HW214139   5.007   5.992   5.452
 4414SOL     OW14140   4.928   4.913   2.131
 4414SOL    HW114141   4.836   4.952   2.130
 4414SOL    HW214142   4.921   4.813   2.120
 4415SOL     OW14143   4.964   3.439   6.259
 4415SOL    HW114144   4.927   3.346   6.253
 4415SOL    HW214145   5.008   3.452   6.348
 4416SOL     OW14146   2.850   1.650   3.785
 4416SOL    HW114147   2.824   1.710   3.860
 4416SOL    HW214148   2.776   1.586   3.766
 4417SOL     OW14149   6.938   4.430   2.432
 4417SOL    HW114150   6.847   4.468   2.450
 4417SOL    HW214151   6.980   4.479   2.356
 4418SOL     OW14152   4.441   6.454   3.677
 4418SOL    HW114153   4.472   6.361   3.659
 4418SOL    HW214154   4.449   6.475   3.774
 4419SOL     OW14155   5.653   5.444   0.445
 4419SOL    HW114156   5.700   5.373   0.497
 4419SOL    HW214157   5.696   5.455   0.356
 4420SOL     OW14158   4.677   1.229   0.883
 4420SOL    HW114159   4.762   1.268   0.917
 4420SOL    HW214160   4.649   1.154   0.943
 4421SOL     OW14161   1.716   1.714   3.262
 4421SOL    HW114162   1.618   1.703   3.243
 4421SOL    HW214163   1.768   1.648   3.208
 4422SOL     OW14164   2.533   3.265   5.817
 4422SOL    HW114165   2.589   3.203   5.762
 4422SOL    HW214166   2.447   3.284   5.769
 4423SOL     OW14167   0.783   3.015   5.574
 4423SOL    HW114168   0.843   2.964   5.512
 4423SOL    HW214169   0.811   3.111   5.576
 4424SOL     OW14170   5.249   6.962   3.301
 4424SOL    HW114171   5.251   6.868   3.267
 4424SOL    HW214172   5.160   7.004   3.280
 4425SOL     OW14173   3.411   6.062   6.352
 4425SOL    HW114174   3.425   6.044   6.449
 4425SOL    HW214175   3.395   5.975   6.304
 4426SOL     OW14176   6.825   1.024   5.459
 4426SOL    HW114177   6.796   0.930   5.441
 4426SOL    HW214178   6.915   1.023   5.504
 4427SOL     OW14179   6.631   0.714   2.573
 4427SOL    HW114180   6.635   0.746   2.479
 4427SOL    HW214181   6.571   0.772   2.626
 4428SOL     OW14182   3.081   4.942   3.474
 4428SOL    HW114183   3.117   5.034   3.458
 4428SOL    HW214184   3.104   4.912   3.566
 4429SOL     OW14185   2.962   0.366   4.209
 4429SOL    HW114186   3.004   0.353   4.120
 4429SOL    HW214187   3.015   0.317   4.278
 4430SOL     OW14188   4.918   2.817   3.628
 4430SOL    HW114189   5.006   2.772   3.618
 4430SOL    HW214190   4.898   2.831   3.725
 4431SOL     OW14191   2.588   1.370   2.054
 4431SOL    HW114192   2.558   1.446   1.997
 4431SOL    HW214193   2.610   1.404   2.146
 4432SOL     OW14194   3.273   2.969   3.714
 4432SOL    HW114195   3.192   3.027   3.709
 4432SOL    HW214196   3.306   2.949   3.622
 4433SOL     OW14197   6.234   6.865   4.422
 4433SOL    HW114198   6.282   6.952   4.435
 4433SOL    HW214199   6.277   6.815   4.347
 4434SOL     OW14200   4.612   1.430   4.146
 4434SOL    HW114201   4.663   1.477   4.074
 4434SOL    HW214202   4.592   1.494   4.220
 4435SOL     OW14203   4.055   3.800   0.686
 4435SOL    HW114204   4.020   3.714   0.721
 4435SOL    HW214205   4.014   3.876   0.736
 4436SOL     OW14206   3.101   1.898   0.198
 4436SOL    HW114207   3.011   1.888   0.155
 4436SOL    HW214208   3.164   1.831   0.159
 4437SOL     OW14209   4.880   1.007   4.157
 4437SOL    HW114210   4.957   1.022   4.096
 4437SOL    HW214211   4.800   1.056   4.123
 4438SOL     OW14212   4.449   1.946   6.837
 4438SOL    HW114213   4.524   1.883   6.856
 4438SOL    HW214214   4.393   1.909   6.762
 4439SOL     OW14215   0.732   5.343   1.409
 4439SOL    HW114216   0.729   5.425   1.466
 4439SOL    HW214217   0.751   5.263   1.466
 4440SOL     OW14218   1.559   5.296   6.757
 4440SOL    HW114219   1.629   5.359   6.723
 4440SOL    HW214220   1.498   5.271   6.682
 4441SOL     OW14221   6.313   1.718   1.655
 4441SOL    HW114222   6.252   1.752   1.727
 4441SOL    HW214223   6.407   1.743   1.676
 4442SOL     OW14224   3.023   6.256   3.788
 4442SOL    HW114225   2.994   6.306   3.706
 4442SOL    HW214226   2.953   6.188   3.812
 4443SOL     OW14227   1.138   2.438   6.641
 4443SOL    HW114228   1.044   2.462   6.615
 4443SOL    HW214229   1.202   2.497   6.592
 4444SOL     OW14230   3.850   6.337   6.287
 4444SOL    HW114231   3.807   6.367   6.373
 4444SOL    HW214232   3.866   6.417   6.229
 4445SOL     OW14233   1.181   0.719   6.535
 4445SOL    HW114234   1.163   0.627   6.570
 4445SOL    HW214235   1.268   0.752   6.572
 4446SOL     OW14236   5.723   1.150   1.263
 4446SOL    HW114237   5.818   1.119   1.263
 4446SOL    HW214238   5.666   1.083   1.216
 4447SOL     OW14239   5.513   3.224   5.402
 4447SOL    HW114240   5.501   3.263   5.311
 4447SOL    HW214241   5.605   3.245   5.435
 4448SOL     OW14242   3.034   4.005   0.517
 4448SOL    HW114243   2.959   4.034   0.458
 4448SOL    HW214244   3.093   4.084   0.537
 4449SOL     OW14245   3.500   0.397   5.975
 4449SOL    HW114246   3.473   0.493   5.975
 4449SOL    HW214247   3.510   0.365   6.069
 4450SOL     OW14248   3.691   3.018   3.196
 4450SOL    HW114249   3.621   2.949   3.210
 4450SOL    HW214250   3.743   3.032   3.280
 4451SOL     OW14251   5.883   4.150   2.425
 4451SOL    HW114252   5.962   4.204   2.454
 4451SOL    HW214253   5.912   4.057   2.405
 4452SOL     OW14254   5.854   6.297   5.128
 4452SOL    HW114255   5.951   6.303   5.152
 4452SOL    HW214256   5.843   6.236   5.050
 4453SOL     OW14257   6.457   2.881   0.112
 4453SOL    HW114258   6.438   2.879   0.014
 4453SOL    HW214259   6.461   2.787   0.147
 4454SOL     OW14260   5.000   2.011   0.834
 4454SOL    HW114261   5.012   2.058   0.746
 4454SOL    HW214262   5.079   2.030   0.893
 4455SOL     OW14263   2.843   6.396   0.659
 4455SOL    HW114264   2.838   6.435   0.751
 4455SOL    HW214265   2.769   6.329   0.647
 4456SOL     OW14266   2.569   4.872   2.664
 4456SOL    HW114267   2.616   4.784   2.668
 4456SOL    HW214268   2.572   4.907   2.570
 4457SOL     OW14269   4.268   2.960   6.847
 4457SOL    HW114270   4.363   2.936   6.832
 4457SOL    HW214271   4.229   2.901   6.918
 4458SOL     OW14272   1.534   3.713   6.426
 4458SOL    HW114273   1.495   3.737   6.338
 4458SOL    HW214274   1.622   3.667   6.412
 4459SOL     OW14275   5.489   0.313   4.143
 4459SOL    HW114276   5.533   0.323   4.054
 4459SOL    HW214277   5.478   0.404   4.185
 4460SOL     OW14278   2.525   2.790   5.887
 4460SOL    HW114279   2.480   2.833   5.809
 4460SOL    HW214280   2.620   2.821   5.893
 4461SOL     OW14281   1.155   0.559   2.999
 4461SOL    HW114282   1.166   0.462   2.975
 4461SOL    HW214283   1.077   0.597   2.948
 4462SOL     OW14284   6.691   3.856   1.098
 4462SOL    HW114285   6.754   3.778   1.091
 4462SOL    HW214286   6.636   3.861   1.015
 4463SOL     OW14287   2.052   2.626   0.099
 4463SOL    HW114288   2.000   2.702   0.061
 4463SOL    HW214289   1.990   2.554   0.129
 4464SOL     OW14290   6.114   5.435   0.745
 4464SOL    HW114291   6.117   5.341   0.781
 4464SOL    HW214292   6.019   5.463   0.733
 4465SOL     OW14293   1.581   5.912   3.118
 4465SOL    HW114294   1.615   5.885   3.208
 4465SOL    HW214295   1.511   5.982   3.129
 4466SOL     OW14296   1.476   0.882   3.043
 4466SOL    HW114297   1.469   0.942   2.963
 4466SOL    HW214298   1.391   0.831   3.053
 4467SOL     OW14299   0.835   6.821   3.885
 4467SOL    HW114300   0.905   6.892   3.887
 4467SOL    HW214301   0.786   6.825   3.797
 4468SOL     OW14302   0.667   2.098   0.378
 4468SOL    HW114303   0.613   2.168   0.425
 4468SOL    HW214304   0.700   2.135   0.291
 4469SOL     OW14305   3.147   6.602   1.307
 4469SOL    HW114306   3.057   6.640   1.288
 4469SOL    HW214307   3.211   6.675   1.330
 4470SOL     OW14308   5.695   3.295   1.601
 4470SOL    HW114309   5.775   3.354   1.594
 4470SOL    HW214310   5.621   3.343   1.648
 4471SOL     OW14311   0.270   2.755   0.117
 4471SOL    HW114312   0.341   2.735   0.049
 4471SOL    HW214313   0.194   2.691   0.105
 4472SOL     OW14314   1.377   4.192   2.827
 4472SOL    HW114315   1.421   4.234   2.906
 4472SOL    HW214316   1.355   4.096   2.847
 4473SOL     OW14317   0.336   1.191   4.685
 4473SOL    HW114318   0.267   1.135   4.732
 4473SOL    HW214319   0.418   1.197   4.743
 4474SOL     OW14320   3.673   0.887   2.457
 4474SOL    HW114321   3.696   0.812   2.520
 4474SOL    HW214322   3.622   0.850   2.379
 4475SOL     OW14323   1.692   4.134   1.621
 4475SOL    HW114324   1.714   4.170   1.711
 4475SOL    HW214325   1.750   4.055   1.601
 4476SOL     OW14326   5.628   6.124   3.596
 4476SOL    HW114327   5.675   6.145   3.682
 4476SOL    HW214328   5.627   6.206   3.538
 4477SOL     OW14329   1.752   6.937   6.352
 4477SOL    HW114330   1.781   6.857   6.300
 4477SOL    HW214331   1.771   7.020   6.298
 4478SOL     OW14332   2.347   6.591   2.612
 4478SOL    HW114333   2.403   6.649   2.671
 4478SOL    HW214334   2.287   6.534   2.669
 4479SOL     OW14335   1.129   1.346   6.848
 4479SOL    HW114336   1.155   1.277   6.780
 4479SOL    HW214337   1.115   1.301   6.936
 4480SOL     OW14338   2.052   3.670   4.780
 4480SOL    HW114339   2.066   3.741   4.849
 4480SOL    HW214340   2.060   3.710   4.689
 4481SOL     OW14341   2.446   6.930   4.307
 4481SOL    HW114342   2.346   6.939   4.310
 4481SOL    HW214343   2.488   7.014   4.340
 4482SOL     OW14344   0.479   3.255   4.025
 4482SOL    HW114345   0.562   3.303   3.997
 4482SOL    HW214346   0.405   3.322   4.039
 4483SOL     OW14347   6.442   2.756   1.223
 4483SOL    HW114348   6.346   2.785   1.226
 4483SOL    HW214349   6.482   2.782   1.135
 4484SOL     OW14350   3.673   1.658   5.162
 4484SOL    HW114351   3.616   1.740   5.159
 4484SOL    HW214352   3.704   1.636   5.069
 4485SOL     OW14353   5.530   2.429   6.403
 4485SOL    HW114354   5.613   2.394   6.359
 4485SOL    HW214355   5.496   2.508   6.352
 4486SOL     OW14356   6.163   3.854   4.261
 4486SOL    HW114357   6.116   3.941   4.272
 4486SOL    HW214358   6.097   3.779   4.263
 4487SOL     OW14359   2.398   3.778   6.907
 4487SOL    HW114360   2.343   3.759   6.988
 4487SOL    HW214361   2.488   3.734   6.917
 4488SOL     OW14362   5.316   2.284   6.093
 4488SOL    HW114363   5.355   2.197   6.062
 4488SOL    HW214364   5.339   2.356   6.027
 4489SOL     OW14365   5.339   6.124   4.354
 4489SOL    HW114366   5.276   6.063   4.401
 4489SOL    HW214367   5.353   6.206   4.408
 4490SOL     OW14368   5.411   2.013   2.047
 4490SOL    HW114369   5.423   2.081   1.975
 4490SOL    HW214370   5.440   2.052   2.135
 4491SOL     OW14371   0.860   2.809   2.978
 4491SOL    HW114372   0.780   2.868   2.976
 4491SOL    HW214373   0.839   2.725   3.028
 4492SOL     OW14374   5.232   3.388   0.545
 4492SOL    HW114375   5.161   3.458   0.548
 4492SOL    HW214376   5.190   3.298   0.559
 4493SOL     OW14377   4.460   4.945   5.002
 4493SOL    HW114378   4.483   5.006   5.078
 4493SOL    HW214379   4.516   4.971   4.922
 4494SOL     OW14380   6.795   2.576   6.154
 4494SOL    HW114381   6.746   2.653   6.114
 4494SOL    HW214382   6.740   2.493   6.147
 4495SOL     OW14383   5.454   0.104   3.309
 4495SOL    HW114384   5.384   0.033   3.319
 4495SOL    HW214385   5.419   0.176   3.249
 4496SOL     OW14386   5.349   5.647   0.750
 4496SOL    HW114387   5.253   5.628   0.728
 4496SOL    HW214388   5.382   5.580   0.816
 4497SOL     OW14389   4.514   6.473   6.887
 4497SOL    HW114390   4.557   6.427   6.964
 4497SOL    HW214391   4.568   6.553   6.861
 4498SOL     OW14392   0.644   3.415   6.525
 4498SOL    HW114393   0.714   3.429   6.455
 4498SOL    HW214394   0.678   3.352   6.595
 4499SOL     OW14395   0.081   3.348   4.166
 4499SOL    HW114396   0.162   3.396   4.133
 4499SOL    HW214397   0.042   3.399   4.243
 4500SOL     OW14398   2.974   3.870   3.682
 4500SOL    HW114399   2.956   3.843   3.776
 4500SOL    HW214400   2.914   3.820   3.620
 4501SOL     OW14401   0.411   3.904   5.815
 4501SOL    HW114402   0.368   3.971   5.754
 4501SOL    HW214403   0.343   3.870   5.880
 4502SOL     OW14404   2.026   2.910   6.513
 4502SOL    HW114405   2.058   2.924   6.606
 4502SOL    HW214406   2.104   2.898   6.452
 4503SOL     OW14407   2.347   0.408   2.969
 4503SOL    HW114408   2.362   0.427   3.066
 4503SOL    HW214409   2.330   0.494   2.920
 4504SOL     OW14410   6.248   1.819   4.966
 4504SOL    HW114411   6.333   1.818   5.019
 4504SOL    HW214412   6.171   1.805   5.028
 4505SOL     OW14413   6.823   5.955   4.516
 4505SOL    HW114414   6.799   5.876   4.572
 4505SOL    HW214415   6.921   5.952   4.494
 4506SOL     OW14416   4.596   2.554   4.616
 4506SOL    HW114417   4.517   2.516   4.664
 4506SOL    HW214418   4.680   2.522   4.660
 4507SOL     OW14419   5.226   4.159   1.367
 4507SOL    HW114420   5.160   4.142   1.294
 4507SOL    HW214421   5.239   4.075   1.420
 4508SOL     OW14422   0.969   4.298   6.706
 4508SOL    HW114423   0.914   4.380   6.694
 4508SOL    HW214424   1.007   4.270   6.617
 4509SOL     OW14425   4.567   2.028   3.976
 4509SOL    HW114426   4.579   1.947   4.032
 4509SOL    HW214427   4.470   2.041   3.954
 4510SOL     OW14428   5.585   6.942   5.135
 4510SOL    HW114429   5.666   6.885   5.118
 4510SOL    HW214430   5.589   7.023   5.077
 4511SOL     OW14431   0.374   3.401   6.066
 4511SOL    HW114432   0.349   3.312   6.027
 4511SOL    HW214433   0.471   3.401   6.089
 4512SOL     OW14434   2.505   6.880   5.744
 4512SOL    HW114435   2.409   6.855   5.737
 4512SOL    HW214436   2.547   6.880   5.653
 4513SOL     OW14437   4.723   6.717   1.126
 4513SOL    HW114438   4.688   6.753   1.040
 4513SOL    HW214439   4.805   6.767   1.152
 4514SOL     OW14440   4.166   0.707   4.804
 4514SOL    HW114441   4.125   0.699   4.895
 4514SOL    HW214442   4.262   0.734   4.813
 4515SOL     OW14443   6.622   4.256   6.354
 4515SOL    HW114444   6.654   4.238   6.447
 4515SOL    HW214445   6.565   4.180   6.323
 4516SOL     OW14446   0.894   1.759   6.083
 4516SOL    HW114447   0.970   1.802   6.034
 4516SOL    HW214448   0.916   1.663   6.101
 4517SOL     OW14449   2.698   0.056   6.070
 4517SOL    HW114450   2.655   0.129   6.017
 4517SOL    HW214451   2.647   6.998   6.057
 4518SOL     OW14452   6.820   2.276   3.663
 4518SOL    HW114453   6.859   2.364   3.691
 4518SOL    HW214454   6.752   2.292   3.591
 4519SOL     OW14455   6.743   1.224   2.139
 4519SOL    HW114456   6.831   1.242   2.182
 4519SOL    HW214457   6.749   1.141   2.083
 4520SOL     OW14458   5.809   5.712   2.998
 4520SOL    HW114459   5.740   5.716   3.070
 4520SOL    HW214460   5.799   5.626   2.946
 4521SOL     OW14461   4.654   1.710   5.755
 4521SOL    HW114462   4.654   1.718   5.855
 4521SOL    HW214463   4.717   1.638   5.727
 4522SOL     OW14464   5.400   0.034   3.647
 4522SOL    HW114465   5.386   0.123   3.689
 4522SOL    HW214466   5.470   0.042   3.575
 4523SOL     OW14467   1.101   4.061   0.376
 4523SOL    HW114468   1.055   4.108   0.301
 4523SOL    HW214469   1.051   3.978   0.399
 4524SOL     OW14470   5.014   1.989   5.914
 4524SOL    HW114471   5.105   1.947   5.917
 4524SOL    HW214472   4.987   2.017   6.007
 4525SOL     OW14473   6.730   2.009   3.719
 4525SOL    HW114474   6.760   2.104   3.709
 4525SOL    HW214475   6.632   2.003   3.701
 4526SOL     OW14476   5.411   0.069   1.429
 4526SOL    HW114477   5.439   0.017   1.510
 4526SOL    HW214478   5.373   0.157   1.457
 4527SOL     OW14479   4.250   1.503   3.949
 4527SOL    HW114480   4.237   1.452   4.034
 4527SOL    HW214481   4.348   1.512   3.931
 4528SOL     OW14482   5.005   6.628   0.489
 4528SOL    HW114483   4.929   6.586   0.440
 4528SOL    HW214484   5.001   6.727   0.477
 4529SOL     OW14485   2.728   1.477   3.063
 4529SOL    HW114486   2.753   1.449   2.970
 4529SOL    HW214487   2.650   1.423   3.094
 4530SOL     OW14488   0.281   3.963   5.525
 4530SOL    HW114489   0.228   3.884   5.557
 4530SOL    HW214490   0.299   3.954   5.427
 4531SOL     OW14491   0.511   3.339   3.316
 4531SOL    HW114492   0.458   3.327   3.400
 4531SOL    HW214493   0.544   3.434   3.311
 4532SOL     OW14494   0.567   1.231   2.143
 4532SOL    HW114495   0.547   1.309   2.202
 4532SOL    HW214496   0.657   1.193   2.166
 4533SOL     OW14497   1.609   0.226   4.233
 4533SOL    HW114498   1.558   0.310   4.218
 4533SOL    HW214499   1.695   0.246   4.280
 4534SOL     OW14500   6.244   3.562   4.600
 4534SOL    HW114501   6.219   3.650   4.558
 4534SOL    HW214502   6.165   3.500   4.595
 4535SOL     OW14503   4.672   2.003   2.573
 4535SOL    HW114504   4.612   2.080   2.552
 4535SOL    HW214505   4.626   1.917   2.550
 4536SOL     OW14506   4.772   1.842   4.716
 4536SOL    HW114507   4.789   1.852   4.814
 4536SOL    HW214508   4.674   1.852   4.698
 4537SOL     OW14509   3.332   3.381   6.264
 4537SOL    HW114510   3.395   3.429   6.326
 4537SOL    HW214511   3.251   3.352   6.316
 4538SOL     OW14512   3.264   2.123   3.914
 4538SOL    HW114513   3.195   2.057   3.883
 4538SOL    HW214514   3.292   2.099   4.007
 4539SOL     OW14515   2.420   1.683   3.833
 4539SOL    HW114516   2.471   1.703   3.917
 4539SOL    HW214517   2.397   1.769   3.788
 4540SOL     OW14518   3.583   3.542   3.778
 4540SOL    HW114519   3.666   3.510   3.731
 4540SOL    HW214520   3.591   3.640   3.795
 4541SOL     OW14521   5.540   1.161   0.536
 4541SOL    HW114522   5.640   1.162   0.543
 4541SOL    HW214523   5.507   1.067   0.542
 4542SOL     OW14524   5.939   6.557   1.867
 4542SOL    HW114525   5.978   6.646   1.844
 4542SOL    HW214526   5.860   6.570   1.926
 4543SOL     OW14527   4.247   1.598   6.971
 4543SOL    HW114528   4.252   1.656   0.026
 4543SOL    HW214529   4.320   1.530   6.974
 4544SOL     OW14530   2.721   6.031   5.924
 4544SOL    HW114531   2.678   5.944   5.948
 4544SOL    HW214532   2.669   6.075   5.851
 4545SOL     OW14533   5.582   2.415   5.126
 4545SOL    HW114534   5.680   2.429   5.142
 4545SOL    HW214535   5.530   2.487   5.172
 4546SOL     OW14536   1.183   0.424   6.397
 4546SOL    HW114537   1.169   0.456   6.491
 4546SOL    HW214538   1.109   0.361   6.372
 4547SOL     OW14539   6.473   2.428   2.141
 4547SOL    HW114540   6.544   2.402   2.207
 4547SOL    HW214541   6.516   2.447   2.053
 4548SOL     OW14542   1.130   4.071   4.170
 4548SOL    HW114543   1.056   4.012   4.204
 4548SOL    HW214544   1.091   4.142   4.111
 4549SOL     OW14545   6.141   4.083   2.896
 4549SOL    HW114546   6.128   4.012   2.827
 4549SOL    HW214547   6.196   4.047   2.971
 4550SOL     OW14548   0.435   6.000   3.596
 4550SOL    HW114549   0.382   5.958   3.669
 4550SOL    HW214550   0.430   5.942   3.514
 4551SOL     OW14551   6.926   1.629   5.492
 4551SOL    HW114552   6.895   1.704   5.434
 4551SOL    HW214553   7.009   1.589   5.454
 4552SOL     OW14554   0.069   2.904   5.999
 4552SOL    HW114555   0.082   2.983   6.059
 4552SOL    HW214556   0.005   2.929   5.926
 4553SOL     OW14557   3.462   4.342   7.018
 4553SOL    HW114558   3.375   4.345   0.041
 4553SOL    HW214559   3.453   4.394   6.933
 4554SOL     OW14560   3.789   0.588   1.936
 4554SOL    HW114561   3.828   0.542   1.857
 4554SOL    HW214562   3.800   0.687   1.928
 4555SOL     OW14563   4.252   1.183   6.056
 4555SOL    HW114564   4.152   1.173   6.052
 4555SOL    HW214565   4.285   1.146   6.143
 4556SOL     OW14566   4.403   1.895   3.749
 4556SOL    HW114567   4.380   1.961   3.678
 4556SOL    HW214568   4.319   1.866   3.795
 4557SOL     OW14569   5.080   6.797   5.057
 4557SOL    HW114570   5.147   6.823   5.126
 4557SOL    HW214571   5.104   6.708   5.018
 4558SOL     OW14572   6.585   3.897   5.752
 4558SOL    HW114573   6.678   3.889   5.717
 4558SOL    HW214574   6.579   3.977   5.811
 4559SOL     OW14575   1.376   6.343   1.668
 4559SOL    HW114576   1.451   6.407   1.657
 4559SOL    HW214577   1.341   6.349   1.762
 4560SOL     OW14578   5.087   4.515   3.221
 4560SOL    HW114579   5.014   4.449   3.205
 4560SOL    HW214580   5.139   4.488   3.302
 4561SOL     OW14581   2.488   0.365   1.068
 4561SOL    HW114582   2.499   0.464   1.072
 4561SOL    HW214583   2.392   0.342   1.057
 4562SOL     OW14584   2.788   5.736   5.276
 4562SOL    HW114585   2.728   5.815   5.269
 4562SOL    HW214586   2.734   5.652   5.270
 4563SOL     OW14587   6.377   4.151   0.138
 4563SOL    HW114588   6.362   4.096   0.056
 4563SOL    HW214589   6.435   4.229   0.116
 4564SOL     OW14590   1.272   5.837   0.764
 4564SOL    HW114591   1.336   5.904   0.726
 4564SOL    HW214592   1.323   5.757   0.797
 4565SOL     OW14593   0.676   1.168   5.206
 4565SOL    HW114594   0.664   1.204   5.114
 4565SOL    HW214595   0.588   1.138   5.242
 4566SOL     OW14596   0.365   0.473   0.931
 4566SOL    HW114597   0.387   0.499   1.026
 4566SOL    HW214598   0.348   0.375   0.926
 4567SOL     OW14599   0.614   0.889   0.688
 4567SOL    HW114600   0.616   0.948   0.769
 4567SOL    HW214601   0.520   0.879   0.656
 4568SOL     OW14602   1.783   4.282   5.293
 4568SOL    HW114603   1.719   4.345   5.338
 4568SOL    HW214604   1.810   4.319   5.205
 4569SOL     OW14605   2.052   2.014   3.904
 4569SOL    HW114606   2.079   1.933   3.956
 4569SOL    HW214607   2.049   1.992   3.807
 4570SOL     OW14608   7.021   5.617   3.423
 4570SOL    HW114609   0.074   5.666   3.387
 4570SOL    HW214610   0.025   5.537   3.475
 4571SOL     OW14611   3.447   3.692   5.441
 4571SOL    HW114612   3.484   3.660   5.353
 4571SOL    HW214613   3.400   3.616   5.487
 4572SOL     OW14614   0.345   6.518   0.414
 4572SOL    HW114615   0.383   6.532   0.322
 4572SOL    HW214616   0.250   6.547   0.416
 4573SOL     OW14617   6.116   6.005   0.844
 4573SOL    HW114618   6.177   6.020   0.922
 4573SOL    HW214619   6.029   5.967   0.877
 4574SOL     OW14620   6.781   4.424   0.997
 4574SOL    HW114621   6.865   4.477   0.989
 4574SOL    HW214622   6.733   4.426   0.910
 4575SOL     OW14623   6.932   2.339   0.783
 4575SOL    HW114624   6.917   2.318   0.879
 4575SOL    HW214625   6.885   2.272   0.726
 4576SOL     OW14626   2.592   5.478   6.183
 4576SOL    HW114627   2.603   5.567   6.139
 4576SOL    HW214628   2.498   5.467   6.214
 4577SOL     OW14629   0.262   3.159   3.067
 4577SOL    HW114630   0.361   3.159   3.053
 4577SOL    HW214631   0.236   3.241   3.117
 4578SOL     OW14632   0.168   4.004   3.487
 4578SOL    HW114633   0.120   3.992   3.574
 4578SOL    HW214634   0.137   4.087   3.442
 4579SOL     OW14635   4.919   1.700   3.251
 4579SOL    HW114636   5.007   1.652   3.248
 4579SOL    HW214637   4.904   1.746   3.163
 4580SOL     OW14638   5.381   5.356   0.162
 4580SOL    HW114639   5.318   5.427   0.194
 4580SOL    HW214640   5.344   5.314   0.080
 4581SOL     OW14641   3.034   5.197   2.277
 4581SOL    HW114642   3.086   5.112   2.279
 4581SOL    HW214643   3.095   5.272   2.250
 4582SOL     OW14644   5.987   6.595   4.524
 4582SOL    HW114645   6.084   6.600   4.502
 4582SOL    HW214646   5.937   6.658   4.465
 4583SOL     OW14647   3.093   1.780   5.177
 4583SOL    HW114648   3.155   1.824   5.243
 4583SOL    HW214649   3.085   1.839   5.096
 4584SOL     OW14650   0.258   6.155   6.120
 4584SOL    HW114651   0.332   6.106   6.073
 4584SOL    HW214652   0.189   6.184   6.053
 4585SOL     OW14653   2.903   6.437   2.970
 4585SOL    HW114654   2.882   6.413   3.064
 4585SOL    HW214655   2.968   6.371   2.932
 4586SOL     OW14656   4.168   4.579   1.569
 4586SOL    HW114657   4.079   4.540   1.547
 4586SOL    HW214658   4.169   4.677   1.547
 4587SOL     OW14659   4.415   3.835   1.533
 4587SOL    HW114660   4.430   3.925   1.573
 4587SOL    HW214661   4.500   3.783   1.532
 4588SOL     OW14662   3.658   3.545   4.934
 4588SOL    HW114663   3.601   3.591   4.866
 4588SOL    HW214664   3.738   3.505   4.889
 4589SOL     OW14665   6.038   1.753   2.483
 4589SOL    HW114666   6.125   1.706   2.500
 4589SOL    HW214667   5.963   1.687   2.488
 4590SOL     OW14668   4.393   6.015   1.487
 4590SOL    HW114669   4.411   6.018   1.586
 4590SOL    HW214670   4.380   6.108   1.453
 4591SOL     OW14671   0.123   6.291   5.403
 4591SOL    HW114672   0.079   6.380   5.415
 4591SOL    HW214673   0.222   6.302   5.410
 4592SOL     OW14674   4.088   3.012   1.518
 4592SOL    HW114675   4.130   2.944   1.578
 4592SOL    HW214676   4.078   2.974   1.426
 4593SOL     OW14677   4.354   5.381   3.488
 4593SOL    HW114678   4.434   5.441   3.493
 4593SOL    HW214679   4.308   5.379   3.577
 4594SOL     OW14680   3.632   2.067   1.174
 4594SOL    HW114681   3.629   2.029   1.267
 4594SOL    HW214682   3.626   2.167   1.179
 4595SOL     OW14683   3.927   2.576   5.829
 4595SOL    HW114684   3.923   2.621   5.740
 4595SOL    HW214685   3.999   2.507   5.829
 4596SOL     OW14686   5.828   6.436   1.636
 4596SOL    HW114687   5.791   6.361   1.690
 4596SOL    HW214688   5.881   6.498   1.695
 4597SOL     OW14689   5.111   5.010   6.820
 4597SOL    HW114690   5.119   5.014   6.720
 4597SOL    HW214691   5.029   5.059   6.849
 4598SOL     OW14692   0.991   4.997   6.655
 4598SOL    HW114693   1.058   4.980   6.727
 4598SOL    HW214694   1.009   4.936   6.578
 4599SOL     OW14695   1.266   4.015   1.406
 4599SOL    HW114696   1.335   3.974   1.466
 4599SOL    HW214697   1.175   3.997   1.443
 4600SOL     OW14698   2.831   5.295   5.794
 4600SOL    HW114699   2.737   5.267   5.814
 4600SOL    HW214700   2.894   5.223   5.826
 4601SOL     OW14701   1.940   0.903   5.241
 4601SOL    HW114702   2.005   0.848   5.190
 4601SOL    HW214703   1.984   0.988   5.272
 4602SOL     OW14704   0.991   6.194   0.658
 4602SOL    HW114705   0.898   6.231   0.653
 4602SOL    HW214706   0.997   6.129   0.733
 4603SOL     OW14707   3.909   6.459   0.944
 4603SOL    HW114708   3.989   6.500   0.900
 4603SOL    HW214709   3.831   6.522   0.939
 4604SOL     OW14710   4.208   0.904   1.183
 4604SOL    HW114711   4.121   0.926   1.138
 4604SOL    HW214712   4.235   0.979   1.242
 4605SOL     OW14713   4.917   0.667   4.002
 4605SOL    HW114714   4.972   0.690   3.922
 4605SOL    HW214715   4.879   0.576   3.992
 4606SOL     OW14716   7.003   6.997   1.980
 4606SOL    HW114717   0.048   6.971   2.044
 4606SOL    HW214718   6.940   6.921   1.967
 4607SOL     OW14719   2.663   2.542   0.620
 4607SOL    HW114720   2.665   2.532   0.520
 4607SOL    HW214721   2.578   2.586   0.648
 4608SOL     OW14722   1.245   5.198   4.498
 4608SOL    HW114723   1.209   5.291   4.496
 4608SOL    HW214724   1.172   5.134   4.471
 4609SOL     OW14725   4.002   5.088   6.243
 4609SOL    HW114726   4.007   5.155   6.170
 4609SOL    HW214727   4.085   5.092   6.298
 4610SOL     OW14728   0.065   2.559   0.460
 4610SOL    HW114729   0.133   2.511   0.516
 4610SOL    HW214730   0.046   2.648   0.501
 4611SOL     OW14731   6.273   4.786   5.869
 4611SOL    HW114732   6.364   4.747   5.862
 4611SOL    HW214733   6.222   4.769   5.784
 4612SOL     OW14734   1.734   6.606   6.885
 4612SOL    HW114735   1.818   6.603   6.939
 4612SOL    HW214736   1.659   6.641   6.942
 4613SOL     OW14737   2.253   5.628   2.519
 4613SOL    HW114738   2.203   5.712   2.541
 4613SOL    HW214739   2.332   5.650   2.462
 4614SOL     OW14740   1.514   4.899   6.029
 4614SOL    HW114741   1.573   4.904   6.109
 4614SOL    HW214742   1.570   4.887   5.947
 4615SOL     OW14743   1.851   1.376   6.771
 4615SOL    HW114744   1.841   1.327   6.685
 4615SOL    HW214745   1.947   1.375   6.799
 4616SOL     OW14746   6.941   0.236   5.963
 4616SOL    HW114747   7.016   0.292   5.926
 4616SOL    HW214748   6.854   0.267   5.924
 4617SOL     OW14749   1.376   2.230   2.678
 4617SOL    HW114750   1.428   2.306   2.716
 4617SOL    HW214751   1.383   2.230   2.578
 4618SOL     OW14752   1.812   2.706   4.867
 4618SOL    HW114753   1.854   2.651   4.795
 4618SOL    HW214754   1.879   2.725   4.938
 4619SOL     OW14755   4.861   6.556   3.472
 4619SOL    HW114756   4.837   6.552   3.375
 4619SOL    HW214757   4.897   6.647   3.494
 4620SOL     OW14758   3.433   3.791   6.849
 4620SOL    HW114759   3.358   3.740   6.806
 4620SOL    HW214760   3.520   3.744   6.831
 4621SOL     OW14761   5.809   2.320   3.925
 4621SOL    HW114762   5.799   2.398   3.987
 4621SOL    HW214763   5.732   2.258   3.938
 4622SOL     OW14764   0.904   3.038   1.372
 4622SOL    HW114765   0.885   2.944   1.401
 4622SOL    HW214766   0.917   3.096   1.453
 4623SOL     OW14767   6.947   5.444   1.119
 4623SOL    HW114768   0.017   5.469   1.119
 4623SOL    HW214769   6.938   5.346   1.099
 4624SOL     OW14770   4.495   0.018   3.124
 4624SOL    HW114771   4.509   0.085   3.196
 4624SOL    HW214772   4.541   0.049   3.040
 4625SOL     OW14773   1.305   4.027   6.822
 4625SOL    HW114774   1.304   3.934   6.787
 4625SOL    HW214775   1.387   4.074   6.789
 4626SOL     OW14776   5.733   4.756   1.132
 4626SOL    HW114777   5.713   4.732   1.037
 4626SOL    HW214778   5.655   4.807   1.170
 4627SOL     OW14779   3.186   5.471   5.168
 4627SOL    HW114780   3.101   5.477   5.219
 4627SOL    HW214781   3.255   5.425   5.223
 4628SOL     OW14782   6.131   4.335   3.399
 4628SOL    HW114783   6.126   4.299   3.306
 4628SOL    HW214784   6.056   4.297   3.454
 4629SOL     OW14785   2.064   4.929   6.221
 4629SOL    HW114786   2.105   4.925   6.313
 4629SOL    HW214787   2.126   4.888   6.155
 4630SOL     OW14788   3.415   5.803   3.280
 4630SOL    HW114789   3.507   5.802   3.319
 4630SOL    HW214790   3.375   5.895   3.291
 4631SOL     OW14791   2.683   0.085   3.223
 4631SOL    HW114792   2.619   0.096   3.299
 4631SOL    HW214793   2.773   0.119   3.251
 4632SOL     OW14794   4.244   5.157   2.998
 4632SOL    HW114795   4.220   5.077   3.053
 4632SOL    HW214796   4.211   5.240   3.044
 4633SOL     OW14797   6.248   2.085   4.183
 4633SOL    HW114798   6.167   2.099   4.127
 4633SOL    HW214799   6.328   2.125   4.137
 4634SOL     OW14800   2.653   4.266   6.484
 4634SOL    HW114801   2.652   4.338   6.553
 4634SOL    HW214802   2.640   4.306   6.393
 4635SOL     OW14803   6.270   3.819   2.217
 4635SOL    HW114804   6.255   3.832   2.315
 4635SOL    HW214805   6.230   3.896   2.167
 4636SOL     OW14806   2.722   4.767   6.905
 4636SOL    HW114807   2.755   4.673   6.915
 4636SOL    HW214808   2.653   4.771   6.832
 4637SOL     OW14809   1.713   0.776   7.008
 4637SOL    HW114810   1.764   0.692   6.993
 4637SOL    HW214811   1.620   0.754   0.011
 4638SOL     OW14812   3.679   2.689   6.374
 4638SOL    HW114813   3.755   2.630   6.349
 4638SOL    HW214814   3.593   2.645   6.348
 4639SOL     OW14815   1.849   4.733   5.196
 4639SOL    HW114816   1.761   4.708   5.155
 4639SOL    HW214817   1.865   4.677   5.278
 4640SOL     OW14818   4.656   5.140   3.262
 4640SOL    HW114819   4.708   5.147   3.177
 4640SOL    HW214820   4.582   5.073   3.251
 4641SOL     OW14821   2.621   5.077   3.874
 4641SOL    HW114822   2.696   5.074   3.941
 4641SOL    HW214823   2.607   4.985   3.837
 4642SOL     OW14824   0.255   6.611   5.476
 4642SOL    HW114825   0.343   6.603   5.429
 4642SOL    HW214826   0.256   6.556   5.559
 4643SOL     OW14827   4.854   2.573   0.732
 4643SOL    HW114828   4.943   2.537   0.760
 4643SOL    HW214829   4.851   2.672   0.750
 4644SOL     OW14830   1.363   5.001   5.108
 4644SOL    HW114831   1.382   5.005   5.009
 4644SOL    HW214832   1.315   4.916   5.129
 4645SOL     OW14833   1.883   0.203   4.658
 4645SOL    HW114834   1.856   0.297   4.678
 4645SOL    HW214835   1.983   0.197   4.651
 4646SOL     OW14836   2.202   6.419   2.769
 4646SOL    HW114837   2.245   6.348   2.826
 4646SOL    HW214838   2.125   6.380   2.719
 4647SOL     OW14839   0.295   6.588   3.358
 4647SOL    HW114840   0.342   6.674   3.375
 4647SOL    HW214841   0.356   6.511   3.380
 4648SOL     OW14842   4.016   0.187   1.035
 4648SOL    HW114843   4.100   0.134   1.025
 4648SOL    HW214844   3.938   0.129   1.010
 4649SOL     OW14845   5.135   0.199   5.805
 4649SOL    HW114846   5.181   0.206   5.894
 4649SOL    HW214847   5.052   0.254   5.808
 4650SOL     OW14848   3.896   5.909   3.465
 4650SOL    HW114849   3.927   5.904   3.370
 4650SOL    HW214850   3.930   5.829   3.515
 4651SOL     OW14851   0.116   1.993   1.128
 4651SOL    HW114852   0.118   2.070   1.191
 4651SOL    HW214853   0.128   2.025   1.034
 4652SOL     OW14854   0.851   0.047   3.547
 4652SOL    HW114855   0.775   7.013   3.572
 4652SOL    HW214856   0.837   0.137   3.588
 4653SOL     OW14857   6.755   5.304   0.400
 4653SOL    HW114858   6.835   5.343   0.446
 4653SOL    HW214859   6.758   5.204   0.407
 4654SOL     OW14860   0.842   0.202   7.012
 4654SOL    HW114861   0.760   0.147   0.003
 4654SOL    HW214862   0.815   0.288   6.970
 4655SOL     OW14863   6.793   4.673   2.061
 4655SOL    HW114864   6.880   4.637   2.091
 4655SOL    HW214865   6.800   4.705   1.966
 4656SOL     OW14866   1.036   6.956   3.167
 4656SOL    HW114867   0.988   6.887   3.221
 4656SOL    HW214868   1.078   6.913   3.087
 4657SOL     OW14869   5.087   6.935   1.918
 4657SOL    HW114870   5.066   7.009   1.855
 4657SOL    HW214871   5.186   6.923   1.926
 4658SOL     OW14872   3.523   0.501   2.686
 4658SOL    HW114873   3.508   0.536   2.778
 4658SOL    HW214874   3.438   0.459   2.652
 4659SOL     OW14875   2.464   3.711   5.643
 4659SOL    HW114876   2.422   3.781   5.585
 4659SOL    HW214877   2.486   3.631   5.588
 4660SOL     OW14878   1.506   2.574   4.801
 4660SOL    HW114879   1.551   2.614   4.881
 4660SOL    HW214880   1.564   2.583   4.721
 4661SOL     OW14881   4.490   4.324   5.285
 4661SOL    HW114882   4.453   4.250   5.340
 4661SOL    HW214883   4.501   4.294   5.190
 4662SOL     OW14884   4.843   0.239   5.107
 4662SOL    HW114885   4.816   0.334   5.123
 4662SOL    HW214886   4.941   0.228   5.125
 4663SOL     OW14887   0.065   1.368   2.598
 4663SOL    HW114888   0.108   1.299   2.656
 4663SOL    HW214889   7.019   1.326   2.543
 4664SOL     OW14890   2.109   2.493   6.583
 4664SOL    HW114891   2.106   2.448   6.493
 4664SOL    HW214892   2.025   2.473   6.633
 4665SOL     OW14893   4.680   0.179   6.939
 4665SOL    HW114894   4.719   0.113   7.004
 4665SOL    HW214895   4.614   0.237   6.986
 4666SOL     OW14896   2.154   1.641   0.029
 4666SOL    HW114897   2.103   1.727   0.026
 4666SOL    HW214898   2.235   1.653   0.087
 4667SOL     OW14899   6.395   5.328   0.346
 4667SOL    HW114900   6.337   5.257   0.306
 4667SOL    HW214901   6.486   5.325   0.304
 4668SOL     OW14902   0.046   1.884   4.153
 4668SOL    HW114903   0.039   1.822   4.075
 4668SOL    HW214904   6.981   1.906   4.186
 4669SOL     OW14905   3.803   6.670   0.677
 4669SOL    HW114906   3.874   6.614   0.635
 4669SOL    HW214907   3.726   6.678   0.615
 4670SOL     OW14908   3.519   1.449   4.920
 4670SOL    HW114909   3.425   1.450   4.953
 4670SOL    HW214910   3.576   1.396   4.983
 4671SOL     OW14911   6.053   3.071   1.765
 4671SOL    HW114912   5.986   3.014   1.812
 4671SOL    HW214913   6.069   3.154   1.819
 4672SOL     OW14914   2.836   4.607   6.009
 4672SOL    HW114915   2.814   4.665   5.931
 4672SOL    HW214916   2.788   4.640   6.090
 4673SOL     OW14917   4.625   0.149   1.091
 4673SOL    HW114918   4.577   0.164   1.178
 4673SOL    HW214919   4.655   0.236   1.054
 4674SOL     OW14920   5.362   6.267   6.635
 4674SOL    HW114921   5.301   6.332   6.591
 4674SOL    HW214922   5.403   6.208   6.565
 4675SOL     OW14923   0.734   3.633   0.626
 4675SOL    HW114924   0.779   3.545   0.608
 4675SOL    HW214925   0.667   3.652   0.555
 4676SOL     OW14926   0.987   5.596   3.851
 4676SOL    HW114927   1.018   5.598   3.756
 4676SOL    HW214928   0.931   5.676   3.870
 4677SOL     OW14929   2.024   2.323   1.007
 4677SOL    HW114930   1.999   2.318   0.911
 4677SOL    HW214931   2.078   2.406   1.023
 4678SOL     OW14932   2.746   4.671   2.826
 4678SOL    HW114933   2.685   4.618   2.767
 4678SOL    HW214934   2.701   4.687   2.914
 4679SOL     OW14935   4.262   0.064   2.336
 4679SOL    HW114936   4.192   0.000   2.368
 4679SOL    HW214937   4.347   0.048   2.385
 4680SOL     OW14938   4.128   1.817   0.497
 4680SOL    HW114939   4.141   1.914   0.516
 4680SOL    HW214940   4.075   1.805   0.414
 4681SOL     OW14941   4.628   4.966   6.643
 4681SOL    HW114942   4.559   5.035   6.621
 4681SOL    HW214943   4.662   4.981   6.736
 4682SOL     OW14944   5.573   3.486   6.178
 4682SOL    HW114945   5.489   3.457   6.133
 4682SOL    HW214946   5.640   3.412   6.174
 4683SOL     OW14947   5.930   5.568   2.257
 4683SOL    HW114948   5.893   5.518   2.179
 4683SOL    HW214949   6.024   5.598   2.237
 4684SOL     OW14950   4.470   6.557   6.025
 4684SOL    HW114951   4.423   6.488   5.971
 4684SOL    HW214952   4.556   6.520   6.060
 4685SOL     OW14953   1.934   4.446   6.202
 4685SOL    HW114954   1.851   4.447   6.147
 4685SOL    HW214955   2.013   4.465   6.144
 4686SOL     OW14956   4.344   5.091   0.696
 4686SOL    HW114957   4.391   5.178   0.683
 4686SOL    HW214958   4.358   5.034   0.615
 4687SOL     OW14959   4.915   2.369   4.315
 4687SOL    HW114960   4.894   2.389   4.219
 4687SOL    HW214961   4.834   2.330   4.359
 4688SOL     OW14962   5.730   2.476   5.428
 4688SOL    HW114963   5.755   2.454   5.334
 4688SOL    HW214964   5.810   2.511   5.477
 4689SOL     OW14965   5.862   0.607   1.340
 4689SOL    HW114966   5.786   0.549   1.369
 4689SOL    HW214967   5.895   0.577   1.250
 4690SOL     OW14968   1.424   1.533   0.760
 4690SOL    HW114969   1.394   1.628   0.769
 4690SOL    HW214970   1.503   1.529   0.699
 4691SOL     OW14971   4.207   3.734   0.059
 4691SOL    HW114972   4.145   3.660   0.031
 4691SOL    HW214973   4.171   3.822   0.028
 4692SOL     OW14974   5.923   5.103   3.259
 4692SOL    HW114975   5.916   5.010   3.294
 4692SOL    HW214976   5.898   5.105   3.162
 4693SOL     OW14977   1.159   0.929   3.662
 4693SOL    HW114978   1.104   0.955   3.583
 4693SOL    HW214979   1.201   0.840   3.646
 4694SOL     OW14980   2.344   2.468   0.793
 4694SOL    HW114981   2.246   2.471   0.813
 4694SOL    HW214982   2.358   2.459   0.694
 4695SOL     OW14983   1.580   6.093   0.643
 4695SOL    HW114984   1.654   6.156   0.624
 4695SOL    HW214985   1.525   6.127   0.719
 4696SOL     OW14986   0.526   5.798   6.957
 4696SOL    HW114987   0.488   5.830   6.870
 4696SOL    HW214988   0.453   5.757   7.012
 4697SOL     OW14989   1.102   3.608   2.056
 4697SOL    HW114990   1.169   3.545   2.017
 4697SOL    HW214991   1.010   3.585   2.023
 4698SOL     OW14992   3.711   6.950   3.073
 4698SOL    HW114993   3.773   6.964   3.150
 4698SOL    HW214994   3.616   6.960   3.105
 4699SOL     OW14995   0.647   6.726   2.690
 4699SOL    HW114996   0.599   6.808   2.662
 4699SOL    HW214997   0.740   6.750   2.718
 4700SOL     OW14998   6.464   1.273   2.184
 4700SOL    HW114999   6.443   1.184   2.143
 4700SOL    HW215000   6.563   1.288   2.183
 4701SOL     OW15001   3.597   1.886   0.987
 4701SOL    HW115002   3.513   1.832   0.996
 4701SOL    HW215003   3.612   1.938   1.071
 4702SOL     OW15004   4.771   4.985   0.184
 4702SOL    HW115005   4.798   4.986   0.280
 4702SOL    HW215006   4.834   4.927   0.132
 4703SOL     OW15007   0.933   5.807   2.728
 4703SOL    HW115008   0.912   5.715   2.761
 4703SOL    HW215009   0.972   5.861   2.803
 4704SOL     OW15010   0.481   5.863   6.210
 4704SOL    HW115011   0.486   5.765   6.228
 4704SOL    HW215012   0.480   5.879   6.112
 4705SOL     OW15013   3.382   2.608   0.520
 4705SOL    HW115014   3.355   2.669   0.594
 4705SOL    HW215015   3.340   2.518   0.534
 4706SOL     OW15016   1.278   0.594   0.861
 4706SOL    HW115017   1.250   0.687   0.884
 4706SOL    HW215018   1.329   0.595   0.775
 4707SOL     OW15019   1.128   5.932   1.275
 4707SOL    HW115020   1.082   5.880   1.346
 4707SOL    HW215021   1.210   5.883   1.245
 4708SOL     OW15022   0.654   2.213   5.793
 4708SOL    HW115023   0.582   2.146   5.775
 4708SOL    HW215024   0.740   2.165   5.811
 4709SOL     OW15025   4.738   4.899   4.300
 4709SOL    HW115026   4.830   4.936   4.307
 4709SOL    HW215027   4.676   4.952   4.359
 4710SOL     OW15028   5.553   0.030   5.749
 4710SOL    HW115029   5.495   6.977   5.768
 4710SOL    HW215030   5.637   0.023   5.803
 4711SOL     OW15031   6.731   1.949   2.741
 4711SOL    HW115032   6.830   1.935   2.748
 4711SOL    HW215033   6.710   2.003   2.660
 4712SOL     OW15034   3.864   4.759   6.618
 4712SOL    HW115035   3.808   4.823   6.566
 4712SOL    HW215036   3.812   4.674   6.634
 4713SOL     OW15037   5.144   5.634   1.064
 4713SOL    HW115038   5.073   5.564   1.057
 4713SOL    HW215039   5.229   5.599   1.023
 4714SOL     OW15040   0.535   1.445   6.243
 4714SOL    HW115041   0.453   1.457   6.299
 4714SOL    HW215042   0.542   1.520   6.178
 4715SOL     OW15043   5.973   2.528   1.225
 4715SOL    HW115044   5.874   2.539   1.214
 4715SOL    HW215045   5.996   2.535   1.322
 4716SOL     OW15046   4.915   6.212   5.827
 4716SOL    HW115047   4.907   6.118   5.795
 4716SOL    HW215048   4.945   6.270   5.752
 4717SOL     OW15049   2.175   5.173   5.065
 4717SOL    HW115050   2.146   5.172   5.161
 4717SOL    HW215051   2.264   5.218   5.058
 4718SOL     OW15052   4.865   2.912   1.055
 4718SOL    HW115053   4.871   2.997   1.003
 4718SOL    HW215054   4.779   2.909   1.106
 4719SOL     OW15055   4.785   4.002   2.727
 4719SOL    HW115056   4.866   4.032   2.779
 4719SOL    HW215057   4.744   4.081   2.682
 4720SOL     OW15058   2.058   4.648   6.336
 4720SOL    HW115059   2.037   4.737   6.295
 4720SOL    HW215060   2.012   4.576   6.284
 4721SOL     OW15061   5.801   2.381   1.644
 4721SOL    HW115062   5.736   2.434   1.590
 4721SOL    HW215063   5.754   2.304   1.687
 4722SOL     OW15064   0.883   6.258   6.710
 4722SOL    HW115065   0.981   6.252   6.724
 4722SOL    HW215066   0.838   6.279   6.797
 4723SOL     OW15067   3.588   3.937   5.440
 4723SOL    HW115068   3.539   3.855   5.410
 4723SOL    HW215069   3.524   4.012   5.454
 4724SOL     OW15070   0.275   0.231   4.039
 4724SOL    HW115071   0.227   0.183   4.113
 4724SOL    HW215072   0.216   0.235   3.958
 4725SOL     OW15073   5.741   5.338   6.986
 4725SOL    HW115074   5.736   5.248   0.002
 4725SOL    HW215075   5.668   5.347   6.918
 4726SOL     OW15076   1.230   3.424   5.720
 4726SOL    HW115077   1.210   3.332   5.754
 4726SOL    HW215078   1.187   3.437   5.631
 4727SOL     OW15079   0.164   6.147   1.210
 4727SOL    HW115080   0.137   6.228   1.158
 4727SOL    HW215081   0.163   6.167   1.308
 4728SOL     OW15082   6.687   1.510   2.685
 4728SOL    HW115083   6.656   1.415   2.689
 4728SOL    HW215084   6.669   1.555   2.773
 4729SOL     OW15085   4.987   0.240   0.673
 4729SOL    HW115086   4.980   0.156   0.728
 4729SOL    HW215087   4.899   0.257   0.628
 4730SOL     OW15088   4.022   6.052   5.614
 4730SOL    HW115089   4.091   5.988   5.649
 4730SOL    HW215090   4.043   6.073   5.518
 4731SOL     OW15091   2.833   0.732   0.563
 4731SOL    HW115092   2.803   0.827   0.565
 4731SOL    HW215093   2.810   0.689   0.651
 4732SOL     OW15094   0.287   3.525   5.474
 4732SOL    HW115095   0.269   3.623   5.475
 4732SOL    HW215096   0.363   3.505   5.536
 4733SOL     OW15097   0.752   4.132   2.534
 4733SOL    HW115098   0.673   4.072   2.520
 4733SOL    HW215099   0.833   4.091   2.493
 4734SOL     OW15100   5.464   3.320   0.399
 4734SOL    HW115101   5.445   3.336   0.303
 4734SOL    HW215102   5.380   3.331   0.452
 4735SOL     OW15103   6.581   5.524   4.630
 4735SOL    HW115104   6.577   5.591   4.556
 4735SOL    HW215105   6.566   5.432   4.592
 4736SOL     OW15106   5.662   2.008   4.198
 4736SOL    HW115107   5.713   1.943   4.254
 4736SOL    HW215108   5.637   2.088   4.253
 4737SOL     OW15109   2.474   4.240   0.920
 4737SOL    HW115110   2.568   4.237   0.956
 4737SOL    HW215111   2.422   4.310   0.969
 4738SOL     OW15112   2.964   6.883   3.749
 4738SOL    HW115113   2.936   6.945   3.822
 4738SOL    HW215114   2.903   6.894   3.671
 4739SOL     OW15115   5.645   2.116   3.949
 4739SOL    HW115116   5.658   2.100   4.047
 4739SOL    HW215117   5.548   2.107   3.927
 4740SOL     OW15118   0.826   0.433   0.721
 4740SOL    HW115119   0.738   0.402   0.757
 4740SOL    HW215120   0.878   0.354   0.688
 4741SOL     OW15121   4.798   4.271   0.969
 4741SOL    HW115122   4.799   4.171   0.974
 4741SOL    HW215123   4.869   4.309   1.028
 4742SOL     OW15124   3.541   5.816   1.480
 4742SOL    HW115125   3.535   5.779   1.573
 4742SOL    HW215126   3.621   5.875   1.473
 4743SOL     OW15127   1.355   1.761   6.111
 4743SOL    HW115128   1.353   1.774   6.210
 4743SOL    HW215129   1.449   1.747   6.081
 4744SOL     OW15130   2.348   3.280   5.629
 4744SOL    HW115131   2.369   3.207   5.564
 4744SOL    HW215132   2.258   3.318   5.608
 4745SOL     OW15133   2.670   5.032   5.155
 4745SOL    HW115134   2.603   5.032   5.081
 4745SOL    HW215135   2.671   4.942   5.199
 4746SOL     OW15136   5.904   6.545   1.307
 4746SOL    HW115137   5.983   6.606   1.304
 4746SOL    HW215138   5.820   6.596   1.288
 4747SOL     OW15139   1.492   3.546   5.609
 4747SOL    HW115140   1.408   3.513   5.652
 4747SOL    HW215141   1.532   3.473   5.553
 4748SOL     OW15142   1.886   5.848   1.173
 4748SOL    HW115143   1.879   5.761   1.123
 4748SOL    HW215144   1.803   5.902   1.156
 4749SOL     OW15145   2.894   6.357   5.747
 4749SOL    HW115146   2.963   6.337   5.816
 4749SOL    HW215147   2.908   6.298   5.667
 4750SOL     OW15148   0.143   1.856   3.857
 4750SOL    HW115149   0.070   1.814   3.803
 4750SOL    HW215150   0.197   1.917   3.800
 4751SOL     OW15151   2.014   3.566   0.088
 4751SOL    HW115152   2.107   3.595   0.110
 4751SOL    HW215153   1.974   3.627   0.020
 4752SOL     OW15154   2.881   0.136   0.525
 4752SOL    HW115155   2.838   0.046   0.516
 4752SOL    HW215156   2.818   0.198   0.571
 4753SOL     OW15157   5.213   0.242   4.112
 4753SOL    HW115158   5.310   0.238   4.138
 4753SOL    HW215159   5.168   0.158   4.143
 4754SOL     OW15160   5.625   0.460   5.592
 4754SOL    HW115161   5.622   0.416   5.502
 4754SOL    HW215162   5.676   0.546   5.585
 4755SOL     OW15163   2.448   0.810   7.008
 4755SOL    HW115164   2.461   0.749   0.058
 4755SOL    HW215165   2.471   0.904   0.009
 4756SOL     OW15166   5.716   1.987   1.586
 4756SOL    HW115167   5.702   2.058   1.656
 4756SOL    HW215168   5.702   1.897   1.627
 4757SOL     OW15169   1.599   1.963   2.358
 4757SOL    HW115170   1.582   2.043   2.301
 4757SOL    HW215171   1.513   1.934   2.400
 4758SOL     OW15172   3.698   5.664   5.073
 4758SOL    HW115173   3.795   5.678   5.094
 4758SOL    HW215174   3.690   5.610   4.989
 4759SOL     OW15175   5.467   5.261   5.363
 4759SOL    HW115176   5.491   5.276   5.267
 4759SOL    HW215177   5.514   5.181   5.398
 4760SOL     OW15178   3.407   2.357   0.875
 4760SOL    HW115179   3.368   2.448   0.892
 4760SOL    HW215180   3.399   2.335   0.778
 4761SOL     OW15181   6.759   1.008   6.959
 4761SOL    HW115182   6.749   0.923   7.011
 4761SOL    HW215183   6.670   1.037   6.924
 4762SOL     OW15184   2.811   5.098   3.008
 4762SOL    HW115185   2.840   5.102   2.912
 4762SOL    HW215186   2.854   5.019   3.052
 4763SOL     OW15187   5.883   6.200   3.365
 4763SOL    HW115188   5.948   6.265   3.403
 4763SOL    HW215189   5.872   6.123   3.429
 4764SOL     OW15190   4.936   3.766   5.488
 4764SOL    HW115191   4.914   3.725   5.400
 4764SOL    HW215192   5.009   3.833   5.477
 4765SOL     OW15193   5.286   6.523   4.170
 4765SOL    HW115194   5.370   6.485   4.207
 4765SOL    HW215195   5.249   6.460   4.101
 4766SOL     OW15196   4.133   0.497   3.575
 4766SOL    HW115197   4.145   0.415   3.519
 4766SOL    HW215198   4.087   0.568   3.520
 4767SOL     OW15199   4.058   5.841   6.601
 4767SOL    HW115200   3.968   5.882   6.613
 4767SOL    HW215201   4.082   5.841   6.504
 4768SOL     OW15202   5.185   1.722   5.202
 4768SOL    HW115203   5.232   1.802   5.238
 4768SOL    HW215204   5.172   1.732   5.103
 4769SOL     OW15205   4.649   5.251   1.119
 4769SOL    HW115206   4.578   5.192   1.079
 4769SOL    HW215207   4.723   5.194   1.154
 4770SOL     OW15208   1.806   0.040   3.725
 4770SOL    HW115209   1.709   0.024   3.711
 4770SOL    HW215210   1.823   0.067   3.820
 4771SOL     OW15211   3.378   5.528   6.191
 4771SOL    HW115212   3.322   5.448   6.166
 4771SOL    HW215213   3.386   5.588   6.112
 4772SOL     OW15214   1.955   5.740   2.175
 4772SOL    HW115215   1.920   5.677   2.244
 4772SOL    HW215216   1.943   5.834   2.206
 4773SOL     OW15217   6.703   5.174   5.101
 4773SOL    HW115218   6.636   5.115   5.055
 4773SOL    HW215219   6.751   5.121   5.171
 4774SOL     OW15220   1.206   2.175   1.812
 4774SOL    HW115221   1.224   2.270   1.838
 4774SOL    HW215222   1.258   2.115   1.873
 4775SOL     OW15223   5.785   0.455   3.051
 4775SOL    HW115224   5.803   0.357   3.043
 4775SOL    HW215225   5.869   0.502   3.081
 4776SOL     OW15226   2.098   6.601   4.284
 4776SOL    HW115227   2.132   6.600   4.378
 4776SOL    HW215228   2.174   6.587   4.221
 4777SOL     OW15229   2.927   4.916   1.340
 4777SOL    HW115230   2.904   4.974   1.418
 4777SOL    HW215231   2.912   4.820   1.363
 4778SOL     OW15232   5.246   2.391   2.004
 4778SOL    HW115233   5.302   2.351   2.076
 4778SOL    HW215234   5.151   2.398   2.036
 4779SOL     OW15235   6.982   6.597   2.403
 4779SOL    HW115236   6.899   6.619   2.352
 4779SOL    HW215237   0.034   6.638   2.358
 4780SOL     OW15238   0.304   0.074   6.892
 4780SOL    HW115239   0.243   0.128   6.949
 4780SOL    HW215240   0.301   7.005   6.920
 4781SOL     OW15241   2.699   5.928   1.191
 4781SOL    HW115242   2.714   5.993   1.117
 4781SOL    HW215243   2.755   5.954   1.270
 4782SOL     OW15244   4.714   6.706   0.130
 4782SOL    HW115245   4.703   6.803   0.108
 4782SOL    HW215246   4.624   6.664   0.140
 4783SOL     OW15247   4.991   4.281   0.034
 4783SOL    HW115248   5.029   4.331   0.112
 4783SOL    HW215249   4.917   4.335   7.020
 4784SOL     OW15250   6.786   4.112   6.892
 4784SOL    HW115251   6.707   4.130   6.834
 4784SOL    HW215252   6.784   4.018   6.924
 4785SOL     OW15253   7.007   5.696   1.672
 4785SOL    HW115254   0.079   5.685   1.657
 4785SOL    HW215255   6.957   5.639   1.607
 4786SOL     OW15256   2.473   2.049   2.047
 4786SOL    HW115257   2.457   1.989   2.125
 4786SOL    HW215258   2.442   2.003   1.963
 4787SOL     OW15259   3.394   2.029   3.476
 4787SOL    HW115260   3.396   1.933   3.448
 4787SOL    HW215261   3.299   2.058   3.488
 4788SOL     OW15262   1.517   5.742   6.060
 4788SOL    HW115263   1.540   5.771   5.967
 4788SOL    HW215264   1.571   5.662   6.085
 4789SOL     OW15265   5.266   0.756   0.419
 4789SOL    HW115266   5.220   0.706   0.346
 4789SOL    HW215267   5.272   0.698   0.501
 4790SOL     OW15268   6.480   3.257   6.357
 4790SOL    HW115269   6.541   3.336   6.346
 4790SOL    HW215270   6.534   3.174   6.366
 4791SOL     OW15271   5.844   2.106   2.335
 4791SOL    HW115272   5.923   2.056   2.298
 4791SOL    HW215273   5.866   2.204   2.339
 4792SOL     OW15274   1.526   3.456   2.349
 4792SOL    HW115275   1.563   3.370   2.384
 4792SOL    HW215276   1.562   3.532   2.404
 4793SOL     OW15277   0.847   3.035   6.038
 4793SOL    HW115278   0.767   3.004   5.985
 4793SOL    HW215279   0.817   3.068   6.127
 4794SOL     OW15280   4.022   1.067   3.660
 4794SOL    HW115281   4.068   1.144   3.617
 4794SOL    HW215282   4.090   1.000   3.691
 4795SOL     OW15283   6.544   1.622   3.288
 4795SOL    HW115284   6.473   1.650   3.224
 4795SOL    HW215285   6.545   1.684   3.366
 4796SOL     OW15286   4.834   2.316   6.565
 4796SOL    HW115287   4.851   2.224   6.530
 4796SOL    HW215288   4.920   2.365   6.573
 4797SOL     OW15289   1.244   6.468   5.026
 4797SOL    HW115290   1.313   6.425   5.083
 4797SOL    HW215291   1.169   6.502   5.083
 4798SOL     OW15292   0.178   3.280   5.563
 4798SOL    HW115293   0.211   3.373   5.546
 4798SOL    HW215294   0.209   3.220   5.490
 4799SOL     OW15295   4.981   2.096   6.557
 4799SOL    HW115296   4.914   2.023   6.541
 4799SOL    HW215297   5.073   2.060   6.542
 4800SOL     OW15298   3.042   3.252   5.742
 4800SOL    HW115299   2.982   3.262   5.663
 4800SOL    HW215300   3.137   3.264   5.714
 4801SOL     OW15301   2.312   2.308   6.899
 4801SOL    HW115302   2.310   2.276   6.804
 4801SOL    HW215303   2.325   2.407   6.901
 4802SOL     OW15304   1.180   6.905   2.385
 4802SOL    HW115305   1.180   6.822   2.441
 4802SOL    HW215306   1.179   6.880   2.288
 4803SOL     OW15307   1.413   6.814   0.423
 4803SOL    HW115308   1.343   6.774   0.364
 4803SOL    HW215309   1.456   6.891   0.375
 4804SOL     OW15310   4.483   5.314   6.290
 4804SOL    HW115311   4.468   5.242   6.221
 4804SOL    HW215312   4.460   5.403   6.250
 4805SOL     OW15313   6.739   6.844   1.564
 4805SOL    HW115314   6.729   6.745   1.574
 4805SOL    HW215315   6.654   6.883   1.530
 4806SOL     OW15316   0.114   4.258   3.177
 4806SOL    HW115317   0.156   4.207   3.102
 4806SOL    HW215318   0.088   4.349   3.145
 4807SOL     OW15319   1.285   5.363   0.790
 4807SOL    HW115320   1.283   5.292   0.860
 4807SOL    HW215321   1.347   5.436   0.819
 4808SOL     OW15322   6.670   4.023   6.591
 4808SOL    HW115323   6.671   3.931   6.628
 4808SOL    HW215324   6.582   4.067   6.610
 4809SOL     OW15325   3.628   3.820   6.563
 4809SOL    HW115326   3.648   3.759   6.640
 4809SOL    HW215327   3.592   3.907   6.597
 4810SOL     OW15328   1.318   4.554   2.534
 4810SOL    HW115329   1.292   4.622   2.466
 4810SOL    HW215330   1.237   4.525   2.585
 4811SOL     OW15331   2.165   4.857   2.158
 4811SOL    HW115332   2.076   4.902   2.155
 4811SOL    HW215333   2.225   4.896   2.088
 4812SOL     OW15334   0.160   5.199   5.741
 4812SOL    HW115335   0.144   5.207   5.642
 4812SOL    HW215336   0.156   5.103   5.768
 4813SOL     OW15337   5.260   1.536   1.513
 4813SOL    HW115338   5.348   1.506   1.476
 4813SOL    HW215339   5.190   1.469   1.489
 4814SOL     OW15340   5.970   4.469   0.203
 4814SOL    HW115341   6.042   4.472   0.133
 4814SOL    HW215342   5.981   4.387   0.258
 4815SOL     OW15343   5.248   4.455   2.357
 4815SOL    HW115344   5.210   4.521   2.421
 4815SOL    HW215345   5.299   4.386   2.408
 4816SOL     OW15346   6.423   5.426   2.937
 4816SOL    HW115347   6.470   5.508   2.969
 4816SOL    HW215348   6.489   5.367   2.890
 4817SOL     OW15349   0.465   2.484   6.433
 4817SOL    HW115350   0.549   2.446   6.394
 4817SOL    HW215351   0.412   2.411   6.477
 4818SOL     OW15352   0.670   0.175   4.217
 4818SOL    HW115353   0.651   0.206   4.123
 4818SOL    HW215354   0.757   0.126   4.219
 4819SOL     OW15355   1.698   3.053   0.838
 4819SOL    HW115356   1.633   3.073   0.911
 4819SOL    HW215357   1.659   2.983   0.777
 4820SOL     OW15358   6.976   3.058   1.383
 4820SOL    HW115359   7.006   3.011   1.300
 4820SOL    HW215360   6.885   3.096   1.368
 4821SOL     OW15361   0.666   6.033   2.776
 4821SOL    HW115362   0.721   5.955   2.744
 4821SOL    HW215363   0.716   6.082   2.847
 4822SOL     OW15364   1.521   3.429   4.591
 4822SOL    HW115365   1.583   3.457   4.664
 4822SOL    HW215366   1.465   3.352   4.623
 4823SOL     OW15367   1.831   1.913   3.417
 4823SOL    HW115368   1.772   1.864   3.354
 4823SOL    HW215369   1.845   2.007   3.385
 4824SOL     OW15370   5.336   2.341   5.629
 4824SOL    HW115371   5.276   2.405   5.582
 4824SOL    HW215372   5.288   2.254   5.643
 4825SOL     OW15373   1.596   2.234   4.175
 4825SOL    HW115374   1.652   2.165   4.128
 4825SOL    HW215375   1.554   2.194   4.256
 4826SOL     OW15376   5.566   0.653   0.606
 4826SOL    HW115377   5.610   0.599   0.534
 4826SOL    HW215378   5.589   0.615   0.695
 4827SOL     OW15379   6.030   2.037   0.926
 4827SOL    HW115380   6.003   2.020   1.020
 4827SOL    HW215381   6.009   1.957   0.869
 4828SOL     OW15382   4.906   0.613   1.299
 4828SOL    HW115383   4.997   0.641   1.327
 4828SOL    HW215384   4.911   0.523   1.254
 4829SOL     OW15385   4.070   6.986   6.535
 4829SOL    HW115386   4.145   6.971   6.471
 4829SOL    HW215387   4.084   6.930   6.617
 4830SOL     OW15388   3.439   5.527   4.084
 4830SOL    HW115389   3.510   5.584   4.125
 4830SOL    HW215390   3.379   5.492   4.156
 4831SOL     OW15391   2.426   5.291   5.061
 4831SOL    HW115392   2.481   5.209   5.042
 4831SOL    HW215393   2.449   5.363   4.996
 4832SOL     OW15394   2.886   3.527   4.117
 4832SOL    HW115395   2.905   3.585   4.038
 4832SOL    HW215396   2.913   3.575   4.201
 4833SOL     OW15397   5.645   1.843   2.877
 4833SOL    HW115398   5.581   1.920   2.880
 4833SOL    HW215399   5.730   1.868   2.923
 4834SOL     OW15400   1.897   6.044   2.211
 4834SOL    HW115401   1.889   6.138   2.244
 4834SOL    HW215402   1.935   6.044   2.118
 4835SOL     OW15403   6.143   2.685   5.957
 4835SOL    HW115404   6.224   2.741   5.944
 4835SOL    HW215405   6.117   2.686   6.054
 4836SOL     OW15406   5.471   1.615   4.921
 4836SOL    HW115407   5.527   1.612   4.838
 4836SOL    HW215408   5.455   1.522   4.954
 4837SOL     OW15409   6.738   3.777   3.112
 4837SOL    HW115410   6.819   3.734   3.074
 4837SOL    HW215411   6.699   3.718   3.183
 4838SOL     OW15412   2.474   5.539   6.900
 4838SOL    HW115413   2.414   5.581   6.832
 4838SOL    HW215414   2.431   5.455   6.935
 4839SOL     OW15415   1.490   3.475   0.155
 4839SOL    HW115416   1.544   3.485   0.072
 4839SOL    HW215417   1.457   3.381   0.163
 4840SOL     OW15418   5.936   3.800   5.577
 4840SOL    HW115419   5.919   3.837   5.668
 4840SOL    HW215420   6.028   3.826   5.547
 4841SOL     OW15421   2.943   5.474   2.911
 4841SOL    HW115422   2.932   5.554   2.970
 4841SOL    HW215423   2.865   5.469   2.848
 4842SOL     OW15424   2.745   5.571   3.150
 4842SOL    HW115425   2.686   5.540   3.224
 4842SOL    HW215426   2.712   5.533   3.063
 4843SOL     OW15427   6.758   2.149   2.074
 4843SOL    HW115428   6.758   2.054   2.107
 4843SOL    HW215429   6.677   2.166   2.020
 4844SOL     OW15430   0.637   4.260   5.481
 4844SOL    HW115431   0.635   4.229   5.386
 4844SOL    HW215432   0.644   4.360   5.483
 4845SOL     OW15433   4.239   5.117   5.434
 4845SOL    HW115434   4.257   5.135   5.337
 4845SOL    HW215435   4.141   5.103   5.447
 4846SOL     OW15436   0.164   1.631   3.491
 4846SOL    HW115437   0.107   1.702   3.532
 4846SOL    HW215438   0.114   1.587   3.416
 4847SOL     OW15439   2.193   1.350   5.452
 4847SOL    HW115440   2.209   1.382   5.359
 4847SOL    HW215441   2.143   1.419   5.503
 4848SOL     OW15442   2.651   1.559   3.990
 4848SOL    HW115443   2.710   1.610   4.052
 4848SOL    HW215444   2.663   1.461   4.006
 4849SOL     OW15445   1.792   7.014   0.555
 4849SOL    HW115446   1.762   0.082   0.552
 4849SOL    HW215447   1.768   6.973   0.643
 4850SOL     OW15448   4.661   0.672   1.756
 4850SOL    HW115449   4.727   0.598   1.737
 4850SOL    HW215450   4.576   0.632   1.790
 4851SOL     OW15451   3.999   5.620   6.367
 4851SOL    HW115452   4.071   5.584   6.427
 4851SOL    HW215453   4.039   5.684   6.302
 4852SOL     OW15454   2.989   5.807   4.665
 4852SOL    HW115455   2.965   5.892   4.618
 4852SOL    HW215456   3.001   5.734   4.598
 4853SOL     OW15457   3.918   1.361   3.240
 4853SOL    HW115458   3.921   1.262   3.256
 4853SOL    HW215459   3.823   1.390   3.231
 4854SOL     OW15460   5.055   6.741   1.726
 4854SOL    HW115461   4.973   6.703   1.770
 4854SOL    HW215462   5.100   6.803   1.790
 4855SOL     OW15463   6.352   3.426   5.277
 4855SOL    HW115464   6.386   3.360   5.211
 4855SOL    HW215465   6.270   3.471   5.241
 4856SOL     OW15466   0.662   2.575   2.734
 4856SOL    HW115467   0.697   2.658   2.777
 4856SOL    HW215468   0.738   2.516   2.709
 4857SOL     OW15469   3.660   1.753   3.482
 4857SOL    HW115470   3.739   1.697   3.457
 4857SOL    HW215471   3.685   1.850   3.479
 4858SOL     OW15472   1.020   0.155   4.999
 4858SOL    HW115473   1.003   0.239   4.948
 4858SOL    HW215474   0.995   0.167   5.095
 4859SOL     OW15475   1.383   4.925   1.799
 4859SOL    HW115476   1.454   4.922   1.869
 4859SOL    HW215477   1.311   4.859   1.822
 4860SOL     OW15478   4.559   4.684   0.211
 4860SOL    HW115479   4.608   4.705   0.127
 4860SOL    HW215480   4.608   4.722   0.289
 4861SOL     OW15481   6.381   5.733   6.457
 4861SOL    HW115482   6.392   5.634   6.452
 4861SOL    HW215483   6.401   5.765   6.549
 4862SOL     OW15484   3.156   4.871   4.575
 4862SOL    HW115485   3.066   4.912   4.560
 4862SOL    HW215486   3.150   4.802   4.646
 4863SOL     OW15487   4.905   3.280   2.672
 4863SOL    HW115488   4.896   3.201   2.732
 4863SOL    HW215489   4.834   3.347   2.695
 4864SOL     OW15490   3.420   1.733   1.484
 4864SOL    HW115491   3.343   1.742   1.548
 4864SOL    HW215492   3.504   1.721   1.536
 4865SOL     OW15493   2.536   5.088   5.452
 4865SOL    HW115494   2.627   5.129   5.447
 4865SOL    HW215495   2.544   4.988   5.448
 4866SOL     OW15496   6.054   5.038   1.520
 4866SOL    HW115497   6.154   5.040   1.519
 4866SOL    HW215498   6.022   4.944   1.529
 4867SOL     OW15499   4.583   5.527   3.505
 4867SOL    HW115500   4.595   5.612   3.454
 4867SOL    HW215501   4.617   5.539   3.599
 4868SOL     OW15502   1.006   5.807   1.482
 4868SOL    HW115503   1.008   5.867   1.562
 4868SOL    HW215504   0.975   5.716   1.510
 4869SOL     OW15505   6.764   2.285   1.022
 4869SOL    HW115506   6.700   2.240   0.959
 4869SOL    HW215507   6.720   2.365   1.063
 4870SOL     OW15508   4.639   5.198   1.866
 4870SOL    HW115509   4.668   5.286   1.830
 4870SOL    HW215510   4.553   5.170   1.823
 4871SOL     OW15511   1.232   0.750   3.461
 4871SOL    HW115512   1.142   0.790   3.445
 4871SOL    HW215513   1.246   0.673   3.399
 4872SOL     OW15514   1.117   0.076   3.406
 4872SOL    HW115515   1.047   0.095   3.474
 4872SOL    HW215516   1.078   0.022   3.331
 4873SOL     OW15517   0.110   5.120   4.402
 4873SOL    HW115518   0.042   5.048   4.417
 4873SOL    HW215519   0.202   5.080   4.407
 4874SOL     OW15520   5.856   3.691   2.180
 4874SOL    HW115521   5.795   3.763   2.148
 4874SOL    HW215522   5.836   3.606   2.130
 4875SOL     OW15523   5.628   2.261   1.104
 4875SOL    HW115524   5.564   2.288   1.032
 4875SOL    HW215525   5.625   2.161   1.115
 4876SOL     OW15526   5.810   0.902   5.657
 4876SOL    HW115527   5.760   0.904   5.743
 4876SOL    HW215528   5.829   0.807   5.631
 4877SOL     OW15529   0.183   1.379   1.165
 4877SOL    HW115530   0.163   1.425   1.252
 4877SOL    HW215531   0.259   1.425   1.120
 4878SOL     OW15532   0.345   1.831   2.113
 4878SOL    HW115533   0.394   1.918   2.108
 4878SOL    HW215534   0.252   1.848   2.148
 4879SOL     OW15535   4.425   4.509   2.858
 4879SOL    HW115536   4.412   4.555   2.770
 4879SOL    HW215537   4.515   4.465   2.860
 4880SOL     OW15538   5.521   2.098   6.624
 4880SOL    HW115539   5.437   2.111   6.678
 4880SOL    HW215540   5.556   2.006   6.639
 4881SOL     OW15541   2.483   6.037   6.550
 4881SOL    HW115542   2.546   6.108   6.583
 4881SOL    HW215543   2.534   5.972   6.493
 4882SOL     OW15544   6.152   1.633   5.424
 4882SOL    HW115545   6.173   1.543   5.386
 4882SOL    HW215546   6.096   1.622   5.507
 4883SOL     OW15547   4.774   5.011   2.469
 4883SOL    HW115548   4.865   4.979   2.441
 4883SOL    HW215549   4.770   5.015   2.569
 4884SOL     OW15550   4.508   0.157   1.353
 4884SOL    HW115551   4.543   0.147   1.446
 4884SOL    HW215552   4.420   0.111   1.345
 4885SOL     OW15553   2.083   6.456   2.142
 4885SOL    HW115554   2.066   6.494   2.233
 4885SOL    HW215555   2.150   6.514   2.094
 4886SOL     OW15556   0.364   7.020   6.293
 4886SOL    HW115557   0.386   6.938   6.345
 4886SOL    HW215558   0.423   7.026   6.213
 4887SOL     OW15559   6.813   1.989   3.316
 4887SOL    HW115560   6.719   2.023   3.311
 4887SOL    HW215561   6.819   1.900   3.272
 4888SOL     OW15562   1.640   6.738   3.819
 4888SOL    HW115563   1.561   6.776   3.772
 4888SOL    HW215564   1.667   6.799   3.893
 4889SOL     OW15565   0.392   1.624   0.257
 4889SOL    HW115566   0.393   1.703   0.320
 4889SOL    HW215567   0.356   1.653   0.169
 4890SOL     OW15568   0.345   1.534   4.189
 4890SOL    HW115569   0.371   1.593   4.112
 4890SOL    HW215570   0.395   1.562   4.271
 4891SOL     OW15571   0.595   5.512   0.259
 4891SOL    HW115572   0.568   5.602   0.293
 4891SOL    HW215573   0.657   5.469   0.324
 4892SOL     OW15574   1.305   5.635   2.933
 4892SOL    HW115575   1.231   5.571   2.951
 4892SOL    HW215576   1.268   5.723   2.904
 4893SOL     OW15577   6.786   4.492   6.586
 4893SOL    HW115578   6.847   4.477   6.508
 4893SOL    HW215579   6.825   4.449   6.667
 4894SOL     OW15580   2.460   6.923   2.501
 4894SOL    HW115581   2.382   6.882   2.453
 4894SOL    HW215582   2.447   7.022   2.506
 4895SOL     OW15583   0.763   3.913   0.950
 4895SOL    HW115584   0.812   3.966   0.882
 4895SOL    HW215585   0.815   3.910   1.035
 4896SOL     OW15586   3.623   5.272   3.170
 4896SOL    HW115587   3.684   5.224   3.108
 4896SOL    HW215588   3.545   5.309   3.118
 4897SOL     OW15589   3.208   5.134   6.235
 4897SOL    HW115590   3.297   5.180   6.224
 4897SOL    HW215591   3.145   5.195   6.283
 4898SOL     OW15592   5.602   2.334   5.620
 4898SOL    HW115593   5.504   2.355   5.613
 4898SOL    HW215594   5.649   2.372   5.541
 4899SOL     OW15595   6.225   4.667   2.763
 4899SOL    HW115596   6.152   4.613   2.720
 4899SOL    HW215597   6.185   4.733   2.827
 4900SOL     OW15598   0.508   6.309   5.702
 4900SOL    HW115599   0.599   6.329   5.738
 4900SOL    HW215600   0.442   6.373   5.742
 4901SOL     OW15601   1.923   6.840   4.175
 4901SOL    HW115602   1.972   6.755   4.192
 4901SOL    HW215603   1.922   6.895   4.258
 4902SOL     OW15604   1.368   3.685   2.881
 4902SOL    HW115605   1.442   3.706   2.946
 4902SOL    HW215606   1.379   3.591   2.848
 4903SOL     OW15607   3.514   6.496   6.692
 4903SOL    HW115608   3.534   6.407   6.651
 4903SOL    HW215609   3.580   6.513   6.766
 4904SOL     OW15610   2.012   6.325   4.507
 4904SOL    HW115611   2.111   6.309   4.506
 4904SOL    HW215612   1.980   6.328   4.602
 4905SOL     OW15613   4.847   2.220   1.945
 4905SOL    HW115614   4.860   2.198   2.042
 4905SOL    HW215615   4.818   2.315   1.936
 4906SOL     OW15616   4.078   0.367   0.102
 4906SOL    HW115617   4.057   0.298   0.171
 4906SOL    HW215618   4.167   0.348   0.062
 4907SOL     OW15619   4.023   6.313   3.031
 4907SOL    HW115620   4.006   6.215   3.037
 4907SOL    HW215621   4.059   6.346   3.119
 4908SOL     OW15622   4.012   5.917   6.933
 4908SOL    HW115623   4.102   5.960   6.927
 4908SOL    HW215624   3.951   5.974   6.986
 4909SOL     OW15625   6.131   0.863   6.308
 4909SOL    HW115626   6.121   0.879   6.210
 4909SOL    HW215627   6.203   0.922   6.345
 4910SOL     OW15628   5.307   0.344   5.613
 4910SOL    HW115629   5.227   0.298   5.650
 4910SOL    HW215630   5.381   0.342   5.680
 4911SOL     OW15631   6.939   2.161   5.903
 4911SOL    HW115632   6.953   2.230   5.833
 4911SOL    HW215633   6.883   2.086   5.865
 4912SOL     OW15634   5.017   1.015   1.829
 4912SOL    HW115635   4.928   0.968   1.827
 4912SOL    HW215636   5.005   1.110   1.800
 4913SOL     OW15637   3.426   4.139   4.111
 4913SOL    HW115638   3.440   4.081   4.031
 4913SOL    HW215639   3.334   4.179   4.107
 4914SOL     OW15640   2.626   1.255   4.614
 4914SOL    HW115641   2.723   1.231   4.610
 4914SOL    HW215642   2.606   1.323   4.544
 4915SOL     OW15643   4.782   6.566   4.521
 4915SOL    HW115644   4.782   6.652   4.470
 4915SOL    HW215645   4.690   6.549   4.558
 4916SOL     OW15646   2.509   2.051   2.834
 4916SOL    HW115647   2.437   2.090   2.892
 4916SOL    HW215648   2.555   1.977   2.884
 4917SOL     OW15649   0.957   4.029   0.809
 4917SOL    HW115650   1.048   3.988   0.811
 4917SOL    HW215651   0.909   4.000   0.725
 4918SOL     OW15652   2.873   7.005   2.662
 4918SOL    HW115653   2.789   6.953   2.652
 4918SOL    HW215654   2.940   6.973   2.595
 4919SOL     OW15655   1.548   2.151   2.911
 4919SOL    HW115656   1.569   2.235   2.961
 4919SOL    HW215657   1.549   2.074   2.975
 4920SOL     OW15658   4.351   0.454   6.805
 4920SOL    HW115659   4.285   0.529   6.802
 4920SOL    HW215660   4.429   0.476   6.747
 4921SOL     OW15661   2.358   4.113   1.941
 4921SOL    HW115662   2.350   4.039   1.874
 4921SOL    HW215663   2.389   4.196   1.895
 4922SOL     OW15664   1.210   3.406   5.223
 4922SOL    HW115665   1.204   3.310   5.197
 4922SOL    HW215666   1.123   3.452   5.204
 4923SOL     OW15667   4.806   0.403   2.047
 4923SOL    HW115668   4.709   0.380   2.040
 4923SOL    HW215669   4.847   0.403   1.956
 4924SOL     OW15670   2.174   3.394   5.187
 4924SOL    HW115671   2.210   3.302   5.204
 4924SOL    HW215672   2.119   3.393   5.103
 4925SOL     OW15673   5.797   6.288   0.993
 4925SOL    HW115674   5.873   6.352   0.980
 4925SOL    HW215675   5.818   6.226   1.068
 4926SOL     OW15676   4.535   2.798   1.756
 4926SOL    HW115677   4.605   2.765   1.692
 4926SOL    HW215678   4.567   2.882   1.799
 4927SOL     OW15679   3.573   2.883   2.967
 4927SOL    HW115680   3.641   2.946   3.005
 4927SOL    HW215681   3.574   2.890   2.867
 4928SOL     OW15682   6.735   0.169   6.578
 4928SOL    HW115683   6.656   0.110   6.557
 4928SOL    HW215684   6.772   0.207   6.493
 4929SOL     OW15685   1.127   4.472   5.238
 4929SOL    HW115686   1.165   4.386   5.272
 4929SOL    HW215687   1.176   4.500   5.155
 4930SOL     OW15688   0.821   1.346   0.305
 4930SOL    HW115689   0.772   1.430   0.282
 4930SOL    HW215690   0.919   1.359   0.288
 4931SOL     OW15691   0.886   0.538   6.950
 4931SOL    HW115692   0.804   0.584   6.915
 4931SOL    HW215693   0.900   0.453   6.899
 4932SOL     OW15694   2.276   3.278   1.697
 4932SOL    HW115695   2.315   3.343   1.761
 4932SOL    HW215696   2.349   3.232   1.647
 4933SOL     OW15697   2.047   0.877   4.270
 4933SOL    HW115698   2.052   0.958   4.212
 4933SOL    HW215699   2.130   0.869   4.325
 4934SOL     OW15700   0.847   5.090   4.300
 4934SOL    HW115701   0.885   5.027   4.231
 4934SOL    HW215702   0.760   5.127   4.267
 4935SOL     OW15703   1.586   1.032   6.907
 4935SOL    HW115704   1.490   1.040   6.931
 4935SOL    HW215705   1.632   0.971   6.971
 4936SOL     OW15706   2.558   5.773   1.541
 4936SOL    HW115707   2.561   5.816   1.451
 4936SOL    HW215708   2.487   5.816   1.597
 4937SOL     OW15709   1.240   4.041   6.142
 4937SOL    HW115710   1.307   4.099   6.095
 4937SOL    HW215711   1.157   4.036   6.087
 4938SOL     OW15712   3.321   4.845   2.077
 4938SOL    HW115713   3.260   4.766   2.083
 4938SOL    HW215714   3.413   4.814   2.053
 4939SOL     OW15715   1.315   2.366   2.015
 4939SOL    HW115716   1.260   2.319   2.084
 4939SOL    HW215717   1.368   2.438   2.059
 4940SOL     OW15718   7.008   1.807   5.192
 4940SOL    HW115719   6.999   1.710   5.168
 4940SOL    HW215720   6.932   1.834   5.251
 4941SOL     OW15721   4.029   2.636   5.394
 4941SOL    HW115722   3.939   2.597   5.410
 4941SOL    HW215723   4.074   2.588   5.319
 4942SOL     OW15724   5.769   3.098   3.361
 4942SOL    HW115725   5.734   3.188   3.385
 4942SOL    HW215726   5.837   3.107   3.288
 4943SOL     OW15727   5.597   3.767   6.193
 4943SOL    HW115728   5.624   3.821   6.273
 4943SOL    HW215729   5.601   3.670   6.215
 4944SOL     OW15730   1.943   4.508   0.764
 4944SOL    HW115731   1.869   4.460   0.812
 4944SOL    HW215732   1.907   4.593   0.724
 4945SOL     OW15733   1.725   0.881   4.733
 4945SOL    HW115734   1.654   0.845   4.793
 4945SOL    HW215735   1.682   0.918   4.650
 4946SOL     OW15736   1.091   4.691   0.116
 4946SOL    HW115737   1.080   4.621   0.045
 4946SOL    HW215738   1.095   4.646   0.206
 4947SOL     OW15739   2.737   0.989   2.034
 4947SOL    HW115740   2.735   1.027   2.126
 4947SOL    HW215741   2.652   1.012   1.987
 4948SOL     OW15742   1.434   2.474   2.801
 4948SOL    HW115743   1.421   2.495   2.898
 4948SOL    HW215744   1.487   2.547   2.758
 4949SOL     OW15745   6.275   3.858   5.811
 4949SOL    HW115746   6.356   3.827   5.762
 4949SOL    HW215747   6.207   3.785   5.812
 4950SOL     OW15748   1.981   4.024   5.313
 4950SOL    HW115749   2.068   4.073   5.300
 4950SOL    HW215750   1.907   4.079   5.275
 4951SOL     OW15751   5.985   6.372   4.684
 4951SOL    HW115752   5.896   6.326   4.677
 4951SOL    HW215753   5.978   6.465   4.649
 4952SOL     OW15754   7.021   0.575   6.723
 4952SOL    HW115755   0.078   0.567   6.668
 4952SOL    HW215756   7.020   0.664   6.768
 4953SOL     OW15757   2.170   1.766   3.964
 4953SOL    HW115758   2.102   1.718   3.910
 4953SOL    HW215759   2.259   1.722   3.952
 4954SOL     OW15760   2.279   3.907   6.319
 4954SOL    HW115761   2.225   3.950   6.247
 4954SOL    HW215762   2.374   3.897   6.289
 4955SOL     OW15763   3.437   5.600   0.117
 4955SOL    HW115764   3.413   5.593   0.214
 4955SOL    HW215765   3.537   5.594   0.108
 4956SOL     OW15766   3.154   0.622   6.240
 4956SOL    HW115767   3.171   0.719   6.222
 4956SOL    HW215768   3.069   0.613   6.292
 4957SOL     OW15769   6.087   3.618   0.294
 4957SOL    HW115770   6.019   3.563   0.245
 4957SOL    HW215771   6.130   3.563   0.365
 4958SOL     OW15772   1.921   6.037   5.577
 4958SOL    HW115773   1.913   5.937   5.571
 4958SOL    HW215774   1.839   6.074   5.621
 4959SOL     OW15775   6.687   1.847   1.043
 4959SOL    HW115776   6.662   1.760   1.087
 4959SOL    HW215777   6.607   1.907   1.041
 4960SOL     OW15778   4.045   4.838   3.416
 4960SOL    HW115779   3.978   4.842   3.342
 4960SOL    HW215780   4.131   4.801   3.382
 4961SOL     OW15781   3.337   0.510   6.434
 4961SOL    HW115782   3.413   0.546   6.488
 4961SOL    HW215783   3.316   0.573   6.360
 4962SOL     OW15784   5.477   2.616   0.826
 4962SOL    HW115785   5.451   2.525   0.860
 4962SOL    HW215786   5.549   2.654   0.884
 4963SOL     OW15787   1.853   5.589   1.038
 4963SOL    HW115788   1.842   5.507   1.095
 4963SOL    HW215789   1.899   5.564   0.953
 4964SOL     OW15790   2.021   6.574   5.161
 4964SOL    HW115791   2.002   6.664   5.122
 4964SOL    HW215792   2.113   6.545   5.133
 4965SOL     OW15793   0.685   6.982   2.779
 4965SOL    HW115794   0.590   7.012   2.774
 4965SOL    HW215795   0.720   6.995   2.872
 4966SOL     OW15796   1.678   6.379   4.706
 4966SOL    HW115797   1.724   6.425   4.630
 4966SOL    HW215798   1.679   6.280   4.691
 4967SOL     OW15799   3.123   5.429   6.087
 4967SOL    HW115800   3.125   5.494   6.162
 4967SOL    HW215801   3.031   5.427   6.046
 4968SOL     OW15802   6.958   1.231   3.888
 4968SOL    HW115803   6.866   1.197   3.906
 4968SOL    HW215804   7.024   1.183   3.945
 4969SOL     OW15805   0.160   5.838   2.790
 4969SOL    HW115806   0.116   5.793   2.712
 4969SOL    HW215807   0.259   5.831   2.781
 4970SOL     OW15808   2.078   0.681   1.454
 4970SOL    HW115809   2.049   0.610   1.519
 4970SOL    HW215810   2.168   0.656   1.417
 4971SOL     OW15811   6.422   5.952   3.067
 4971SOL    HW115812   6.412   5.992   2.976
 4971SOL    HW215813   6.494   5.999   3.117
 4972SOL     OW15814   1.205   4.320   0.317
 4972SOL    HW115815   1.237   4.320   0.222
 4972SOL    HW215816   1.155   4.236   0.335
 4973SOL     OW15817   0.630   0.486   1.625
 4973SOL    HW115818   0.671   0.575   1.645
 4973SOL    HW215819   0.535   0.498   1.598
 4974SOL     OW15820   5.680   4.511   0.852
 4974SOL    HW115821   5.726   4.479   0.769
 4974SOL    HW215822   5.640   4.601   0.835
 4975SOL     OW15823   5.580   4.156   0.397
 4975SOL    HW115824   5.645   4.082   0.385
 4975SOL    HW215825   5.603   4.232   0.335
 4976SOL     OW15826   1.387   0.206   4.767
 4976SOL    HW115827   1.326   0.174   4.694
 4976SOL    HW215828   1.429   0.292   4.739
 4977SOL     OW15829   3.776   4.083   6.888
 4977SOL    HW115830   3.706   4.032   6.938
 4977SOL    HW215831   3.736   4.167   6.853
 4978SOL     OW15832   5.020   4.810   4.571
 4978SOL    HW115833   4.938   4.759   4.598
 4978SOL    HW215834   5.089   4.746   4.537
 4979SOL     OW15835   0.237   6.490   6.979
 4979SOL    HW115836   0.147   6.534   6.975
 4979SOL    HW215837   0.293   6.524   6.904
 4980SOL     OW15838   5.544   4.876   2.533
 4980SOL    HW115839   5.523   4.951   2.470
 4980SOL    HW215840   5.459   4.836   2.567
 4981SOL     OW15841   3.745   5.711   1.912
 4981SOL    HW115842   3.821   5.661   1.872
 4981SOL    HW215843   3.742   5.696   2.011
 4982SOL     OW15844   3.652   1.861   6.443
 4982SOL    HW115845   3.618   1.925   6.374
 4982SOL    HW215846   3.577   1.831   6.502
 4983SOL     OW15847   6.198   4.707   4.653
 4983SOL    HW115848   6.251   4.763   4.717
 4983SOL    HW215849   6.101   4.711   4.677
 4984SOL     OW15850   4.650   4.271   2.623
 4984SOL    HW115851   4.602   4.349   2.584
 4984SOL    HW215852   4.682   4.212   2.549
 4985SOL     OW15853   5.187   6.106   2.477
 4985SOL    HW115854   5.090   6.088   2.457
 4985SOL    HW215855   5.212   6.062   2.563
 4986SOL     OW15856   6.515   4.822   0.648
 4986SOL    HW115857   6.533   4.757   0.721
 4986SOL    HW215858   6.518   4.775   0.560
 4987SOL     OW15859   1.077   6.415   2.569
 4987SOL    HW115860   1.133   6.338   2.538
 4987SOL    HW215861   1.052   6.402   2.665
 4988SOL     OW15862   6.140   1.396   3.468
 4988SOL    HW115863   6.083   1.318   3.495
 4988SOL    HW215864   6.104   1.479   3.509
 4989SOL     OW15865   5.019   0.258   2.142
 4989SOL    HW115866   4.995   0.166   2.113
 4989SOL    HW215867   4.949   0.322   2.111
 4990SOL     OW15868   3.122   2.105   6.359
 4990SOL    HW115869   3.173   2.093   6.444
 4990SOL    HW215870   3.074   2.021   6.336
 4991SOL     OW15871   0.063   5.408   3.574
 4991SOL    HW115872   7.017   5.364   3.626
 4991SOL    HW215873   0.108   5.341   3.516
 4992SOL     OW15874   5.422   1.093   3.010
 4992SOL    HW115875   5.392   1.062   2.920
 4992SOL    HW215876   5.505   1.148   3.000
 4993SOL     OW15877   3.831   6.304   5.080
 4993SOL    HW115878   3.808   6.237   5.152
 4993SOL    HW215879   3.747   6.333   5.034
 4994SOL     OW15880   2.594   5.774   4.866
 4994SOL    HW115881   2.603   5.863   4.822
 4994SOL    HW215882   2.672   5.716   4.840
 4995SOL     OW15883   1.136   0.995   5.250
 4995SOL    HW115884   1.110   0.956   5.338
 4995SOL    HW215885   1.201   1.070   5.264
 4996SOL     OW15886   6.669   1.370   3.632
 4996SOL    HW115887   6.656   1.448   3.694
 4996SOL    HW215888   6.598   1.372   3.561
 4997SOL     OW15889   4.003   2.543   1.239
 4997SOL    HW115890   3.935   2.601   1.284
 4997SOL    HW215891   4.044   2.482   1.306
 4998SOL     OW15892   1.680   3.030   4.394
 4998SOL    HW115893   1.773   2.997   4.410
 4998SOL    HW215894   1.653   3.089   4.470
 4999SOL     OW15895   6.999   3.451   4.634
 4999SOL    HW115896   0.044   3.458   4.565
 4999SOL    HW215897   6.963   3.358   4.636
 5000SOL     OW15898   3.327   0.134   3.463
 5000SOL    HW115899   3.324   0.047   3.511
 5000SOL    HW215900   3.251   0.139   3.398
 5001SOL     OW15901   0.694   5.841   2.293
 5001SOL    HW115902   0.779   5.791   2.307
 5001SOL    HW215903   0.669   5.839   2.196
 5002SOL     OW15904   0.104   4.863   2.159
 5002SOL    HW115905   0.016   4.911   2.156
 5002SOL    HW215906   0.117   4.811   2.075
 5003SOL     OW15907   4.499   6.548   2.625
 5003SOL    HW115908   4.489   6.536   2.724
 5003SOL    HW215909   4.527   6.462   2.583
 5004SOL     OW15910   2.228   4.691   5.695
 5004SOL    HW115911   2.136   4.676   5.661
 5004SOL    HW215912   2.293   4.637   5.641
 5005SOL     OW15913   2.644   2.655   6.551
 5005SOL    HW115914   2.664   2.731   6.490
 5005SOL    HW215915   2.662   2.569   6.504
 5006SOL     OW15916   6.052   1.216   2.295
 5006SOL    HW115917   6.075   1.137   2.238
 5006SOL    HW215918   5.991   1.277   2.243
 5007SOL     OW15919   0.152   0.024   1.350
 5007SOL    HW115920   0.063   0.003   1.391
 5007SOL    HW215921   0.141   0.101   1.286
 5008SOL     OW15922   5.902   5.609   1.203
 5008SOL    HW115923   5.967   5.633   1.275
 5008SOL    HW215924   5.814   5.654   1.220
 5009SOL     OW15925   0.334   2.742   0.520
 5009SOL    HW115926   0.327   2.787   0.431
 5009SOL    HW215927   0.267   2.781   0.582
 5010SOL     OW15928   4.341   2.279   0.926
 5010SOL    HW115929   4.351   2.349   0.997
 5010SOL    HW215930   4.244   2.260   0.911
 5011SOL     OW15931   1.947   4.421   1.204
 5011SOL    HW115932   2.012   4.464   1.266
 5011SOL    HW215933   1.892   4.354   1.254
 5012SOL     OW15934   6.264   2.284   5.147
 5012SOL    HW115935   6.273   2.350   5.072
 5012SOL    HW215936   6.207   2.323   5.219
 5013SOL     OW15937   5.411   1.179   6.355
 5013SOL    HW115938   5.471   1.101   6.334
 5013SOL    HW215939   5.356   1.157   6.436
 5014SOL     OW15940   6.399   4.339   6.855
 5014SOL    HW115941   6.446   4.365   6.939
 5014SOL    HW215942   6.342   4.415   6.824
 5015SOL     OW15943   4.417   1.110   4.725
 5015SOL    HW115944   4.340   1.047   4.734
 5015SOL    HW215945   4.469   1.088   4.642
 5016SOL     OW15946   0.959   2.603   4.902
 5016SOL    HW115947   0.930   2.630   4.810
 5016SOL    HW215948   1.058   2.613   4.910
 5017SOL     OW15949   1.804   2.239   1.216
 5017SOL    HW115950   1.856   2.218   1.298
 5017SOL    HW215951   1.864   2.277   1.146
 5018SOL     OW15952   1.083   5.228   2.779
 5018SOL    HW115953   1.121   5.216   2.871
 5018SOL    HW215954   1.083   5.140   2.731
 5019SOL     OW15955   2.414   6.314   5.713
 5019SOL    HW115956   2.504   6.270   5.712
 5019SOL    HW215957   2.349   6.259   5.765
 5020SOL     OW15958   6.255   0.322   6.130
 5020SOL    HW115959   6.304   0.300   6.214
 5020SOL    HW215960   6.302   0.282   6.051
 5021SOL     OW15961   1.179   1.022   1.239
 5021SOL    HW115962   1.176   1.038   1.140
 5021SOL    HW215963   1.088   0.995   1.271
 5022SOL     OW15964   1.500   2.251   1.786
 5022SOL    HW115965   1.442   2.319   1.742
 5022SOL    HW215966   1.461   2.226   1.875
 5023SOL     OW15967   0.152   4.149   1.535
 5023SOL    HW115968   0.114   4.238   1.559
 5023SOL    HW215969   0.157   4.092   1.617
 5024SOL     OW15970   5.818   5.183   1.372
 5024SOL    HW115971   5.883   5.113   1.404
 5024SOL    HW215972   5.792   5.162   1.278
 5025SOL     OW15973   4.101   2.274   3.949
 5025SOL    HW115974   4.066   2.334   3.877
 5025SOL    HW215975   4.025   2.223   3.989
 5026SOL     OW15976   0.061   5.644   5.528
 5026SOL    HW115977   0.029   5.627   5.622
 5026SOL    HW215978   0.122   5.571   5.500
 5027SOL     OW15979   6.249   6.928   1.802
 5027SOL    HW115980   6.347   6.906   1.806
 5027SOL    HW215981   6.232   7.010   1.855
 5028SOL     OW15982   6.674   1.947   3.011
 5028SOL    HW115983   6.681   1.924   2.914
 5028SOL    HW215984   6.733   1.886   3.064
 5029SOL     OW15985   6.210   2.341   2.606
 5029SOL    HW115986   6.184   2.253   2.567
 5029SOL    HW215987   6.161   2.356   2.692
 5030SOL     OW15988   6.487   6.494   6.939
 5030SOL    HW115989   6.533   6.406   6.932
 5030SOL    HW215990   6.510   6.550   6.859
 5031SOL     OW15991   6.550   1.367   5.536
 5031SOL    HW115992   6.615   1.406   5.601
 5031SOL    HW215993   6.457   1.378   5.571
 5032SOL     OW15994   3.242   1.546   6.080
 5032SOL    HW115995   3.322   1.503   6.039
 5032SOL    HW215996   3.271   1.626   6.132
 5033SOL     OW15997   2.006   0.453   6.676
 5033SOL    HW115998   1.999   0.553   6.680
 5033SOL    HW215999   2.074   0.421   6.742
 5034SOL     OW16000   5.866   0.161   3.641
 5034SOL    HW116001   5.783   0.144   3.587
 5034SOL    HW216002   5.914   0.074   3.657
 5035SOL     OW16003   0.292   4.237   5.502
 5035SOL    HW116004   0.305   4.139   5.487
 5035SOL    HW216005   0.317   4.260   5.596
 5036SOL     OW16006   6.987   4.817   6.791
 5036SOL    HW116007   6.958   4.773   6.876
 5036SOL    HW216008   0.046   4.864   6.806
 5037SOL     OW16009   5.371   4.721   1.953
 5037SOL    HW116010   5.309   4.667   2.009
 5037SOL    HW216011   5.440   4.661   1.912
 5038SOL     OW16012   3.473   3.081   5.162
 5038SOL    HW116013   3.410   3.005   5.149
 5038SOL    HW216014   3.558   3.063   5.113
 5039SOL     OW16015   2.049   3.180   5.491
 5039SOL    HW116016   1.984   3.104   5.500
 5039SOL    HW216017   2.083   3.184   5.397
 5040SOL     OW16018   0.780   6.487   5.629
 5040SOL    HW116019   0.735   6.511   5.543
 5040SOL    HW216020   0.879   6.480   5.614
 5041SOL     OW16021   1.871   1.528   2.062
 5041SOL    HW116022   1.857   1.626   2.053
 5041SOL    HW216023   1.910   1.491   1.978
 5042SOL     OW16024   6.770   3.433   0.511
 5042SOL    HW116025   6.787   3.425   0.609
 5042SOL    HW216026   6.849   3.474   0.466
 5043SOL     OW16027   4.291   0.148   6.730
 5043SOL    HW116028   4.226   0.216   6.697
 5043SOL    HW216029   4.384   0.179   6.713
 5044SOL     OW16030   0.721   6.086   1.104
 5044SOL    HW116031   0.632   6.120   1.073
 5044SOL    HW216032   0.729   6.099   1.203
 5045SOL     OW16033   6.042   5.926   6.385
 5045SOL    HW116034   6.041   5.887   6.477
 5045SOL    HW216035   6.106   6.003   6.382
 5046SOL     OW16036   3.955   3.785   3.049
 5046SOL    HW116037   3.856   3.773   3.043
 5046SOL    HW216038   3.979   3.876   3.014
 5047SOL     OW16039   1.625   4.103   3.067
 5047SOL    HW116040   1.527   4.088   3.052
 5047SOL    HW216041   1.655   4.048   3.145
 5048SOL     OW16042   1.365   1.073   3.227
 5048SOL    HW116043   1.408   1.058   3.317
 5048SOL    HW216044   1.404   1.010   3.161
 5049SOL     OW16045   5.021   1.616   0.063
 5049SOL    HW116046   5.022   1.548   7.017
 5049SOL    HW216047   5.020   1.570   0.152
 5050SOL     OW16048   1.504   0.940   0.289
 5050SOL    HW116049   1.529   1.017   0.230
 5050SOL    HW216050   1.524   0.854   0.242
 5051SOL     OW16051   4.877   4.401   1.241
 5051SOL    HW116052   4.808   4.426   1.309
 5051SOL    HW216053   4.903   4.305   1.255
 5052SOL     OW16054   2.663   1.580   5.551
 5052SOL    HW116055   2.738   1.517   5.572
 5052SOL    HW216056   2.700   1.670   5.528
 5053SOL     OW16057   1.094   4.609   3.353
 5053SOL    HW116058   1.119   4.685   3.293
 5053SOL    HW216059   1.083   4.643   3.446
 5054SOL     OW16060   2.468   4.862   4.486
 5054SOL    HW116061   2.435   4.949   4.448
 5054SOL    HW216062   2.488   4.799   4.412
 5055SOL     OW16063   0.640   2.582   6.121
 5055SOL    HW116064   0.569   2.512   6.131
 5055SOL    HW216065   0.690   2.567   6.035
 5056SOL     OW16066   5.916   4.070   6.003
 5056SOL    HW116067   5.855   4.149   5.997
 5056SOL    HW216068   5.905   4.025   6.091
 5057SOL     OW16069   0.052   6.885   3.610
 5057SOL    HW116070   0.032   6.806   3.551
 5057SOL    HW216071   6.998   6.907   3.664
 5058SOL     OW16072   3.745   3.574   5.567
 5058SOL    HW116073   3.665   3.579   5.627
 5058SOL    HW216074   3.768   3.665   5.532
 5059SOL     OW16075   6.478   0.969   3.239
 5059SOL    HW116076   6.483   0.926   3.149
 5059SOL    HW216077   6.388   1.013   3.250
 5060SOL     OW16078   0.197   2.589   6.255
 5060SOL    HW116079   0.270   2.574   6.322
 5060SOL    HW216080   0.151   2.676   6.275
 5061SOL     OW16081   5.154   2.781   0.576
 5061SOL    HW116082   5.195   2.764   0.665
 5061SOL    HW216083   5.058   2.804   0.587
 5062SOL     OW16084   6.227   6.817   2.888
 5062SOL    HW116085   6.281   6.887   2.841
 5062SOL    HW216086   6.261   6.726   2.864
 5063SOL     OW16087   0.513   0.229   2.635
 5063SOL    HW116088   0.465   0.144   2.655
 5063SOL    HW216089   0.461   0.281   2.567
 5064SOL     OW16090   4.775   3.355   0.919
 5064SOL    HW116091   4.763   3.443   0.874
 5064SOL    HW216092   4.685   3.318   0.944
 5065SOL     OW16093   3.173   0.841   5.421
 5065SOL    HW116094   3.098   0.789   5.381
 5065SOL    HW216095   3.136   0.918   5.473
 5066SOL     OW16096   5.198   4.536   2.091
 5066SOL    HW116097   5.226   4.470   2.022
 5066SOL    HW216098   5.211   4.497   2.182
 5067SOL     OW16099   4.877   0.969   1.253
 5067SOL    HW116100   4.925   0.909   1.318
 5067SOL    HW216101   4.919   0.960   1.163
 5068SOL     OW16102   3.005   4.442   0.949
 5068SOL    HW116103   2.967   4.408   0.863
 5068SOL    HW216104   3.050   4.367   0.998
 5069SOL     OW16105   1.193   4.014   3.724
 5069SOL    HW116106   1.186   4.099   3.672
 5069SOL    HW216107   1.289   3.993   3.742
 5070SOL     OW16108   5.163   3.789   3.953
 5070SOL    HW116109   5.069   3.802   3.985
 5070SOL    HW216110   5.204   3.712   4.002
 5071SOL     OW16111   5.041   2.116   4.453
 5071SOL    HW116112   5.064   2.165   4.537
 5071SOL    HW216113   4.943   2.100   4.449
 5072SOL     OW16114   1.137   6.535   0.483
 5072SOL    HW116115   1.197   6.486   0.546
 5072SOL    HW216116   1.058   6.572   0.533
 5073SOL     OW16117   6.632   6.728   3.089
 5073SOL    HW116118   6.552   6.757   3.142
 5073SOL    HW216119   6.603   6.705   2.996
 5074SOL     OW16120   3.379   3.229   6.830
 5074SOL    HW116121   3.427   3.235   6.743
 5074SOL    HW216122   3.280   3.239   6.814
 5075SOL     OW16123   0.406   2.044   6.357
 5075SOL    HW116124   0.445   2.097   6.282
 5075SOL    HW216125   0.307   2.054   6.357
 5076SOL     OW16126   3.491   0.761   1.063
 5076SOL    HW116127   3.481   0.856   1.035
 5076SOL    HW216128   3.571   0.751   1.122
 5077SOL     OW16129   0.544   2.541   4.532
 5077SOL    HW116130   0.580   2.448   4.524
 5077SOL    HW216131   0.600   2.594   4.595
 5078SOL     OW16132   0.864   1.762   3.601
 5078SOL    HW116133   0.896   1.843   3.551
 5078SOL    HW216134   0.892   1.680   3.551
 5079SOL     OW16135   2.439   4.921   6.241
 5079SOL    HW116136   2.492   4.971   6.310
 5079SOL    HW216137   2.419   4.829   6.274
 5080SOL     OW16138   5.780   6.278   5.977
 5080SOL    HW116139   5.824   6.219   6.045
 5080SOL    HW216140   5.682   6.260   5.977
 5081SOL     OW16141   3.838   3.024   3.708
 5081SOL    HW116142   3.850   3.124   3.711
 5081SOL    HW216143   3.834   2.989   3.802
 5082SOL     OW16144   6.073   5.331   5.696
 5082SOL    HW116145   6.157   5.379   5.723
 5082SOL    HW216146   6.039   5.277   5.773
 5083SOL     OW16147   2.257   6.604   2.983
 5083SOL    HW116148   2.325   6.674   2.959
 5083SOL    HW216149   2.249   6.539   2.908
 5084SOL     OW16150   1.016   5.019   4.512
 5084SOL    HW116151   1.006   4.930   4.556
 5084SOL    HW216152   0.940   5.034   4.449
 5085SOL     OW16153   5.435   2.566   6.879
 5085SOL    HW116154   5.521   2.530   6.842
 5085SOL    HW216155   5.361   2.502   6.861
 5086SOL     OW16156   6.494   5.595   3.935
 5086SOL    HW116157   6.458   5.658   3.865
 5086SOL    HW216158   6.533   5.515   3.891
 5087SOL     OW16159   6.259   6.184   3.864
 5087SOL    HW116160   6.345   6.192   3.915
 5087SOL    HW216161   6.212   6.272   3.863
 5088SOL     OW16162   5.053   1.863   4.371
 5088SOL    HW116163   5.073   1.951   4.414
 5088SOL    HW216164   5.138   1.819   4.342
 5089SOL     OW16165   5.984   3.164   3.196
 5089SOL    HW116166   6.049   3.098   3.157
 5089SOL    HW216167   6.033   3.247   3.221
 5090SOL     OW16168   1.904   3.995   2.569
 5090SOL    HW116169   1.901   4.080   2.621
 5090SOL    HW216170   1.811   3.965   2.548
 5091SOL     OW16171   1.727   6.359   2.841
 5091SOL    HW116172   1.679   6.434   2.796
 5091SOL    HW216173   1.750   6.289   2.773
 5092SOL     OW16174   2.917   2.851   1.329
 5092SOL    HW116175   2.908   2.872   1.232
 5092SOL    HW216176   2.882   2.927   1.383
 5093SOL     OW16177   2.649   1.266   1.656
 5093SOL    HW116178   2.686   1.190   1.602
 5093SOL    HW216179   2.719   1.300   1.718
 5094SOL     OW16180   0.636   6.506   4.245
 5094SOL    HW116181   0.698   6.456   4.184
 5094SOL    HW216182   0.687   6.540   4.323
 5095SOL     OW16183   1.009   1.711   4.138
 5095SOL    HW116184   1.105   1.688   4.121
 5095SOL    HW216185   0.967   1.742   4.053
 5096SOL     OW16186   4.306   4.168   0.304
 5096SOL    HW116187   4.233   4.234   0.322
 5096SOL    HW216188   4.272   4.076   0.323
 5097SOL     OW16189   1.831   0.302   6.817
 5097SOL    HW116190   1.861   0.354   6.737
 5097SOL    HW216191   1.864   0.208   6.811
 5098SOL     OW16192   0.681   0.505   1.347
 5098SOL    HW116193   0.771   0.477   1.312
 5098SOL    HW216194   0.678   0.493   1.446
 5099SOL     OW16195   0.543   0.606   6.650
 5099SOL    HW116196   0.622   0.606   6.590
 5099SOL    HW216197   0.489   0.523   6.634
 5100SOL     OW16198   4.657   6.775   5.573
 5100SOL    HW116199   4.661   6.694   5.514
 5100SOL    HW216200   4.634   6.748   5.666
 5101SOL     OW16201   4.777   6.554   0.352
 5101SOL    HW116202   4.717   6.582   0.426
 5101SOL    HW216203   4.758   6.609   0.270
 5102SOL     OW16204   5.918   0.718   6.114
 5102SOL    HW116205   5.873   0.723   6.203
 5102SOL    HW216206   5.853   0.686   6.045
 5103SOL     OW16207   0.241   0.938   4.179
 5103SOL    HW116208   0.299   0.928   4.260
 5103SOL    HW216209   0.148   0.909   4.202
 5104SOL     OW16210   1.814   6.320   2.292
 5104SOL    HW116211   1.732   6.373   2.313
 5104SOL    HW216212   1.883   6.379   2.251
 5105SOL     OW16213   4.170   3.341   0.187
 5105SOL    HW116214   4.255   3.371   0.144
 5105SOL    HW216215   4.190   3.283   0.265
 5106SOL     OW16216   3.588   0.218   1.892
 5106SOL    HW116217   3.661   0.184   1.951
 5106SOL    HW216218   3.613   0.307   1.856
 5107SOL     OW16219   3.440   1.104   0.448
 5107SOL    HW116220   3.369   1.041   0.416
 5107SOL    HW216221   3.399   1.194   0.465
 5108SOL     OW16222   3.110   3.026   3.365
 5108SOL    HW116223   3.043   2.953   3.354
 5108SOL    HW216224   3.196   2.988   3.398
 5109SOL     OW16225   0.876   1.235   1.179
 5109SOL    HW116226   0.933   1.254   1.099
 5109SOL    HW216227   0.886   1.309   1.245
 5110SOL     OW16228   0.407   6.838   6.536
 5110SOL    HW116229   0.409   6.855   6.635
 5110SOL    HW216230   0.428   6.741   6.519
 5111SOL     OW16231   0.702   1.262   5.691
 5111SOL    HW116232   0.761   1.335   5.726
 5111SOL    HW216233   0.611   1.299   5.671
 5112SOL     OW16234   0.282   0.166   3.182
 5112SOL    HW116235   0.255   0.262   3.197
 5112SOL    HW216236   0.381   0.158   3.193
 5113SOL     OW16237   1.706   6.937   1.252
 5113SOL    HW116238   1.755   6.936   1.340
 5113SOL    HW216239   1.692   6.843   1.221
 5114SOL     OW16240   3.724   2.856   0.436
 5114SOL    HW116241   3.675   2.862   0.523
 5114SOL    HW216242   3.731   2.760   0.408
 5115SOL     OW16243   2.145   4.710   5.078
 5115SOL    HW116244   2.141   4.644   5.153
 5115SOL    HW216245   2.068   4.772   5.084
 5116SOL     OW16246   5.649   6.529   6.354
 5116SOL    HW116247   5.716   6.466   6.394
 5116SOL    HW216248   5.632   6.504   6.259
 5117SOL     OW16249   1.890   4.555   4.251
 5117SOL    HW116250   1.874   4.561   4.349
 5117SOL    HW216251   1.882   4.645   4.209
 5118SOL     OW16252   4.570   6.199   0.796
 5118SOL    HW116253   4.647   6.139   0.774
 5118SOL    HW216254   4.508   6.153   0.859
 5119SOL     OW16255   5.270   0.471   1.859
 5119SOL    HW116256   5.201   0.528   1.904
 5119SOL    HW216257   5.303   0.402   1.924
 5120SOL     OW16258   5.749   1.559   3.650
 5120SOL    HW116259   5.700   1.621   3.590
 5120SOL    HW216260   5.773   1.476   3.600
 5121SOL     OW16261   1.573   2.515   6.951
 5121SOL    HW116262   1.570   2.415   6.947
 5121SOL    HW216263   1.581   2.544   0.020
 5122SOL     OW16264   3.197   0.659   4.439
 5122SOL    HW116265   3.137   0.738   4.442
 5122SOL    HW216266   3.159   0.586   4.497
 5123SOL     OW16267   5.867   3.601   4.495
 5123SOL    HW116268   5.868   3.663   4.416
 5123SOL    HW216269   5.790   3.625   4.554
 5124SOL     OW16270   2.588   5.104   6.437
 5124SOL    HW116271   2.647   5.122   6.358
 5124SOL    HW216272   2.639   5.121   6.521
 5125SOL     OW16273   6.692   3.547   4.652
 5125SOL    HW116274   6.778   3.501   4.672
 5125SOL    HW216275   6.633   3.545   4.732
 5126SOL     OW16276   6.091   4.658   5.651
 5126SOL    HW116277   6.040   4.669   5.565
 5126SOL    HW216278   6.136   4.569   5.652
 5127SOL     OW16279   6.126   3.796   0.092
 5127SOL    HW116280   6.096   3.739   0.015
 5127SOL    HW216281   6.131   3.739   0.175
 5128SOL     OW16282   1.206   0.653   0.286
 5128SOL    HW116283   1.143   0.589   0.331
 5128SOL    HW216284   1.296   0.648   0.329
 5129SOL     OW16285   4.931   1.085   2.719
 5129SOL    HW116286   4.883   1.092   2.807
 5129SOL    HW216287   4.976   1.172   2.699
 5130SOL     OW16288   1.350   5.748   4.577
 5130SOL    HW116289   1.366   5.793   4.490
 5130SOL    HW216290   1.356   5.648   4.565
 5131SOL     OW16291   2.865   4.825   3.352
 5131SOL    HW116292   2.951   4.795   3.394
 5131SOL    HW216293   2.833   4.908   3.397
 5132SOL     OW16294   3.285   1.181   6.031
 5132SOL    HW116295   3.295   1.127   5.947
 5132SOL    HW216296   3.196   1.161   6.072
 5133SOL     OW16297   2.807   5.371   6.082
 5133SOL    HW116298   2.719   5.408   6.110
 5133SOL    HW216299   2.810   5.364   5.982
 5134SOL     OW16300   6.659   0.219   2.665
 5134SOL    HW116301   6.690   0.298   2.717
 5134SOL    HW216302   6.627   0.248   2.574
 5135SOL     OW16303   6.355   4.004   3.035
 5135SOL    HW116304   6.388   4.023   3.127
 5135SOL    HW216305   6.335   3.907   3.025
 5136SOL     OW16306   6.503   1.824   5.883
 5136SOL    HW116307   6.529   1.792   5.792
 5136SOL    HW216308   6.404   1.836   5.886
 5137SOL     OW16309   5.060   3.153   5.641
 5137SOL    HW116310   5.154   3.128   5.616
 5137SOL    HW216311   5.006   3.071   5.657
 5138SOL     OW16312   3.874   3.940   3.923
 5138SOL    HW116313   3.950   3.998   3.893
 5138SOL    HW216314   3.810   3.926   3.848
 5139SOL     OW16315   0.963   0.377   4.819
 5139SOL    HW116316   1.039   0.402   4.759
 5139SOL    HW216317   0.878   0.413   4.781
 5140SOL     OW16318   3.799   1.719   6.281
 5140SOL    HW116319   3.759   1.632   6.253
 5140SOL    HW216320   3.733   1.769   6.337
 5141SOL     OW16321   6.479   2.548   1.406
 5141SOL    HW116322   6.478   2.618   1.335
 5141SOL    HW216323   6.573   2.534   1.438
 5142SOL     OW16324   6.219   0.017   5.330
 5142SOL    HW116325   6.130   0.015   5.285
 5142SOL    HW216326   6.236   0.110   5.364
 5143SOL     OW16327   1.245   4.461   4.931
 5143SOL    HW116328   1.325   4.506   4.891
 5143SOL    HW216329   1.162   4.502   4.893
 5144SOL     OW16330   1.882   3.735   6.456
 5144SOL    HW116331   1.812   3.803   6.435
 5144SOL    HW216332   1.848   3.644   6.432
 5145SOL     OW16333   3.226   6.419   6.600
 5145SOL    HW116334   3.223   6.325   6.566
 5145SOL    HW216335   3.322   6.448   6.609
 5146SOL     OW16336   3.974   3.861   5.163
 5146SOL    HW116337   4.049   3.802   5.135
 5146SOL    HW216338   3.994   3.955   5.136
 5147SOL     OW16339   5.740   4.932   3.610
 5147SOL    HW116340   5.682   4.923   3.690
 5147SOL    HW216341   5.755   5.029   3.590
 5148SOL     OW16342   0.429   0.446   2.476
 5148SOL    HW116343   0.337   0.471   2.446
 5148SOL    HW216344   0.484   0.529   2.486
 5149SOL     OW16345   5.671   4.749   4.405
 5149SOL    HW116346   5.635   4.780   4.317
 5149SOL    HW216347   5.596   4.744   4.471
 5150SOL     OW16348   1.683   4.664   3.603
 5150SOL    HW116349   1.634   4.577   3.615
 5150SOL    HW216350   1.701   4.704   3.692
 5151SOL     OW16351   5.726   4.051   1.734
 5151SOL    HW116352   5.767   4.101   1.810
 5151SOL    HW216353   5.669   4.113   1.680
 5152SOL     OW16354   1.052   5.815   6.841
 5152SOL    HW116355   1.039   5.782   6.747
 5152SOL    HW216356   0.967   5.803   6.892
 5153SOL     OW16357   1.469   1.526   1.047
 5153SOL    HW116358   1.417   1.515   0.962
 5153SOL    HW216359   1.415   1.577   1.113
 5154SOL     OW16360   1.578   3.016   6.652
 5154SOL    HW116361   1.588   3.071   6.735
 5154SOL    HW216362   1.621   3.063   6.576
 5155SOL     OW16363   3.039   2.133   0.891
 5155SOL    HW116364   3.079   2.195   0.824
 5155SOL    HW216365   3.105   2.060   0.912
 5156SOL     OW16366   5.477   4.693   4.852
 5156SOL    HW116367   5.449   4.605   4.891
 5156SOL    HW216368   5.557   4.680   4.793
 5157SOL     OW16369   3.067   1.535   1.925
 5157SOL    HW116370   2.981   1.583   1.911
 5157SOL    HW216371   3.134   1.598   1.964
 5158SOL     OW16372   3.069   2.388   1.400
 5158SOL    HW116373   2.987   2.350   1.445
 5158SOL    HW216374   3.064   2.370   1.302
 5159SOL     OW16375   6.285   3.925   6.060
 5159SOL    HW116376   6.193   3.964   6.056
 5159SOL    HW216377   6.309   3.888   5.971
 5160SOL     OW16378   6.289   6.548   3.535
 5160SOL    HW116379   6.346   6.524   3.614
 5160SOL    HW216380   6.208   6.490   3.534
 5161SOL     OW16381   1.268   3.518   0.321
 5161SOL    HW116382   1.214   3.461   0.259
 5161SOL    HW216383   1.364   3.515   0.295
 5162SOL     OW16384   0.464   5.264   2.210
 5162SOL    HW116385   0.450   5.346   2.155
 5162SOL    HW216386   0.411   5.272   2.295
 5163SOL     OW16387   3.759   6.704   0.976
 5163SOL    HW116388   3.755   6.730   0.879
 5163SOL    HW216389   3.731   6.782   1.032
 5164SOL     OW16390   2.912   3.153   0.316
 5164SOL    HW116391   2.993   3.120   0.267
 5164SOL    HW216392   2.845   3.079   0.323
 5165SOL     OW16393   1.088   4.241   6.476
 5165SOL    HW116394   1.160   4.309   6.465
 5165SOL    HW216395   1.089   4.179   6.397
 5166SOL     OW16396   1.634   5.108   2.230
 5166SOL    HW116397   1.566   5.178   2.249
 5166SOL    HW216398   1.690   5.092   2.311
 5167SOL     OW16399   5.958   4.235   5.204
 5167SOL    HW116400   6.014   4.313   5.230
 5167SOL    HW216401   6.013   4.152   5.205
 5168SOL     OW16402   4.756   1.885   2.128
 5168SOL    HW116403   4.821   1.943   2.178
 5168SOL    HW216404   4.749   1.916   2.034
 5169SOL     OW16405   4.666   1.780   3.757
 5169SOL    HW116406   4.754   1.828   3.768
 5169SOL    HW216407   4.592   1.845   3.774
 5170SOL     OW16408   1.309   3.855   5.680
 5170SOL    HW116409   1.383   3.818   5.736
 5170SOL    HW216410   1.319   3.821   5.586
 5171SOL     OW16411   0.947   5.031   5.415
 5171SOL    HW116412   0.946   4.944   5.365
 5171SOL    HW216413   1.003   5.021   5.497
 5172SOL     OW16414   1.106   4.891   3.850
 5172SOL    HW116415   1.111   4.959   3.923
 5172SOL    HW216416   1.174   4.912   3.780
 5173SOL     OW16417   4.183   3.959   6.100
 5173SOL    HW116418   4.146   4.052   6.094
 5173SOL    HW216419   4.268   3.954   6.046
 5174SOL     OW16420   1.716   6.986   3.996
 5174SOL    HW116421   1.784   6.945   4.057
 5174SOL    HW216422   1.722   0.059   4.000
 5175SOL     OW16423   2.656   4.002   6.475
 5175SOL    HW116424   2.656   4.102   6.469
 5175SOL    HW216425   2.618   3.963   6.391
 5176SOL     OW16426   4.957   5.208   6.267
 5176SOL    HW116427   4.921   5.127   6.312
 5176SOL    HW216428   4.902   5.288   6.293
 5177SOL     OW16429   5.163   6.495   1.043
 5177SOL    HW116430   5.224   6.469   0.969
 5177SOL    HW216431   5.097   6.422   1.059
 5178SOL     OW16432   0.561   4.692   1.543
 5178SOL    HW116433   0.463   4.705   1.556
 5178SOL    HW216434   0.599   4.645   1.623
 5179SOL     OW16435   4.935   4.303   3.221
 5179SOL    HW116436   4.951   4.238   3.296
 5179SOL    HW216437   4.850   4.280   3.175
 5180SOL     OW16438   3.461   0.039   1.146
 5180SOL    HW116439   3.511   0.117   1.111
 5180SOL    HW216440   3.520   7.012   1.207
 5181SOL     OW16441   0.165   0.585   0.113
 5181SOL    HW116442   0.138   0.568   0.207
 5181SOL    HW216443   0.131   0.674   0.084
 5182SOL     OW16444   4.495   4.496   2.186
 5182SOL    HW116445   4.513   4.432   2.112
 5182SOL    HW216446   4.407   4.542   2.171
 5183SOL     OW16447   3.956   1.489   2.962
 5183SOL    HW116448   3.878   1.480   3.023
 5183SOL    HW216449   3.934   1.552   2.887
 5184SOL     OW16450   2.044   2.314   3.264
 5184SOL    HW116451   2.036   2.255   3.184
 5184SOL    HW216452   1.988   2.396   3.251
 5185SOL     OW16453   4.947   0.270   3.404
 5185SOL    HW116454   4.963   0.309   3.314
 5185SOL    HW216455   5.016   0.304   3.468
 5186SOL     OW16456   5.966   2.584   5.541
 5186SOL    HW116457   6.017   2.666   5.517
 5186SOL    HW216458   6.019   2.529   5.605
 5187SOL     OW16459   2.397   5.624   4.635
 5187SOL    HW116460   2.388   5.556   4.563
 5187SOL    HW216461   2.465   5.692   4.607
 5188SOL     OW16462   6.902   6.196   1.467
 5188SOL    HW116463   6.905   6.273   1.403
 5188SOL    HW216464   6.862   6.116   1.423
 5189SOL     OW16465   5.528   5.869   6.829
 5189SOL    HW116466   5.545   5.888   6.732
 5189SOL    HW216467   5.611   5.829   6.870
 5190SOL     OW16468   1.898   3.173   2.427
 5190SOL    HW116469   1.966   3.202   2.360
 5190SOL    HW216470   1.941   3.160   2.516
 5191SOL     OW16471   3.128   5.755   2.675
 5191SOL    HW116472   3.080   5.799   2.750
 5191SOL    HW216473   3.171   5.825   2.617
 5192SOL     OW16474   2.074   5.789   1.550
 5192SOL    HW116475   1.984   5.824   1.522
 5192SOL    HW216476   2.064   5.699   1.592
 5193SOL     OW16477   4.755   6.965   6.180
 5193SOL    HW116478   4.820   0.013   6.192
 5193SOL    HW216479   4.742   6.947   6.082
 5194SOL     OW16480   2.547   2.100   6.439
 5194SOL    HW116481   2.642   2.072   6.455
 5194SOL    HW216482   2.506   2.042   6.369
 5195SOL     OW16483   0.231   0.496   3.669
 5195SOL    HW116484   0.308   0.540   3.624
 5195SOL    HW216485   0.182   0.438   3.604
 5196SOL     OW16486   4.352   6.836   2.145
 5196SOL    HW116487   4.389   6.746   2.123
 5196SOL    HW216488   4.394   6.870   2.229
 5197SOL     OW16489   1.433   3.765   6.668
 5197SOL    HW116490   1.386   3.691   6.715
 5197SOL    HW216491   1.471   3.731   6.582
 5198SOL     OW16492   4.396   5.488   3.035
 5198SOL    HW116493   4.359   5.416   3.093
 5198SOL    HW216494   4.324   5.551   3.008
 5199SOL     OW16495   0.173   5.440   1.028
 5199SOL    HW116496   0.221   5.376   0.968
 5199SOL    HW216497   0.218   5.444   1.117
 5200SOL     OW16498   6.784   3.357   4.985
 5200SOL    HW116499   6.753   3.451   4.997
 5200SOL    HW216500   6.720   3.295   5.030
 5201SOL     OW16501   0.621   6.708   3.442
 5201SOL    HW116502   0.559   6.755   3.379
 5201SOL    HW216503   0.569   6.674   3.520
 5202SOL     OW16504   6.385   2.935   6.084
 5202SOL    HW116505   6.390   2.921   5.985
 5202SOL    HW216506   6.474   2.964   6.118
 5203SOL     OW16507   1.850   2.434   6.690
 5203SOL    HW116508   1.829   2.528   6.716
 5203SOL    HW216509   1.852   2.376   6.772
 5204SOL     OW16510   3.767   5.066   0.393
 5204SOL    HW116511   3.705   4.988   0.393
 5204SOL    HW216512   3.732   5.137   0.454
 5205SOL     OW16513   1.662   6.970   0.976
 5205SOL    HW116514   1.707   6.909   0.911
 5205SOL    HW216515   1.684   6.941   1.069
 5206SOL     OW16516   0.498   3.845   6.368
 5206SOL    HW116517   0.478   3.760   6.418
 5206SOL    HW216518   0.575   3.829   6.306
 5207SOL     OW16519   0.592   5.437   4.095
 5207SOL    HW116520   0.677   5.459   4.142
 5207SOL    HW216521   0.595   5.471   4.001
 5208SOL     OW16522   3.673   1.204   0.343
 5208SOL    HW116523   3.584   1.172   0.375
 5208SOL    HW216524   3.697   1.289   0.389
 5209SOL     OW16525   5.993   5.494   4.447
 5209SOL    HW116526   5.911   5.442   4.469
 5209SOL    HW216527   5.972   5.592   4.447
 5210SOL     OW16528   5.724   3.355   5.830
 5210SOL    HW116529   5.807   3.320   5.785
 5210SOL    HW216530   5.746   3.383   5.923
 5211SOL     OW16531   3.635   2.902   4.527
 5211SOL    HW116532   3.611   2.960   4.449
 5211SOL    HW216533   3.572   2.825   4.532
 5212SOL     OW16534   6.796   2.103   1.211
 5212SOL    HW116535   6.888   2.065   1.207
 5212SOL    HW216536   6.788   2.179   1.146
 5213SOL     OW16537   5.209   1.810   0.105
 5213SOL    HW116538   5.162   1.722   0.097
 5213SOL    HW216539   5.142   1.884   0.100
 5214SOL     OW16540   5.133   1.339   6.690
 5214SOL    HW116541   5.202   1.277   6.728
 5214SOL    HW216542   5.179   1.410   6.636
 5215SOL     OW16543   5.130   5.363   3.500
 5215SOL    HW116544   5.205   5.426   3.484
 5215SOL    HW216545   5.135   5.328   3.593
 5216SOL     OW16546   4.984   6.047   1.261
 5216SOL    HW116547   4.994   5.974   1.193
 5216SOL    HW216548   4.969   6.134   1.215
 5217SOL     OW16549   3.329   5.106   4.214
 5217SOL    HW116550   3.300   5.048   4.138
 5217SOL    HW216551   3.345   5.051   4.295
 5218SOL     OW16552   1.550   0.057   3.320
 5218SOL    HW116553   1.606   0.032   3.241
 5218SOL    HW216554   1.607   0.096   3.392
 5219SOL     OW16555   3.609   0.531   6.491
 5219SOL    HW116556   3.600   0.443   6.536
 5219SOL    HW216557   3.680   0.585   6.538
 5220SOL     OW16558   1.724   5.465   2.857
 5220SOL    HW116559   1.641   5.498   2.813
 5220SOL    HW216560   1.740   5.516   2.942
 5221SOL     OW16561   5.539   2.234   4.661
 5221SOL    HW116562   5.593   2.150   4.659
 5221SOL    HW216563   5.451   2.217   4.705
 5222SOL     OW16564   2.716   0.354   4.307
 5222SOL    HW116565   2.807   0.337   4.269
 5222SOL    HW216566   2.717   0.439   4.360
 5223SOL     OW16567   4.705   0.844   1.457
 5223SOL    HW116568   4.732   0.901   1.380
 5223SOL    HW216569   4.749   0.754   1.449
 5224SOL     OW16570   0.104   1.558   3.183
 5224SOL    HW116571   0.023   1.505   3.205
 5224SOL    HW216572   0.087   1.614   3.101
 5225SOL     OW16573   6.688   1.048   3.421
 5225SOL    HW116574   6.609   1.032   3.362
 5225SOL    HW216575   6.683   0.987   3.500
 5226SOL     OW16576   0.390   6.243   5.367
 5226SOL    HW116577   0.416   6.205   5.278
 5226SOL    HW216578   0.427   6.184   5.439
 5227SOL     OW16579   1.545   4.937   3.662
 5227SOL    HW116580   1.624   4.890   3.622
 5227SOL    HW216581   1.576   4.992   3.740
 5228SOL     OW16582   6.336   2.667   0.880
 5228SOL    HW116583   6.289   2.616   0.952
 5228SOL    HW216584   6.276   2.673   0.799
 5229SOL     OW16585   1.564   4.158   6.811
 5229SOL    HW116586   1.599   4.212   6.887
 5229SOL    HW216587   1.641   4.117   6.762
 5230SOL     OW16588   0.359   7.021   0.804
 5230SOL    HW116589   0.440   6.964   0.805
 5230SOL    HW216590   0.306   7.003   0.721
 5231SOL     OW16591   3.002   3.350   4.518
 5231SOL    HW116592   2.918   3.302   4.543
 5231SOL    HW216593   2.991   3.448   4.534
 5232SOL     OW16594   3.013   1.860   6.304
 5232SOL    HW116595   3.059   1.839   6.218
 5232SOL    HW216596   2.981   1.775   6.346
 5233SOL     OW16597   6.760   0.029   1.265
 5233SOL    HW116598   6.855   0.061   1.269
 5233SOL    HW216599   6.753   6.965   1.306
 5234SOL     OW16600   2.980   0.218   6.522
 5234SOL    HW116601   2.908   0.184   6.583
 5234SOL    HW216602   3.030   0.141   6.483
 5235SOL     OW16603   1.782   3.008   1.295
 5235SOL    HW116604   1.836   2.925   1.284
 5235SOL    HW216605   1.817   3.079   1.234
 5236SOL     OW16606   5.905   2.892   1.940
 5236SOL    HW116607   5.822   2.878   1.886
 5236SOL    HW216608   5.905   2.830   2.018
 5237SOL     OW16609   2.366   1.709   5.288
 5237SOL    HW116610   2.338   1.620   5.252
 5237SOL    HW216611   2.379   1.702   5.387
 5238SOL     OW16612   2.172   5.136   0.566
 5238SOL    HW116613   2.179   5.101   0.472
 5238SOL    HW216614   2.084   5.110   0.605
 5239SOL     OW16615   3.938   3.865   3.573
 5239SOL    HW116616   3.998   3.803   3.624
 5239SOL    HW216617   3.961   3.862   3.476
 5240SOL     OW16618   3.132   2.181   5.870
 5240SOL    HW116619   3.096   2.104   5.924
 5240SOL    HW216620   3.201   2.229   5.923
 5241SOL     OW16621   1.589   5.999   6.209
 5241SOL    HW116622   1.509   5.946   6.180
 5241SOL    HW216623   1.564   6.095   6.218
 5242SOL     OW16624   6.349   6.559   5.500
 5242SOL    HW116625   6.276   6.514   5.552
 5242SOL    HW216626   6.377   6.643   5.547
 5243SOL     OW16627   1.945   6.329   1.743
 5243SOL    HW116628   1.970   6.377   1.659
 5243SOL    HW216629   2.009   6.354   1.816
 5244SOL     OW16630   4.253   3.680   6.151
 5244SOL    HW116631   4.209   3.604   6.103
 5244SOL    HW216632   4.209   3.766   6.124
 5245SOL     OW16633   4.487   4.411   6.672
 5245SOL    HW116634   4.517   4.418   6.577
 5245SOL    HW216635   4.399   4.457   6.683
 5246SOL     OW16636   5.631   4.392   2.842
 5246SOL    HW116637   5.720   4.396   2.796
 5246SOL    HW216638   5.559   4.417   2.778
 5247SOL     OW16639   1.770   6.025   0.277
 5247SOL    HW116640   1.681   5.989   0.304
 5247SOL    HW216641   1.827   6.039   0.358
 5248SOL     OW16642   6.028   0.969   6.046
 5248SOL    HW116643   5.972   0.890   6.072
 5248SOL    HW216644   5.968   1.046   6.022
 5249SOL     OW16645   0.530   5.558   5.049
 5249SOL    HW116646   0.475   5.501   4.988
 5249SOL    HW216647   0.469   5.615   5.105
 5250SOL     OW16648   6.807   1.500   5.930
 5250SOL    HW116649   6.770   1.476   5.840
 5250SOL    HW216650   6.763   1.443   6.000
 5251SOL     OW16651   0.579   2.673   1.337
 5251SOL    HW116652   0.494   2.681   1.389
 5251SOL    HW216653   0.617   2.765   1.321
 5252SOL     OW16654   1.793   5.690   0.772
 5252SOL    HW116655   1.729   5.614   0.786
 5252SOL    HW216656   1.818   5.695   0.676
 5253SOL     OW16657   5.061   3.631   5.677
 5253SOL    HW116658   5.006   3.675   5.606
 5253SOL    HW216659   5.022   3.541   5.698
 5254SOL     OW16660   5.693   1.814   3.543
 5254SOL    HW116661   5.678   1.806   3.444
 5254SOL    HW216662   5.606   1.835   3.589
 5255SOL     OW16663   4.103   6.985   4.872
 5255SOL    HW116664   4.199   7.010   4.881
 5255SOL    HW216665   4.083   6.907   4.931
 5256SOL     OW16666   4.734   1.203   3.569
 5256SOL    HW116667   4.638   1.220   3.592
 5256SOL    HW216668   4.745   1.111   3.533
 5257SOL     OW16669   4.214   0.522   2.234
 5257SOL    HW116670   4.188   0.616   2.213
 5257SOL    HW216671   4.176   0.460   2.165
 5258SOL     OW16672   5.192   3.963   1.656
 5258SOL    HW116673   5.137   3.954   1.573
 5258SOL    HW216674   5.193   3.876   1.705
 5259SOL     OW16675   4.479   6.310   1.183
 5259SOL    HW116676   4.410   6.373   1.147
 5259SOL    HW216677   4.571   6.345   1.161
 5260SOL     OW16678   5.465   3.113   0.902
 5260SOL    HW116679   5.505   3.051   0.834
 5260SOL    HW216680   5.395   3.065   0.954
 5261SOL     OW16681   1.101   2.969   5.936
 5261SOL    HW116682   1.063   2.879   5.915
 5261SOL    HW216683   1.027   3.031   5.964
 5262SOL     OW16684   2.755   0.168   2.476
 5262SOL    HW116685   2.768   0.124   2.565
 5262SOL    HW216686   2.799   0.112   2.405
 5263SOL     OW16687   0.789   0.425   6.145
 5263SOL    HW116688   0.822   0.427   6.051
 5263SOL    HW216689   0.745   0.337   6.164
 5264SOL     OW16690   6.054   0.712   1.799
 5264SOL    HW116691   5.954   0.711   1.800
 5264SOL    HW216692   6.087   0.673   1.713
 5265SOL     OW16693   5.341   4.235   2.560
 5265SOL    HW116694   5.309   4.228   2.655
 5265SOL    HW216695   5.285   4.176   2.502
 5266SOL     OW16696   2.376   6.493   1.613
 5266SOL    HW116697   2.420   6.446   1.690
 5266SOL    HW216698   2.403   6.590   1.614
 5267SOL     OW16699   4.832   4.353   5.853
 5267SOL    HW116700   4.803   4.438   5.898
 5267SOL    HW216701   4.771   4.334   5.776
 5268SOL     OW16702   6.944   5.547   5.779
 5268SOL    HW116703   6.927   5.456   5.817
 5268SOL    HW216704   6.978   5.607   5.851
 5269SOL     OW16705   2.543   5.868   4.102
 5269SOL    HW116706   2.532   5.931   4.025
 5269SOL    HW216707   2.622   5.810   4.087
 5270SOL     OW16708   4.463   2.162   1.753
 5270SOL    HW116709   4.464   2.092   1.682
 5270SOL    HW216710   4.384   2.147   1.813
 5271SOL     OW16711   4.547   5.217   4.229
 5271SOL    HW116712   4.549   5.129   4.181
 5271SOL    HW216713   4.495   5.208   4.314
 5272SOL     OW16714   1.438   5.605   3.426
 5272SOL    HW116715   1.477   5.513   3.437
 5272SOL    HW216716   1.431   5.627   3.328
 5273SOL     OW16717   0.614   3.241   2.773
 5273SOL    HW116718   0.575   3.149   2.772
 5273SOL    HW216719   0.693   3.243   2.834
 5274SOL     OW16720   6.079   4.847   2.929
 5274SOL    HW116721   5.985   4.846   2.894
 5274SOL    HW216722   6.113   4.941   2.929
 5275SOL     OW16723   2.951   1.655   6.459
 5275SOL    HW116724   2.874   1.706   6.499
 5275SOL    HW216725   3.003   1.612   6.532
 5276SOL     OW16726   0.431   6.030   0.944
 5276SOL    HW116727   0.475   5.944   0.919
 5276SOL    HW216728   0.441   6.046   1.042
 5277SOL     OW16729   1.733   2.700   2.895
 5277SOL    HW116730   1.777   2.787   2.918
 5277SOL    HW216731   1.703   2.655   2.979
 5278SOL     OW16732   5.468   6.714   5.312
 5278SOL    HW116733   5.497   6.722   5.407
 5278SOL    HW216734   5.473   6.804   5.268
 5279SOL     OW16735   1.754   6.327   6.867
 5279SOL    HW116736   1.730   6.273   6.948
 5279SOL    HW216737   1.756   6.424   6.892
 5280SOL     OW16738   3.537   5.281   5.494
 5280SOL    HW116739   3.448   5.317   5.465
 5280SOL    HW216740   3.528   5.235   5.582
 5281SOL     OW16741   1.950   1.358   3.819
 5281SOL    HW116742   1.937   1.452   3.849
 5281SOL    HW216743   1.980   1.357   3.723
 5282SOL     OW16744   1.662   0.247   1.726
 5282SOL    HW116745   1.738   0.208   1.778
 5282SOL    HW216746   1.641   0.338   1.763
 5283SOL     OW16747   1.726   0.373   3.069
 5283SOL    HW116748   1.814   0.347   3.109
 5283SOL    HW216749   1.669   0.291   3.059
 5284SOL     OW16750   4.770   2.947   3.447
 5284SOL    HW116751   4.830   2.906   3.515
 5284SOL    HW216752   4.824   2.993   3.377
 5285SOL     OW16753   0.718   3.425   4.297
 5285SOL    HW116754   0.634   3.457   4.255
 5285SOL    HW216755   0.764   3.502   4.342
 5286SOL     OW16756   6.435   3.309   0.963
 5286SOL    HW116757   6.448   3.399   1.006
 5286SOL    HW216758   6.340   3.281   0.973
 5287SOL     OW16759   3.141   5.587   1.330
 5287SOL    HW116760   3.046   5.602   1.303
 5287SOL    HW216761   3.158   5.630   1.419
 5288SOL     OW16762   3.737   0.645   2.582
 5288SOL    HW116763   3.656   0.595   2.613
 5288SOL    HW216764   3.791   0.587   2.521
 5289SOL     OW16765   2.067   5.564   5.453
 5289SOL    HW116766   2.052   5.590   5.358
 5289SOL    HW216767   2.131   5.487   5.457
 5290SOL     OW16768   1.711   3.737   5.559
 5290SOL    HW116769   1.642   3.666   5.577
 5290SOL    HW216770   1.802   3.696   5.557
 5291SOL     OW16771   2.934   4.526   6.486
 5291SOL    HW116772   2.949   4.534   6.387
 5291SOL    HW216773   2.996   4.588   6.534
 5292SOL     OW16774   5.801   4.578   6.042
 5292SOL    HW116775   5.781   4.492   5.994
 5292SOL    HW216776   5.771   4.655   5.986
 5293SOL     OW16777   2.345   6.793   4.997
 5293SOL    HW116778   2.286   6.843   4.933
 5293SOL    HW216779   2.435   6.835   4.999
 5294SOL     OW16780   5.149   2.187   5.780
 5294SOL    HW116781   5.229   2.231   5.820
 5294SOL    HW216782   5.104   2.131   5.849
 5295SOL     OW16783   3.842   1.337   2.745
 5295SOL    HW116784   3.759   1.312   2.794
 5295SOL    HW216785   3.917   1.348   2.811
 5296SOL     OW16786   3.131   4.461   6.895
 5296SOL    HW116787   3.069   4.527   6.854
 5296SOL    HW216788   3.115   4.370   6.856
 5297SOL     OW16789   1.553   3.695   0.295
 5297SOL    HW116790   1.650   3.713   0.313
 5297SOL    HW216791   1.545   3.619   0.230
 5298SOL     OW16792   1.345   5.960   0.009
 5298SOL    HW116793   1.425   5.950   6.976
 5298SOL    HW216794   1.263   5.976   6.980
 5299SOL     OW16795   2.627   3.035   0.898
 5299SOL    HW116796   2.694   3.073   0.962
 5299SOL    HW216797   2.535   3.067   0.923
 5300SOL     OW16798   0.440   5.815   1.138
 5300SOL    HW116799   0.420   5.898   1.191
 5300SOL    HW216800   0.452   5.738   1.200
 5301SOL     OW16801   4.189   1.447   6.751
 5301SOL    HW116802   4.181   1.500   6.667
 5301SOL    HW216803   4.192   1.509   6.830
 5302SOL     OW16804   6.235   5.779   3.818
 5302SOL    HW116805   6.243   5.834   3.901
 5302SOL    HW216806   6.171   5.704   3.834
 5303SOL     OW16807   0.277   5.228   4.710
 5303SOL    HW116808   0.254   5.142   4.754
 5303SOL    HW216809   0.195   5.270   4.672
 5304SOL     OW16810   5.956   0.520   1.094
 5304SOL    HW116811   6.043   0.532   1.141
 5304SOL    HW216812   5.966   0.545   0.998
 5305SOL     OW16813   0.491   4.436   3.472
 5305SOL    HW116814   0.501   4.455   3.374
 5305SOL    HW216815   0.582   4.422   3.512
 5306SOL     OW16816   0.906   4.594   4.967
 5306SOL    HW116817   0.931   4.497   4.966
 5306SOL    HW216818   0.981   4.647   5.006
 5307SOL     OW16819   4.040   1.748   0.247
 5307SOL    HW116820   4.028   1.768   0.149
 5307SOL    HW216821   4.109   1.677   0.258
 5308SOL     OW16822   1.083   4.175   2.806
 5308SOL    HW116823   1.138   4.179   2.723
 5308SOL    HW216824   1.027   4.093   2.806
 5309SOL     OW16825   4.111   4.738   1.850
 5309SOL    HW116826   4.193   4.681   1.859
 5309SOL    HW216827   4.044   4.691   1.793
 5310SOL     OW16828   5.930   3.420   1.617
 5310SOL    HW116829   6.028   3.400   1.624
 5310SOL    HW216830   5.917   3.513   1.584
 5311SOL     OW16831   6.648   0.049   0.145
 5311SOL    HW116832   6.642   6.997   0.083
 5311SOL    HW216833   6.650   0.134   0.091
 5312SOL     OW16834   1.201   5.561   1.141
 5312SOL    HW116835   1.151   5.525   1.219
 5312SOL    HW216836   1.141   5.565   1.061
 5313SOL     OW16837   1.341   3.049   6.015
 5313SOL    HW116838   1.407   3.047   5.940
 5313SOL    HW216839   1.255   3.007   5.984
 5314SOL     OW16840   3.768   6.576   0.275
 5314SOL    HW116841   3.839   6.509   0.254
 5314SOL    HW216842   3.699   6.576   0.202
 5315SOL     OW16843   4.925   3.474   1.754
 5315SOL    HW116844   5.018   3.442   1.734
 5315SOL    HW216845   4.925   3.520   1.843
 5316SOL     OW16846   1.310   3.419   4.939
 5316SOL    HW116847   1.272   3.458   4.856
 5316SOL    HW216848   1.273   3.467   5.019
 5317SOL     OW16849   5.900   1.414   5.051
 5317SOL    HW116850   5.880   1.359   5.132
 5317SOL    HW216851   5.989   1.387   5.013
 5318SOL     OW16852   0.869   2.664   0.247
 5318SOL    HW116853   0.852   2.602   0.324
 5318SOL    HW216854   0.803   2.738   0.249
 5319SOL     OW16855   4.083   6.010   0.262
 5319SOL    HW116856   4.128   6.093   0.294
 5319SOL    HW216857   4.062   6.019   0.164
 5320SOL     OW16858   4.706   4.717   0.431
 5320SOL    HW116859   4.739   4.810   0.417
 5320SOL    HW216860   4.638   4.716   0.504
 5321SOL     OW16861   1.839   5.095   4.415
 5321SOL    HW116862   1.844   4.995   4.409
 5321SOL    HW216863   1.890   5.126   4.495
 5322SOL     OW16864   5.593   6.251   6.843
 5322SOL    HW116865   5.667   6.208   6.791
 5322SOL    HW216866   5.510   6.254   6.786
 5323SOL     OW16867   4.020   1.756   6.967
 5323SOL    HW116868   4.090   1.684   6.962
 5323SOL    HW216869   4.022   1.810   6.882
 5324SOL     OW16870   3.043   2.345   0.646
 5324SOL    HW116871   3.033   2.417   0.578
 5324SOL    HW216872   2.980   2.270   0.624
 5325SOL     OW16873   4.382   0.257   4.490
 5325SOL    HW116874   4.296   0.299   4.462
 5325SOL    HW216875   4.442   0.327   4.530
 5326SOL     OW16876   6.153   5.099   2.917
 5326SOL    HW116877   6.241   5.131   2.881
 5326SOL    HW216878   6.080   5.126   2.854
 5327SOL     OW16879   5.589   2.685   5.540
 5327SOL    HW116880   5.634   2.610   5.492
 5327SOL    HW216881   5.544   2.744   5.474
 5328SOL     OW16882   3.713   3.041   5.028
 5328SOL    HW116883   3.714   3.141   5.029
 5328SOL    HW216884   3.708   3.009   4.933
 5329SOL     OW16885   0.403   4.442   0.184
 5329SOL    HW116886   0.353   4.428   0.269
 5329SOL    HW216887   0.448   4.357   0.157
 5330SOL     OW16888   3.953   4.064   6.467
 5330SOL    HW116889   4.018   4.124   6.420
 5330SOL    HW216890   3.863   4.075   6.426
 5331SOL     OW16891   5.396   1.241   0.297
 5331SOL    HW116892   5.467   1.272   0.361
 5331SOL    HW216893   5.338   1.174   0.342
 5332SOL     OW16894   0.865   2.777   1.395
 5332SOL    HW116895   0.820   2.725   1.467
 5332SOL    HW216896   0.917   2.714   1.336
 5333SOL     OW16897   0.609   0.336   3.292
 5333SOL    HW116898   0.651   0.389   3.365
 5333SOL    HW216899   0.580   0.397   3.219
 5334SOL     OW16900   3.130   0.223   4.400
 5334SOL    HW116901   3.079   0.151   4.447
 5334SOL    HW216902   3.197   0.182   4.339
 5335SOL     OW16903   6.724   6.171   1.941
 5335SOL    HW116904   6.789   6.145   1.870
 5335SOL    HW216905   6.749   6.125   2.027
 5336SOL     OW16906   1.790   2.923   3.414
 5336SOL    HW116907   1.738   2.886   3.337
 5336SOL    HW216908   1.877   2.959   3.382
 5337SOL     OW16909   5.007   4.109   1.199
 5337SOL    HW116910   5.015   4.043   1.123
 5337SOL    HW216911   4.916   4.102   1.239
 5338SOL     OW16912   6.044   1.695   6.743
 5338SOL    HW116913   5.968   1.680   6.806
 5338SOL    HW216914   6.049   1.619   6.678
 5339SOL     OW16915   6.455   2.140   4.011
 5339SOL    HW116916   6.524   2.204   4.044
 5339SOL    HW216917   6.490   2.047   4.020
 5340SOL     OW16918   4.983   4.053   0.751
 5340SOL    HW116919   5.082   4.039   0.752
 5340SOL    HW216920   4.941   3.999   0.824
 5341SOL     OW16921   3.256   2.680   6.392
 5341SOL    HW116922   3.278   2.668   6.489
 5341SOL    HW216923   3.162   2.713   6.383
 5342SOL     OW16924   2.857   7.023   4.019
 5342SOL    HW116925   2.930   6.965   4.055
 5342SOL    HW216926   2.772   7.005   4.068
 5343SOL     OW16927   4.073   3.716   4.535
 5343SOL    HW116928   4.099   3.774   4.458
 5343SOL    HW216929   3.975   3.723   4.551
 5344SOL     OW16930   2.083   3.140   2.633
 5344SOL    HW116931   2.115   3.130   2.539
 5344SOL    HW216932   2.073   3.237   2.655
 5345SOL     OW16933   3.509   6.601   1.462
 5345SOL    HW116934   3.426   6.655   1.480
 5345SOL    HW216935   3.520   6.588   1.364
 5346SOL     OW16936   3.469   6.068   4.026
 5346SOL    HW116937   3.517   6.156   4.030
 5346SOL    HW216938   3.390   6.077   3.966
 5347SOL     OW16939   0.654   2.323   1.676
 5347SOL    HW116940   0.660   2.346   1.579
 5347SOL    HW216941   0.618   2.401   1.727
 5348SOL     OW16942   0.403   2.341   1.065
 5348SOL    HW116943   0.410   2.332   0.966
 5348SOL    HW216944   0.461   2.417   1.096
 5349SOL     OW16945   1.843   2.777   0.404
 5349SOL    HW116946   1.753   2.743   0.432
 5349SOL    HW216947   1.857   2.869   0.442
 5350SOL     OW16948   2.195   0.290   5.261
 5350SOL    HW116949   2.156   0.227   5.194
 5350SOL    HW216950   2.244   0.238   5.331
 5351SOL     OW16951   6.267   5.836   2.303
 5351SOL    HW116952   6.289   5.783   2.385
 5351SOL    HW216953   6.192   5.899   2.323
 5352SOL     OW16954   2.428   4.834   3.384
 5352SOL    HW116955   2.473   4.903   3.441
 5352SOL    HW216956   2.367   4.779   3.440
 5353SOL     OW16957   3.894   5.215   3.403
 5353SOL    HW116958   3.831   5.292   3.413
 5353SOL    HW216959   3.851   5.132   3.438
 5354SOL     OW16960   2.970   5.493   1.744
 5354SOL    HW116961   2.949   5.468   1.839
 5354SOL    HW216962   2.898   5.553   1.710
 5355SOL     OW16963   5.611   3.549   3.571
 5355SOL    HW116964   5.686   3.604   3.533
 5355SOL    HW216965   5.608   3.460   3.524
 5356SOL     OW16966   5.489   4.599   1.732
 5356SOL    HW116967   5.536   4.628   1.648
 5356SOL    HW216968   5.391   4.599   1.716
 5357SOL     OW16969   4.388   6.754   0.698
 5357SOL    HW116970   4.297   6.755   0.740
 5357SOL    HW216971   4.381   6.725   0.603
 5358SOL     OW16972   4.644   1.844   0.277
 5358SOL    HW116973   4.656   1.802   0.187
 5358SOL    HW216974   4.726   1.895   0.302
 5359SOL     OW16975   1.408   1.764   6.377
 5359SOL    HW116976   1.360   1.742   6.462
 5359SOL    HW216977   1.505   1.739   6.386
 5360SOL     OW16978   4.317   6.600   5.542
 5360SOL    HW116979   4.288   6.692   5.516
 5360SOL    HW216980   4.237   6.543   5.560
 5361SOL     OW16981   2.683   1.044   4.936
 5361SOL    HW116982   2.623   1.022   4.860
 5361SOL    HW216983   2.729   1.131   4.918
 5362SOL     OW16984   5.768   5.194   3.487
 5362SOL    HW116985   5.799   5.256   3.559
 5362SOL    HW216986   5.841   5.184   3.419
 5363SOL     OW16987   0.337   0.111   6.626
 5363SOL    HW116988   0.323   0.100   6.725
 5363SOL    HW216989   0.251   0.096   6.578
 5364SOL     OW16990   6.328   6.391   1.579
 5364SOL    HW116991   6.345   6.310   1.635
 5364SOL    HW216992   6.251   6.373   1.517
 5365SOL     OW16993   3.663   3.680   6.795
 5365SOL    HW116994   3.683   3.583   6.781
 5365SOL    HW216995   3.738   3.722   6.847
 5366SOL     OW16996   5.441   5.805   1.754
 5366SOL    HW116997   5.393   5.871   1.812
 5366SOL    HW216998   5.412   5.817   1.659
 5367SOL     OW16999   0.717   6.567   0.151
 5367SOL    HW117000   0.644   6.502   0.171
 5367SOL    HW217001   0.784   6.566   0.225
 5368SOL     OW17002   5.297   0.226   3.075
 5368SOL    HW117003   5.266   0.310   3.120
 5368SOL    HW217004   5.328   0.247   2.982
 5369SOL     OW17005   3.030   6.581   2.321
 5369SOL    HW117006   3.122   6.552   2.348
 5369SOL    HW217007   3.023   6.585   2.222
 5370SOL     OW17008   4.272   2.884   1.710
 5370SOL    HW117009   4.365   2.856   1.736
 5370SOL    HW217010   4.206   2.830   1.762
 5371SOL     OW17011   1.403   3.971   4.875
 5371SOL    HW117012   1.440   3.959   4.967
 5371SOL    HW217013   1.343   4.051   4.873
 5372SOL     OW17014   2.727   5.662   3.589
 5372SOL    HW117015   2.783   5.730   3.637
 5372SOL    HW217016   2.725   5.684   3.491
 5373SOL     OW17017   3.935   6.693   3.958
 5373SOL    HW117018   3.926   6.683   4.058
 5373SOL    HW217019   3.845   6.680   3.916
 5374SOL     OW17020   1.163   3.754   6.756
 5374SOL    HW117021   1.161   3.731   6.659
 5374SOL    HW217022   1.087   3.816   6.777
 5375SOL     OW17023   1.960   5.112   4.661
 5375SOL    HW117024   1.988   5.187   4.721
 5375SOL    HW217025   1.970   5.025   4.710
 5376SOL     OW17026   1.341   3.211   0.864
 5376SOL    HW117027   1.344   3.111   0.861
 5376SOL    HW217028   1.246   3.242   0.874
 5377SOL     OW17029   0.421   6.864   2.135
 5377SOL    HW117030   0.383   6.817   2.055
 5377SOL    HW217031   0.519   6.879   2.122
 5378SOL     OW17032   0.056   0.744   2.036
 5378SOL    HW117033   0.070   0.732   2.134
 5378SOL    HW217034   0.128   0.696   1.986
 5379SOL     OW17035   2.022   5.335   4.808
 5379SOL    HW117036   2.053   5.338   4.903
 5379SOL    HW217037   1.989   5.426   4.781
 5380SOL     OW17038   2.082   2.125   3.062
 5380SOL    HW117039   2.035   2.184   2.996
 5380SOL    HW217040   2.020   2.053   3.094
 5381SOL     OW17041   6.681   3.753   1.449
 5381SOL    HW117042   6.599   3.735   1.394
 5381SOL    HW217043   6.699   3.851   1.452
 5382SOL     OW17044   3.121   0.260   2.028
 5382SOL    HW117045   3.140   0.341   2.084
 5382SOL    HW217046   3.180   0.184   2.058
 5383SOL     OW17047   2.193   2.674   5.769
 5383SOL    HW117048   2.238   2.760   5.743
 5383SOL    HW217049   2.260   2.600   5.766
 5384SOL     OW17050   5.839   6.825   5.026
 5384SOL    HW117051   5.904   6.841   4.951
 5384SOL    HW217052   5.845   6.729   5.054
 5385SOL     OW17053   2.972   3.227   4.029
 5385SOL    HW117054   2.941   3.172   3.951
 5385SOL    HW217055   2.904   3.298   4.048
 5386SOL     OW17056   4.653   6.852   4.472
 5386SOL    HW117057   4.704   6.824   4.390
 5386SOL    HW217058   4.566   6.804   4.474
 5387SOL     OW17059   2.351   6.432   3.775
 5387SOL    HW117060   2.332   6.523   3.738
 5387SOL    HW217061   2.266   6.392   3.809
 5388SOL     OW17062   6.751   0.329   4.483
 5388SOL    HW117063   6.750   0.235   4.450
 5388SOL    HW217064   6.818   0.337   4.557
 5389SOL     OW17065   4.370   0.931   2.199
 5389SOL    HW117066   4.364   1.005   2.132
 5389SOL    HW217067   4.364   0.969   2.291
 5390SOL     OW17068   4.692   4.252   3.091
 5390SOL    HW117069   4.692   4.157   3.061
 5390SOL    HW217070   4.670   4.311   3.013
 5391SOL     OW17071   1.969   2.153   1.423
 5391SOL    HW117072   2.000   2.084   1.488
 5391SOL    HW217073   1.979   2.244   1.464
 5392SOL     OW17074   5.434   3.184   1.201
 5392SOL    HW117075   5.449   3.283   1.195
 5392SOL    HW217076   5.337   3.164   1.188
 5393SOL     OW17077   5.061   0.255   6.403
 5393SOL    HW117078   5.141   0.316   6.411
 5393SOL    HW217079   5.066   0.184   6.473
 5394SOL     OW17080   6.880   5.181   6.692
 5394SOL    HW117081   6.919   5.165   6.601
 5394SOL    HW217082   6.953   5.207   6.755
 5395SOL     OW17083   4.797   0.732   2.093
 5395SOL    HW117084   4.845   0.750   2.178
 5395SOL    HW217085   4.811   0.636   2.066
 5396SOL     OW17086   4.459   4.929   2.706
 5396SOL    HW117087   4.464   5.022   2.744
 5396SOL    HW217088   4.368   4.914   2.668
 5397SOL     OW17089   0.127   2.478   1.611
 5397SOL    HW117090   0.091   2.435   1.693
 5397SOL    HW217091   0.060   2.541   1.573
 5398SOL     OW17092   3.406   2.112   3.156
 5398SOL    HW117093   3.324   2.115   3.213
 5398SOL    HW217094   3.381   2.092   3.062
 5399SOL     OW17095   2.389   5.628   0.621
 5399SOL    HW117096   2.455   5.696   0.588
 5399SOL    HW217097   2.416   5.596   0.712
 5400SOL     OW17098   2.895   4.228   0.768
 5400SOL    HW117099   2.846   4.171   0.702
 5400SOL    HW217100   2.843   4.232   0.854
 5401SOL     OW17101   5.774   3.417   1.295
 5401SOL    HW117102   5.729   3.331   1.271
 5401SOL    HW217103   5.870   3.399   1.319
 5402SOL     OW17104   2.253   4.845   1.368
 5402SOL    HW117105   2.202   4.897   1.299
 5402SOL    HW217106   2.299   4.907   1.430
 5403SOL     OW17107   6.179   2.149   6.134
 5403SOL    HW117108   6.274   2.134   6.162
 5403SOL    HW217109   6.118   2.100   6.196
 5404SOL     OW17110   0.743   0.948   2.594
 5404SOL    HW117111   0.796   0.903   2.523
 5404SOL    HW217112   0.776   1.041   2.607
 5405SOL     OW17113   6.147   6.010   0.435
 5405SOL    HW117114   6.194   5.922   0.422
 5405SOL    HW217115   6.052   5.993   0.459
 5406SOL     OW17116   2.604   0.094   6.357
 5406SOL    HW117117   2.686   0.141   6.323
 5406SOL    HW217118   2.632   0.019   6.417
 5407SOL     OW17119   4.750   2.670   1.578
 5407SOL    HW117120   4.779   2.765   1.566
 5407SOL    HW217121   4.680   2.648   1.511
 5408SOL     OW17122   3.354   1.228   6.282
 5408SOL    HW117123   3.339   1.214   6.184
 5408SOL    HW217124   3.292   1.168   6.333
 5409SOL     OW17125   5.703   1.358   4.063
 5409SOL    HW117126   5.626   1.421   4.066
 5409SOL    HW217127   5.777   1.399   4.010
 5410SOL     OW17128   1.943   3.520   1.017
 5410SOL    HW117129   1.899   3.610   1.023
 5410SOL    HW217130   1.958   3.483   1.109
 5411SOL     OW17131   6.535   5.000   6.136
 5411SOL    HW117132   6.540   5.012   6.236
 5411SOL    HW217133   6.500   4.909   6.115
 5412SOL     OW17134   4.277   0.806   6.992
 5412SOL    HW117135   4.229   0.884   6.953
 5412SOL    HW217136   4.316   0.751   6.918
 5413SOL     OW17137   2.062   0.637   0.945
 5413SOL    HW117138   2.005   0.574   0.892
 5413SOL    HW217139   2.006   0.680   1.016
 5414SOL     OW17140   6.127   2.813   4.984
 5414SOL    HW117141   6.201   2.851   5.040
 5414SOL    HW217142   6.084   2.887   4.932
 5415SOL     OW17143   1.392   6.232   1.376
 5415SOL    HW117144   1.320   6.278   1.324
 5415SOL    HW217145   1.464   6.297   1.399
 5416SOL     OW17146   4.105   4.651   6.593
 5416SOL    HW117147   4.139   4.612   6.678
 5416SOL    HW217148   4.015   4.690   6.608
 5417SOL     OW17149   3.931   6.490   5.273
 5417SOL    HW117150   3.894   6.458   5.360
 5417SOL    HW217151   3.911   6.422   5.201
 5418SOL     OW17152   4.086   6.399   4.283
 5418SOL    HW117153   4.029   6.339   4.339
 5418SOL    HW217154   4.059   6.494   4.298
 5419SOL     OW17155   3.338   5.160   0.343
 5419SOL    HW117156   3.327   5.067   0.378
 5419SOL    HW217157   3.366   5.156   0.248
 5420SOL     OW17158   1.731   2.069   2.024
 5420SOL    HW117159   1.780   2.118   2.096
 5420SOL    HW217160   1.777   2.085   1.936
 5421SOL     OW17161   2.137   4.029   2.396
 5421SOL    HW117162   2.149   3.943   2.347
 5421SOL    HW217163   2.053   4.024   2.452
 5422SOL     OW17164   0.721   5.919   6.657
 5422SOL    HW117165   0.704   5.834   6.706
 5422SOL    HW217166   0.818   5.943   6.665
 5423SOL     OW17167   5.339   2.806   6.938
 5423SOL    HW117168   5.276   2.793   7.015
 5423SOL    HW217169   5.379   2.717   6.913
 5424SOL     OW17170   4.928   3.130   4.276
 5424SOL    HW117171   4.849   3.090   4.322
 5424SOL    HW217172   5.012   3.091   4.314
 5425SOL     OW17173   4.297   1.434   4.231
 5425SOL    HW117174   4.359   1.512   4.232
 5425SOL    HW217175   4.205   1.465   4.256
 5426SOL     OW17176   6.582   5.043   3.862
 5426SOL    HW117177   6.644   5.099   3.918
 5426SOL    HW217178   6.537   4.975   3.919
 5427SOL     OW17179   5.533   4.839   0.861
 5427SOL    HW117180   5.570   4.825   0.769
 5427SOL    HW217181   5.509   4.936   0.872
 5428SOL     OW17182   7.015   0.354   1.616
 5428SOL    HW117183   0.053   0.280   1.633
 5428SOL    HW217184   6.939   0.319   1.561
 5429SOL     OW17185   0.817   1.909   5.692
 5429SOL    HW117186   0.872   1.973   5.745
 5429SOL    HW217187   0.875   1.837   5.655
 5430SOL     OW17188   0.933   3.474   5.195
 5430SOL    HW117189   0.896   3.567   5.188
 5430SOL    HW217190   0.886   3.424   5.267
 5431SOL     OW17191   3.323   6.121   6.909
 5431SOL    HW117192   3.318   6.088   6.814
 5431SOL    HW217193   3.270   6.205   6.918
 5432SOL     OW17194   4.374   6.435   6.658
 5432SOL    HW117195   4.303   6.502   6.637
 5432SOL    HW217196   4.423   6.462   6.741
 5433SOL     OW17197   0.325   1.344   3.826
 5433SOL    HW117198   0.372   1.311   3.908
 5433SOL    HW217199   0.232   1.373   3.851
 5434SOL     OW17200   3.784   1.137   4.609
 5434SOL    HW117201   3.880   1.139   4.583
 5434SOL    HW217202   3.757   1.227   4.645
 5435SOL     OW17203   5.531   1.218   1.772
 5435SOL    HW117204   5.442   1.243   1.812
 5435SOL    HW217205   5.604   1.262   1.825
 5436SOL     OW17206   4.894   3.806   4.333
 5436SOL    HW117207   4.814   3.794   4.392
 5436SOL    HW217208   4.946   3.886   4.363
 5437SOL     OW17209   2.779   5.145   6.248
 5437SOL    HW117210   2.818   5.056   6.225
 5437SOL    HW217211   2.753   5.192   6.164
 5438SOL     OW17212   5.657   4.001   2.776
 5438SOL    HW117213   5.609   4.007   2.864
 5438SOL    HW217214   5.698   4.090   2.755
 5439SOL     OW17215   1.017   2.282   0.886
 5439SOL    HW117216   1.050   2.376   0.880
 5439SOL    HW217217   1.078   2.228   0.943
 5440SOL     OW17218   0.864   0.161   2.179
 5440SOL    HW117219   0.798   0.233   2.159
 5440SOL    HW217220   0.922   0.146   2.099
 5441SOL     OW17221   5.172   2.881   3.296
 5441SOL    HW117222   5.123   2.797   3.273
 5441SOL    HW217223   5.112   2.960   3.283
 5442SOL     OW17224   3.314   6.417   3.424
 5442SOL    HW117225   3.290   6.514   3.416
 5442SOL    HW217226   3.385   6.406   3.494
 5443SOL     OW17227   2.603   0.694   3.708
 5443SOL    HW117228   2.683   0.754   3.720
 5443SOL    HW217229   2.613   0.614   3.767
 5444SOL     OW17230   1.691   0.435   3.736
 5444SOL    HW117231   1.788   0.422   3.712
 5444SOL    HW217232   1.670   0.533   3.737
 5445SOL     OW17233   5.574   3.973   4.547
 5445SOL    HW117234   5.658   3.959   4.495
 5445SOL    HW217235   5.593   4.032   4.625
 5446SOL     OW17236   6.550   5.108   5.458
 5446SOL    HW117237   6.526   5.193   5.412
 5446SOL    HW217238   6.526   5.030   5.399
 5447SOL     OW17239   1.886   1.695   6.653
 5447SOL    HW117240   1.840   1.637   6.719
 5447SOL    HW217241   1.903   1.785   6.693
 5448SOL     OW17242   5.503   3.145   4.498
 5448SOL    HW117243   5.480   3.166   4.593
 5448SOL    HW217244   5.423   3.163   4.440
 5449SOL     OW17245   1.588   2.222   6.852
 5449SOL    HW117246   1.571   2.185   6.761
 5449SOL    HW217247   1.685   2.216   6.874
 5450SOL     OW17248   1.735   0.601   2.018
 5450SOL    HW117249   1.672   0.674   1.994
 5450SOL    HW217250   1.683   0.522   2.052
 5451SOL     OW17251   1.731   5.627   3.850
 5451SOL    HW117252   1.788   5.692   3.901
 5451SOL    HW217253   1.721   5.659   3.756
 5452SOL     OW17254   2.091   4.409   6.979
 5452SOL    HW117255   2.172   4.438   0.003
 5452SOL    HW217256   2.090   4.310   6.971
 5453SOL     OW17257   5.367   4.319   1.989
 5453SOL    HW117258   5.341   4.263   1.910
 5453SOL    HW217259   5.416   4.262   2.055
 5454SOL     OW17260   0.041   4.196   5.919
 5454SOL    HW117261   0.124   4.242   5.886
 5454SOL    HW217262   0.006   4.245   5.999
 5455SOL     OW17263   6.310   3.039   1.239
 5455SOL    HW117264   6.275   2.962   1.185
 5455SOL    HW217265   6.404   3.059   1.211
 5456SOL     OW17266   2.533   0.539   6.480
 5456SOL    HW117267   2.476   0.524   6.560
 5456SOL    HW217268   2.599   0.464   6.470
 5457SOL     OW17269   6.641   2.461   0.179
 5457SOL    HW117270   6.573   2.514   0.230
 5457SOL    HW217271   6.687   2.397   0.242
 5458SOL     OW17272   0.620   4.144   0.734
 5458SOL    HW117273   0.657   4.057   0.702
 5458SOL    HW217274   0.695   4.206   0.757
 5459SOL     OW17275   1.636   4.338   0.012
 5459SOL    HW117276   1.717   4.377   0.057
 5459SOL    HW217277   1.554   4.364   0.062
 5460SOL     OW17278   4.099   0.553   3.195
 5460SOL    HW117279   4.021   0.515   3.146
 5460SOL    HW217280   4.067   0.610   3.271
 5461SOL     OW17281   5.770   0.026   5.901
 5461SOL    HW117282   5.838   0.079   5.850
 5461SOL    HW217283   5.773   0.053   5.997
 5462SOL     OW17284   0.119   0.211   0.062
 5462SOL    HW117285   0.061   0.278   0.016
 5462SOL    HW217286   0.068   0.170   0.138
 5463SOL     OW17287   0.098   1.728   0.851
 5463SOL    HW117288   0.029   1.801   0.847
 5463SOL    HW217289   0.151   1.737   0.935
 5464SOL     OW17290   0.982   1.103   4.353
 5464SOL    HW117291   0.892   1.076   4.321
 5464SOL    HW217292   1.052   1.047   4.308
 5465SOL     OW17293   3.783   0.213   3.669
 5465SOL    HW117294   3.845   0.154   3.617
 5465SOL    HW217295   3.689   0.194   3.641
 5466SOL     OW17296   5.227   2.535   5.042
 5466SOL    HW117297   5.300   2.530   4.974
 5466SOL    HW217298   5.265   2.561   5.131
 5467SOL     OW17299   5.243   3.205   3.085
 5467SOL    HW117300   5.268   3.147   3.008
 5467SOL    HW217301   5.278   3.165   3.170
 5468SOL     OW17302   5.988   3.009   4.247
 5468SOL    HW117303   6.052   3.029   4.173
 5468SOL    HW217304   5.945   2.921   4.231
 5469SOL     OW17305   3.296   6.257   6.224
 5469SOL    HW117306   3.330   6.179   6.278
 5469SOL    HW217307   3.370   6.322   6.209
 5470SOL     OW17308   2.980   5.898   2.898
 5470SOL    HW117309   2.998   5.996   2.912
 5470SOL    HW217310   2.962   5.854   2.985
 5471SOL     OW17311   5.247   0.122   2.816
 5471SOL    HW117312   5.300   0.054   2.867
 5471SOL    HW217313   5.172   0.077   2.768
 5472SOL     OW17314   4.454   3.968   5.909
 5472SOL    HW117315   4.528   3.904   5.891
 5472SOL    HW217316   4.468   4.010   5.999
 5473SOL     OW17317   0.129   2.976   2.175
 5473SOL    HW117318   0.085   2.940   2.093
 5473SOL    HW217319   0.138   2.904   2.243
 5474SOL     OW17320   0.839   4.876   4.121
 5474SOL    HW117321   0.769   4.892   4.051
 5474SOL    HW217322   0.929   4.898   4.084
 5475SOL     OW17323   2.443   3.134   1.533
 5475SOL    HW117324   2.538   3.166   1.537
 5475SOL    HW217325   2.441   3.043   1.491
 5476SOL     OW17326   1.917   4.589   5.408
 5476SOL    HW117327   1.912   4.637   5.496
 5476SOL    HW217328   1.953   4.496   5.422
 5477SOL     OW17329   2.641   4.675   3.378
 5477SOL    HW117330   2.726   4.728   3.384
 5477SOL    HW217331   2.563   4.736   3.389
 5478SOL     OW17332   3.418   5.149   5.034
 5478SOL    HW117333   3.319   5.144   5.048
 5478SOL    HW217334   3.446   5.083   4.965
 5479SOL     OW17335   4.844   1.681   6.676
 5479SOL    HW117336   4.860   1.586   6.648
 5479SOL    HW217337   4.790   1.681   6.760
 5480SOL     OW17338   6.027   4.341   2.852
 5480SOL    HW117339   5.970   4.346   2.935
 5480SOL    HW217340   6.077   4.254   2.851
 5481SOL     OW17341   4.288   1.174   4.273
 5481SOL    HW117342   4.363   1.142   4.330
 5481SOL    HW217343   4.305   1.267   4.244
 5482SOL     OW17344   3.359   4.605   1.706
 5482SOL    HW117345   3.452   4.608   1.743
 5482SOL    HW217346   3.332   4.697   1.678
 5483SOL     OW17347   0.234   1.810   5.555
 5483SOL    HW117348   0.327   1.777   5.540
 5483SOL    HW217349   0.205   1.864   5.476
 5484SOL     OW17350   3.770   1.242   4.215
 5484SOL    HW117351   3.829   1.284   4.283
 5484SOL    HW217352   3.699   1.307   4.187
 5485SOL     OW17353   4.405   0.024   5.464
 5485SOL    HW117354   4.504   0.018   5.450
 5485SOL    HW217355   4.385   0.021   5.562
 5486SOL     OW17356   2.474   5.865   5.093
 5486SOL    HW117357   2.496   5.846   4.997
 5486SOL    HW217358   2.403   5.802   5.124
 5487SOL     OW17359   4.031   2.747   6.584
 5487SOL    HW117360   4.021   2.721   6.488
 5487SOL    HW217361   3.999   2.673   6.643
 5488SOL     OW17362   6.147   0.182   1.017
 5488SOL    HW117363   6.195   0.178   1.104
 5488SOL    HW217364   6.194   0.124   0.950
 5489SOL     OW17365   0.535   3.831   1.582
 5489SOL    HW117366   0.578   3.886   1.511
 5489SOL    HW217367   0.471   3.766   1.541
 5490SOL     OW17368   2.954   0.587   2.583
 5490SOL    HW117369   2.993   0.523   2.649
 5490SOL    HW217370   2.901   0.537   2.515
 5491SOL     OW17371   1.017   2.838   0.139
 5491SOL    HW117372   0.962   2.764   0.177
 5491SOL    HW217373   1.106   2.841   0.186
 5492SOL     OW17374   0.902   3.608   6.674
 5492SOL    HW117375   0.967   3.659   6.618
 5492SOL    HW217376   0.875   3.524   6.626
 5493SOL     OW17377   3.520   3.030   4.316
 5493SOL    HW117378   3.464   2.966   4.263
 5493SOL    HW217379   3.469   3.115   4.331
 5494SOL     OW17380   6.975   3.554   5.557
 5494SOL    HW117381   6.956   3.468   5.510
 5494SOL    HW217382   6.911   3.566   5.633
 5495SOL     OW17383   5.961   0.861   1.431
 5495SOL    HW117384   5.915   0.801   1.365
 5495SOL    HW217385   6.052   0.884   1.398
 5496SOL     OW17386   3.985   0.695   3.435
 5496SOL    HW117387   3.907   0.660   3.487
 5496SOL    HW217388   4.011   0.785   3.470
 5497SOL     OW17389   0.926   1.214   5.298
 5497SOL    HW117390   0.832   1.191   5.275
 5497SOL    HW217391   0.987   1.141   5.265
 5498SOL     OW17392   0.003   5.143   1.962
 5498SOL    HW117393   6.947   5.168   1.911
 5498SOL    HW217394   7.009   5.139   2.059
 5499SOL     OW17395   1.257   0.588   4.396
 5499SOL    HW117396   1.241   0.512   4.333
 5499SOL    HW217397   1.204   0.667   4.366
 5500SOL     OW17398   1.015   0.836   6.904
 5500SOL    HW117399   1.012   0.872   6.810
 5500SOL    HW217400   0.975   0.745   6.906
 5501SOL     OW17401   3.724   2.286   0.341
 5501SOL    HW117402   3.739   2.367   0.399
 5501SOL    HW217403   3.779   2.210   0.376
 5502SOL     OW17404   5.364   3.790   6.484
 5502SOL    HW117405   5.315   3.802   6.398
 5502SOL    HW217406   5.311   3.829   6.559
 5503SOL     OW17407   6.940   4.700   0.531
 5503SOL    HW117408   7.018   4.648   0.567
 5503SOL    HW217409   6.866   4.638   0.507
 5504SOL     OW17410   4.465   1.188   4.991
 5504SOL    HW117411   4.563   1.174   5.000
 5504SOL    HW217412   4.439   1.185   4.895
 5505SOL     OW17413   1.935   4.150   3.259
 5505SOL    HW117414   1.841   4.184   3.254
 5505SOL    HW217415   1.954   4.115   3.350
 5506SOL     OW17416   0.190   3.313   0.710
 5506SOL    HW117417   0.219   3.404   0.741
 5506SOL    HW217418   0.229   3.295   0.619
 5507SOL     OW17419   3.689   0.617   4.956
 5507SOL    HW117420   3.616   0.686   4.962
 5507SOL    HW217421   3.714   0.604   4.860
 5508SOL     OW17422   1.086   1.596   0.418
 5508SOL    HW117423   1.059   1.503   0.443
 5508SOL    HW217424   1.087   1.606   0.319
 5509SOL     OW17425   0.815   5.906   0.239
 5509SOL    HW117426   0.871   5.980   0.275
 5509SOL    HW217427   0.836   5.821   0.287
 5510SOL     OW17428   4.258   5.332   6.698
 5510SOL    HW117429   4.320   5.269   6.652
 5510SOL    HW217430   4.312   5.404   6.744
 5511SOL     OW17431   1.894   1.106   4.966
 5511SOL    HW117432   1.910   1.095   4.868
 5511SOL    HW217433   1.888   1.016   5.009
 5512SOL     OW17434   3.978   1.477   0.880
 5512SOL    HW117435   3.971   1.489   0.979
 5512SOL    HW217436   3.888   1.482   0.839
 5513SOL     OW17437   3.671   5.591   6.285
 5513SOL    HW117438   3.740   5.546   6.229
 5513SOL    HW217439   3.581   5.577   6.245
 5514SOL     OW17440   3.467   0.921   4.675
 5514SOL    HW117441   3.452   0.850   4.606
 5514SOL    HW217442   3.504   1.003   4.630
 5515SOL     OW17443   1.214   5.532   1.755
 5515SOL    HW117444   1.186   5.591   1.831
 5515SOL    HW217445   1.266   5.586   1.689
 5516SOL     OW17446   1.960   2.278   4.766
 5516SOL    HW117447   1.985   2.188   4.730
 5516SOL    HW217448   1.962   2.275   4.866
 5517SOL     OW17449   2.108   3.668   2.055
 5517SOL    HW117450   2.016   3.655   2.091
 5517SOL    HW217451   2.146   3.580   2.027
 5518SOL     OW17452   6.204   5.230   6.369
 5518SOL    HW117453   6.236   5.139   6.393
 5518SOL    HW217454   6.260   5.267   6.295
 5519SOL     OW17455   6.131   2.916   3.131
 5519SOL    HW117456   6.181   2.927   3.217
 5519SOL    HW217457   6.108   2.819   3.118
 5520SOL     OW17458   5.402   0.169   2.042
 5520SOL    HW117459   5.339   0.158   2.119
 5520SOL    HW217460   5.479   0.226   2.070
 5521SOL     OW17461   5.321   6.471   1.980
 5521SOL    HW117462   5.230   6.513   1.976
 5521SOL    HW217463   5.391   6.540   1.960
 5522SOL     OW17464   6.376   5.352   1.378
 5522SOL    HW117465   6.347   5.269   1.331
 5522SOL    HW217466   6.476   5.353   1.384
 5523SOL     OW17467   4.142   0.792   2.185
 5523SOL    HW117468   4.113   0.788   2.089
 5523SOL    HW217469   4.225   0.847   2.192
 5524SOL     OW17470   3.518   6.808   4.862
 5524SOL    HW117471   3.611   6.777   4.878
 5524SOL    HW217472   3.519   6.900   4.822
 5525SOL     OW17473   1.624   2.636   0.174
 5525SOL    HW117474   1.610   2.729   0.139
 5525SOL    HW217475   1.540   2.604   0.218
 5526SOL     OW17476   5.080   4.862   2.771
 5526SOL    HW117477   5.038   4.801   2.703
 5526SOL    HW217478   5.026   4.859   2.855
 5527SOL     OW17479   5.080   4.128   3.496
 5527SOL    HW117480   4.983   4.150   3.502
 5527SOL    HW217481   5.105   4.064   3.568
 5528SOL     OW17482   1.875   0.957   0.937
 5528SOL    HW117483   1.859   0.883   1.003
 5528SOL    HW217484   1.798   0.964   0.875
 5529SOL     OW17485   3.478   6.976   4.436
 5529SOL    HW117486   3.494   0.018   4.506
 5529SOL    HW217487   3.393   6.927   4.456
 5530SOL     OW17488   6.174   1.841   1.425
 5530SOL    HW117489   6.207   1.935   1.432
 5530SOL    HW217490   6.214   1.786   1.498
 5531SOL     OW17491   3.871   3.648   1.393
 5531SOL    HW117492   3.932   3.721   1.424
 5531SOL    HW217493   3.863   3.653   1.293
 5532SOL     OW17494   1.077   3.275   0.900
 5532SOL    HW117495   0.994   3.316   0.861
 5532SOL    HW217496   1.060   3.252   0.996
 5533SOL     OW17497   5.090   1.279   3.546
 5533SOL    HW117498   5.054   1.264   3.454
 5533SOL    HW217499   5.077   1.375   3.572
 5534SOL     OW17500   1.007   1.681   6.587
 5534SOL    HW117501   0.957   1.768   6.588
 5534SOL    HW217502   0.967   1.619   6.655
 5535SOL     OW17503   1.112   1.318   3.168
 5535SOL    HW117504   1.129   1.416   3.181
 5535SOL    HW217505   1.197   1.267   3.182
 5536SOL     OW17506   4.183   0.337   3.984
 5536SOL    HW117507   4.120   0.342   4.062
 5536SOL    HW217508   4.267   0.291   4.012
 5537SOL     OW17509   3.087   0.924   2.391
 5537SOL    HW117510   3.131   0.849   2.442
 5537SOL    HW217511   3.148   1.003   2.389
 5538SOL     OW17512   3.783   6.005   5.064
 5538SOL    HW117513   3.695   6.053   5.068
 5538SOL    HW217514   3.832   6.031   4.981
 5539SOL     OW17515   1.438   3.852   1.521
 5539SOL    HW117516   1.504   3.886   1.454
 5539SOL    HW217517   1.486   3.829   1.606
 5540SOL     OW17518   4.813   4.730   3.980
 5540SOL    HW117519   4.756   4.786   3.920
 5540SOL    HW217520   4.894   4.781   4.006
 5541SOL     OW17521   5.163   0.486   6.642
 5541SOL    HW117522   5.064   0.497   6.639
 5541SOL    HW217523   5.186   0.394   6.676
 5542SOL     OW17524   4.138   3.380   6.129
 5542SOL    HW117525   4.205   3.350   6.061
 5542SOL    HW217526   4.092   3.300   6.168
 5543SOL     OW17527   5.149   3.837   6.294
 5543SOL    HW117528   5.162   3.832   6.195
 5543SOL    HW217529   5.143   3.933   6.323
 5544SOL     OW17530   5.118   6.592   6.685
 5544SOL    HW117531   5.199   6.595   6.627
 5544SOL    HW217532   5.047   6.651   6.646
 5545SOL     OW17533   4.429   1.396   2.906
 5545SOL    HW117534   4.466   1.324   2.848
 5545SOL    HW217535   4.360   1.358   2.968
 5546SOL     OW17536   1.088   5.241   5.113
 5546SOL    HW117537   1.006   5.268   5.165
 5546SOL    HW217538   1.135   5.323   5.080
 5547SOL     OW17539   2.862   6.339   4.989
 5547SOL    HW117540   2.907   6.368   4.904
 5547SOL    HW217541   2.772   6.383   4.995
 5548SOL     OW17542   6.267   3.582   5.532
 5548SOL    HW117543   6.335   3.512   5.512
 5548SOL    HW217544   6.241   3.629   5.448
 5549SOL     OW17545   3.545   4.717   0.138
 5549SOL    HW117546   3.634   4.692   0.099
 5549SOL    HW217547   3.473   4.660   0.098
 5550SOL     OW17548   2.673   5.833   2.041
 5550SOL    HW117549   2.598   5.789   1.992
 5550SOL    HW217550   2.712   5.769   2.107
 5551SOL     OW17551   1.723   0.743   2.600
 5551SOL    HW117552   1.635   0.698   2.584
 5551SOL    HW217553   1.719   0.791   2.688
 5552SOL     OW17554   0.163   1.738   0.109
 5552SOL    HW117555   0.142   1.774   0.200
 5552SOL    HW217556   0.119   1.649   0.097
 5553SOL     OW17557   4.160   6.299   0.084
 5553SOL    HW117558   4.196   6.385   0.048
 5553SOL    HW217559   4.098   6.318   0.160
 5554SOL     OW17560   2.935   2.358   5.856
 5554SOL    HW117561   2.931   2.386   5.761
 5554SOL    HW217562   3.018   2.306   5.873
 5555SOL     OW17563   0.689   5.735   3.717
 5555SOL    HW117564   0.675   5.827   3.754
 5555SOL    HW217565   0.626   5.720   3.641
 5556SOL     OW17566   0.702   2.136   4.430
 5556SOL    HW117567   0.679   2.210   4.366
 5556SOL    HW217568   0.716   2.175   4.522
 5557SOL     OW17569   2.749   5.702   4.068
 5557SOL    HW117570   2.758   5.650   3.983
 5557SOL    HW217571   2.758   5.640   4.146
 5558SOL     OW17572   5.022   3.230   5.379
 5558SOL    HW117573   5.046   3.198   5.471
 5558SOL    HW217574   5.047   3.160   5.312
 5559SOL     OW17575   2.314   6.985   1.510
 5559SOL    HW117576   2.319   0.012   1.595
 5559SOL    HW217577   2.406   6.959   1.482
 5560SOL     OW17578   6.800   6.839   3.499
 5560SOL    HW117579   6.769   6.744   3.499
 5560SOL    HW217580   6.830   6.865   3.408
 5561SOL     OW17581   1.202   2.544   4.289
 5561SOL    HW117582   1.150   2.628   4.275
 5561SOL    HW217583   1.261   2.527   4.210
 5562SOL     OW17584   1.796   2.759   6.534
 5562SOL    HW117585   1.876   2.812   6.508
 5562SOL    HW217586   1.796   2.745   6.633
 5563SOL     OW17587   4.569   6.340   2.019
 5563SOL    HW117588   4.657   6.343   1.971
 5563SOL    HW217589   4.580   6.378   2.111
 5564SOL     OW17590   5.193   3.445   1.631
 5564SOL    HW117591   5.189   3.452   1.531
 5564SOL    HW217592   5.232   3.356   1.657
 5565SOL     OW17593   4.255   2.496   5.553
 5565SOL    HW117594   4.184   2.526   5.490
 5565SOL    HW217595   4.288   2.574   5.606
 5566SOL     OW17596   1.634   5.882   0.873
 5566SOL    HW117597   1.630   5.960   0.810
 5566SOL    HW217598   1.701   5.816   0.840
 5567SOL     OW17599   1.570   5.263   0.970
 5567SOL    HW117600   1.498   5.194   0.966
 5567SOL    HW217601   1.602   5.272   1.064
 5568SOL     OW17602   4.628   2.291   0.939
 5568SOL    HW117603   4.680   2.212   0.971
 5568SOL    HW217604   4.534   2.264   0.919
 5569SOL     OW17605   3.920   1.405   1.931
 5569SOL    HW117606   3.930   1.365   1.840
 5569SOL    HW217607   4.001   1.385   1.986
 5570SOL     OW17608   5.928   4.743   4.764
 5570SOL    HW117609   5.948   4.799   4.844
 5570SOL    HW217610   5.921   4.647   4.791
 5571SOL     OW17611   0.474   5.688   0.916
 5571SOL    HW117612   0.397   5.659   0.859
 5571SOL    HW217613   0.440   5.737   0.996
 5572SOL     OW17614   3.914   2.558   6.729
 5572SOL    HW117615   3.845   2.626   6.752
 5572SOL    HW217616   3.970   2.538   6.810
 5573SOL     OW17617   1.500   3.709   0.573
 5573SOL    HW117618   1.437   3.761   0.515
 5573SOL    HW217619   1.550   3.643   0.518
 5574SOL     OW17620   0.162   0.103   4.258
 5574SOL    HW117621   0.135   0.135   4.348
 5574SOL    HW217622   0.246   0.048   4.265
 5575SOL     OW17623   1.598   1.074   1.130
 5575SOL    HW117624   1.636   0.982   1.132
 5575SOL    HW217625   1.556   1.094   1.219
 5576SOL     OW17626   6.456   5.099   1.256
 5576SOL    HW117627   6.421   5.007   1.272
 5576SOL    HW217628   6.390   5.152   1.202
 5577SOL     OW17629   1.997   3.339   5.726
 5577SOL    HW117630   2.042   3.428   5.720
 5577SOL    HW217631   2.021   3.284   5.647
 5578SOL     OW17632   3.370   2.495   6.921
 5578SOL    HW117633   3.422   2.462   6.842
 5578SOL    HW217634   3.396   2.590   6.941
 5579SOL     OW17635   5.168   3.881   6.754
 5579SOL    HW117636   5.237   3.811   6.773
 5579SOL    HW217637   5.077   3.844   6.773
 5580SOL     OW17638   4.714   2.011   0.948
 5580SOL    HW117639   4.814   2.016   0.951
 5580SOL    HW217640   4.682   1.933   1.002
 5581SOL     OW17641   2.119   0.606   6.421
 5581SOL    HW117642   2.169   0.638   6.501
 5581SOL    HW217643   2.161   0.522   6.385
 5582SOL     OW17644   3.276   3.714   3.960
 5582SOL    HW117645   3.310   3.651   4.030
 5582SOL    HW217646   3.340   3.791   3.951
 5583SOL     OW17647   3.658   6.300   1.954
 5583SOL    HW117648   3.648   6.312   1.855
 5583SOL    HW217649   3.568   6.308   1.998
 5584SOL     OW17650   5.705   4.454   3.478
 5584SOL    HW117651   5.654   4.487   3.398
 5584SOL    HW217652   5.771   4.524   3.506
 5585SOL     OW17653   6.053   0.837   3.545
 5585SOL    HW117654   5.975   0.818   3.484
 5585SOL    HW217655   6.052   0.772   3.621
 5586SOL     OW17656   1.870   1.958   6.344
 5586SOL    HW117657   1.946   1.978   6.283
 5586SOL    HW217658   1.889   1.995   6.435
 5587SOL     OW17659   3.190   0.737   3.541
 5587SOL    HW117660   3.151   0.758   3.630
 5587SOL    HW217661   3.207   0.639   3.534
 5588SOL     OW17662   2.390   0.069   5.089
 5588SOL    HW117663   2.443   0.139   5.042
 5588SOL    HW217664   2.440   7.010   5.089
 5589SOL     OW17665   5.035   2.874   6.069
 5589SOL    HW117666   5.093   2.923   6.134
 5589SOL    HW217667   5.018   2.781   6.103
 5590SOL     OW17668   6.554   5.936   4.686
 5590SOL    HW117669   6.528   5.861   4.746
 5590SOL    HW217670   6.623   5.993   4.731
 5591SOL     OW17671   6.244   0.514   0.502
 5591SOL    HW117672   6.339   0.544   0.513
 5591SOL    HW217673   6.192   0.583   0.452
 5592SOL     OW17674   1.160   4.013   3.332
 5592SOL    HW117675   1.125   4.005   3.239
 5592SOL    HW217676   1.146   4.107   3.365
 5593SOL     OW17677   0.398   2.808   6.020
 5593SOL    HW117678   0.440   2.816   6.111
 5593SOL    HW217679   0.395   2.712   5.992
 5594SOL     OW17680   2.256   0.388   0.144
 5594SOL    HW117681   2.187   0.316   0.138
 5594SOL    HW217682   2.277   0.406   0.241
 5595SOL     OW17683   6.291   0.792   5.729
 5595SOL    HW117684   6.388   0.779   5.709
 5595SOL    HW217685   6.278   0.808   5.826
 5596SOL     OW17686   5.402   0.684   2.868
 5596SOL    HW117687   5.483   0.697   2.925
 5596SOL    HW217688   5.386   0.586   2.854
 5597SOL     OW17689   5.802   1.593   6.830
 5597SOL    HW117690   5.837   1.501   6.848
 5597SOL    HW217691   5.716   1.606   6.880
 5598SOL     OW17692   5.227   1.829   4.012
 5598SOL    HW117693   5.147   1.845   4.069
 5598SOL    HW217694   5.311   1.851   4.063
 5599SOL     OW17695   5.090   3.861   1.370
 5599SOL    HW117696   5.053   3.790   1.311
 5599SOL    HW217697   5.015   3.915   1.409
 5600SOL     OW17698   1.861   0.828   2.947
 5600SOL    HW117699   1.805   0.807   3.026
 5600SOL    HW217700   1.942   0.769   2.946
 5601SOL     OW17701   5.246   2.748   5.862
 5601SOL    HW117702   5.308   2.809   5.813
 5601SOL    HW217703   5.200   2.798   5.935
 5602SOL     OW17704   0.904   2.159   3.161
 5602SOL    HW117705   0.823   2.218   3.155
 5602SOL    HW217706   0.966   2.195   3.230
 5603SOL     OW17707   4.658   2.423   5.191
 5603SOL    HW117708   4.674   2.518   5.166
 5603SOL    HW217709   4.572   2.414   5.240
 5604SOL     OW17710   1.190   0.172   4.474
 5604SOL    HW117711   1.162   0.077   4.470
 5604SOL    HW217712   1.287   0.179   4.450
 5605SOL     OW17713   1.854   7.003   4.397
 5605SOL    HW117714   1.855   0.072   4.369
 5605SOL    HW217715   1.764   6.980   4.435
 5606SOL     OW17716   5.094   1.321   0.909
 5606SOL    HW117717   5.103   1.242   0.970
 5606SOL    HW217718   5.026   1.384   0.945
 5607SOL     OW17719   6.182   2.404   2.866
 5607SOL    HW117720   6.110   2.424   2.933
 5607SOL    HW217721   6.256   2.470   2.875
 5608SOL     OW17722   5.508   0.721   4.119
 5608SOL    HW117723   5.421   0.759   4.086
 5608SOL    HW217724   5.560   0.793   4.165
 5609SOL     OW17725   5.719   6.490   0.639
 5609SOL    HW117726   5.751   6.516   0.730
 5609SOL    HW217727   5.789   6.435   0.593
 5610SOL     OW17728   5.392   4.117   0.102
 5610SOL    HW117729   5.379   4.150   0.196
 5610SOL    HW217730   5.326   4.162   0.042
 5611SOL     OW17731   0.586   5.077   1.649
 5611SOL    HW117732   0.529   5.106   1.572
 5611SOL    HW217733   0.681   5.101   1.629
 5612SOL     OW17734   2.837   1.774   0.318
 5612SOL    HW117735   2.864   1.742   0.227
 5612SOL    HW217736   2.737   1.770   0.326
 5613SOL     OW17737   0.156   5.301   5.041
 5613SOL    HW117738   0.236   5.324   4.985
 5613SOL    HW217739   0.159   5.354   5.126
 5614SOL     OW17740   5.795   1.831   4.819
 5614SOL    HW117741   5.875   1.891   4.814
 5614SOL    HW217742   5.769   1.819   4.915
 5615SOL     OW17743   0.169   2.420   2.408
 5615SOL    HW117744   0.103   2.443   2.336
 5615SOL    HW217745   0.174   2.496   2.473
 5616SOL     OW17746   1.757   2.785   4.094
 5616SOL    HW117747   1.850   2.758   4.118
 5616SOL    HW217748   1.708   2.813   4.176
 5617SOL     OW17749   1.861   5.245   5.830
 5617SOL    HW117750   1.944   5.205   5.790
 5617SOL    HW217751   1.866   5.241   5.929
 5618SOL     OW17752   6.854   5.260   4.255
 5618SOL    HW117753   6.851   5.161   4.267
 5618SOL    HW217754   6.790   5.304   4.318
 5619SOL     OW17755   3.570   3.397   4.040
 5619SOL    HW117756   3.492   3.440   4.085
 5619SOL    HW217757   3.562   3.408   3.941
 5620SOL     OW17758   4.074   4.389   5.915
 5620SOL    HW117759   4.066   4.336   6.000
 5620SOL    HW217760   3.990   4.379   5.862
 5621SOL     OW17761   1.607   2.529   5.207
 5621SOL    HW117762   1.585   2.623   5.180
 5621SOL    HW217763   1.690   2.500   5.159
 5622SOL     OW17764   4.486   5.489   4.702
 5622SOL    HW117765   4.585   5.489   4.686
 5622SOL    HW217766   4.452   5.395   4.701
 5623SOL     OW17767   4.845   6.045   4.297
 5623SOL    HW117768   4.775   6.088   4.353
 5623SOL    HW217769   4.836   5.945   4.305
 5624SOL     OW17770   6.797   5.392   3.670
 5624SOL    HW117771   6.780   5.420   3.575
 5624SOL    HW217772   6.712   5.360   3.711
 5625SOL     OW17773   1.360   5.440   4.630
 5625SOL    HW117774   1.391   5.368   4.568
 5625SOL    HW217775   1.310   5.399   4.706
 5626SOL     OW17776   2.154   4.094   4.307
 5626SOL    HW117777   2.093   4.172   4.322
 5626SOL    HW217778   2.227   4.096   4.376
 5627SOL     OW17779   1.503   5.683   0.403
 5627SOL    HW117780   1.500   5.783   0.396
 5627SOL    HW217781   1.588   5.649   0.363
 5628SOL     OW17782   3.137   2.991   0.857
 5628SOL    HW117783   3.087   3.021   0.776
 5628SOL    HW217784   3.181   3.070   0.900
 5629SOL     OW17785   4.674   3.613   0.879
 5629SOL    HW117786   4.625   3.600   0.965
 5629SOL    HW217787   4.614   3.656   0.812
 5630SOL     OW17788   1.616   4.604   6.415
 5630SOL    HW117789   1.658   4.524   6.459
 5630SOL    HW217790   1.653   4.688   6.456
 5631SOL     OW17791   4.403   0.572   1.823
 5631SOL    HW117792   4.398   0.551   1.920
 5631SOL    HW217793   4.349   0.654   1.804
 5632SOL     OW17794   5.611   0.432   6.479
 5632SOL    HW117795   5.620   0.435   6.379
 5632SOL    HW217796   5.682   0.372   6.517
 5633SOL     OW17797   0.564   4.883   5.590
 5633SOL    HW117798   0.659   4.856   5.576
 5633SOL    HW217799   0.542   4.961   5.531
 5634SOL     OW17800   3.100   5.612   5.766
 5634SOL    HW117801   3.197   5.619   5.740
 5634SOL    HW217802   3.042   5.626   5.686
 5635SOL     OW17803   2.428   6.879   6.659
 5635SOL    HW117804   2.502   6.934   6.697
 5635SOL    HW217805   2.461   6.787   6.638
 5636SOL     OW17806   6.197   0.840   5.485
 5636SOL    HW117807   6.224   0.805   5.574
 5636SOL    HW217808   6.128   0.912   5.496
 5637SOL     OW17809   5.278   5.902   5.278
 5637SOL    HW117810   5.195   5.888   5.332
 5637SOL    HW217811   5.307   5.998   5.287
 5638SOL     OW17812   5.020   5.876   1.039
 5638SOL    HW117813   5.052   5.781   1.040
 5638SOL    HW217814   4.957   5.889   0.963
 5639SOL     OW17815   1.838   6.959   1.477
 5639SOL    HW117816   1.934   6.954   1.450
 5639SOL    HW217817   1.813   0.028   1.493
 5640SOL     OW17818   2.403   6.510   3.256
 5640SOL    HW117819   2.465   6.445   3.213
 5640SOL    HW217820   2.426   6.519   3.353
 5641SOL     OW17821   1.407   5.067   4.667
 5641SOL    HW117822   1.336   5.110   4.612
 5641SOL    HW217823   1.496   5.107   4.644
 5642SOL     OW17824   0.671   4.819   6.037
 5642SOL    HW117825   0.627   4.747   5.983
 5642SOL    HW217826   0.661   4.907   5.991
 5643SOL     OW17827   3.932   2.142   4.717
 5643SOL    HW117828   4.000   2.174   4.784
 5643SOL    HW217829   3.932   2.203   4.638
 5644SOL     OW17830   4.863   1.694   4.507
 5644SOL    HW117831   4.822   1.725   4.593
 5644SOL    HW217832   4.922   1.765   4.470
 5645SOL     OW17833   5.215   4.770   2.393
 5645SOL    HW117834   5.255   4.812   2.311
 5645SOL    HW217835   5.135   4.822   2.421
 5646SOL     OW17836   0.511   5.680   3.532
 5646SOL    HW117837   0.421   5.680   3.575
 5646SOL    HW217838   0.507   5.731   3.446
 5647SOL     OW17839   6.609   5.783   0.131
 5647SOL    HW117840   6.513   5.758   0.145
 5647SOL    HW217841   6.668   5.711   0.167
 5648SOL     OW17842   1.932   1.188   3.338
 5648SOL    HW117843   1.843   1.142   3.329
 5648SOL    HW217844   1.926   1.280   3.299
 5649SOL     OW17845   2.150   0.508   4.893
 5649SOL    HW117846   2.056   0.508   4.928
 5649SOL    HW217847   2.215   0.506   4.969
 5650SOL     OW17848   6.995   4.787   1.021
 5650SOL    HW117849   6.960   4.806   1.112
 5650SOL    HW217850   0.019   4.866   0.987
 5651SOL     OW17851   0.902   1.888   1.719
 5651SOL    HW117852   0.802   1.889   1.716
 5651SOL    HW217853   0.932   1.866   1.812
 5652SOL     OW17854   5.736   5.858   1.811
 5652SOL    HW117855   5.755   5.830   1.717
 5652SOL    HW217856   5.650   5.908   1.815
 5653SOL     OW17857   6.825   6.308   6.167
 5653SOL    HW117858   6.906   6.314   6.225
 5653SOL    HW217859   6.756   6.252   6.213
 5654SOL     OW17860   0.129   0.426   5.883
 5654SOL    HW117861   0.165   0.509   5.842
 5654SOL    HW217862   0.185   0.348   5.856
 5655SOL     OW17863   1.378   3.020   4.036
 5655SOL    HW117864   1.390   2.942   3.974
 5655SOL    HW217865   1.367   2.988   4.129
 5656SOL     OW17866   3.343   4.437   0.920
 5656SOL    HW117867   3.259   4.411   0.968
 5656SOL    HW217868   3.325   4.443   0.822
 5657SOL     OW17869   5.261   6.467   1.296
 5657SOL    HW117870   5.212   6.503   1.216
 5657SOL    HW217871   5.198   6.412   1.352
 5658SOL     OW17872   3.389   6.713   5.430
 5658SOL    HW117873   3.327   6.684   5.504
 5658SOL    HW217874   3.483   6.708   5.462
 5659SOL     OW17875   2.900   3.389   3.079
 5659SOL    HW117876   2.922   3.379   2.982
 5659SOL    HW217877   2.804   3.365   3.094
 5660SOL     OW17878   5.441   0.343   0.494
 5660SOL    HW117879   5.531   0.367   0.458
 5660SOL    HW217880   5.377   0.418   0.477
 5661SOL     OW17881   6.757   5.907   5.310
 5661SOL    HW117882   6.796   5.816   5.322
 5661SOL    HW217883   6.675   5.916   5.367
 5662SOL     OW17884   2.587   4.542   4.015
 5662SOL    HW117885   2.643   4.476   4.065
 5662SOL    HW217886   2.563   4.505   3.926
 5663SOL     OW17887   0.779   3.981   0.233
 5663SOL    HW117888   0.874   3.949   0.225
 5663SOL    HW217889   0.717   3.905   0.221
 5664SOL     OW17890   0.519   4.776   3.414
 5664SOL    HW117891   0.525   4.774   3.314
 5664SOL    HW217892   0.423   4.787   3.441
 5665SOL     OW17893   1.405   2.342   6.415
 5665SOL    HW117894   1.503   2.346   6.432
 5665SOL    HW217895   1.362   2.427   6.448
 5666SOL     OW17896   4.784   5.592   0.758
 5666SOL    HW117897   4.857   5.543   0.711
 5666SOL    HW217898   4.750   5.536   0.834
 5667SOL     OW17899   0.784   4.814   3.151
 5667SOL    HW117900   0.697   4.765   3.143
 5667SOL    HW217901   0.806   4.828   3.247
 5668SOL     OW17902   4.882   1.413   6.596
 5668SOL    HW117903   4.836   1.357   6.665
 5668SOL    HW217904   4.980   1.395   6.599
 5669SOL     OW17905   0.154   5.009   5.951
 5669SOL    HW117906   0.206   5.093   5.964
 5669SOL    HW217907   0.212   4.941   5.904
 5670SOL     OW17908   0.234   3.199   3.739
 5670SOL    HW117909   0.324   3.175   3.775
 5670SOL    HW217910   0.170   3.214   3.814
 5671SOL     OW17911   1.854   6.264   6.435
 5671SOL    HW117912   1.890   6.191   6.493
 5671SOL    HW217913   1.854   6.234   6.339
 5672SOL     OW17914   4.600   3.724   5.808
 5672SOL    HW117915   4.565   3.642   5.763
 5672SOL    HW217916   4.697   3.736   5.786
 5673SOL     OW17917   0.194   0.516   2.296
 5673SOL    HW117918   0.271   0.495   2.235
 5673SOL    HW217919   0.109   0.515   2.243
 5674SOL     OW17920   6.905   3.856   1.721
 5674SOL    HW117921   6.860   3.767   1.728
 5674SOL    HW217922   6.854   3.913   1.656
 5675SOL     OW17923   4.268   2.241   5.445
 5675SOL    HW117924   4.347   2.181   5.460
 5675SOL    HW217925   4.283   2.327   5.493
 5676SOL     OW17926   2.283   1.158   0.803
 5676SOL    HW117927   2.221   1.125   0.874
 5676SOL    HW217928   2.284   1.258   0.804
 5677SOL     OW17929   6.875   1.346   2.999
 5677SOL    HW117930   6.877   1.397   3.085
 5677SOL    HW217931   6.968   1.339   2.963
 5678SOL     OW17932   3.188   6.238   3.090
 5678SOL    HW117933   3.146   6.249   3.180
 5678SOL    HW217934   3.263   6.303   3.080
 5679SOL     OW17935   1.471   6.840   4.666
 5679SOL    HW117936   1.420   6.799   4.742
 5679SOL    HW217937   1.481   6.773   4.593
 5680SOL     OW17938   1.859   5.511   7.007
 5680SOL    HW117939   1.803   5.428   6.999
 5680SOL    HW217940   1.907   5.509   0.068
 5681SOL     OW17941   0.729   3.186   6.617
 5681SOL    HW117942   0.734   3.086   6.621
 5681SOL    HW217943   0.759   3.224   6.704
 5682SOL     OW17944   1.630   2.849   5.603
 5682SOL    HW117945   1.643   2.796   5.687
 5682SOL    HW217946   1.658   2.793   5.525
 5683SOL     OW17947   3.847   2.545   6.100
 5683SOL    HW117948   3.859   2.626   6.156
 5683SOL    HW217949   3.879   2.564   6.007
 5684SOL     OW17950   3.937   3.251   4.140
 5684SOL    HW117951   3.933   3.219   4.235
 5684SOL    HW217952   3.871   3.200   4.085
 5685SOL     OW17953   0.505   4.707   2.002
 5685SOL    HW117954   0.526   4.792   1.954
 5685SOL    HW217955   0.436   4.656   1.951
 5686SOL     OW17956   3.320   0.637   0.303
 5686SOL    HW117957   3.295   0.719   0.253
 5686SOL    HW217958   3.333   0.660   0.400
 5687SOL     OW17959   6.568   4.694   4.640
 5687SOL    HW117960   6.538   4.619   4.581
 5687SOL    HW217961   6.547   4.672   4.736
 5688SOL     OW17962   6.601   2.134   0.857
 5688SOL    HW117963   6.656   2.071   0.801
 5688SOL    HW217964   6.537   2.082   0.913
 5689SOL     OW17965   4.027   1.555   1.144
 5689SOL    HW117966   4.026   1.584   1.240
 5689SOL    HW217967   4.009   1.633   1.085
 5690SOL     OW17968   3.556   5.825   0.887
 5690SOL    HW117969   3.485   5.878   0.933
 5690SOL    HW217970   3.542   5.727   0.905
 5691SOL     OW17971   2.769   6.316   2.131
 5691SOL    HW117972   2.805   6.324   2.224
 5691SOL    HW217973   2.709   6.236   2.125
 5692SOL     OW17974   6.447   1.936   6.416
 5692SOL    HW117975   6.432   1.900   6.324
 5692SOL    HW217976   6.400   2.023   6.426
 5693SOL     OW17977   5.027   2.406   2.172
 5693SOL    HW117978   5.017   2.306   2.176
 5693SOL    HW217979   4.953   2.449   2.223
 5694SOL     OW17980   0.829   1.276   3.540
 5694SOL    HW117981   0.742   1.325   3.549
 5694SOL    HW217982   0.815   1.193   3.485
 5695SOL     OW17983   0.993   2.243   2.822
 5695SOL    HW117984   1.070   2.198   2.866
 5695SOL    HW217985   1.027   2.320   2.767
 5696SOL     OW17986   2.781   1.013   4.373
 5696SOL    HW117987   2.798   1.084   4.441
 5696SOL    HW217988   2.864   0.998   4.319
 5697SOL     OW17989   6.769   2.524   1.438
 5697SOL    HW117990   6.785   2.585   1.516
 5697SOL    HW217991   6.769   2.578   1.353
 5698SOL     OW17992   0.178   2.155   2.198
 5698SOL    HW117993   0.207   2.236   2.249
 5698SOL    HW217994   0.258   2.110   2.159
 5699SOL     OW17995   6.044   1.832   3.837
 5699SOL    HW117996   6.139   1.863   3.829
 5699SOL    HW217997   6.014   1.841   3.932
 5700SOL     OW17998   0.003   6.288   4.663
 5700SOL    HW117999   0.007   6.216   4.732
 5700SOL    HW218000   0.094   6.304   4.625
 5701SOL     OW18001   0.662   5.765   3.133
 5701SOL    HW118002   0.732   5.769   3.062
 5701SOL    HW218003   0.652   5.671   3.165
 5702SOL     OW18004   2.048   0.126   6.102
 5702SOL    HW118005   2.061   0.168   6.192
 5702SOL    HW218006   2.096   0.039   6.098
 5703SOL     OW18007   4.259   4.836   6.829
 5703SOL    HW118008   4.341   4.786   6.802
 5703SOL    HW218009   4.284   4.911   6.890
 5704SOL     OW18010   4.344   5.716   2.537
 5704SOL    HW118011   4.408   5.770   2.483
 5704SOL    HW218012   4.344   5.747   2.632
 5705SOL     OW18013   6.300   0.807   0.754
 5705SOL    HW118014   6.297   0.755   0.839
 5705SOL    HW218015   6.357   0.889   0.766
 5706SOL     OW18016   1.786   1.767   0.152
 5706SOL    HW118017   1.694   1.766   0.191
 5706SOL    HW218018   1.827   1.677   0.160
 5707SOL     OW18019   1.181   0.153   6.731
 5707SOL    HW118020   1.216   0.060   6.735
 5707SOL    HW218021   1.115   0.161   6.657
 5708SOL     OW18022   5.523   0.374   2.163
 5708SOL    HW118023   5.425   0.393   2.157
 5708SOL    HW218024   5.574   0.458   2.145
 5709SOL     OW18025   0.448   5.840   3.323
 5709SOL    HW118026   0.361   5.811   3.282
 5709SOL    HW218027   0.499   5.896   3.258
 5710SOL     OW18028   2.795   3.696   5.333
 5710SOL    HW118029   2.861   3.679   5.406
 5710SOL    HW218030   2.723   3.757   5.367
 5711SOL     OW18031   4.713   0.212   3.868
 5711SOL    HW118032   4.778   0.186   3.796
 5711SOL    HW218033   4.623   0.227   3.828
 5712SOL     OW18034   0.938   6.987   5.678
 5712SOL    HW118035   0.998   0.036   5.702
 5712SOL    HW218036   0.921   6.931   5.758
 5713SOL     OW18037   1.106   2.211   1.152
 5713SOL    HW118038   1.021   2.212   1.204
 5713SOL    HW218039   1.178   2.255   1.205
 5714SOL     OW18040   1.086   6.660   6.557
 5714SOL    HW118041   1.030   6.742   6.565
 5714SOL    HW218042   1.169   6.670   6.612
 5715SOL     OW18043   1.165   5.939   3.187
 5715SOL    HW118044   1.210   5.881   3.256
 5715SOL    HW218045   1.224   6.016   3.164
 5716SOL     OW18046   0.831   4.073   5.318
 5716SOL    HW118047   0.792   4.045   5.406
 5716SOL    HW218048   0.834   4.173   5.314
 5717SOL     OW18049   1.872   5.045   0.584
 5717SOL    HW118050   1.825   4.963   0.551
 5717SOL    HW218051   1.867   5.049   0.683
 5718SOL     OW18052   1.904   4.340   6.759
 5718SOL    HW118053   1.905   4.307   6.854
 5718SOL    HW218054   1.935   4.435   6.757
 5719SOL     OW18055   3.045   1.072   5.704
 5719SOL    HW118056   3.131   1.034   5.740
 5719SOL    HW218057   3.065   1.127   5.623
 5720SOL     OW18058   0.463   5.258   5.105
 5720SOL    HW118059   0.517   5.306   5.174
 5720SOL    HW218060   0.518   5.241   5.024
 5721SOL     OW18061   1.066   3.395   0.142
 5721SOL    HW118062   1.053   3.403   0.043
 5721SOL    HW218063   1.045   3.302   0.171
 5722SOL     OW18064   5.137   1.280   4.596
 5722SOL    HW118065   5.039   1.277   4.617
 5722SOL    HW218066   5.158   1.212   4.526
 5723SOL     OW18067   4.538   4.677   0.647
 5723SOL    HW118068   4.481   4.598   0.625
 5723SOL    HW218069   4.497   4.729   0.722
 5724SOL     OW18070   3.779   2.500   5.493
 5724SOL    HW118071   3.690   2.514   5.535
 5724SOL    HW218072   3.815   2.410   5.520
 5725SOL     OW18073   4.749   5.752   3.374
 5725SOL    HW118074   4.830   5.705   3.409
 5725SOL    HW218075   4.775   5.808   3.295
 5726SOL     OW18076   6.988   3.209   3.857
 5726SOL    HW118077   6.974   3.164   3.946
 5726SOL    HW218078   6.912   3.271   3.839
 5727SOL     OW18079   5.954   3.471   2.788
 5727SOL    HW118080   5.881   3.517   2.738
 5727SOL    HW218081   6.038   3.525   2.782
 5728SOL     OW18082   5.330   1.518   6.908
 5728SOL    HW118083   5.284   1.607   6.908
 5728SOL    HW218084   5.310   1.470   6.993
 5729SOL     OW18085   1.296   1.687   1.180
 5729SOL    HW118086   1.339   1.776   1.190
 5729SOL    HW218087   1.197   1.695   1.195
 5730SOL     OW18088   3.953   5.441   5.463
 5730SOL    HW118089   3.868   5.450   5.411
 5730SOL    HW218090   3.994   5.352   5.443
 5731SOL     OW18091   1.442   6.389   3.750
 5731SOL    HW118092   1.344   6.410   3.758
 5731SOL    HW218093   1.453   6.302   3.702
 5732SOL     OW18094   5.984   4.875   5.010
 5732SOL    HW118095   6.035   4.800   5.050
 5732SOL    HW218096   5.948   4.934   5.082
 5733SOL     OW18097   3.606   1.126   6.088
 5733SOL    HW118098   3.673   1.054   6.108
 5733SOL    HW218099   3.616   1.155   5.993
 5734SOL     OW18100   0.974   0.306   5.450
 5734SOL    HW118101   0.993   0.235   5.383
 5734SOL    HW218102   1.060   0.340   5.489
 5735SOL     OW18103   3.941   1.035   2.513
 5735SOL    HW118104   4.003   0.958   2.527
 5735SOL    HW218105   3.851   1.001   2.484
 5736SOL     OW18106   5.288   4.399   6.558
 5736SOL    HW118107   5.252   4.482   6.514
 5736SOL    HW218108   5.387   4.406   6.566
 5737SOL     OW18109   5.274   5.989   1.109
 5737SOL    HW118110   5.343   5.999   1.038
 5737SOL    HW218111   5.191   5.950   1.070
 5738SOL     OW18112   3.876   1.375   6.724
 5738SOL    HW118113   3.972   1.353   6.708
 5738SOL    HW218114   3.848   1.448   6.661
 5739SOL     OW18115   1.642   6.632   5.286
 5739SOL    HW118116   1.561   6.674   5.328
 5739SOL    HW218117   1.631   6.533   5.286
 5740SOL     OW18118   5.059   3.622   0.642
 5740SOL    HW118119   5.038   3.702   0.586
 5740SOL    HW218120   5.008   3.543   0.607
 5741SOL     OW18121   0.151   3.602   3.824
 5741SOL    HW118122   0.152   3.542   3.744
 5741SOL    HW218123   0.065   3.591   3.873
 5742SOL     OW18124   4.167   0.240   3.451
 5742SOL    HW118125   4.156   0.258   3.353
 5742SOL    HW218126   4.097   0.175   3.480
 5743SOL     OW18127   3.511   4.538   6.039
 5743SOL    HW118128   3.529   4.616   5.979
 5743SOL    HW218129   3.554   4.553   6.127
 5744SOL     OW18130   6.161   0.965   2.832
 5744SOL    HW118131   6.170   0.874   2.791
 5744SOL    HW218132   6.065   0.990   2.836
 5745SOL     OW18133   2.600   1.527   3.688
 5745SOL    HW118134   2.551   1.571   3.764
 5745SOL    HW218135   2.566   1.434   3.677
 5746SOL     OW18136   4.665   0.185   3.292
 5746SOL    HW118137   4.624   0.150   3.377
 5746SOL    HW218138   4.740   0.124   3.265
 5747SOL     OW18139   0.558   6.215   1.847
 5747SOL    HW118140   0.607   6.287   1.896
 5747SOL    HW218141   0.466   6.247   1.824
 5748SOL     OW18142   1.012   0.227   0.670
 5748SOL    HW118143   0.985   0.190   0.581
 5748SOL    HW218144   1.067   0.159   0.719
 5749SOL     OW18145   1.874   6.449   4.879
 5749SOL    HW118146   1.841   6.499   4.959
 5749SOL    HW218147   1.797   6.404   4.834
 5750SOL     OW18148   6.025   5.144   5.904
 5750SOL    HW118149   6.046   5.060   5.955
 5750SOL    HW218150   6.040   5.223   5.963
 5751SOL     OW18151   1.726   3.463   4.793
 5751SOL    HW118152   1.672   3.396   4.843
 5751SOL    HW218153   1.740   3.544   4.850
 5752SOL     OW18154   6.001   6.996   1.154
 5752SOL    HW118155   5.903   6.996   1.131
 5752SOL    HW218156   6.047   0.044   1.106
 5753SOL     OW18157   3.174   3.607   5.155
 5753SOL    HW118158   3.105   3.571   5.093
 5753SOL    HW218159   3.251   3.543   5.159
 5754SOL     OW18160   1.190   5.807   1.863
 5754SOL    HW118161   1.257   5.827   1.934
 5754SOL    HW218162   1.197   5.874   1.789
 5755SOL     OW18163   1.381   1.921   5.819
 5755SOL    HW118164   1.306   1.986   5.801
 5755SOL    HW218165   1.403   1.921   5.916
 5756SOL     OW18166   6.863   0.340   3.294
 5756SOL    HW118167   6.819   0.426   3.270
 5756SOL    HW218168   6.873   0.335   3.394
 5757SOL     OW18169   0.319   5.748   4.043
 5757SOL    HW118170   0.269   5.776   3.961
 5757SOL    HW218171   0.317   5.648   4.051
 5758SOL     OW18172   2.519   0.798   3.458
 5758SOL    HW118173   2.478   0.870   3.513
 5758SOL    HW218174   2.569   0.735   3.517
 5759SOL     OW18175   4.420   0.437   1.551
 5759SOL    HW118176   4.372   0.363   1.598
 5759SOL    HW218177   4.490   0.398   1.491
 5760SOL     OW18178   6.623   2.480   2.402
 5760SOL    HW118179   6.577   2.471   2.490
 5760SOL    HW218180   6.635   2.577   2.380
 5761SOL     OW18181   5.154   5.438   5.484
 5761SOL    HW118182   5.225   5.441   5.554
 5761SOL    HW218183   5.189   5.480   5.400
 5762SOL     OW18184   4.749   4.230   0.243
 5762SOL    HW118185   4.729   4.152   0.182
 5762SOL    HW218186   4.704   4.312   0.207
 5763SOL     OW18187   5.432   5.921   0.505
 5763SOL    HW118188   5.474   5.832   0.517
 5763SOL    HW218189   5.498   5.993   0.529
 5764SOL     OW18190   4.373   5.363   4.070
 5764SOL    HW118191   4.447   5.349   4.136
 5764SOL    HW218192   4.348   5.276   4.029
 5765SOL     OW18193   6.758   3.325   1.016
 5765SOL    HW118194   6.808   3.333   1.101
 5765SOL    HW218195   6.683   3.391   1.014
 5766SOL     OW18196   2.239   1.937   4.653
 5766SOL    HW118197   2.144   1.960   4.673
 5766SOL    HW218198   2.243   1.874   4.576
 5767SOL     OW18199   2.394   0.011   6.958
 5767SOL    HW118200   2.335   0.015   0.012
 5767SOL    HW218201   2.481   6.995   6.982
 5768SOL     OW18202   0.334   6.923   3.592
 5768SOL    HW118203   0.357   6.889   3.683
 5768SOL    HW218204   0.240   6.899   3.570
 5769SOL     OW18205   2.883   5.796   5.026
 5769SOL    HW118206   2.838   5.753   4.948
 5769SOL    HW218207   2.841   5.763   5.111
 5770SOL     OW18208   6.898   6.459   0.065
 5770SOL    HW118209   6.945   6.373   0.043
 5770SOL    HW218210   6.915   6.526   7.019
 5771SOL     OW18211   1.883   0.280   4.321
 5771SOL    HW118212   1.875   0.321   4.412
 5771SOL    HW218213   1.945   0.334   4.266
 5772SOL     OW18214   5.064   1.094   1.475
 5772SOL    HW118215   5.156   1.132   1.461
 5772SOL    HW218216   5.016   1.149   1.543
 5773SOL     OW18217   4.460   0.854   3.018
 5773SOL    HW118218   4.529   0.816   2.958
 5773SOL    HW218219   4.414   0.780   3.067
 5774SOL     OW18220   1.814   0.468   4.539
 5774SOL    HW118221   1.898   0.517   4.515
 5774SOL    HW218222   1.738   0.533   4.545
 5775SOL     OW18223   0.931   6.723   2.791
 5775SOL    HW118224   1.014   6.730   2.846
 5775SOL    HW218225   0.905   6.814   2.759
 5776SOL     OW18226   1.138   0.276   3.870
 5776SOL    HW118227   1.221   0.331   3.869
 5776SOL    HW218228   1.152   0.196   3.928
 5777SOL     OW18229   0.657   6.942   3.671
 5777SOL    HW118230   0.617   6.973   3.757
 5777SOL    HW218231   0.585   6.911   3.609
 5778SOL     OW18232   1.548   0.836   0.536
 5778SOL    HW118233   1.550   0.869   0.442
 5778SOL    HW218234   1.642   0.825   0.569
 5779SOL     OW18235   4.597   2.433   0.350
 5779SOL    HW118236   4.677   2.483   0.316
 5779SOL    HW218237   4.625   2.373   0.425
 5780SOL     OW18238   5.205   6.067   4.752
 5780SOL    HW118239   5.142   6.054   4.676
 5780SOL    HW218240   5.259   5.984   4.766
 5781SOL     OW18241   6.159   5.011   4.317
 5781SOL    HW118242   6.234   4.946   4.333
 5781SOL    HW218243   6.129   5.048   4.404
 5782SOL     OW18244   1.544   1.775   0.283
 5782SOL    HW118245   1.503   1.715   0.352
 5782SOL    HW218246   1.564   1.864   0.324
 5783SOL     OW18247   0.884   0.833   2.376
 5783SOL    HW118248   0.820   0.783   2.318
 5783SOL    HW218249   0.969   0.848   2.326
 5784SOL     OW18250   0.761   6.505   5.339
 5784SOL    HW118251   0.770   6.584   5.279
 5784SOL    HW218252   0.665   6.477   5.343
 5785SOL     OW18253   1.758   2.378   0.383
 5785SOL    HW118254   1.664   2.363   0.412
 5785SOL    HW218255   1.804   2.438   0.448
 5786SOL     OW18256   6.572   4.216   0.659
 5786SOL    HW118257   6.610   4.124   0.669
 5786SOL    HW218258   6.546   4.231   0.564
 5787SOL     OW18259   2.102   2.446   5.431
 5787SOL    HW118260   2.012   2.426   5.470
 5787SOL    HW218261   2.135   2.367   5.381
 5788SOL     OW18262   2.789   1.139   2.297
 5788SOL    HW118263   2.812   1.078   2.373
 5788SOL    HW218264   2.851   1.218   2.297
 5789SOL     OW18265   3.487   4.870   6.965
 5789SOL    HW118266   3.559   4.914   6.911
 5789SOL    HW218267   3.527   4.830   0.021
 5790SOL     OW18268   1.786   4.061   4.097
 5790SOL    HW118269   1.847   4.131   4.134
 5790SOL    HW218270   1.840   3.995   4.044
 5791SOL     OW18271   3.919   0.532   2.408
 5791SOL    HW118272   3.963   0.452   2.447
 5791SOL    HW218273   3.963   0.615   2.443
 5792SOL     OW18274   6.736   2.451   3.073
 5792SOL    HW118275   6.791   2.486   3.149
 5792SOL    HW218276   6.758   2.501   2.990
 5793SOL     OW18277   5.195   0.440   4.282
 5793SOL    HW118278   5.119   0.424   4.345
 5793SOL    HW218279   5.192   0.374   4.207
 5794SOL     OW18280   3.738   2.019   0.739
 5794SOL    HW118281   3.695   1.992   0.826
 5794SOL    HW218282   3.666   2.036   0.672
 5795SOL     OW18283   6.579   6.224   6.885
 5795SOL    HW118284   6.592   6.142   6.941
 5795SOL    HW218285   6.520   6.201   6.808
 5796SOL     OW18286   3.772   0.830   0.200
 5796SOL    HW118287   3.861   0.853   0.160
 5796SOL    HW218288   3.706   0.901   0.176
 5797SOL     OW18289   4.439   1.750   5.576
 5797SOL    HW118290   4.532   1.742   5.613
 5797SOL    HW218291   4.375   1.766   5.650
 5798SOL     OW18292   0.746   4.772   4.834
 5798SOL    HW118293   0.803   4.706   4.882
 5798SOL    HW218294   0.658   4.780   4.881
 5799SOL     OW18295   5.370   1.277   3.621
 5799SOL    HW118296   5.270   1.285   3.631
 5799SOL    HW218297   5.412   1.281   3.712
 5800SOL     OW18298   6.023   6.210   1.168
 5800SOL    HW118299   6.006   6.239   1.262
 5800SOL    HW218300   6.086   6.132   1.169
 5801SOL     OW18301   1.791   2.514   4.266
 5801SOL    HW118302   1.724   2.507   4.193
 5801SOL    HW218303   1.859   2.441   4.256
 5802SOL     OW18304   1.123   4.556   1.469
 5802SOL    HW118305   1.118   4.516   1.377
 5802SOL    HW218306   1.183   4.636   1.467
 5803SOL     OW18307   1.496   4.627   2.169
 5803SOL    HW118308   1.564   4.644   2.097
 5803SOL    HW218309   1.517   4.541   2.214
 5804SOL     OW18310   0.250   5.453   4.013
 5804SOL    HW118311   0.186   5.447   3.936
 5804SOL    HW218312   0.214   5.402   4.091
 5805SOL     OW18313   2.637   3.418   6.012
 5805SOL    HW118314   2.731   3.430   5.982
 5805SOL    HW218315   2.589   3.355   5.951
 5806SOL     OW18316   6.768   6.125   5.961
 5806SOL    HW118317   6.806   6.195   6.021
 5806SOL    HW218318   6.670   6.140   5.950
 5807SOL     OW18319   0.931   3.906   1.945
 5807SOL    HW118320   0.833   3.899   1.960
 5807SOL    HW218321   0.960   3.836   1.880
 5808SOL     OW18322   6.076   4.579   4.458
 5808SOL    HW118323   6.031   4.644   4.397
 5808SOL    HW218324   6.126   4.628   4.529
 5809SOL     OW18325   6.714   2.064   4.651
 5809SOL    HW118326   6.689   2.117   4.570
 5809SOL    HW218327   6.801   2.097   4.687
 5810SOL     OW18328   3.782   1.612   4.050
 5810SOL    HW118329   3.768   1.669   3.969
 5810SOL    HW218330   3.824   1.526   4.023
 5811SOL     OW18331   3.128   0.507   5.765
 5811SOL    HW118332   3.152   0.428   5.823
 5811SOL    HW218333   3.202   0.574   5.769
 5812SOL     OW18334   6.079   1.604   4.024
 5812SOL    HW118335   6.072   1.630   4.120
 5812SOL    HW218336   6.147   1.662   3.979
 5813SOL     OW18337   1.918   1.517   0.995
 5813SOL    HW118338   1.840   1.567   1.032
 5813SOL    HW218339   1.892   1.422   0.980
 5814SOL     OW18340   6.360   4.521   1.323
 5814SOL    HW118341   6.296   4.520   1.246
 5814SOL    HW218342   6.382   4.428   1.349
 5815SOL     OW18343   4.640   2.651   4.062
 5815SOL    HW118344   4.549   2.619   4.035
 5815SOL    HW218345   4.644   2.660   4.161
 5816SOL     OW18346   4.404   5.936   0.126
 5816SOL    HW118347   4.422   5.912   0.221
 5816SOL    HW218348   4.413   6.035   0.115
 5817SOL     OW18349   5.387   3.435   6.478
 5817SOL    HW118350   5.309   3.481   6.520
 5817SOL    HW218351   5.463   3.434   6.543
 5818SOL     OW18352   6.691   5.530   4.871
 5818SOL    HW118353   6.734   5.442   4.891
 5818SOL    HW218354   6.655   5.529   4.778
 5819SOL     OW18355   4.285   6.515   7.013
 5819SOL    HW118356   4.292   6.613   6.994
 5819SOL    HW218357   4.360   6.467   6.967
 5820SOL     OW18358   4.150   5.714   4.324
 5820SOL    HW118359   4.114   5.778   4.391
 5820SOL    HW218360   4.239   5.680   4.354
 5821SOL     OW18361   0.067   0.312   2.590
 5821SOL    HW118362   0.003   0.337   2.517
 5821SOL    HW218363   0.046   0.220   2.623
 5822SOL     OW18364   0.893   2.378   2.231
 5822SOL    HW118365   0.909   2.344   2.323
 5822SOL    HW218366   0.924   2.310   2.165
 5823SOL     OW18367   1.067   1.349   5.624
 5823SOL    HW118368   1.040   1.422   5.561
 5823SOL    HW218369   1.164   1.328   5.611
 5824SOL     OW18370   6.256   4.820   2.398
 5824SOL    HW118371   6.254   4.732   2.445
 5824SOL    HW218372   6.162   4.853   2.384
 5825SOL     OW18373   2.237   2.265   5.258
 5825SOL    HW118374   2.216   2.169   5.277
 5825SOL    HW218375   2.332   2.273   5.227
 5826SOL     OW18376   0.119   5.221   5.487
 5826SOL    HW118377   0.190   5.218   5.416
 5826SOL    HW218378   0.049   5.288   5.460
 5827SOL     OW18379   2.349   4.357   4.772
 5827SOL    HW118380   2.371   4.454   4.780
 5827SOL    HW218381   2.426   4.302   4.806
 5828SOL     OW18382   6.941   2.861   1.764
 5828SOL    HW118383   6.892   2.941   1.799
 5828SOL    HW218384   7.017   2.891   1.706
 5829SOL     OW18385   2.087   1.404   3.004
 5829SOL    HW118386   2.012   1.440   2.947
 5829SOL    HW218387   2.070   1.308   3.024
 5830SOL     OW18388   4.557   0.316   5.292
 5830SOL    HW118389   4.464   0.331   5.328
 5830SOL    HW218390   4.553   0.252   5.216
 5831SOL     OW18391   0.122   0.804   4.573
 5831SOL    HW118392   0.208   0.848   4.601
 5831SOL    HW218393   0.129   0.706   4.587
 5832SOL     OW18394   3.921   4.480   6.137
 5832SOL    HW118395   4.013   4.504   6.167
 5832SOL    HW218396   3.909   4.505   6.041
 5833SOL     OW18397   3.973   3.390   5.049
 5833SOL    HW118398   3.906   3.362   4.981
 5833SOL    HW218399   3.930   3.452   5.115
 5834SOL     OW18400   6.549   3.115   0.231
 5834SOL    HW118401   6.648   3.105   0.218
 5834SOL    HW218402   6.502   3.042   0.180
 5835SOL     OW18403   4.943   3.450   3.706
 5835SOL    HW118404   4.897   3.478   3.791
 5835SOL    HW218405   4.906   3.362   3.676
 5836SOL     OW18406   2.720   6.516   2.573
 5836SOL    HW118407   2.675   6.523   2.662
 5836SOL    HW218408   2.652   6.502   2.501
 5837SOL     OW18409   3.887   4.889   6.017
 5837SOL    HW118410   3.851   4.958   6.079
 5837SOL    HW218411   3.962   4.927   5.963
 5838SOL     OW18412   2.777   1.489   6.204
 5838SOL    HW118413   2.861   1.455   6.160
 5838SOL    HW218414   2.700   1.476   6.142
 5839SOL     OW18415   0.471   1.894   2.674
 5839SOL    HW118416   0.375   1.923   2.663
 5839SOL    HW218417   0.524   1.923   2.594
 5840SOL     OW18418   0.881   5.482   6.871
 5840SOL    HW118419   0.864   5.388   6.842
 5840SOL    HW218420   0.900   5.483   6.969
 5841SOL     OW18421   5.241   1.497   2.580
 5841SOL    HW118422   5.194   1.586   2.585
 5841SOL    HW218423   5.257   1.474   2.484
 5842SOL     OW18424   4.598   3.254   1.153
 5842SOL    HW118425   4.586   3.354   1.149
 5842SOL    HW218426   4.561   3.213   1.069
 5843SOL     OW18427   2.182   4.081   2.709
 5843SOL    HW118428   2.104   4.144   2.701
 5843SOL    HW218429   2.196   4.035   2.621
 5844SOL     OW18430   0.935   6.814   5.900
 5844SOL    HW118431   0.971   6.778   5.986
 5844SOL    HW218432   0.863   6.753   5.866
 5845SOL     OW18433   1.049   0.321   2.885
 5845SOL    HW118434   1.052   0.226   2.855
 5845SOL    HW218435   0.975   0.334   2.952
 5846SOL     OW18436   6.970   3.076   3.307
 5846SOL    HW118437   6.973   3.058   3.209
 5846SOL    HW218438   0.000   3.009   3.355
 5847SOL     OW18439   2.235   2.293   1.711
 5847SOL    HW118440   2.168   2.341   1.655
 5847SOL    HW218441   2.319   2.348   1.717
 5848SOL     OW18442   2.713   5.199   2.702
 5848SOL    HW118443   2.678   5.250   2.623
 5848SOL    HW218444   2.802   5.237   2.728
 5849SOL     OW18445   0.019   6.887   6.773
 5849SOL    HW118446   0.073   6.918   6.694
 5849SOL    HW218447   6.981   6.958   6.799
 5850SOL     OW18448   0.282   3.891   2.226
 5850SOL    HW118449   0.379   3.879   2.206
 5850SOL    HW218450   0.229   3.873   2.143
 5851SOL     OW18451   5.422   3.349   2.890
 5851SOL    HW118452   5.325   3.327   2.895
 5851SOL    HW218453   5.467   3.320   2.974
 5852SOL     OW18454   5.495   6.419   3.271
 5852SOL    HW118455   5.583   6.416   3.223
 5852SOL    HW218456   5.429   6.361   3.225
 5853SOL     OW18457   3.209   5.303   4.100
 5853SOL    HW118458   3.113   5.299   4.127
 5853SOL    HW218459   3.255   5.219   4.128
 5854SOL     OW18460   5.706   4.620   5.581
 5854SOL    HW118461   5.623   4.565   5.595
 5854SOL    HW218462   5.718   4.681   5.660
 5855SOL     OW18463   0.676   0.536   5.093
 5855SOL    HW118464   0.673   0.488   5.180
 5855SOL    HW218465   0.739   0.613   5.100
 5856SOL     OW18466   1.855   6.352   3.958
 5856SOL    HW118467   1.770   6.402   3.970
 5856SOL    HW218468   1.910   6.359   4.042
 5857SOL     OW18469   6.384   2.242   5.845
 5857SOL    HW118470   6.395   2.166   5.781
 5857SOL    HW218471   6.289   2.273   5.844
 5858SOL     OW18472   2.517   2.313   1.984
 5858SOL    HW118473   2.489   2.227   2.028
 5858SOL    HW218474   2.441   2.377   1.984
 5859SOL     OW18475   5.698   6.651   1.513
 5859SOL    HW118476   5.610   6.630   1.471
 5859SOL    HW218477   5.748   6.566   1.531
 5860SOL     OW18478   2.018   3.876   1.856
 5860SOL    HW118479   1.955   3.817   1.804
 5860SOL    HW218480   2.038   3.835   1.944
 5861SOL     OW18481   4.506   1.830   4.625
 5861SOL    HW118482   4.453   1.884   4.691
 5861SOL    HW218483   4.451   1.814   4.543
 5862SOL     OW18484   4.753   5.057   2.749
 5862SOL    HW118485   4.781   4.974   2.798
 5862SOL    HW218486   4.655   5.073   2.764
 5863SOL     OW18487   2.576   0.791   4.346
 5863SOL    HW118488   2.581   0.884   4.382
 5863SOL    HW218489   2.488   0.751   4.369
 5864SOL     OW18490   4.017   3.664   1.757
 5864SOL    HW118491   3.919   3.645   1.748
 5864SOL    HW218492   4.066   3.579   1.777
 5865SOL     OW18493   5.938   0.171   5.764
 5865SOL    HW118494   5.910   0.264   5.739
 5865SOL    HW218495   5.969   0.122   5.683
 5866SOL     OW18496   4.535   5.688   0.153
 5866SOL    HW118497   4.545   5.724   0.246
 5866SOL    HW218498   4.438   5.683   0.130
 5867SOL     OW18499   0.281   3.960   0.896
 5867SOL    HW118500   0.341   4.038   0.915
 5867SOL    HW218501   0.273   3.903   0.978
 5868SOL     OW18502   0.412   1.006   5.569
 5868SOL    HW118503   0.480   1.024   5.498
 5868SOL    HW218504   0.456   1.007   5.659
 5869SOL     OW18505   2.938   5.764   3.110
 5869SOL    HW118506   2.965   5.801   3.199
 5869SOL    HW218507   2.860   5.703   3.122
 5870SOL     OW18508   5.245   5.808   4.787
 5870SOL    HW118509   5.236   5.754   4.870
 5870SOL    HW218510   5.290   5.753   4.716
 5871SOL     OW18511   4.301   2.829   0.242
 5871SOL    HW118512   4.328   2.799   0.150
 5871SOL    HW218513   4.335   2.763   0.309
 5872SOL     OW18514   3.908   5.633   0.342
 5872SOL    HW118515   4.001   5.669   0.339
 5872SOL    HW218516   3.902   5.562   0.412
 5873SOL     OW18517   2.242   2.574   1.299
 5873SOL    HW118518   2.310   2.515   1.256
 5873SOL    HW218519   2.197   2.525   1.373
 5874SOL     OW18520   3.388   3.568   0.636
 5874SOL    HW118521   3.352   3.609   0.720
 5874SOL    HW218522   3.412   3.639   0.571
 5875SOL     OW18523   3.860   1.095   1.059
 5875SOL    HW118524   3.797   1.104   0.982
 5875SOL    HW218525   3.906   1.006   1.054
 5876SOL     OW18526   2.839   3.102   0.042
 5876SOL    HW118527   2.821   3.037   6.995
 5876SOL    HW218528   2.796   3.070   0.126
 5877SOL     OW18529   0.641   6.603   1.233
 5877SOL    HW118530   0.640   6.526   1.169
 5877SOL    HW218531   0.597   6.575   1.319
 5878SOL     OW18532   5.232   5.201   3.314
 5878SOL    HW118533   5.202   5.270   3.379
 5878SOL    HW218534   5.286   5.244   3.242
 5879SOL     OW18535   2.328   3.462   6.426
 5879SOL    HW118536   2.386   3.409   6.364
 5879SOL    HW218537   2.254   3.505   6.374
 5880SOL     OW18538   4.849   4.458   6.450
 5880SOL    HW118539   4.750   4.444   6.455
 5880SOL    HW218540   4.893   4.377   6.413
 5881SOL     OW18541   1.219   0.042   1.767
 5881SOL    HW118542   1.310   0.046   1.725
 5881SOL    HW218543   1.150   0.034   1.695
 5882SOL     OW18544   1.504   6.859   5.943
 5882SOL    HW118545   1.482   6.879   6.038
 5882SOL    HW218546   1.464   6.771   5.917
 5883SOL     OW18547   0.911   1.165   0.659
 5883SOL    HW118548   0.937   1.115   0.577
 5883SOL    HW218549   0.936   1.112   0.740
 5884SOL     OW18550   5.462   1.119   4.902
 5884SOL    HW118551   5.448   1.058   4.824
 5884SOL    HW218552   5.422   1.209   4.882
 5885SOL     OW18553   0.870   5.578   1.554
 5885SOL    HW118554   0.886   5.554   1.650
 5885SOL    HW218555   0.772   5.587   1.538
 5886SOL     OW18556   1.149   3.024   3.588
 5886SOL    HW118557   1.105   3.105   3.627
 5886SOL    HW218558   1.239   3.011   3.629
 5887SOL     OW18559   2.747   2.119   1.950
 5887SOL    HW118560   2.651   2.134   1.974
 5887SOL    HW218561   2.797   2.205   1.958
 5888SOL     OW18562   2.016   6.554   1.273
 5888SOL    HW118563   1.956   6.485   1.232
 5888SOL    HW218564   2.056   6.611   1.201
 5889SOL     OW18565   6.815   1.324   0.451
 5889SOL    HW118566   6.831   1.229   0.478
 5889SOL    HW218567   6.899   1.363   0.414
 5890SOL     OW18568   1.415   6.763   2.646
 5890SOL    HW118569   1.323   6.724   2.638
 5890SOL    HW218570   1.432   6.824   2.568
 5891SOL     OW18571   2.164   4.368   0.283
 5891SOL    HW118572   2.070   4.336   0.299
 5891SOL    HW218573   2.213   4.374   0.370
 5892SOL     OW18574   6.740   5.134   1.922
 5892SOL    HW118575   6.730   5.044   1.880
 5892SOL    HW218576   6.706   5.204   1.860
 5893SOL     OW18577   2.322   4.715   1.821
 5893SOL    HW118578   2.309   4.684   1.727
 5893SOL    HW218579   2.273   4.654   1.883
 5894SOL     OW18580   0.403   5.679   5.673
 5894SOL    HW118581   0.386   5.774   5.645
 5894SOL    HW218582   0.447   5.678   5.762
 5895SOL     OW18583   6.019   4.068   3.469
 5895SOL    HW118584   5.961   4.094   3.391
 5895SOL    HW218585   6.097   4.015   3.436
 5896SOL     OW18586   5.455   1.461   1.046
 5896SOL    HW118587   5.383   1.530   1.046
 5896SOL    HW218588   5.498   1.457   1.137
 5897SOL     OW18589   3.524   0.869   1.968
 5897SOL    HW118590   3.611   0.876   1.920
 5897SOL    HW218591   3.533   0.806   2.045
 5898SOL     OW18592   2.447   1.486   5.733
 5898SOL    HW118593   2.527   1.470   5.675
 5898SOL    HW218594   2.366   1.499   5.676
 5899SOL     OW18595   6.674   6.040   6.521
 5899SOL    HW118596   6.604   6.071   6.586
 5899SOL    HW218597   6.656   5.945   6.495
 5900SOL     OW18598   6.580   5.250   2.793
 5900SOL    HW118599   6.510   5.179   2.797
 5900SOL    HW218600   6.661   5.214   2.745
 5901SOL     OW18601   2.814   1.316   0.260
 5901SOL    HW118602   2.894   1.256   0.259
 5901SOL    HW218603   2.830   1.394   0.200
 5902SOL     OW18604   5.690   3.380   5.169
 5902SOL    HW118605   5.725   3.315   5.235
 5902SOL    HW218606   5.590   3.384   5.175
 5903SOL     OW18607   4.962   2.786   6.944
 5903SOL    HW118608   4.906   2.722   6.891
 5903SOL    HW218609   5.000   2.856   6.884
 5904SOL     OW18610   0.943   4.276   0.954
 5904SOL    HW118611   0.947   4.338   0.876
 5904SOL    HW218612   0.981   4.187   0.928
 5905SOL     OW18613   5.665   0.912   4.234
 5905SOL    HW118614   5.674   0.900   4.333
 5905SOL    HW218615   5.671   1.009   4.212
 5906SOL     OW18616   4.851   1.918   5.312
 5906SOL    HW118617   4.948   1.941   5.310
 5906SOL    HW218618   4.838   1.825   5.279
 5907SOL     OW18619   1.456   0.370   0.224
 5907SOL    HW118620   1.377   0.323   0.263
 5907SOL    HW218621   1.455   0.361   0.125
 5908SOL     OW18622   6.160   4.154   6.848
 5908SOL    HW118623   6.217   4.237   6.841
 5908SOL    HW218624   6.219   4.075   6.862
 5909SOL     OW18625   0.491   5.545   6.618
 5909SOL    HW118626   0.577   5.585   6.653
 5909SOL    HW218627   0.499   5.530   6.520
 5910SOL     OW18628   0.803   5.422   0.443
 5910SOL    HW118629   0.779   5.458   0.534
 5910SOL    HW218630   0.831   5.327   0.452
 5911SOL     OW18631   0.311   5.603   6.055
 5911SOL    HW118632   0.330   5.584   6.151
 5911SOL    HW218633   0.303   5.517   6.004
 5912SOL     OW18634   5.965   3.417   6.710
 5912SOL    HW118635   5.905   3.337   6.706
 5912SOL    HW218636   6.047   3.400   6.655
 5913SOL     OW18637   2.306   2.774   6.076
 5913SOL    HW118638   2.400   2.772   6.040
 5913SOL    HW218639   2.267   2.682   6.071
 5914SOL     OW18640   2.636   5.636   6.515
 5914SOL    HW118641   2.540   5.620   6.538
 5914SOL    HW218642   2.694   5.590   6.582
 5915SOL     OW18643   6.236   3.514   1.577
 5915SOL    HW118644   6.190   3.577   1.516
 5915SOL    HW218645   6.286   3.565   1.647
 5916SOL     OW18646   4.413   6.994   5.746
 5916SOL    HW118647   4.499   0.018   5.754
 5916SOL    HW218648   4.427   6.899   5.774
 5917SOL     OW18649   4.109   3.533   3.660
 5917SOL    HW118650   4.113   3.471   3.738
 5917SOL    HW218651   4.122   3.627   3.690
 5918SOL     OW18652   2.118   3.855   4.978
 5918SOL    HW118653   2.144   3.783   5.043
 5918SOL    HW218654   2.166   3.940   5.001
 5919SOL     OW18655   2.992   2.217   6.893
 5919SOL    HW118656   2.917   2.284   6.888
 5919SOL    HW218657   3.065   2.253   6.950
 5920SOL     OW18658   3.520   6.946   0.170
 5920SOL    HW118659   3.528   7.004   0.089
 5920SOL    HW218660   3.446   6.880   0.156
 5921SOL     OW18661   3.287   5.315   5.390
 5921SOL    HW118662   3.216   5.307   5.460
 5921SOL    HW218663   3.273   5.246   5.320
 5922SOL     OW18664   5.933   5.224   3.955
 5922SOL    HW118665   5.951   5.214   3.857
 5922SOL    HW218666   5.846   5.272   3.968
 5923SOL     OW18667   5.925   1.069   2.816
 5923SOL    HW118668   5.934   1.054   2.717
 5923SOL    HW218669   5.860   1.143   2.832
 5924SOL     OW18670   6.324   2.434   4.911
 5924SOL    HW118671   6.411   2.461   4.952
 5924SOL    HW218672   6.336   2.420   4.813
 5925SOL     OW18673   4.374   6.511   3.006
 5925SOL    HW118674   4.384   6.608   3.030
 5925SOL    HW218675   4.278   6.491   2.988
 5926SOL     OW18676   3.879   5.143   1.984
 5926SOL    HW118677   3.933   5.062   2.007
 5926SOL    HW218678   3.851   5.189   2.068
 5927SOL     OW18679   2.261   4.392   2.638
 5927SOL    HW118680   2.321   4.410   2.716
 5927SOL    HW218681   2.192   4.464   2.632
 5928SOL     OW18682   3.352   0.085   2.000
 5928SOL    HW118683   3.401   0.171   1.987
 5928SOL    HW218684   3.395   0.032   2.073
 5929SOL     OW18685   0.743   6.603   5.872
 5929SOL    HW118686   0.803   6.565   5.943
 5929SOL    HW218687   0.754   6.551   5.788
 5930SOL     OW18688   6.609   1.620   3.759
 5930SOL    HW118689   6.630   1.635   3.856
 5930SOL    HW218690   6.518   1.580   3.751
 5931SOL     OW18691   5.962   5.154   2.717
 5931SOL    HW118692   5.998   5.244   2.694
 5931SOL    HW218693   5.984   5.089   2.643
 5932SOL     OW18694   2.629   6.199   0.651
 5932SOL    HW118695   2.554   6.155   0.699
 5932SOL    HW218696   2.696   6.131   0.622
 5933SOL     OW18697   6.937   4.823   2.940
 5933SOL    HW118698   6.945   4.830   2.840
 5933SOL    HW218699   6.841   4.817   2.966
 5934SOL     OW18700   3.815   4.031   4.189
 5934SOL    HW118701   3.832   3.981   4.104
 5934SOL    HW218702   3.852   4.123   4.181
 5935SOL     OW18703   4.142   3.457   4.415
 5935SOL    HW118704   4.060   3.487   4.366
 5935SOL    HW218705   4.194   3.536   4.445
 5936SOL     OW18706   4.424   3.362   6.438
 5936SOL    HW118707   4.466   3.444   6.475
 5936SOL    HW218708   4.328   3.381   6.414
 5937SOL     OW18709   0.849   4.413   1.960
 5937SOL    HW118710   0.848   4.326   1.909
 5937SOL    HW218711   0.774   4.413   2.027
 5938SOL     OW18712   1.317   5.206   4.013
 5938SOL    HW118713   1.241   5.269   4.001
 5938SOL    HW218714   1.386   5.223   3.941
 5939SOL     OW18715   3.141   0.357   3.187
 5939SOL    HW118716   3.100   0.448   3.179
 5939SOL    HW218717   3.199   0.339   3.107
 5940SOL     OW18718   4.325   6.538   2.240
 5940SOL    HW118719   4.404   6.494   2.283
 5940SOL    HW218720   4.243   6.519   2.293
 5941SOL     OW18721   6.463   3.744   2.031
 5941SOL    HW118722   6.417   3.797   2.103
 5941SOL    HW218723   6.535   3.688   2.073
 5942SOL     OW18724   5.212   2.741   0.135
 5942SOL    HW118725   5.150   2.812   0.171
 5942SOL    HW218726   5.260   2.698   0.211
 5943SOL     OW18727   4.072   5.053   0.684
 5943SOL    HW118728   4.162   5.090   0.707
 5943SOL    HW218729   4.059   5.057   0.585
 5944SOL     OW18730   5.333   1.539   1.809
 5944SOL    HW118731   5.317   1.530   1.711
 5944SOL    HW218732   5.351   1.448   1.848
 5945SOL     OW18733   0.137   5.469   5.270
 5945SOL    HW118734   0.144   5.555   5.218
 5945SOL    HW218735   0.210   5.466   5.339
 5946SOL     OW18736   3.338   3.195   5.698
 5946SOL    HW118737   3.414   3.180   5.636
 5946SOL    HW218738   3.370   3.187   5.793
 5947SOL     OW18739   3.719   3.300   1.764
 5947SOL    HW118740   3.749   3.393   1.739
 5947SOL    HW218741   3.753   3.278   1.856
 5948SOL     OW18742   3.986   5.262   3.733
 5948SOL    HW118743   4.029   5.174   3.712
 5948SOL    HW218744   4.055   5.334   3.727
 5949SOL     OW18745   4.266   4.073   1.366
 5949SOL    HW118746   4.203   4.135   1.320
 5949SOL    HW218747   4.271   3.988   1.314
 5950SOL     OW18748   5.495   2.908   5.321
 5950SOL    HW118749   5.507   2.934   5.225
 5950SOL    HW218750   5.468   2.988   5.375
 5951SOL     OW18751   0.787   5.874   4.925
 5951SOL    HW118752   0.767   5.824   5.010
 5951SOL    HW218753   0.859   5.827   4.875
 5952SOL     OW18754   5.604   5.650   4.149
 5952SOL    HW118755   5.703   5.638   4.150
 5952SOL    HW218756   5.583   5.748   4.151
 5953SOL     OW18757   6.948   2.977   5.530
 5953SOL    HW118758   6.902   3.063   5.509
 5953SOL    HW218759   7.005   2.950   5.452
 5954SOL     OW18760   6.890   4.952   5.876
 5954SOL    HW118761   6.815   5.017   5.892
 5954SOL    HW218762   6.978   5.000   5.882
 5955SOL     OW18763   5.678   6.245   2.201
 5955SOL    HW118764   5.748   6.269   2.134
 5955SOL    HW218765   5.653   6.149   2.190
 5956SOL     OW18766   3.462   1.994   0.639
 5956SOL    HW118767   3.427   2.040   0.720
 5956SOL    HW218768   3.463   2.058   0.562
 5957SOL     OW18769   5.035   0.575   5.405
 5957SOL    HW118770   5.092   0.611   5.331
 5957SOL    HW218771   5.091   0.562   5.487
 5958SOL     OW18772   5.967   6.751   2.796
 5958SOL    HW118773   6.052   6.802   2.806
 5958SOL    HW218774   5.971   6.668   2.852
 5959SOL     OW18775   3.535   1.482   5.733
 5959SOL    HW118776   3.625   1.506   5.768
 5959SOL    HW218777   3.539   1.477   5.633
 5960SOL     OW18778   3.529   6.327   4.631
 5960SOL    HW118779   3.431   6.318   4.646
 5960SOL    HW218780   3.558   6.262   4.561
 5961SOL     OW18781   4.712   0.791   4.205
 5961SOL    HW118782   4.787   0.857   4.210
 5961SOL    HW218783   4.743   0.703   4.240
 5962SOL     OW18784   4.859   5.943   1.990
 5962SOL    HW118785   4.832   5.933   2.086
 5962SOL    HW218786   4.886   5.855   1.953
 5963SOL     OW18787   3.446   2.912   4.889
 5963SOL    HW118788   3.402   2.900   4.799
 5963SOL    HW218789   3.545   2.905   4.879
 5964SOL     OW18790   0.419   5.039   6.004
 5964SOL    HW118791   0.490   5.018   5.937
 5964SOL    HW218792   0.437   5.128   6.045
 5965SOL     OW18793   1.672   1.960   5.977
 5965SOL    HW118794   1.718   2.020   5.912
 5965SOL    HW218795   1.595   2.008   6.018
 5966SOL     OW18796   3.122   5.340   5.600
 5966SOL    HW118797   3.093   5.428   5.561
 5966SOL    HW218798   3.145   5.353   5.696
 5967SOL     OW18799   3.997   6.238   1.616
 5967SOL    HW118800   3.961   6.149   1.590
 5967SOL    HW218801   4.056   6.228   1.697
 5968SOL     OW18802   5.521   1.414   3.193
 5968SOL    HW118803   5.435   1.365   3.204
 5968SOL    HW218804   5.552   1.447   3.283
 5969SOL     OW18805   6.879   1.321   5.161
 5969SOL    HW118806   6.816   1.308   5.238
 5969SOL    HW218807   6.827   1.340   5.078
 5970SOL     OW18808   0.501   4.874   2.478
 5970SOL    HW118809   0.442   4.818   2.421
 5970SOL    HW218810   0.583   4.899   2.426
 5971SOL     OW18811   2.140   0.648   3.202
 5971SOL    HW118812   2.238   0.639   3.219
 5971SOL    HW218813   2.123   0.648   3.103
 5972SOL     OW18814   4.333   6.643   0.443
 5972SOL    HW118815   4.385   6.581   0.383
 5972SOL    HW218816   4.322   6.731   0.398
 5973SOL     OW18817   1.799   5.186   2.883
 5973SOL    HW118818   1.876   5.157   2.941
 5973SOL    HW218819   1.779   5.282   2.902
 5974SOL     OW18820   5.785   4.299   5.928
 5974SOL    HW118821   5.810   4.339   5.840
 5974SOL    HW218822   5.685   4.295   5.935
 5975SOL     OW18823   3.297   2.351   0.578
 5975SOL    HW118824   3.209   2.308   0.596
 5975SOL    HW218825   3.348   2.297   0.511
 5976SOL     OW18826   3.102   3.328   4.985
 5976SOL    HW118827   3.196   3.295   4.996
 5976SOL    HW218828   3.039   3.265   5.031
 5977SOL     OW18829   1.708   4.985   1.378
 5977SOL    HW118830   1.764   4.924   1.322
 5977SOL    HW218831   1.616   4.992   1.338
 5978SOL     OW18832   5.482   4.843   3.231
 5978SOL    HW118833   5.495   4.896   3.315
 5978SOL    HW218834   5.555   4.865   3.166
 5979SOL     OW18835   6.416   0.794   2.755
 5979SOL    HW118836   6.395   0.865   2.687
 5979SOL    HW218837   6.339   0.730   2.762
 5980SOL     OW18838   4.258   3.727   6.501
 5980SOL    HW118839   4.237   3.633   6.528
 5980SOL    HW218840   4.183   3.765   6.447
 5981SOL     OW18841   6.397   1.003   2.104
 5981SOL    HW118842   6.450   0.972   2.182
 5981SOL    HW218843   6.449   0.991   2.020
 5982SOL     OW18844   6.387   2.389   6.756
 5982SOL    HW118845   6.405   2.296   6.727
 5982SOL    HW218846   6.438   2.408   6.840
 5983SOL     OW18847   2.197   1.547   4.632
 5983SOL    HW118848   2.111   1.597   4.623
 5983SOL    HW218849   2.231   1.555   4.726
 5984SOL     OW18850   6.754   0.087   5.332
 5984SOL    HW118851   6.682   0.110   5.397
 5984SOL    HW218852   6.713   0.057   5.246
 5985SOL     OW18853   5.656   3.274   4.291
 5985SOL    HW118854   5.598   3.310   4.364
 5985SOL    HW218855   5.740   3.237   4.330
 5986SOL     OW18856   2.940   3.410   3.786
 5986SOL    HW118857   2.931   3.448   3.694
 5986SOL    HW218858   2.868   3.446   3.845
 5987SOL     OW18859   4.002   1.555   4.592
 5987SOL    HW118860   4.054   1.640   4.584
 5987SOL    HW218861   4.056   1.487   4.642
 5988SOL     OW18862   4.445   6.244   5.034
 5988SOL    HW118863   4.538   6.228   5.067
 5988SOL    HW218864   4.425   6.182   4.958
 5989SOL     OW18865   2.832   5.900   6.562
 5989SOL    HW118866   2.748   5.866   6.522
 5989SOL    HW218867   2.820   5.909   6.661
 5990SOL     OW18868   4.445   4.416   0.709
 5990SOL    HW118869   4.377   4.360   0.660
 5990SOL    HW218870   4.400   4.465   0.783
 5991SOL     OW18871   4.478   4.708   5.146
 5991SOL    HW118872   4.438   4.654   5.071
 5991SOL    HW218873   4.476   4.805   5.122
 5992SOL     OW18874   3.467   0.915   4.082
 5992SOL    HW118875   3.412   0.990   4.120
 5992SOL    HW218876   3.564   0.935   4.096
 5993SOL     OW18877   3.504   6.814   6.058
 5993SOL    HW118878   3.449   6.731   6.052
 5993SOL    HW218879   3.506   6.860   5.970
 5994SOL     OW18880   6.307   1.996   2.289
 5994SOL    HW118881   6.304   2.087   2.247
 5994SOL    HW218882   6.361   2.000   2.372
 5995SOL     OW18883   6.444   4.445   2.493
 5995SOL    HW118884   6.419   4.418   2.586
 5995SOL    HW218885   6.365   4.489   2.449
 5996SOL     OW18886   0.489   5.745   0.630
 5996SOL    HW118887   0.555   5.765   0.703
 5996SOL    HW218888   0.536   5.745   0.542
 5997SOL     OW18889   0.922   6.959   2.645
 5997SOL    HW118890   0.842   7.008   2.680
 5997SOL    HW218891   0.905   6.928   2.552
 5998SOL     OW18892   5.475   3.099   1.472
 5998SOL    HW118893   5.416   3.121   1.395
 5998SOL    HW218894   5.571   3.110   1.446
 5999SOL     OW18895   1.004   2.153   2.121
 5999SOL    HW118896   1.010   2.090   2.199
 5999SOL    HW218897   0.957   2.108   2.045
 6000SOL     OW18898   3.762   6.303   1.422
 6000SOL    HW118899   3.773   6.360   1.341
 6000SOL    HW218900   3.826   6.333   1.493
 6001SOL     OW18901   0.479   4.069   6.191
 6001SOL    HW118902   0.414   4.144   6.178
 6001SOL    HW218903   0.448   4.010   6.266
 6002SOL     OW18904   0.676   6.893   1.512
 6002SOL    HW118905   0.738   6.848   1.576
 6002SOL    HW218906   0.665   6.837   1.430
 6003SOL     OW18907   6.412   2.415   4.634
 6003SOL    HW118908   6.503   2.414   4.676
 6003SOL    HW218909   6.401   2.332   4.579
 6004SOL     OW18910   7.021   4.584   2.813
 6004SOL    HW118911   6.928   4.558   2.790
 6004SOL    HW218912   7.020   4.669   2.866
 6005SOL     OW18913   4.133   5.207   4.728
 6005SOL    HW118914   4.113   5.110   4.711
 6005SOL    HW218915   4.207   5.236   4.668
 6006SOL     OW18916   3.579   6.594   0.075
 6006SOL    HW118917   3.505   6.646   0.118
 6006SOL    HW218918   3.541   6.532   0.006
 6007SOL     OW18919   4.875   3.158   3.697
 6007SOL    HW118920   4.828   3.092   3.638
 6007SOL    HW218921   4.832   3.159   3.787
 6008SOL     OW18922   2.423   5.264   6.636
 6008SOL    HW118923   2.490   5.212   6.583
 6008SOL    HW218924   2.416   5.357   6.600
 6009SOL     OW18925   2.880   1.256   4.501
 6009SOL    HW118926   2.970   1.215   4.486
 6009SOL    HW218927   2.881   1.351   4.472
 6010SOL     OW18928   1.989   4.101   2.116
 6010SOL    HW118929   2.063   4.054   2.162
 6010SOL    HW218930   2.022   4.140   2.030
 6011SOL     OW18931   4.546   2.537   2.408
 6011SOL    HW118932   4.643   2.528   2.432
 6011SOL    HW218933   4.537   2.543   2.309
 6012SOL     OW18934   6.632   1.788   0.510
 6012SOL    HW118935   6.659   1.705   0.559
 6012SOL    HW218936   6.685   1.796   0.426
 6013SOL     OW18937   5.163   1.996   3.033
 6013SOL    HW118938   5.067   1.977   3.049
 6013SOL    HW218939   5.197   1.938   2.959
 6014SOL     OW18940   4.515   1.437   1.004
 6014SOL    HW118941   4.562   1.391   0.929
 6014SOL    HW218942   4.447   1.500   0.966
 6015SOL     OW18943   5.694   2.021   5.852
 6015SOL    HW118944   5.655   1.975   5.932
 6015SOL    HW218945   5.623   2.033   5.782
 6016SOL     OW18946   0.496   1.494   6.970
 6016SOL    HW118947   0.444   1.449   6.898
 6016SOL    HW218948   0.480   1.592   6.967
 6017SOL     OW18949   6.436   5.021   2.477
 6017SOL    HW118950   6.451   5.075   2.395
 6017SOL    HW218951   6.351   4.968   2.467
 6018SOL     OW18952   3.468   2.169   0.414
 6018SOL    HW118953   3.410   2.136   0.339
 6018SOL    HW218954   3.557   2.196   0.378
 6019SOL     OW18955   5.102   1.401   4.053
 6019SOL    HW118956   5.139   1.469   3.990
 6019SOL    HW218957   5.057   1.448   4.129
 6020SOL     OW18958   1.345   5.961   2.366
 6020SOL    HW118959   1.397   5.997   2.288
 6020SOL    HW218960   1.320   5.866   2.349
 6021SOL     OW18961   3.559   6.846   2.648
 6021SOL    HW118962   3.492   6.773   2.665
 6021SOL    HW218963   3.633   6.839   2.714
 6022SOL     OW18964   4.175   0.984   4.723
 6022SOL    HW118965   4.116   0.992   4.643
 6022SOL    HW218966   4.164   0.893   4.764
 6023SOL     OW18967   6.010   1.287   3.056
 6023SOL    HW118968   6.052   1.197   3.063
 6023SOL    HW218969   5.949   1.290   2.977
 6024SOL     OW18970   0.519   4.412   2.610
 6024SOL    HW118971   0.440   4.352   2.602
 6024SOL    HW218972   0.603   4.359   2.600
 6025SOL     OW18973   3.899   0.191   2.426
 6025SOL    HW118974   3.802   0.196   2.407
 6025SOL    HW218975   3.917   0.222   2.520
 6026SOL     OW18976   0.017   4.046   4.228
 6026SOL    HW118977   6.964   4.100   4.199
 6026SOL    HW218978   0.021   4.042   4.328
 6027SOL     OW18979   2.230   3.991   5.660
 6027SOL    HW118980   2.233   3.932   5.578
 6027SOL    HW218981   2.156   3.961   5.720
 6028SOL     OW18982   0.951   3.822   0.449
 6028SOL    HW118983   0.966   3.778   0.537
 6028SOL    HW218984   0.944   3.753   0.377
 6029SOL     OW18985   2.132   6.337   6.258
 6029SOL    HW118986   2.034   6.324   6.273
 6029SOL    HW218987   2.183   6.300   6.336
 6030SOL     OW18988   2.433   0.145   2.900
 6030SOL    HW118989   2.400   0.237   2.918
 6030SOL    HW218990   2.528   0.137   2.931
 6031SOL     OW18991   4.097   4.955   4.017
 6031SOL    HW118992   4.003   4.921   4.018
 6031SOL    HW218993   4.134   4.949   3.925
 6032SOL     OW18994   1.781   3.760   2.735
 6032SOL    HW118995   1.856   3.719   2.684
 6032SOL    HW218996   1.817   3.833   2.794
 6033SOL     OW18997   2.798   2.332   2.781
 6033SOL    HW118998   2.886   2.285   2.778
 6033SOL    HW218999   2.782   2.379   2.695
 6034SOL     OW19000   1.640   5.933   4.882
 6034SOL    HW119001   1.700   5.964   4.957
 6034SOL    HW219002   1.648   5.996   4.805
 6035SOL     OW19003   6.139   1.649   3.623
 6035SOL    HW119004   6.070   1.635   3.695
 6035SOL    HW219005   6.125   1.739   3.581
 6036SOL     OW19006   0.224   6.778   4.323
 6036SOL    HW119007   0.240   6.710   4.251
 6036SOL    HW219008   0.251   6.868   4.291
 6037SOL     OW19009   4.717   5.277   6.435
 6037SOL    HW119010   4.723   5.370   6.473
 6037SOL    HW219011   4.647   5.275   6.364
 6038SOL     OW19012   1.383   3.786   6.184
 6038SOL    HW119013   1.377   3.709   6.121
 6038SOL    HW219014   1.312   3.853   6.162
 6039SOL     OW19015   3.166   3.331   3.525
 6039SOL    HW119016   3.156   3.299   3.431
 6039SOL    HW219017   3.130   3.262   3.588
 6040SOL     OW19018   0.236   2.335   6.482
 6040SOL    HW119019   0.212   2.286   6.566
 6040SOL    HW219020   0.229   2.272   6.404
 6041SOL     OW19021   1.539   1.437   5.500
 6041SOL    HW119022   1.602   1.387   5.441
 6041SOL    HW219023   1.501   1.514   5.450
 6042SOL     OW19024   5.540   5.502   1.959
 6042SOL    HW119025   5.512   5.495   2.055
 6042SOL    HW219026   5.461   5.483   1.900
 6043SOL     OW19027   1.032   5.010   4.948
 6043SOL    HW119028   0.940   5.011   4.908
 6043SOL    HW219029   1.036   5.077   5.022
 6044SOL     OW19030   1.596   2.464   0.941
 6044SOL    HW119031   1.551   2.389   0.990
 6044SOL    HW219032   1.660   2.511   1.002
 6045SOL     OW19033   5.857   5.854   0.818
 6045SOL    HW119034   5.800   5.776   0.792
 6045SOL    HW219035   5.799   5.933   0.837
 6046SOL     OW19036   2.707   2.435   0.880
 6046SOL    HW119037   2.675   2.460   0.789
 6046SOL    HW219038   2.688   2.510   0.943
 6047SOL     OW19039   6.583   1.580   2.922
 6047SOL    HW119040   6.523   1.507   2.889
 6047SOL    HW219041   6.535   1.634   2.991
 6048SOL     OW19042   4.853   6.451   3.196
 6048SOL    HW119043   4.894   6.359   3.197
 6048SOL    HW219044   4.753   6.443   3.195
 6049SOL     OW19045   5.154   3.768   6.022
 6049SOL    HW119046   5.119   3.674   6.015
 6049SOL    HW219047   5.102   3.828   5.961
 6050SOL     OW19048   3.620   3.765   5.733
 6050SOL    HW119049   3.564   3.802   5.807
 6050SOL    HW219050   3.609   3.821   5.652
 6051SOL     OW19051   3.031   2.233   4.004
 6051SOL    HW119052   2.949   2.288   3.987
 6051SOL    HW219053   3.104   2.263   3.943
 6052SOL     OW19054   6.607   6.887   6.971
 6052SOL    HW119055   6.666   6.859   6.895
 6052SOL    HW219056   6.580   6.806   7.023
 6053SOL     OW19057   3.857   0.457   6.911
 6053SOL    HW119058   3.942   0.455   6.964
 6053SOL    HW219059   3.785   0.497   6.968
 6054SOL     OW19060   2.428   4.273   0.638
 6054SOL    HW119061   2.346   4.329   0.628
 6054SOL    HW219062   2.460   4.277   0.733
 6055SOL     OW19063   5.836   0.796   6.380
 6055SOL    HW119064   5.919   0.850   6.366
 6055SOL    HW219065   5.847   0.737   6.460
 6056SOL     OW19066   5.551   3.037   5.074
 6056SOL    HW119067   5.599   3.113   5.032
 6056SOL    HW219068   5.585   2.951   5.035
 6057SOL     OW19069   5.092   2.872   4.664
 6057SOL    HW119070   5.099   2.915   4.574
 6057SOL    HW219071   5.023   2.919   4.719
 6058SOL     OW19072   5.340   2.358   2.858
 6058SOL    HW119073   5.356   2.333   2.763
 6058SOL    HW219074   5.422   2.402   2.895
 6059SOL     OW19075   4.334   5.460   5.703
 6059SOL    HW119076   4.426   5.439   5.670
 6059SOL    HW219077   4.333   5.454   5.803
 6060SOL     OW19078   3.048   3.883   5.955
 6060SOL    HW119079   3.135   3.870   5.906
 6060SOL    HW219080   3.000   3.962   5.916
 6061SOL     OW19081   4.298   2.734   7.006
 6061SOL    HW119082   4.389   2.693   7.004
 6061SOL    HW219083   4.233   2.670   0.020
 6062SOL     OW19084   2.277   0.814   4.475
 6062SOL    HW119085   2.297   0.740   4.539
 6062SOL    HW219086   2.283   0.902   4.523
 6063SOL     OW19087   3.885   1.306   6.986
 6063SOL    HW119088   3.877   1.352   6.898
 6063SOL    HW219089   3.846   1.214   6.981
 6064SOL     OW19090   2.604   5.960   2.388
 6064SOL    HW119091   2.610   5.990   2.293
 6064SOL    HW219092   2.694   5.928   2.418
 6065SOL     OW19093   5.532   6.867   2.233
 6065SOL    HW119094   5.631   6.878   2.232
 6065SOL    HW219095   5.509   6.771   2.253
 6066SOL     OW19096   4.237   1.387   0.819
 6066SOL    HW119097   4.239   1.296   0.860
 6066SOL    HW219098   4.147   1.428   0.832
 6067SOL     OW19099   5.621   1.773   6.936
 6067SOL    HW119100   5.588   1.719   7.013
 6067SOL    HW219101   5.623   1.869   6.960
 6068SOL     OW19102   6.260   3.138   4.523
 6068SOL    HW119103   6.167   3.105   4.534
 6068SOL    HW219104   6.282   3.146   4.425
 6069SOL     OW19105   0.898   3.821   5.406
 6069SOL    HW119106   0.857   3.765   5.478
 6069SOL    HW219107   0.883   3.918   5.426
 6070SOL     OW19108   2.430   1.730   5.569
 6070SOL    HW119109   2.410   1.750   5.665
 6070SOL    HW219110   2.517   1.681   5.562
 6071SOL     OW19111   4.940   6.102   5.317
 6071SOL    HW119112   4.881   6.035   5.271
 6071SOL    HW219113   4.883   6.171   5.362
 6072SOL     OW19114   0.707   0.766   1.904
 6072SOL    HW119115   0.727   0.754   1.807
 6072SOL    HW219116   0.758   0.845   1.940
 6073SOL     OW19117   6.814   3.751   0.709
 6073SOL    HW119118   6.752   3.730   0.634
 6073SOL    HW219119   6.782   3.833   0.757
 6074SOL     OW19120   0.843   6.665   4.644
 6074SOL    HW119121   0.825   6.675   4.546
 6074SOL    HW219122   0.852   6.756   4.685
 6075SOL     OW19123   0.068   2.368   6.142
 6075SOL    HW119124   0.102   2.454   6.181
 6075SOL    HW219125   7.000   2.355   6.169
 6076SOL     OW19126   2.314   6.153   5.206
 6076SOL    HW119127   2.358   6.210   5.275
 6076SOL    HW219128   2.381   6.091   5.166
 6077SOL     OW19129   5.139   5.235   2.047
 6077SOL    HW119130   5.237   5.218   2.039
 6077SOL    HW219131   5.114   5.245   2.143
 6078SOL     OW19132   4.069   4.940   2.031
 6078SOL    HW119133   4.089   4.941   2.129
 6078SOL    HW219134   4.093   4.852   1.992
 6079SOL     OW19135   3.095   3.272   6.791
 6079SOL    HW119136   3.083   3.237   6.884
 6079SOL    HW219137   3.059   3.365   6.786
 6080SOL     OW19138   0.597   1.253   1.866
 6080SOL    HW119139   0.511   1.266   1.817
 6080SOL    HW219140   0.581   1.263   1.964
 6081SOL     OW19141   6.196   3.788   4.993
 6081SOL    HW119142   6.222   3.845   4.916
 6081SOL    HW219143   6.153   3.704   4.959
 6082SOL     OW19144   3.930   1.486   3.584
 6082SOL    HW119145   3.871   1.420   3.538
 6082SOL    HW219146   3.945   1.457   3.678
 6083SOL     OW19147   1.064   5.653   6.140
 6083SOL    HW119148   0.967   5.678   6.146
 6083SOL    HW219149   1.116   5.709   6.205
 6084SOL     OW19150   6.914   5.440   4.071
 6084SOL    HW119151   6.904   5.371   4.143
 6084SOL    HW219152   6.883   5.528   4.105
 6085SOL     OW19153   0.225   4.392   0.394
 6085SOL    HW119154   0.230   4.347   0.483
 6085SOL    HW219155   0.140   4.365   0.347
 6086SOL     OW19156   3.487   1.469   5.262
 6086SOL    HW119157   3.549   1.537   5.222
 6086SOL    HW219158   3.412   1.516   5.307
 6087SOL     OW19159   5.202   6.794   0.224
 6087SOL    HW119160   5.297   6.826   0.227
 6087SOL    HW219161   5.202   6.694   0.216
 6088SOL     OW19162   6.735   6.150   4.764
 6088SOL    HW119163   6.818   6.118   4.718
 6088SOL    HW219164   6.723   6.248   4.746
 6089SOL     OW19165   0.282   3.714   1.394
 6089SOL    HW119166   0.276   3.807   1.357
 6089SOL    HW219167   0.200   3.694   1.446
 6090SOL     OW19168   1.546   6.341   5.985
 6090SOL    HW119169   1.639   6.379   5.981
 6090SOL    HW219170   1.536   6.272   5.913
 6091SOL     OW19171   0.881   1.459   2.450
 6091SOL    HW119172   0.869   1.558   2.457
 6091SOL    HW219173   0.842   1.415   2.530
 6092SOL     OW19174   2.415   0.381   3.255
 6092SOL    HW119175   2.497   0.351   3.206
 6092SOL    HW219176   2.343   0.313   3.242
 6093SOL     OW19177   1.572   2.699   2.683
 6093SOL    HW119178   1.618   2.711   2.770
 6093SOL    HW219179   1.541   2.788   2.649
 6094SOL     OW19180   3.475   1.392   0.902
 6094SOL    HW119181   3.439   1.357   0.988
 6094SOL    HW219182   3.416   1.465   0.868
 6095SOL     OW19183   4.817   2.558   0.261
 6095SOL    HW119184   4.915   2.565   0.282
 6095SOL    HW219185   4.805   2.520   0.170
 6096SOL     OW19186   5.656   0.453   4.458
 6096SOL    HW119187   5.607   0.460   4.371
 6096SOL    HW219188   5.755   0.450   4.440
 6097SOL     OW19189   1.494   0.077   2.116
 6097SOL    HW119190   1.404   0.118   2.133
 6097SOL    HW219191   1.552   0.143   2.070
 6098SOL     OW19192   1.168   2.435   5.499
 6098SOL    HW119193   1.101   2.361   5.493
 6098SOL    HW219194   1.131   2.510   5.553
 6099SOL     OW19195   6.127   5.642   6.327
 6099SOL    HW119196   6.054   5.708   6.348
 6099SOL    HW219197   6.201   5.653   6.393
 6100SOL     OW19198   5.644   3.012   6.540
 6100SOL    HW119199   5.623   2.937   6.602
 6100SOL    HW219200   5.734   3.050   6.561
 6101SOL     OW19201   6.202   1.863   5.610
 6101SOL    HW119202   6.218   1.804   5.531
 6101SOL    HW219203   6.110   1.902   5.606
 6102SOL     OW19204   4.152   0.677   4.119
 6102SOL    HW119205   4.077   0.618   4.148
 6102SOL    HW219206   4.150   0.686   4.019
 6103SOL     OW19207   6.991   1.403   3.684
 6103SOL    HW119208   0.053   1.381   3.643
 6103SOL    HW219209   6.972   1.338   3.757
 6104SOL     OW19210   6.455   2.121   6.131
 6104SOL    HW119211   6.437   2.111   6.033
 6104SOL    HW219212   6.514   2.046   6.162
 6105SOL     OW19213   2.964   6.774   5.634
 6105SOL    HW119214   2.885   6.720   5.607
 6105SOL    HW219215   2.952   6.807   5.728
 6106SOL     OW19216   1.634   4.756   5.809
 6106SOL    HW119217   1.676   4.822   5.746
 6106SOL    HW219218   1.544   4.730   5.775
 6107SOL     OW19219   2.710   5.388   4.537
 6107SOL    HW119220   2.801   5.429   4.535
 6107SOL    HW219221   2.640   5.460   4.540
 6108SOL     OW19222   0.936   1.981   3.455
 6108SOL    HW119223   0.944   2.030   3.542
 6108SOL    HW219224   0.978   2.035   3.382
 6109SOL     OW19225   5.289   3.062   6.898
 6109SOL    HW119226   5.351   3.094   6.826
 6109SOL    HW219227   5.311   2.968   6.922
 6110SOL     OW19228   3.511   2.955   6.865
 6110SOL    HW119229   3.531   2.934   6.770
 6110SOL    HW219230   3.470   3.046   6.872
 6111SOL     OW19231   1.760   4.997   2.462
 6111SOL    HW119232   1.701   4.921   2.432
 6111SOL    HW219233   1.856   4.971   2.451
 6112SOL     OW19234   2.944   1.667   3.101
 6112SOL    HW119235   2.869   1.601   3.095
 6112SOL    HW219236   2.961   1.706   3.011
 6113SOL     OW19237   0.214   0.933   6.248
 6113SOL    HW119238   0.310   0.958   6.255
 6113SOL    HW219239   0.203   0.860   6.180
 6114SOL     OW19240   5.259   4.402   1.107
 6114SOL    HW119241   5.218   4.371   1.021
 6114SOL    HW219242   5.342   4.349   1.125
 6115SOL     OW19243   5.358   6.028   2.752
 6115SOL    HW119244   5.330   6.004   2.845
 6115SOL    HW219245   5.410   6.113   2.754
 6116SOL     OW19246   2.507   1.456   1.504
 6116SOL    HW119247   2.550   1.541   1.473
 6116SOL    HW219248   2.572   1.404   1.560
 6117SOL     OW19249   0.033   0.414   5.487
 6117SOL    HW119250   7.019   0.328   5.516
 6117SOL    HW219251   0.022   0.425   5.388
 6118SOL     OW19252   6.979   1.754   2.073
 6118SOL    HW119253   6.954   1.766   2.169
 6118SOL    HW219254   0.032   1.811   2.052
 6119SOL     OW19255   0.016   3.827   4.056
 6119SOL    HW119256   0.078   3.822   3.978
 6119SOL    HW219257   0.034   3.911   4.108
 6120SOL     OW19258   3.467   7.020   3.256
 6120SOL    HW119259   3.445   0.020   3.350
 6120SOL    HW219260   3.395   6.961   3.220
 6121SOL     OW19261   6.847   2.426   3.944
 6121SOL    HW119262   6.871   2.477   3.861
 6121SOL    HW219263   6.882   2.475   4.024
 6122SOL     OW19264   2.935   6.510   2.037
 6122SOL    HW119265   3.001   6.486   1.967
 6122SOL    HW219266   2.885   6.428   2.065
 6123SOL     OW19267   6.666   0.526   1.088
 6123SOL    HW119268   6.674   0.448   1.150
 6123SOL    HW219269   6.732   0.516   1.013
 6124SOL     OW19270   3.324   0.142   5.389
 6124SOL    HW119271   3.319   0.209   5.464
 6124SOL    HW219272   3.246   0.080   5.395
 6125SOL     OW19273   2.513   5.820   0.987
 6125SOL    HW119274   2.585   5.849   1.049
 6125SOL    HW219275   2.495   5.892   0.920
 6126SOL     OW19276   5.865   6.305   4.056
 6126SOL    HW119277   5.940   6.257   4.102
 6126SOL    HW219278   5.778   6.263   4.082
 6127SOL     OW19279   2.098   6.805   1.621
 6127SOL    HW119280   2.082   6.883   1.681
 6127SOL    HW219281   2.070   6.827   1.528
 6128SOL     OW19282   6.798   3.080   0.171
 6128SOL    HW119283   6.824   3.132   0.090
 6128SOL    HW219284   6.855   2.998   0.178
 6129SOL     OW19285   6.234   4.550   3.534
 6129SOL    HW119286   6.257   4.613   3.460
 6129SOL    HW219287   6.193   4.467   3.495
 6130SOL     OW19288   6.369   2.378   4.245
 6130SOL    HW119289   6.387   2.371   4.147
 6130SOL    HW219290   6.343   2.471   4.268
 6131SOL     OW19291   6.767   1.481   5.654
 6131SOL    HW119292   6.805   1.529   5.575
 6131SOL    HW219293   6.815   1.394   5.667
 6132SOL     OW19294   4.468   0.464   0.989
 6132SOL    HW119295   4.393   0.527   0.965
 6132SOL    HW219296   4.507   0.491   1.077
 6133SOL     OW19297   0.926   2.254   2.464
 6133SOL    HW119298   0.901   2.214   2.552
 6133SOL    HW219299   1.000   2.200   2.424
 6134SOL     OW19300   4.038   3.501   6.724
 6134SOL    HW119301   4.128   3.481   6.763
 6134SOL    HW219302   4.035   3.471   6.629
 6135SOL     OW19303   6.534   6.627   2.588
 6135SOL    HW119304   6.490   6.705   2.543
 6135SOL    HW219305   6.610   6.659   2.645
 6136SOL     OW19306   0.670   1.971   2.494
 6136SOL    HW119307   0.723   2.011   2.569
 6136SOL    HW219308   0.731   1.950   2.418
 6137SOL     OW19309   4.161   0.715   5.529
 6137SOL    HW119310   4.260   0.731   5.531
 6137SOL    HW219311   4.140   0.648   5.458
 6138SOL     OW19312   3.445   6.591   2.752
 6138SOL    HW119313   3.493   6.505   2.732
 6138SOL    HW219314   3.347   6.579   2.735
 6139SOL     OW19315   2.176   3.170   4.413
 6139SOL    HW119316   2.146   3.266   4.420
 6139SOL    HW219317   2.223   3.156   4.326
 6140SOL     OW19318   0.884   6.081   1.381
 6140SOL    HW119319   0.929   6.096   1.469
 6140SOL    HW219320   0.948   6.035   1.319
 6141SOL     OW19321   5.653   5.772   5.287
 6141SOL    HW119322   5.582   5.749   5.220
 6141SOL    HW219323   5.742   5.744   5.250
 6142SOL     OW19324   0.007   5.135   0.744
 6142SOL    HW119325   6.971   5.058   0.751
 6142SOL    HW219326   0.026   5.171   0.835
 6143SOL     OW19327   6.069   5.384   6.669
 6143SOL    HW119328   6.050   5.351   6.761
 6143SOL    HW219329   6.157   5.349   6.638
 6144SOL     OW19330   6.659   4.841   2.283
 6144SOL    HW119331   6.708   4.775   2.225
 6144SOL    HW219332   6.561   4.837   2.264
 6145SOL     OW19333   4.554   6.164   3.611
 6145SOL    HW119334   4.505   6.106   3.677
 6145SOL    HW219335   4.621   6.220   3.659
 6146SOL     OW19336   4.272   1.149   3.319
 6146SOL    HW119337   4.224   1.061   3.326
 6146SOL    HW219338   4.237   1.211   3.389
 6147SOL     OW19339   1.757   3.933   3.549
 6147SOL    HW119340   1.840   3.985   3.529
 6147SOL    HW219341   1.768   3.885   3.636
 6148SOL     OW19342   7.005   0.467   5.214
 6148SOL    HW119343   6.961   0.556   5.206
 6148SOL    HW219344   6.948   0.398   5.168
 6149SOL     OW19345   3.802   4.888   3.267
 6149SOL    HW119346   3.826   4.932   3.181
 6149SOL    HW219347   3.708   4.853   3.262
 6150SOL     OW19348   4.226   5.010   6.417
 6150SOL    HW119349   4.172   4.969   6.490
 6150SOL    HW219350   4.286   5.081   6.455
 6151SOL     OW19351   6.678   4.007   4.506
 6151SOL    HW119352   6.670   3.950   4.425
 6151SOL    HW219353   6.593   4.058   4.519
 6152SOL     OW19354   5.108   4.596   5.225
 6152SOL    HW119355   5.138   4.506   5.255
 6152SOL    HW219356   5.188   4.653   5.206
 6153SOL     OW19357   4.687   3.939   1.750
 6153SOL    HW119358   4.685   3.861   1.687
 6153SOL    HW219359   4.605   3.994   1.737
 6154SOL     OW19360   5.062   1.314   2.108
 6154SOL    HW119361   5.026   1.227   2.140
 6154SOL    HW219362   5.001   1.351   2.037
 6155SOL     OW19363   1.711   2.734   3.824
 6155SOL    HW119364   1.723   2.766   3.917
 6155SOL    HW219365   1.799   2.733   3.777
 6156SOL     OW19366   4.593   5.247   2.431
 6156SOL    HW119367   4.589   5.267   2.333
 6156SOL    HW219368   4.657   5.173   2.448
 6157SOL     OW19369   1.283   1.762   4.076
 6157SOL    HW119370   1.378   1.770   4.047
 6157SOL    HW219371   1.233   1.844   4.048
 6158SOL     OW19372   4.690   0.784   6.715
 6158SOL    HW119373   4.608   0.771   6.659
 6158SOL    HW219374   4.707   0.882   6.727
 6159SOL     OW19375   4.613   1.752   0.548
 6159SOL    HW119376   4.620   1.779   0.452
 6159SOL    HW219377   4.521   1.715   0.565
 6160SOL     OW19378   5.612   5.800   0.707
 6160SOL    HW119379   5.550   5.878   0.714
 6160SOL    HW219380   5.600   5.740   0.786
 6161SOL     OW19381   5.917   1.804   6.189
 6161SOL    HW119382   5.934   1.718   6.142
 6161SOL    HW219383   5.883   1.785   6.281
 6162SOL     OW19384   0.875   5.348   4.389
 6162SOL    HW119385   0.870   5.252   4.362
 6162SOL    HW219386   0.814   5.364   4.467
 6163SOL     OW19387   5.760   5.571   1.556
 6163SOL    HW119388   5.735   5.541   1.648
 6163SOL    HW219389   5.847   5.531   1.529
 6164SOL     OW19390   2.052   3.115   1.624
 6164SOL    HW119391   2.119   3.188   1.613
 6164SOL    HW219392   2.047   3.087   1.720
 6165SOL     OW19393   3.191   6.840   6.897
 6165SOL    HW119394   3.173   6.934   6.869
 6165SOL    HW219395   3.288   6.820   6.888
 6166SOL     OW19396   3.932   0.644   5.105
 6166SOL    HW119397   3.849   0.650   5.049
 6166SOL    HW219398   3.940   0.726   5.161
 6167SOL     OW19399   0.020   4.544   2.093
 6167SOL    HW119400   0.108   4.502   2.111
 6167SOL    HW219401   7.008   4.505   2.009
 6168SOL     OW19402   0.262   3.833   0.623
 6168SOL    HW119403   0.193   3.798   0.686
 6168SOL    HW219404   0.305   3.915   0.661
 6169SOL     OW19405   1.038   3.332   2.250
 6169SOL    HW119406   0.951   3.376   2.273
 6169SOL    HW219407   1.021   3.252   2.193
 6170SOL     OW19408   0.878   2.879   5.049
 6170SOL    HW119409   0.870   2.781   5.032
 6170SOL    HW219410   0.926   2.893   5.136
 6171SOL     OW19411   0.724   1.841   0.354
 6171SOL    HW119412   0.692   1.935   0.365
 6171SOL    HW219413   0.799   1.823   0.417
 6172SOL     OW19414   1.452   2.827   2.368
 6172SOL    HW119415   1.410   2.913   2.397
 6172SOL    HW219416   1.544   2.845   2.333
 6173SOL     OW19417   6.592   5.627   3.108
 6173SOL    HW119418   6.632   5.701   3.055
 6173SOL    HW219419   6.615   5.640   3.205
 6174SOL     OW19420   4.375   5.105   3.597
 6174SOL    HW119421   4.295   5.104   3.538
 6174SOL    HW219422   4.445   5.164   3.557
 6175SOL     OW19423   3.666   0.799   4.373
 6175SOL    HW119424   3.717   0.823   4.456
 6175SOL    HW219425   3.701   0.852   4.296
 6176SOL     OW19426   4.352   3.543   5.268
 6176SOL    HW119427   4.450   3.545   5.251
 6176SOL    HW219428   4.319   3.449   5.255
 6177SOL     OW19429   4.966   1.769   1.896
 6177SOL    HW119430   5.033   1.822   1.843
 6177SOL    HW219431   4.878   1.817   1.896
 6178SOL     OW19432   4.896   3.823   1.929
 6178SOL    HW119433   4.914   3.726   1.946
 6178SOL    HW219434   4.858   3.835   1.838
 6179SOL     OW19435   6.792   4.281   1.637
 6179SOL    HW119436   6.848   4.351   1.594
 6179SOL    HW219437   6.778   4.305   1.733
 6180SOL     OW19438   3.522   4.584   0.408
 6180SOL    HW119439   3.569   4.660   0.363
 6180SOL    HW219440   3.448   4.552   0.349
 6181SOL     OW19441   4.683   6.490   6.179
 6181SOL    HW119442   4.772   6.497   6.136
 6181SOL    HW219443   4.676   6.403   6.229
 6182SOL     OW19444   4.630   2.188   6.691
 6182SOL    HW119445   4.557   2.151   6.633
 6182SOL    HW219446   4.695   2.239   6.635
 6183SOL     OW19447   1.849   2.136   1.779
 6183SOL    HW119448   1.785   2.174   1.712
 6183SOL    HW219449   1.933   2.190   1.779
 6184SOL     OW19450   2.934   0.273   5.997
 6184SOL    HW119451   3.029   0.294   6.022
 6184SOL    HW219452   2.933   0.216   5.915
 6185SOL     OW19453   2.447   4.292   5.888
 6185SOL    HW119454   2.545   4.309   5.880
 6185SOL    HW219455   2.414   4.250   5.804
 6186SOL     OW19456   6.896   1.201   1.820
 6186SOL    HW119457   6.797   1.211   1.832
 6186SOL    HW219458   6.944   1.269   1.876
 6187SOL     OW19459   4.729   2.695   5.204
 6187SOL    HW119460   4.714   2.705   5.106
 6187SOL    HW219461   4.826   2.704   5.224
 6188SOL     OW19462   1.620   1.839   5.670
 6188SOL    HW119463   1.652   1.749   5.702
 6188SOL    HW219464   1.539   1.866   5.722
 6189SOL     OW19465   3.903   5.652   2.503
 6189SOL    HW119466   3.950   5.622   2.420
 6189SOL    HW219467   3.951   5.619   2.584
 6190SOL     OW19468   6.376   3.009   5.548
 6190SOL    HW119469   6.466   2.974   5.526
 6190SOL    HW219470   6.373   3.107   5.528
 6191SOL     OW19471   2.354   2.930   5.749
 6191SOL    HW119472   2.357   2.985   5.665
 6191SOL    HW219473   2.315   2.984   5.823
 6192SOL     OW19474   2.330   2.234   6.339
 6192SOL    HW119475   2.371   2.241   6.248
 6192SOL    HW219476   2.400   2.211   6.406
 6193SOL     OW19477   4.709   5.855   0.713
 6193SOL    HW119478   4.793   5.900   0.682
 6193SOL    HW219479   4.719   5.756   0.704
 6194SOL     OW19480   6.426   0.587   6.402
 6194SOL    HW119481   6.517   0.589   6.360
 6194SOL    HW219482   6.413   0.669   6.457
 6195SOL     OW19483   5.829   6.569   5.140
 6195SOL    HW119484   5.737   6.591   5.174
 6195SOL    HW219485   5.831   6.473   5.111
 6196SOL     OW19486   4.647   4.767   2.759
 6196SOL    HW119487   4.613   4.683   2.799
 6196SOL    HW219488   4.571   4.830   2.742
 6197SOL     OW19489   2.404   5.079   2.737
 6197SOL    HW119490   2.443   4.988   2.723
 6197SOL    HW219491   2.477   5.144   2.756
 6198SOL     OW19492   5.495   6.141   0.086
 6198SOL    HW119493   5.571   6.139   0.021
 6198SOL    HW219494   5.451   6.052   0.088
 6199SOL     OW19495   0.362   0.696   0.350
 6199SOL    HW119496   0.386   0.601   0.371
 6199SOL    HW219497   0.418   0.729   0.275
 6200SOL     OW19498   0.684   1.216   2.806
 6200SOL    HW119499   0.777   1.199   2.837
 6200SOL    HW219500   0.623   1.145   2.842
 6201SOL     OW19501   0.445   4.215   4.126
 6201SOL    HW119502   0.474   4.141   4.187
 6201SOL    HW219503   0.478   4.198   4.034
 6202SOL     OW19504   5.854   1.710   3.186
 6202SOL    HW119505   5.870   1.759   3.101
 6202SOL    HW219506   5.784   1.757   3.240
 6203SOL     OW19507   6.376   5.429   2.168
 6203SOL    HW119508   6.381   5.428   2.069
 6203SOL    HW219509   6.422   5.348   2.205
 6204SOL     OW19510   1.130   6.141   5.028
 6204SOL    HW119511   1.142   6.236   5.059
 6204SOL    HW219512   1.099   6.085   5.105
 6205SOL     OW19513   4.959   4.680   1.841
 6205SOL    HW119514   5.028   4.635   1.785
 6205SOL    HW219515   4.944   4.628   1.925
 6206SOL     OW19516   5.025   2.351   3.473
 6206SOL    HW119517   4.950   2.332   3.537
 6206SOL    HW219518   5.042   2.269   3.418
 6207SOL     OW19519   1.630   6.088   4.664
 6207SOL    HW119520   1.658   6.012   4.604
 6207SOL    HW219521   1.542   6.124   4.634
 6208SOL     OW19522   3.225   2.243   5.580
 6208SOL    HW119523   3.134   2.258   5.619
 6208SOL    HW219524   3.285   2.318   5.606
 6209SOL     OW19525   3.608   4.452   0.922
 6209SOL    HW119526   3.634   4.548   0.914
 6209SOL    HW219527   3.509   4.443   0.916
 6210SOL     OW19528   5.433   3.618   2.778
 6210SOL    HW119529   5.465   3.692   2.837
 6210SOL    HW219530   5.450   3.530   2.823
 6211SOL     OW19531   4.336   6.103   5.823
 6211SOL    HW119532   4.388   6.023   5.792
 6211SOL    HW219533   4.254   6.072   5.871
 6212SOL     OW19534   2.516   4.699   4.257
 6212SOL    HW119535   2.478   4.626   4.314
 6212SOL    HW219536   2.533   4.664   4.165
 6213SOL     OW19537   4.932   6.404   0.787
 6213SOL    HW119538   4.970   6.479   0.733
 6213SOL    HW219539   5.006   6.348   0.822
 6214SOL     OW19540   5.273   5.541   6.224
 6214SOL    HW119541   5.309   5.616   6.169
 6214SOL    HW219542   5.207   5.489   6.170
 6215SOL     OW19543   4.677   3.003   6.631
 6215SOL    HW119544   4.580   3.002   6.609
 6215SOL    HW219545   4.731   2.988   6.548
 6216SOL     OW19546   6.238   2.893   3.379
 6216SOL    HW119547   6.203   2.829   3.447
 6216SOL    HW219548   6.320   2.854   3.336
 6217SOL     OW19549   0.742   4.648   2.160
 6217SOL    HW119550   0.657   4.653   2.108
 6217SOL    HW219551   0.810   4.707   2.118
 6218SOL     OW19552   4.500   6.566   0.209
 6218SOL    HW119553   4.539   6.480   0.175
 6218SOL    HW219554   4.407   6.575   0.176
 6219SOL     OW19555   1.716   0.727   5.219
 6219SOL    HW119556   1.779   0.800   5.243
 6219SOL    HW219557   1.755   0.671   5.146
 6220SOL     OW19558   3.225   1.069   0.108
 6220SOL    HW119559   3.176   0.984   0.124
 6220SOL    HW219560   3.234   1.084   0.009
 6221SOL     OW19561   6.215   6.435   6.869
 6221SOL    HW119562   6.159   6.494   6.928
 6221SOL    HW219563   6.310   6.435   6.903
 6222SOL     OW19564   5.913   0.738   2.448
 6222SOL    HW119565   5.871   0.788   2.372
 6222SOL    HW219566   5.866   0.760   2.533
 6223SOL     OW19567   0.616   4.888   3.925
 6223SOL    HW119568   0.585   4.803   3.882
 6223SOL    HW219569   0.657   4.948   3.855
 6224SOL     OW19570   4.407   0.859   6.016
 6224SOL    HW119571   4.392   0.822   5.924
 6224SOL    HW219572   4.505   0.870   6.031
 6225SOL     OW19573   3.837   1.273   6.275
 6225SOL    HW119574   3.864   1.349   6.216
 6225SOL    HW219575   3.888   1.277   6.361
 6226SOL     OW19576   1.402   1.409   4.013
 6226SOL    HW119577   1.306   1.390   3.990
 6226SOL    HW219578   1.420   1.376   4.106
 6227SOL     OW19579   2.892   4.403   5.378
 6227SOL    HW119580   2.857   4.448   5.296
 6227SOL    HW219581   2.983   4.366   5.360
 6228SOL     OW19582   1.304   2.289   3.951
 6228SOL    HW119583   1.282   2.229   4.027
 6228SOL    HW219584   1.400   2.277   3.926
 6229SOL     OW19585   0.066   2.981   5.047
 6229SOL    HW119586   0.038   2.935   4.963
 6229SOL    HW219587   0.111   3.067   5.024
 6230SOL     OW19588   0.699   1.478   3.240
 6230SOL    HW119589   0.630   1.523   3.184
 6230SOL    HW219590   0.764   1.546   3.275
 6231SOL     OW19591   5.299   4.977   0.244
 6231SOL    HW119592   5.366   5.051   0.256
 6231SOL    HW219593   5.214   5.015   0.206
 6232SOL     OW19594   6.041   0.685   0.867
 6232SOL    HW119595   6.109   0.613   0.853
 6232SOL    HW219596   6.057   0.760   0.802
 6233SOL     OW19597   0.382   3.337   1.939
 6233SOL    HW119598   0.298   3.306   1.895
 6233SOL    HW219599   0.445   3.373   1.870
 6234SOL     OW19600   0.220   0.510   5.084
 6234SOL    HW119601   0.148   0.496   5.152
 6234SOL    HW219602   0.216   0.436   5.017
 6235SOL     OW19603   6.920   0.670   2.328
 6235SOL    HW119604   7.019   0.656   2.322
 6235SOL    HW219605   6.875   0.585   2.353
 6236SOL     OW19606   0.186   4.252   0.627
 6236SOL    HW119607   0.128   4.182   0.670
 6236SOL    HW219608   0.212   4.320   0.695
 6237SOL     OW19609   3.586   7.013   0.463
 6237SOL    HW119610   3.548   6.926   0.433
 6237SOL    HW219611   3.540   0.061   0.416
 6238SOL     OW19612   3.341   6.936   3.590
 6238SOL    HW119613   3.398   6.889   3.656
 6238SOL    HW219614   3.262   6.879   3.566
 6239SOL     OW19615   3.426   6.569   1.911
 6239SOL    HW119616   3.393   6.651   1.864
 6239SOL    HW219617   3.507   6.534   1.863
 6240SOL     OW19618   3.067   4.042   4.791
 6240SOL    HW119619   3.164   4.023   4.774
 6240SOL    HW219620   3.058   4.128   4.842
 6241SOL     OW19621   3.886   0.216   3.921
 6241SOL    HW119622   3.979   0.231   3.955
 6241SOL    HW219623   3.885   0.219   3.821
 6242SOL     OW19624   2.344   2.148   3.051
 6242SOL    HW119625   2.245   2.133   3.045
 6242SOL    HW219626   2.380   2.101   3.132
 6243SOL     OW19627   6.505   0.764   5.576
 6243SOL    HW119628   6.575   0.716   5.523
 6243SOL    HW219629   6.511   0.862   5.557
 6244SOL     OW19630   5.173   4.011   2.554
 6244SOL    HW119631   5.114   3.992   2.633
 6244SOL    HW219632   5.219   3.927   2.526
 6245SOL     OW19633   0.907   5.283   2.008
 6245SOL    HW119634   0.907   5.381   2.027
 6245SOL    HW219635   0.813   5.249   2.011
 6246SOL     OW19636   1.128   6.892   4.382
 6246SOL    HW119637   1.177   6.861   4.300
 6246SOL    HW219638   1.030   6.878   4.369
 6247SOL     OW19639   0.919   5.251   3.524
 6247SOL    HW119640   0.902   5.156   3.496
 6247SOL    HW219641   0.991   5.253   3.594
 6248SOL     OW19642   3.741   3.418   6.755
 6248SOL    HW119643   3.675   3.366   6.701
 6248SOL    HW219644   3.834   3.386   6.733
 6249SOL     OW19645   7.011   2.677   1.458
 6249SOL    HW119646   0.045   2.714   1.387
 6249SOL    HW219647   6.963   2.597   1.423
 6250SOL     OW19648   0.231   6.976   0.583
 6250SOL    HW119649   0.131   6.975   0.588
 6250SOL    HW219650   0.260   0.018   0.516
 6251SOL     OW19651   3.596   6.145   4.452
 6251SOL    HW119652   3.573   6.084   4.377
 6251SOL    HW219653   3.691   6.129   4.481
 6252SOL     OW19654   2.755   4.980   0.036
 6252SOL    HW119655   2.726   4.904   7.005
 6252SOL    HW219656   2.691   5.056   0.026
 6253SOL     OW19657   2.660   4.942   4.709
 6253SOL    HW119658   2.613   4.860   4.676
 6253SOL    HW219659   2.696   4.993   4.632
 6254SOL     OW19660   1.067   5.993   0.868
 6254SOL    HW119661   1.139   5.929   0.845
 6254SOL    HW219662   0.991   5.944   0.911
 6255SOL     OW19663   1.785   2.633   1.169
 6255SOL    HW119664   1.839   2.662   1.248
 6255SOL    HW219665   1.696   2.679   1.170
 6256SOL     OW19666   4.593   5.508   2.444
 6256SOL    HW119667   4.504   5.552   2.438
 6256SOL    HW219668   4.585   5.420   2.490
 6257SOL     OW19669   4.341   3.516   0.558
 6257SOL    HW119670   4.375   3.506   0.464
 6257SOL    HW219671   4.241   3.522   0.557
 6258SOL     OW19672   3.904   6.966   5.636
 6258SOL    HW119673   3.933   7.021   5.558
 6258SOL    HW219674   3.804   6.964   5.641
 6259SOL     OW19675   1.218   1.186   5.964
 6259SOL    HW119676   1.279   1.158   6.038
 6259SOL    HW219677   1.235   1.282   5.941
 6260SOL     OW19678   1.814   0.763   0.591
 6260SOL    HW119679   1.811   0.669   0.559
 6260SOL    HW219680   1.892   0.776   0.652
 6261SOL     OW19681   5.138   0.135   1.762
 6261SOL    HW119682   5.228   0.174   1.782
 6261SOL    HW219683   5.086   0.198   1.705
 6262SOL     OW19684   6.862   6.203   2.752
 6262SOL    HW119685   6.941   6.154   2.788
 6262SOL    HW219686   6.891   6.266   2.680
 6263SOL     OW19687   6.932   6.732   4.710
 6263SOL    HW119688   6.838   6.738   4.675
 6263SOL    HW219689   6.942   6.650   4.765
 6264SOL     OW19690   1.168   6.851   1.139
 6264SOL    HW119691   1.235   6.897   1.081
 6264SOL    HW219692   1.088   6.826   1.084
 6265SOL     OW19693   4.174   2.646   0.784
 6265SOL    HW119694   4.152   2.709   0.710
 6265SOL    HW219695   4.271   2.621   0.779
 6266SOL     OW19696   3.317   6.502   3.071
 6266SOL    HW119697   3.349   6.595   3.051
 6266SOL    HW219698   3.394   6.444   3.095
 6267SOL     OW19699   1.093   6.697   4.902
 6267SOL    HW119700   1.055   6.747   4.824
 6267SOL    HW219701   1.026   6.629   4.933
 6268SOL     OW19702   3.707   0.002   2.193
 6268SOL    HW119703   3.626   0.041   2.239
 6268SOL    HW219704   3.784   0.065   2.203
 6269SOL     OW19705   5.835   5.991   1.440
 6269SOL    HW119706   5.858   6.088   1.450
 6269SOL    HW219707   5.899   5.936   1.495
 6270SOL     OW19708   0.651   6.777   7.007
 6270SOL    HW119709   0.671   6.700   0.042
 6270SOL    HW219710   0.585   6.748   6.938
 6271SOL     OW19711   5.604   2.365   6.655
 6271SOL    HW119712   5.570   2.272   6.666
 6271SOL    HW219713   5.543   2.416   6.595
 6272SOL     OW19714   6.746   0.582   6.792
 6272SOL    HW119715   6.701   0.494   6.777
 6272SOL    HW219716   6.840   0.577   6.760
 6273SOL     OW19717   0.262   6.209   3.033
 6273SOL    HW119718   0.264   6.293   3.086
 6273SOL    HW219719   0.302   6.225   2.943
 6274SOL     OW19720   3.070   6.764   4.352
 6274SOL    HW119721   2.977   6.728   4.360
 6274SOL    HW219722   3.094   6.812   4.437
 6275SOL     OW19723   2.646   5.739   0.496
 6275SOL    HW119724   2.736   5.761   0.534
 6275SOL    HW219725   2.658   5.681   0.415
 6276SOL     OW19726   3.648   5.745   3.417
 6276SOL    HW119727   3.636   5.702   3.506
 6276SOL    HW219728   3.723   5.811   3.422
 6277SOL     OW19729   4.893   1.892   1.482
 6277SOL    HW119730   4.798   1.903   1.513
 6277SOL    HW219731   4.928   1.804   1.512
 6278SOL     OW19732   3.304   0.323   5.608
 6278SOL    HW119733   3.270   0.414   5.633
 6278SOL    HW219734   3.403   0.327   5.596
 6279SOL     OW19735   3.360   5.575   0.374
 6279SOL    HW119736   3.417   5.636   0.429
 6279SOL    HW219737   3.306   5.517   0.435
 6280SOL     OW19738   6.824   1.800   0.169
 6280SOL    HW119739   6.846   1.705   0.190
 6280SOL    HW219740   6.742   1.803   0.111
 6281SOL     OW19741   6.080   4.292   4.517
 6281SOL    HW119742   5.980   4.288   4.510
 6281SOL    HW219743   6.111   4.386   4.502
 6282SOL     OW19744   6.654   3.594   5.006
 6282SOL    HW119745   6.663   3.688   5.038
 6282SOL    HW219746   6.567   3.584   4.958
 6283SOL     OW19747   0.854   5.468   5.031
 6283SOL    HW119748   0.906   5.464   5.116
 6283SOL    HW219749   0.777   5.532   5.042
 6284SOL     OW19750   0.768   4.706   6.518
 6284SOL    HW119751   0.742   4.761   6.598
 6284SOL    HW219752   0.767   4.609   6.542
 6285SOL     OW19753   2.054   3.554   3.680
 6285SOL    HW119754   2.015   3.571   3.590
 6285SOL    HW219755   2.055   3.456   3.699
 6286SOL     OW19756   6.977   3.670   5.114
 6286SOL    HW119757   6.889   3.703   5.081
 6286SOL    HW219758   7.006   3.591   5.059
 6287SOL     OW19759   4.251   4.343   5.709
 6287SOL    HW119760   4.279   4.249   5.696
 6287SOL    HW219761   4.169   4.346   5.767
 6288SOL     OW19762   4.254   3.900   0.271
 6288SOL    HW119763   4.181   3.914   0.337
 6288SOL    HW219764   4.226   3.830   0.204
 6289SOL     OW19765   2.587   3.945   6.735
 6289SOL    HW119766   2.627   3.954   6.643
 6289SOL    HW219767   2.488   3.939   6.728
 6290SOL     OW19768   6.360   5.294   6.634
 6290SOL    HW119769   6.423   5.358   6.676
 6290SOL    HW219770   6.351   5.316   6.536
 6291SOL     OW19771   3.283   3.153   3.125
 6291SOL    HW119772   3.217   3.209   3.174
 6291SOL    HW219773   3.363   3.208   3.102
 6292SOL     OW19774   1.713   2.339   4.675
 6292SOL    HW119775   1.697   2.418   4.617
 6292SOL    HW219776   1.809   2.335   4.703
 6293SOL     OW19777   4.782   1.692   0.735
 6293SOL    HW119778   4.745   1.731   0.820
 6293SOL    HW219779   4.715   1.703   0.662
 6294SOL     OW19780   3.417   0.549   3.761
 6294SOL    HW119781   3.500   0.517   3.716
 6294SOL    HW219782   3.337   0.513   3.712
 6295SOL     OW19783   5.052   5.223   4.782
 6295SOL    HW119784   5.122   5.177   4.726
 6295SOL    HW219785   5.002   5.289   4.726
 6296SOL     OW19786   0.732   3.712   5.886
 6296SOL    HW119787   0.806   3.705   5.820
 6296SOL    HW219788   0.711   3.809   5.902
 6297SOL     OW19789   6.020   0.154   4.937
 6297SOL    HW119790   6.062   0.066   4.957
 6297SOL    HW219791   5.970   0.186   5.018
 6298SOL     OW19792   5.894   4.395   6.684
 6298SOL    HW119793   5.946   4.428   6.762
 6298SOL    HW219794   5.902   4.295   6.678
 6299SOL     OW19795   5.375   2.552   2.479
 6299SOL    HW119796   5.400   2.596   2.566
 6299SOL    HW219797   5.312   2.476   2.498
 6300SOL     OW19798   4.295   1.053   6.306
 6300SOL    HW119799   4.387   1.039   6.341
 6300SOL    HW219800   4.261   0.967   6.267
 6301SOL     OW19801   3.048   6.786   6.683
 6301SOL    HW119802   3.104   6.807   6.764
 6301SOL    HW219803   2.974   6.853   6.676
 6302SOL     OW19804   1.927   1.705   5.739
 6302SOL    HW119805   1.931   1.804   5.758
 6302SOL    HW219806   1.832   1.677   5.730
 6303SOL     OW19807   1.139   6.798   5.677
 6303SOL    HW119808   1.084   6.882   5.678
 6303SOL    HW219809   1.090   6.727   5.626
 6304SOL     OW19810   4.126   1.490   3.360
 6304SOL    HW119811   4.057   1.434   3.315
 6304SOL    HW219812   4.093   1.519   3.450
 6305SOL     OW19813   6.433   5.938   6.243
 6305SOL    HW119814   6.349   5.991   6.243
 6305SOL    HW219815   6.440   5.885   6.328
 6306SOL     OW19816   0.482   3.701   3.662
 6306SOL    HW119817   0.493   3.713   3.760
 6306SOL    HW219818   0.386   3.711   3.637
 6307SOL     OW19819   4.099   3.796   3.784
 6307SOL    HW119820   4.066   3.750   3.867
 6307SOL    HW219821   4.180   3.849   3.805
 6308SOL     OW19822   0.210   2.122   5.771
 6308SOL    HW119823   0.198   2.201   5.710
 6308SOL    HW219824   0.139   2.055   5.753
 6309SOL     OW19825   0.343   6.677   4.076
 6309SOL    HW119826   0.328   6.585   4.041
 6309SOL    HW219827   0.441   6.693   4.088
 6310SOL     OW19828   1.602   6.954   3.054
 6310SOL    HW119829   1.516   6.950   3.004
 6310SOL    HW219830   1.658   6.873   3.033
 6311SOL     OW19831   5.014   0.897   6.813
 6311SOL    HW119832   5.038   0.835   6.738
 6311SOL    HW219833   4.923   0.936   6.796
 6312SOL     OW19834   2.719   6.901   6.483
 6312SOL    HW119835   2.704   6.828   6.549
 6312SOL    HW219836   2.664   6.884   6.401
 6313SOL     OW19837   5.359   6.468   3.511
 6313SOL    HW119838   5.383   6.438   3.419
 6313SOL    HW219839   5.401   6.405   3.578
 6314SOL     OW19840   3.224   6.861   1.344
 6314SOL    HW119841   3.135   6.871   1.389
 6314SOL    HW219842   3.290   6.923   1.387
 6315SOL     OW19843   1.942   2.563   4.670
 6315SOL    HW119844   1.963   2.480   4.722
 6315SOL    HW219845   2.025   2.618   4.661
 6316SOL     OW19846   4.774   1.799   6.003
 6316SOL    HW119847   4.825   1.719   6.035
 6316SOL    HW219848   4.836   1.860   5.954
 6317SOL     OW19849   5.467   4.480   2.637
 6317SOL    HW119850   5.393   4.544   2.659
 6317SOL    HW219851   5.428   4.398   2.597
 6318SOL     OW19852   6.307   0.210   6.977
 6318SOL    HW119853   6.378   0.161   6.925
 6318SOL    HW219854   6.256   0.269   6.915
 6319SOL     OW19855   5.834   2.563   4.883
 6319SOL    HW119856   5.930   2.551   4.909
 6319SOL    HW219857   5.813   2.505   4.805
 6320SOL     OW19858   0.042   0.549   3.882
 6320SOL    HW119859   0.111   0.517   3.818
 6320SOL    HW219860   0.041   0.649   3.884
 6321SOL     OW19861   5.081   3.153   0.571
 6321SOL    HW119862   4.999   3.160   0.514
 6321SOL    HW219863   5.097   3.057   0.595
 6322SOL     OW19864   2.596   1.933   0.792
 6322SOL    HW119865   2.514   1.983   0.763
 6322SOL    HW219866   2.674   1.994   0.793
 6323SOL     OW19867   2.316   3.456   1.045
 6323SOL    HW119868   2.268   3.369   1.056
 6323SOL    HW219869   2.265   3.528   1.093
 6324SOL     OW19870   4.332   1.492   1.226
 6324SOL    HW119871   4.372   1.447   1.146
 6324SOL    HW219872   4.312   1.587   1.205
 6325SOL     OW19873   1.930   2.655   2.354
 6325SOL    HW119874   1.938   2.626   2.258
 6325SOL    HW219875   2.018   2.642   2.400
 6326SOL     OW19876   4.620   4.686   5.670
 6326SOL    HW119877   4.641   4.756   5.737
 6326SOL    HW219878   4.552   4.623   5.708
 6327SOL     OW19879   0.425   1.636   3.547
 6327SOL    HW119880   0.327   1.624   3.529
 6327SOL    HW219881   0.439   1.650   3.645
 6328SOL     OW19882   5.339   4.151   6.352
 6328SOL    HW119883   5.268   4.144   6.422
 6328SOL    HW219884   5.429   4.152   6.396
 6329SOL     OW19885   1.085   3.042   4.936
 6329SOL    HW119886   1.027   2.990   4.998
 6329SOL    HW219887   1.155   2.982   4.897
 6330SOL     OW19888   5.838   0.708   3.390
 6330SOL    HW119889   5.790   0.796   3.399
 6330SOL    HW219890   5.845   0.665   3.479
 6331SOL     OW19891   6.484   3.168   4.879
 6331SOL    HW119892   6.482   3.216   4.791
 6331SOL    HW219893   6.458   3.073   4.866
 6332SOL     OW19894   1.833   1.609   1.695
 6332SOL    HW119895   1.878   1.567   1.616
 6332SOL    HW219896   1.881   1.692   1.721
 6333SOL     OW19897   4.780   7.005   0.067
 6333SOL    HW119898   4.720   0.017   0.137
 6333SOL    HW219899   4.868   6.981   0.109
 6334SOL     OW19900   2.487   1.587   1.912
 6334SOL    HW119901   2.440   1.641   1.982
 6334SOL    HW219902   2.568   1.637   1.881
 6335SOL     OW19903   5.335   1.002   0.959
 6335SOL    HW119904   5.379   1.075   0.907
 6335SOL    HW219905   5.310   1.035   1.050
 6336SOL     OW19906   6.981   5.114   6.455
 6336SOL    HW119907   6.988   5.124   6.355
 6336SOL    HW219908   6.946   5.023   6.477
 6337SOL     OW19909   4.350   5.309   4.938
 6337SOL    HW119910   4.264   5.293   4.891
 6337SOL    HW219911   4.414   5.354   4.875
 6338SOL     OW19912   3.130   1.974   4.450
 6338SOL    HW119913   3.229   1.972   4.462
 6338SOL    HW219914   3.106   2.039   4.377
 6339SOL     OW19915   1.120   3.321   2.587
 6339SOL    HW119916   1.069   3.257   2.529
 6339SOL    HW219917   1.137   3.406   2.536
 6340SOL     OW19918   2.522   4.024   1.593
 6340SOL    HW119919   2.439   4.072   1.565
 6340SOL    HW219920   2.591   4.090   1.620
 6341SOL     OW19921   0.878   3.449   3.561
 6341SOL    HW119922   0.910   3.405   3.477
 6341SOL    HW219923   0.782   3.427   3.575
 6342SOL     OW19924   2.448   1.096   1.290
 6342SOL    HW119925   2.400   1.158   1.352
 6342SOL    HW219926   2.500   1.149   1.223
 6343SOL     OW19927   3.333   6.756   0.147
 6343SOL    HW119928   3.260   6.794   0.091
 6343SOL    HW219929   3.297   6.682   0.204
 6344SOL     OW19930   5.992   2.703   3.940
 6344SOL    HW119931   6.025   2.791   3.907
 6344SOL    HW219932   5.926   2.718   4.013
 6345SOL     OW19933   5.066   3.184   1.822
 6345SOL    HW119934   5.149   3.166   1.769
 6345SOL    HW219935   4.988   3.190   1.760
 6346SOL     OW19936   7.003   4.054   5.471
 6346SOL    HW119937   0.076   4.046   5.468
 6346SOL    HW219938   6.967   4.053   5.378
 6347SOL     OW19939   2.721   2.204   2.245
 6347SOL    HW119940   2.673   2.117   2.233
 6347SOL    HW219941   2.763   2.231   2.158
 6348SOL     OW19942   0.305   1.783   5.830
 6348SOL    HW119943   0.401   1.756   5.828
 6348SOL    HW219944   0.285   1.842   5.752
 6349SOL     OW19945   1.432   0.363   6.981
 6349SOL    HW119946   1.472   0.429   6.919
 6349SOL    HW219947   1.334   0.354   6.963
 6350SOL     OW19948   0.769   5.190   2.631
 6350SOL    HW119949   0.813   5.237   2.708
 6350SOL    HW219950   0.671   5.187   2.646
 6351SOL     OW19951   6.137   4.629   3.782
 6351SOL    HW119952   6.156   4.613   3.685
 6351SOL    HW219953   6.164   4.548   3.835
 6352SOL     OW19954   2.743   1.261   3.907
 6352SOL    HW119955   2.663   1.272   3.847
 6352SOL    HW219956   2.754   1.164   3.930
 6353SOL     OW19957   2.332   4.966   0.016
 6353SOL    HW119958   2.272   4.890   7.017
 6353SOL    HW219959   2.379   4.944   0.102
 6354SOL     OW19960   4.762   5.338   2.703
 6354SOL    HW119961   4.749   5.240   2.717
 6354SOL    HW219962   4.676   5.386   2.723
 6355SOL     OW19963   3.157   5.598   0.785
 6355SOL    HW119964   3.109   5.566   0.704
 6355SOL    HW219965   3.255   5.576   0.776
 6356SOL     OW19966   5.048   5.115   0.156
 6356SOL    HW119967   5.037   5.017   0.141
 6356SOL    HW219968   5.001   5.165   0.083
 6357SOL     OW19969   5.705   2.525   1.216
 6357SOL    HW119970   5.654   2.456   1.164
 6357SOL    HW219971   5.657   2.544   1.302
 6358SOL     OW19972   0.827   1.909   6.621
 6358SOL    HW119973   0.764   1.982   6.593
 6358SOL    HW219974   0.881   1.939   6.699
 6359SOL     OW19975   6.149   6.859   0.666
 6359SOL    HW119976   6.062   6.813   0.647
 6359SOL    HW219977   6.210   6.849   0.587
 6360SOL     OW19978   0.152   2.714   3.768
 6360SOL    HW119979   0.153   2.754   3.676
 6360SOL    HW219980   0.238   2.737   3.815
 6361SOL     OW19981   0.349   0.255   0.184
 6361SOL    HW119982   0.418   0.270   0.113
 6361SOL    HW219983   0.259   0.249   0.141
 6362SOL     OW19984   1.271   6.137   6.339
 6362SOL    HW119985   1.358   6.185   6.324
 6362SOL    HW219986   1.195   6.199   6.320
 6363SOL     OW19987   2.561   5.183   3.639
 6363SOL    HW119988   2.643   5.234   3.612
 6363SOL    HW219989   2.576   5.141   3.728
 6364SOL     OW19990   2.189   2.569   5.151
 6364SOL    HW119991   2.281   2.591   5.121
 6364SOL    HW219992   2.186   2.475   5.185
 6365SOL     OW19993   6.207   5.488   5.028
 6365SOL    HW119994   6.197   5.571   4.972
 6365SOL    HW219995   6.118   5.444   5.039
 6366SOL     OW19996   6.281   6.658   4.586
 6366SOL    HW119997   6.286   6.670   4.685
 6366SOL    HW219998   6.254   6.745   4.544
 6367SOL     OW19999   2.897   1.958   2.710
 6367SOL    HW120000   2.969   1.966   2.642
 6367SOL    HW220001   2.836   2.037   2.704
 6368SOL     OW20002   4.633   4.409   4.092
 6368SOL    HW120003   4.643   4.481   4.161
 6368SOL    HW220004   4.622   4.320   4.138
 6369SOL     OW20005   2.162   6.185   5.758
 6369SOL    HW120006   2.115   6.108   5.716
 6369SOL    HW220007   2.193   6.159   5.850
 6370SOL     OW20008   5.007   3.871   3.208
 6370SOL    HW120009   5.065   3.846   3.131
 6370SOL    HW220010   5.041   3.829   3.292
 6371SOL     OW20011   5.748   3.788   1.817
 6371SOL    HW120012   5.662   3.776   1.867
 6371SOL    HW220013   5.748   3.876   1.770
 6372SOL     OW20014   0.527   1.006   2.913
 6372SOL    HW120015   0.505   0.940   2.841
 6372SOL    HW220016   0.617   0.982   2.952
 6373SOL     OW20017   5.542   4.212   1.590
 6373SOL    HW120018   5.526   4.149   1.513
 6373SOL    HW220019   5.467   4.203   1.656
 6374SOL     OW20020   4.579   3.344   0.373
 6374SOL    HW120021   4.628   3.430   0.389
 6374SOL    HW220022   4.614   3.274   0.435
 6375SOL     OW20023   0.942   2.687   2.071
 6375SOL    HW120024   0.972   2.625   1.998
 6375SOL    HW220025   0.931   2.636   2.156
 6376SOL     OW20026   4.502   1.147   5.890
 6376SOL    HW120027   4.487   1.207   5.811
 6376SOL    HW220028   4.413   1.117   5.926
 6377SOL     OW20029   6.910   0.531   6.179
 6377SOL    HW120030   6.988   0.511   6.239
 6377SOL    HW220031   6.942   0.584   6.100
 6378SOL     OW20032   5.033   5.868   3.022
 6378SOL    HW120033   4.986   5.785   2.991
 6378SOL    HW220034   5.032   5.936   2.949
 6379SOL     OW20035   1.408   4.692   5.637
 6379SOL    HW120036   1.383   4.768   5.578
 6379SOL    HW220037   1.385   4.606   5.591
 6380SOL     OW20038   0.918   2.939   4.658
 6380SOL    HW120039   0.874   2.961   4.744
 6380SOL    HW220040   0.855   2.957   4.582
 6381SOL     OW20041   4.094   2.859   0.625
 6381SOL    HW120042   4.008   2.902   0.651
 6381SOL    HW220043   4.165   2.929   0.616
 6382SOL     OW20044   2.845   1.888   1.580
 6382SOL    HW120045   2.879   1.973   1.621
 6382SOL    HW220046   2.807   1.909   1.490
 6383SOL     OW20047   1.697   2.983   2.376
 6383SOL    HW120048   1.654   3.007   2.463
 6383SOL    HW220049   1.789   3.022   2.372
 6384SOL     OW20050   5.839   2.372   2.336
 6384SOL    HW120051   5.741   2.388   2.329
 6384SOL    HW220052   5.885   2.412   2.257
 6385SOL     OW20053   6.960   3.785   1.151
 6385SOL    HW120054   6.975   3.876   1.111
 6385SOL    HW220055   6.970   3.715   1.080
 6386SOL     OW20056   2.054   3.819   0.237
 6386SOL    HW120057   2.022   3.810   0.331
 6386SOL    HW220058   1.997   3.886   0.189
 6387SOL     OW20059   6.267   1.181   0.369
 6387SOL    HW120060   6.183   1.127   0.364
 6387SOL    HW220061   6.304   1.177   0.462
 6388SOL     OW20062   6.407   5.060   2.771
 6388SOL    HW120063   6.423   5.055   2.673
 6388SOL    HW220064   6.416   4.968   2.811
 6389SOL     OW20065   1.545   6.721   0.093
 6389SOL    HW120066   1.529   6.819   0.082
 6389SOL    HW220067   1.460   6.675   0.115
 6390SOL     OW20068   6.748   0.419   0.482
 6390SOL    HW120069   6.713   0.477   0.408
 6390SOL    HW220070   6.842   0.393   0.462
 6391SOL     OW20071   1.031   1.034   5.806
 6391SOL    HW120072   0.983   1.082   5.733
 6391SOL    HW220073   1.123   1.074   5.817
 6392SOL     OW20074   3.634   5.898   3.851
 6392SOL    HW120075   3.574   5.920   3.928
 6392SOL    HW220076   3.724   5.939   3.866
 6393SOL     OW20077   5.478   6.688   1.904
 6393SOL    HW120078   5.425   6.767   1.934
 6393SOL    HW220079   5.462   6.670   1.807
 6394SOL     OW20080   1.136   4.681   1.086
 6394SOL    HW120081   1.099   4.698   0.995
 6394SOL    HW220082   1.124   4.584   1.110
 6395SOL     OW20083   0.206   3.883   2.653
 6395SOL    HW120084   0.156   3.907   2.736
 6395SOL    HW220085   0.212   3.783   2.646
 6396SOL     OW20086   6.708   3.487   6.489
 6396SOL    HW120087   6.731   3.574   6.446
 6396SOL    HW220088   6.746   3.484   6.581
 6397SOL     OW20089   6.355   1.414   2.814
 6397SOL    HW120090   6.336   1.316   2.801
 6397SOL    HW220091   6.347   1.461   2.726
 6398SOL     OW20092   1.797   6.420   1.197
 6398SOL    HW120093   1.792   6.346   1.131
 6398SOL    HW220094   1.742   6.397   1.278
 6399SOL     OW20095   1.975   0.089   6.889
 6399SOL    HW120096   1.910   0.012   6.886
 6399SOL    HW220097   2.063   0.060   6.851
 6400SOL     OW20098   1.665   5.812   2.843
 6400SOL    HW120099   1.618   5.840   2.927
 6400SOL    HW220100   1.611   5.743   2.796
 6401SOL     OW20101   4.386   4.602   3.112
 6401SOL    HW120102   4.368   4.563   3.022
 6401SOL    HW220103   4.459   4.550   3.157
 6402SOL     OW20104   1.370   3.526   3.289
 6402SOL    HW120105   1.363   3.443   3.344
 6402SOL    HW220106   1.295   3.588   3.312
 6403SOL     OW20107   5.509   6.085   5.043
 6403SOL    HW120108   5.502   6.140   5.127
 6403SOL    HW220109   5.602   6.052   5.032
 6404SOL     OW20110   3.510   1.180   2.728
 6404SOL    HW120111   3.536   1.104   2.788
 6404SOL    HW220112   3.501   1.147   2.634
 6405SOL     OW20113   5.124   1.577   3.542
 6405SOL    HW120114   5.221   1.561   3.562
 6405SOL    HW220115   5.070   1.565   3.626
 6406SOL     OW20116   1.213   2.759   2.533
 6406SOL    HW120117   1.304   2.781   2.499
 6406SOL    HW220118   1.214   2.755   2.633
 6407SOL     OW20119   1.852   6.276   3.316
 6407SOL    HW120120   1.889   6.341   3.383
 6407SOL    HW220121   1.860   6.183   3.352
 6408SOL     OW20122   0.079   0.752   1.540
 6408SOL    HW120123   0.053   0.828   1.599
 6408SOL    HW220124   7.024   0.710   1.502
 6409SOL     OW20125   6.140   4.966   4.017
 6409SOL    HW120126   6.047   4.951   3.983
 6409SOL    HW220127   6.136   4.992   4.113
 6410SOL     OW20128   2.634   1.412   5.981
 6410SOL    HW120129   2.570   1.478   5.942
 6410SOL    HW220130   2.631   1.327   5.927
 6411SOL     OW20131   0.120   3.020   1.613
 6411SOL    HW120132   0.176   3.101   1.628
 6411SOL    HW220133   0.059   3.036   1.536
 6412SOL     OW20134   3.252   0.887   6.805
 6412SOL    HW120135   3.185   0.960   6.820
 6412SOL    HW220136   3.211   0.815   6.749
 6413SOL     OW20137   4.210   5.004   4.264
 6413SOL    HW120138   4.160   4.931   4.310
 6413SOL    HW220139   4.167   5.023   4.175
 6414SOL     OW20140   0.476   6.715   6.802
 6414SOL    HW120141   0.440   6.634   6.755
 6414SOL    HW220142   0.399   6.770   6.835
 6415SOL     OW20143   1.325   3.470   2.744
 6415SOL    HW120144   1.290   3.384   2.706
 6415SOL    HW220145   1.418   3.485   2.711
 6416SOL     OW20146   2.780   0.127   6.684
 6416SOL    HW120147   2.797   0.030   6.696
 6416SOL    HW220148   2.692   0.151   6.727
 6417SOL     OW20149   5.085   2.408   1.054
 6417SOL    HW120150   5.096   2.487   1.114
 6417SOL    HW220151   4.991   2.406   1.018
 6418SOL     OW20152   4.917   4.587   2.096
 6418SOL    HW120153   4.863   4.505   2.111
 6418SOL    HW220154   5.014   4.567   2.109
 6419SOL     OW20155   0.634   6.742   6.099
 6419SOL    HW120156   0.656   6.724   6.195
 6419SOL    HW220157   0.717   6.735   6.044
 6420SOL     OW20158   1.486   2.404   3.644
 6420SOL    HW120159   1.558   2.436   3.706
 6420SOL    HW220160   1.455   2.313   3.673
 6421SOL     OW20161   5.604   0.332   1.349
 6421SOL    HW120162   5.587   0.276   1.267
 6421SOL    HW220163   5.524   0.389   1.367
 6422SOL     OW20164   0.059   1.923   5.726
 6422SOL    HW120165   0.108   1.876   5.652
 6422SOL    HW220166   6.991   1.892   5.728
 6423SOL     OW20167   3.124   5.902   4.135
 6423SOL    HW120168   3.145   5.804   4.133
 6423SOL    HW220169   3.199   5.951   4.180
 6424SOL     OW20170   0.489   3.295   4.940
 6424SOL    HW120171   0.422   3.336   5.001
 6424SOL    HW220172   0.442   3.244   4.868
 6425SOL     OW20173   6.984   5.341   2.637
 6425SOL    HW120174   0.054   5.314   2.634
 6425SOL    HW220175   6.971   5.408   2.711
 6426SOL     OW20176   4.999   5.014   4.285
 6426SOL    HW120177   5.042   5.014   4.375
 6426SOL    HW220178   4.976   5.108   4.259
 6427SOL     OW20179   2.997   3.879   2.984
 6427SOL    HW120180   2.927   3.843   3.045
 6427SOL    HW220181   2.978   3.852   2.890
 6428SOL     OW20182   5.180   2.310   0.591
 6428SOL    HW120183   5.171   2.365   0.674
 6428SOL    HW220184   5.274   2.314   0.558
 6429SOL     OW20185   1.549   0.576   5.370
 6429SOL    HW120186   1.600   0.631   5.303
 6429SOL    HW220187   1.604   0.496   5.396
 6430SOL     OW20188   6.851   0.588   5.720
 6430SOL    HW120189   6.933   0.552   5.676
 6430SOL    HW220190   6.877   0.637   5.804
 6431SOL     OW20191   4.814   5.158   3.045
 6431SOL    HW120192   4.860   5.070   3.035
 6431SOL    HW220193   4.823   5.210   2.959
 6432SOL     OW20194   3.278   3.917   6.465
 6432SOL    HW120195   3.241   3.835   6.507
 6432SOL    HW220196   3.346   3.958   6.525
 6433SOL     OW20197   2.850   5.557   6.760
 6433SOL    HW120198   2.781   5.600   6.819
 6433SOL    HW220199   2.924   5.622   6.742
 6434SOL     OW20200   2.847   6.393   6.045
 6434SOL    HW120201   2.938   6.353   6.059
 6434SOL    HW220202   2.791   6.329   5.993
 6435SOL     OW20203   5.759   0.070   0.569
 6435SOL    HW120204   5.827   0.121   0.516
 6435SOL    HW220205   5.701   0.135   0.619
 6436SOL     OW20206   0.689   3.156   3.598
 6436SOL    HW120207   0.787   3.135   3.593
 6436SOL    HW220208   0.636   3.073   3.580
 6437SOL     OW20209   0.432   1.914   5.240
 6437SOL    HW120210   0.458   2.008   5.217
 6437SOL    HW220211   0.360   1.916   5.309
 6438SOL     OW20212   1.030   5.380   6.344
 6438SOL    HW120213   0.998   5.322   6.269
 6438SOL    HW220214   1.124   5.354   6.367
 6439SOL     OW20215   6.466   0.754   3.660
 6439SOL    HW120216   6.453   0.708   3.572
 6439SOL    HW220217   6.562   0.750   3.686
 6440SOL     OW20218   2.254   0.702   6.645
 6440SOL    HW120219   2.349   0.724   6.668
 6440SOL    HW220220   2.193   0.744   6.713
 6441SOL     OW20221   0.070   0.953   3.113
 6441SOL    HW120222   0.143   0.978   3.176
 6441SOL    HW220223   0.018   1.035   3.089
 6442SOL     OW20224   2.363   1.938   4.885
 6442SOL    HW120225   2.321   1.928   4.795
 6442SOL    HW220226   2.423   2.018   4.886
 6443SOL     OW20227   4.065   2.076   6.712
 6443SOL    HW120228   4.116   2.150   6.669
 6443SOL    HW220229   4.010   2.029   6.643
 6444SOL     OW20230   0.486   2.511   5.119
 6444SOL    HW120231   0.494   2.562   5.205
 6444SOL    HW220232   0.412   2.550   5.064
 6445SOL     OW20233   3.462   3.755   3.313
 6445SOL    HW120234   3.560   3.735   3.310
 6445SOL    HW220235   3.411   3.669   3.320
 6446SOL     OW20236   1.629   1.868   6.717
 6446SOL    HW120237   1.611   1.782   6.669
 6446SOL    HW220238   1.582   1.943   6.669
 6447SOL     OW20239   6.978   3.959   1.462
 6447SOL    HW120240   6.992   3.879   1.521
 6447SOL    HW220241   0.016   4.031   1.487
 6448SOL     OW20242   4.979   5.419   1.536
 6448SOL    HW120243   4.933   5.372   1.460
 6448SOL    HW220244   4.952   5.515   1.537
 6449SOL     OW20245   2.362   5.635   1.378
 6449SOL    HW120246   2.340   5.730   1.356
 6449SOL    HW220247   2.451   5.631   1.424
 6450SOL     OW20248   0.484   4.137   0.960
 6450SOL    HW120249   0.523   4.125   0.869
 6450SOL    HW220250   0.533   4.211   1.007
 6451SOL     OW20251   3.556   1.766   6.677
 6451SOL    HW120252   3.647   1.731   6.702
 6451SOL    HW220253   3.497   1.690   6.650
 6452SOL     OW20254   5.198   3.335   2.517
 6452SOL    HW120255   5.196   3.417   2.458
 6452SOL    HW220256   5.115   3.333   2.572
 6453SOL     OW20257   3.798   0.024   0.634
 6453SOL    HW120258   3.752   7.021   0.550
 6453SOL    HW220259   3.732   0.027   0.709
 6454SOL     OW20260   6.940   1.609   2.679
 6454SOL    HW120261   7.006   1.534   2.681
 6454SOL    HW220262   6.849   1.575   2.699
 6455SOL     OW20263   6.351   4.385   2.989
 6455SOL    HW120264   6.403   4.300   2.986
 6455SOL    HW220265   6.356   4.424   3.081
 6456SOL     OW20266   0.706   0.581   2.691
 6456SOL    HW120267   0.677   0.608   2.599
 6456SOL    HW220268   0.628   0.589   2.754
 6457SOL     OW20269   4.886   0.014   2.079
 6457SOL    HW120270   4.794   0.042   2.054
 6457SOL    HW220271   4.921   6.974   2.013
 6458SOL     OW20272   1.099   5.025   4.102
 6458SOL    HW120273   1.186   5.066   4.074
 6458SOL    HW220274   1.117   4.939   4.150
 6459SOL     OW20275   6.381   2.599   2.904
 6459SOL    HW120276   6.396   2.690   2.942
 6459SOL    HW220277   6.417   2.530   2.968
 6460SOL     OW20278   6.570   5.324   5.280
 6460SOL    HW120279   6.630   5.280   5.213
 6460SOL    HW220280   6.584   5.423   5.278
 6461SOL     OW20281   3.665   4.382   0.344
 6461SOL    HW120282   3.746   4.424   0.302
 6461SOL    HW220283   3.607   4.453   0.382
 6462SOL     OW20284   1.672   3.777   4.465
 6462SOL    HW120285   1.644   3.860   4.416
 6462SOL    HW220286   1.661   3.792   4.564
 6463SOL     OW20287   5.541   0.229   0.733
 6463SOL    HW120288   5.490   0.275   0.661
 6463SOL    HW220289   5.612   0.290   0.768
 6464SOL     OW20290   1.191   6.105   4.771
 6464SOL    HW120291   1.258   6.033   4.783
 6464SOL    HW220292   1.154   6.132   4.860
 6465SOL     OW20293   5.706   2.454   2.066
 6465SOL    HW120294   5.649   2.476   1.987
 6465SOL    HW220295   5.660   2.486   2.149
 6466SOL     OW20296   6.717   3.087   6.409
 6466SOL    HW120297   6.793   3.149   6.427
 6466SOL    HW220298   6.752   2.999   6.378
 6467SOL     OW20299   3.812   1.091   1.337
 6467SOL    HW120300   3.715   1.108   1.357
 6467SOL    HW220301   3.827   1.097   1.238
 6468SOL     OW20302   3.984   6.222   0.824
 6468SOL    HW120303   3.941   6.211   0.734
 6468SOL    HW220304   3.941   6.298   0.872
 6469SOL     OW20305   3.071   2.203   4.291
 6469SOL    HW120306   3.111   2.203   4.199
 6469SOL    HW220307   2.972   2.191   4.284
 6470SOL     OW20308   6.120   2.080   0.616
 6470SOL    HW120309   6.210   2.036   0.623
 6470SOL    HW220310   6.097   2.094   0.520
 6471SOL     OW20311   0.516   6.783   4.754
 6471SOL    HW120312   0.548   6.691   4.775
 6471SOL    HW220313   0.491   6.788   4.658
 6472SOL     OW20314   6.685   6.420   2.446
 6472SOL    HW120315   6.626   6.490   2.487
 6472SOL    HW220316   6.771   6.415   2.496
 6473SOL     OW20317   1.738   1.559   4.208
 6473SOL    HW120318   1.824   1.517   4.178
 6473SOL    HW220319   1.737   1.567   4.307
 6474SOL     OW20320   3.976   5.106   5.411
 6474SOL    HW120321   3.932   5.113   5.322
 6474SOL    HW220322   3.911   5.070   5.478
 6475SOL     OW20323   5.533   5.084   3.375
 6475SOL    HW120324   5.500   5.151   3.309
 6475SOL    HW220325   5.633   5.075   3.368
 6476SOL     OW20326   3.314   2.312   6.460
 6476SOL    HW120327   3.243   2.372   6.421
 6476SOL    HW220328   3.397   2.319   6.405
 6477SOL     OW20329   6.675   5.449   0.904
 6477SOL    HW120330   6.705   5.403   0.987
 6477SOL    HW220331   6.621   5.530   0.928
 6478SOL     OW20332   2.823   6.012   1.464
 6478SOL    HW120333   2.913   5.996   1.506
 6478SOL    HW220334   2.754   5.958   1.512
 6479SOL     OW20335   3.018   5.254   4.594
 6479SOL    HW120336   2.956   5.284   4.666
 6479SOL    HW220337   3.057   5.334   4.548
 6480SOL     OW20338   2.090   1.381   0.164
 6480SOL    HW120339   1.990   1.384   0.163
 6480SOL    HW220340   2.127   1.466   0.127
 6481SOL     OW20341   3.293   2.581   1.787
 6481SOL    HW120342   3.201   2.606   1.757
 6481SOL    HW220343   3.354   2.659   1.775
 6482SOL     OW20344   6.874   2.611   5.680
 6482SOL    HW120345   6.925   2.575   5.601
 6482SOL    HW220346   6.878   2.544   5.755
 6483SOL     OW20347   1.205   5.766   4.185
 6483SOL    HW120348   1.120   5.726   4.151
 6483SOL    HW220349   1.255   5.696   4.238
 6484SOL     OW20350   3.006   1.507   2.668
 6484SOL    HW120351   3.063   1.426   2.686
 6484SOL    HW220352   3.050   1.563   2.598
 6485SOL     OW20353   2.053   6.260   4.798
 6485SOL    HW120354   1.973   6.308   4.832
 6485SOL    HW220355   2.123   6.258   4.869
 6486SOL     OW20356   0.853   4.819   2.904
 6486SOL    HW120357   0.774   4.815   2.843
 6486SOL    HW220358   0.822   4.826   2.999
 6487SOL     OW20359   0.935   5.639   4.250
 6487SOL    HW120360   0.985   5.667   4.332
 6487SOL    HW220361   0.877   5.561   4.271
 6488SOL     OW20362   4.816   5.913   5.147
 6488SOL    HW120363   4.880   5.858   5.094
 6488SOL    HW220364   4.730   5.864   5.157
 6489SOL     OW20365   3.303   2.747   5.975
 6489SOL    HW120366   3.317   2.682   6.050
 6489SOL    HW220367   3.344   2.710   5.891
 6490SOL     OW20368   2.374   1.772   6.566
 6490SOL    HW120369   2.413   1.848   6.514
 6490SOL    HW220370   2.424   1.688   6.545
 6491SOL     OW20371   1.967   0.234   1.261
 6491SOL    HW120372   2.056   0.192   1.278
 6491SOL    HW220373   1.911   0.228   1.343
 6492SOL     OW20374   3.819   3.954   4.450
 6492SOL    HW120375   3.783   3.968   4.357
 6492SOL    HW220376   3.825   4.041   4.497
 6493SOL     OW20377   1.422   4.743   6.301
 6493SOL    HW120378   1.501   4.686   6.325
 6493SOL    HW220379   1.454   4.824   6.252
 6494SOL     OW20380   5.953   6.408   2.736
 6494SOL    HW120381   5.863   6.435   2.702
 6494SOL    HW220382   5.956   6.418   2.835
 6495SOL     OW20383   6.527   6.899   4.965
 6495SOL    HW120384   6.503   6.990   4.933
 6495SOL    HW220385   6.558   6.904   5.060
 6496SOL     OW20386   4.975   6.726   1.444
 6496SOL    HW120387   5.040   6.713   1.519
 6496SOL    HW220388   4.927   6.813   1.455
 6497SOL     OW20389   0.949   1.669   1.112
 6497SOL    HW120390   0.961   1.683   1.014
 6497SOL    HW220391   0.884   1.736   1.148
 6498SOL     OW20392   0.857   4.133   4.047
 6498SOL    HW120393   0.870   4.050   3.993
 6498SOL    HW220394   0.767   4.132   4.091
 6499SOL     OW20395   5.448   3.769   4.390
 6499SOL    HW120396   5.385   3.825   4.444
 6499SOL    HW220397   5.542   3.792   4.415
 6500SOL     OW20398   0.783   3.795   2.382
 6500SOL    HW120399   0.706   3.787   2.319
 6500SOL    HW220400   0.868   3.805   2.329
 6501SOL     OW20401   0.390   1.545   1.012
 6501SOL    HW120402   0.344   1.624   1.052
 6501SOL    HW220403   0.358   1.532   0.918
 6502SOL     OW20404   6.458   3.614   1.331
 6502SOL    HW120405   6.449   3.526   1.379
 6502SOL    HW220406   6.368   3.648   1.306
 6503SOL     OW20407   6.510   2.173   5.419
 6503SOL    HW120408   6.510   2.135   5.327
 6503SOL    HW220409   6.604   2.191   5.448
 6504SOL     OW20410   4.853   6.910   6.665
 6504SOL    HW120411   4.872   6.830   6.609
 6504SOL    HW220412   4.889   6.895   6.757
 6505SOL     OW20413   5.457   6.873   0.250
 6505SOL    HW120414   5.478   6.901   0.344
 6505SOL    HW220415   5.467   6.774   0.241
 6506SOL     OW20416   0.095   3.459   3.597
 6506SOL    HW120417   7.023   3.443   3.587
 6506SOL    HW220418   0.145   3.386   3.550
 6507SOL     OW20419   3.104   5.645   6.335
 6507SOL    HW120420   3.066   5.569   6.386
 6507SOL    HW220421   3.030   5.697   6.292
 6508SOL     OW20422   1.710   6.619   2.420
 6508SOL    HW120423   1.663   6.556   2.483
 6508SOL    HW220424   1.669   6.611   2.329
 6509SOL     OW20425   4.218   1.375   5.359
 6509SOL    HW120426   4.179   1.467   5.352
 6509SOL    HW220427   4.295   1.377   5.423
 6510SOL     OW20428   4.603   6.124   6.150
 6510SOL    HW120429   4.585   6.192   6.080
 6510SOL    HW220430   4.641   6.168   6.231
 6511SOL     OW20431   4.061   0.588   5.936
 6511SOL    HW120432   3.985   0.524   5.945
 6511SOL    HW220433   4.121   0.558   5.861
 6512SOL     OW20434   3.176   6.911   2.327
 6512SOL    HW120435   3.158   6.861   2.412
 6512SOL    HW220436   3.191   6.846   2.253
 6513SOL     OW20437   2.616   5.948   4.367
 6513SOL    HW120438   2.539   6.007   4.390
 6513SOL    HW220439   2.600   5.905   4.278
 6514SOL     OW20440   5.885   0.507   5.165
 6514SOL    HW120441   5.807   0.547   5.116
 6514SOL    HW220442   5.916   0.569   5.236
 6515SOL     OW20443   1.940   4.347   2.284
 6515SOL    HW120444   1.917   4.266   2.229
 6515SOL    HW220445   2.035   4.342   2.313
 6516SOL     OW20446   6.849   3.107   1.866
 6516SOL    HW120447   6.918   3.174   1.891
 6516SOL    HW220448   6.782   3.148   1.804
 6517SOL     OW20449   0.088   2.081   0.846
 6517SOL    HW120450   0.089   2.174   0.882
 6517SOL    HW220451   7.023   2.042   0.855
 6518SOL     OW20452   6.784   0.792   2.118
 6518SOL    HW120453   6.835   0.743   2.188
 6518SOL    HW220454   6.831   0.784   2.031
 6519SOL     OW20455   0.553   0.466   3.055
 6519SOL    HW120456   0.516   0.387   3.006
 6519SOL    HW220457   0.548   0.547   2.995
 6520SOL     OW20458   0.334   5.730   6.737
 6520SOL    HW120459   0.317   5.813   6.684
 6520SOL    HW220460   0.388   5.665   6.683
 6521SOL     OW20461   1.620   2.804   3.171
 6521SOL    HW120462   1.639   2.730   3.236
 6521SOL    HW220463   1.525   2.833   3.179
 6522SOL     OW20464   2.666   4.374   5.718
 6522SOL    HW120465   2.672   4.468   5.686
 6522SOL    HW220466   2.732   4.317   5.669
 6523SOL     OW20467   5.039   6.985   0.141
 6523SOL    HW120468   5.088   6.914   0.191
 6523SOL    HW220469   5.072   0.048   0.171
 6524SOL     OW20470   3.044   2.647   1.722
 6524SOL    HW120471   3.002   2.565   1.759
 6524SOL    HW220472   2.995   2.728   1.755
 6525SOL     OW20473   2.175   5.333   3.206
 6525SOL    HW120474   2.150   5.419   3.249
 6525SOL    HW220475   2.268   5.339   3.169
 6526SOL     OW20476   0.355   6.894   1.139
 6526SOL    HW120477   0.336   6.882   1.237
 6526SOL    HW220478   0.360   6.805   1.095
 6527SOL     OW20479   0.303   2.117   0.168
 6527SOL    HW120480   0.243   2.095   0.244
 6527SOL    HW220481   0.301   2.215   0.151
 6528SOL     OW20482   6.716   1.583   6.281
 6528SOL    HW120483   6.722   1.645   6.203
 6528SOL    HW220484   6.684   1.634   6.361
 6529SOL     OW20485   0.493   0.689   2.851
 6529SOL    HW120486   0.398   0.705   2.880
 6529SOL    HW220487   0.507   0.728   2.760
 6530SOL     OW20488   0.455   2.167   1.568
 6530SOL    HW120489   0.532   2.188   1.628
 6530SOL    HW220490   0.386   2.117   1.620
 6531SOL     OW20491   4.111   3.280   5.604
 6531SOL    HW120492   4.161   3.365   5.587
 6531SOL    HW220493   4.144   3.208   5.542
 6532SOL     OW20494   1.817   1.422   0.457
 6532SOL    HW120495   1.910   1.387   0.449
 6532SOL    HW220496   1.818   1.506   0.512
 6533SOL     OW20497   4.292   5.741   7.006
 6533SOL    HW120498   4.320   5.823   0.030
 6533SOL    HW220499   4.282   5.763   6.909
 6534SOL     OW20500   5.221   4.793   1.696
 6534SOL    HW120501   5.210   4.699   1.726
 6534SOL    HW220502   5.264   4.847   1.768
 6535SOL     OW20503   5.781   4.351   4.691
 6535SOL    HW120504   5.786   4.351   4.591
 6535SOL    HW220505   5.758   4.259   4.723
 6536SOL     OW20506   0.224   2.193   5.054
 6536SOL    HW120507   0.192   2.287   5.065
 6536SOL    HW220508   0.310   2.180   5.104
 6537SOL     OW20509   6.894   4.952   4.453
 6537SOL    HW120510   6.825   5.003   4.504
 6537SOL    HW220511   6.911   4.864   4.498
 6538SOL     OW20512   1.986   3.692   5.592
 6538SOL    HW120513   2.059   3.629   5.619
 6538SOL    HW220514   1.975   3.763   5.662
 6539SOL     OW20515   5.022   0.752   0.014
 6539SOL    HW120516   5.012   0.659   7.006
 6539SOL    HW220517   5.018   0.817   6.965
 6540SOL     OW20518   1.807   2.996   6.344
 6540SOL    HW120519   1.891   2.969   6.392
 6540SOL    HW220520   1.728   2.964   6.396
 6541SOL     OW20521   4.967   2.397   5.726
 6541SOL    HW120522   4.906   2.411   5.804
 6541SOL    HW220523   5.021   2.314   5.741
 6542SOL     OW20524   0.925   3.594   4.781
 6542SOL    HW120525   0.840   3.544   4.762
 6542SOL    HW220526   0.994   3.569   4.713
 6543SOL     OW20527   3.532   2.429   5.353
 6543SOL    HW120528   3.632   2.425   5.365
 6543SOL    HW220529   3.500   2.341   5.318
 6544SOL     OW20530   0.444   6.567   2.390
 6544SOL    HW120531   0.443   6.528   2.298
 6544SOL    HW220532   0.367   6.531   2.443
 6545SOL     OW20533   4.020   6.903   0.877
 6545SOL    HW120534   3.928   6.921   0.910
 6545SOL    HW220535   4.020   6.820   0.821
 6546SOL     OW20536   4.167   4.403   0.052
 6546SOL    HW120537   4.072   4.375   0.040
 6546SOL    HW220538   4.171   4.503   0.052
 6547SOL     OW20539   4.405   0.354   5.972
 6547SOL    HW120540   4.477   0.286   5.986
 6547SOL    HW220541   4.321   0.307   5.944
 6548SOL     OW20542   1.045   3.085   6.330
 6548SOL    HW120543   1.091   3.151   6.270
 6548SOL    HW220544   0.948   3.108   6.338
 6549SOL     OW20545   4.518   0.330   2.042
 6549SOL    HW120546   4.495   0.398   2.111
 6549SOL    HW220547   4.466   0.246   2.059
 6550SOL     OW20548   6.810   0.242   3.809
 6550SOL    HW120549   6.731   0.262   3.866
 6550SOL    HW220550   6.894   0.269   3.856
 6551SOL     OW20551   2.802   3.591   1.643
 6551SOL    HW120552   2.737   3.668   1.645
 6551SOL    HW220553   2.895   3.627   1.647
 6552SOL     OW20554   2.062   6.917   0.482
 6552SOL    HW120555   2.027   6.824   0.470
 6552SOL    HW220556   1.987   6.982   0.475
 6553SOL     OW20557   0.985   1.469   2.856
 6553SOL    HW120558   0.973   1.492   2.953
 6553SOL    HW220559   1.082   1.449   2.839
 6554SOL     OW20560   2.645   1.118   5.435
 6554SOL    HW120561   2.659   1.020   5.450
 6554SOL    HW220562   2.547   1.139   5.438
 6555SOL     OW20563   5.922   1.853   4.081
 6555SOL    HW120564   5.827   1.863   4.053
 6555SOL    HW220565   5.927   1.811   4.171
 6556SOL     OW20566   6.292   3.339   2.326
 6556SOL    HW120567   6.198   3.352   2.293
 6556SOL    HW220568   6.314   3.411   2.392
 6557SOL     OW20569   2.141   0.348   2.238
 6557SOL    HW120570   2.162   0.443   2.217
 6557SOL    HW220571   2.069   0.344   2.307
 6558SOL     OW20572   5.796   5.457   0.217
 6558SOL    HW120573   5.896   5.455   0.228
 6558SOL    HW220574   5.771   5.416   0.129
 6559SOL     OW20575   6.823   3.689   6.305
 6559SOL    HW120576   6.819   3.788   6.321
 6559SOL    HW220577   6.739   3.659   6.260
 6560SOL     OW20578   3.924   4.874   0.793
 6560SOL    HW120579   3.982   4.943   0.751
 6560SOL    HW220580   3.832   4.880   0.756
 6561SOL     OW20581   4.394   4.860   0.816
 6561SOL    HW120582   4.364   4.918   0.740
 6561SOL    HW220583   4.338   4.878   0.896
 6562SOL     OW20584   5.361   2.487   1.203
 6562SOL    HW120585   5.279   2.454   1.248
 6562SOL    HW220586   5.372   2.585   1.220
 6563SOL     OW20587   5.134   0.557   5.880
 6563SOL    HW120588   5.204   0.516   5.939
 6563SOL    HW220589   5.053   0.499   5.879
 6564SOL     OW20590   6.244   3.431   1.945
 6564SOL    HW120591   6.158   3.382   1.954
 6564SOL    HW220592   6.242   3.487   1.862
 6565SOL     OW20593   6.345   6.391   3.032
 6565SOL    HW120594   6.336   6.434   3.122
 6565SOL    HW220595   6.421   6.434   2.982
 6566SOL     OW20596   3.301   5.372   2.021
 6566SOL    HW120597   3.275   5.438   1.951
 6566SOL    HW220598   3.251   5.286   2.007
 6567SOL     OW20599   4.327   0.909   1.696
 6567SOL    HW120600   4.353   0.836   1.633
 6567SOL    HW220601   4.403   0.974   1.705
 6568SOL     OW20602   4.251   1.996   2.796
 6568SOL    HW120603   4.254   1.934   2.874
 6568SOL    HW220604   4.212   2.084   2.825
 6569SOL     OW20605   0.901   3.398   6.138
 6569SOL    HW120606   0.914   3.410   6.237
 6569SOL    HW220607   0.985   3.363   6.097
 6570SOL     OW20608   4.194   1.185   2.609
 6570SOL    HW120609   4.101   1.201   2.577
 6570SOL    HW220610   4.192   1.154   2.704
 6571SOL     OW20611   2.884   4.939   2.723
 6571SOL    HW120612   2.845   4.863   2.776
 6571SOL    HW220613   2.811   5.003   2.699
 6572SOL     OW20614   0.773   3.697   4.421
 6572SOL    HW120615   0.799   3.774   4.479
 6572SOL    HW220616   0.838   3.689   4.345
 6573SOL     OW20617   1.090   1.309   3.592
 6573SOL    HW120618   1.137   1.238   3.540
 6573SOL    HW220619   0.992   1.308   3.569
 6574SOL     OW20620   2.473   6.621   3.539
 6574SOL    HW120621   2.452   6.696   3.476
 6574SOL    HW220622   2.422   6.634   3.624
 6575SOL     OW20623   0.643   6.840   3.102
 6575SOL    HW120624   0.715   6.801   3.160
 6575SOL    HW220625   0.590   6.766   3.061
 6576SOL     OW20626   3.188   5.301   0.557
 6576SOL    HW120627   3.137   5.347   0.484
 6576SOL    HW220628   3.251   5.235   0.516
 6577SOL     OW20629   2.051   1.988   3.628
 6577SOL    HW120630   2.018   1.936   3.549
 6577SOL    HW220631   2.025   2.085   3.618
 6578SOL     OW20632   0.721   5.796   1.809
 6578SOL    HW120633   0.814   5.761   1.808
 6578SOL    HW220634   0.687   5.802   1.715
 6579SOL     OW20635   0.044   2.124   3.978
 6579SOL    HW120636   0.065   2.033   4.015
 6579SOL    HW220637   6.976   2.147   4.001
 6580SOL     OW20638   1.265   1.295   0.809
 6580SOL    HW120639   1.336   1.348   0.764
 6580SOL    HW220640   1.288   1.198   0.805
 6581SOL     OW20641   1.438   1.088   0.565
 6581SOL    HW120642   1.497   1.011   0.538
 6581SOL    HW220643   1.389   1.065   0.648
 6582SOL     OW20644   6.542   0.508   2.998
 6582SOL    HW120645   6.514   0.603   3.016
 6582SOL    HW220646   6.626   0.509   2.944
 6583SOL     OW20647   5.364   6.173   5.286
 6583SOL    HW120648   5.371   6.267   5.318
 6583SOL    HW220649   5.449   6.124   5.309
 6584SOL     OW20650   3.608   2.522   0.648
 6584SOL    HW120651   3.594   2.587   0.574
 6584SOL    HW220652   3.551   2.547   0.726
 6585SOL     OW20653   6.945   6.734   0.207
 6585SOL    HW120654   6.885   6.800   0.251
 6585SOL    HW220655   6.895   6.649   0.190
 6586SOL     OW20656   6.471   1.813   6.169
 6586SOL    HW120657   6.431   1.838   6.081
 6586SOL    HW220658   6.413   1.745   6.214
 6587SOL     OW20659   1.287   4.883   6.542
 6587SOL    HW120660   1.361   4.843   6.489
 6587SOL    HW220661   1.216   4.917   6.479
 6588SOL     OW20662   0.635   3.160   0.913
 6588SOL    HW120663   0.693   3.081   0.934
 6588SOL    HW220664   0.613   3.161   0.816
 6589SOL     OW20665   5.230   1.162   2.361
 6589SOL    HW120666   5.206   1.099   2.434
 6589SOL    HW220667   5.159   1.161   2.291
 6590SOL     OW20668   0.239   0.236   5.299
 6590SOL    HW120669   0.153   0.200   5.333
 6590SOL    HW220670   0.257   0.201   5.207
 6591SOL     OW20671   5.182   5.941   3.486
 6591SOL    HW120672   5.089   5.914   3.512
 6591SOL    HW220673   5.246   5.908   3.555
 6592SOL     OW20674   5.280   0.626   3.112
 6592SOL    HW120675   5.274   0.680   3.029
 6592SOL    HW220676   5.375   0.618   3.141
 6593SOL     OW20677   3.041   2.099   2.119
 6593SOL    HW120678   3.125   2.093   2.064
 6593SOL    HW220679   2.982   2.171   2.082
 6594SOL     OW20680   3.797   1.536   5.774
 6594SOL    HW120681   3.882   1.492   5.804
 6594SOL    HW220682   3.817   1.600   5.700
 6595SOL     OW20683   1.288   2.707   5.090
 6595SOL    HW120684   1.313   2.611   5.089
 6595SOL    HW220685   1.283   2.742   4.997
 6596SOL     OW20686   3.934   6.619   3.339
 6596SOL    HW120687   3.942   6.621   3.439
 6596SOL    HW220688   4.012   6.569   3.301
 6597SOL     OW20689   1.417   5.207   2.002
 6597SOL    HW120690   1.411   5.244   1.909
 6597SOL    HW220691   1.490   5.138   2.005
 6598SOL     OW20692   1.639   4.239   3.688
 6598SOL    HW120693   1.736   4.219   3.681
 6598SOL    HW220694   1.601   4.194   3.769
 6599SOL     OW20695   4.918   6.155   0.135
 6599SOL    HW120696   4.859   6.081   0.102
 6599SOL    HW220697   5.013   6.133   0.116
 6600SOL     OW20698   3.994   6.646   4.276
 6600SOL    HW120699   4.080   6.694   4.295
 6600SOL    HW220700   3.935   6.651   4.356
 6601SOL     OW20701   0.548   2.381   3.093
 6601SOL    HW120702   0.604   2.452   3.138
 6601SOL    HW220703   0.605   2.330   3.028
 6602SOL     OW20704   2.348   6.933   1.199
 6602SOL    HW120705   2.382   6.843   1.226
 6602SOL    HW220706   2.422   6.984   1.155
 6603SOL     OW20707   0.915   3.166   3.930
 6603SOL    HW120708   0.949   3.170   3.835
 6603SOL    HW220709   0.991   3.179   3.993
 6604SOL     OW20710   1.566   0.317   1.328
 6604SOL    HW120711   1.632   0.356   1.264
 6604SOL    HW220712   1.492   0.383   1.343
 6605SOL     OW20713   5.838   5.898   2.089
 6605SOL    HW120714   5.790   5.878   2.003
 6605SOL    HW220715   5.772   5.918   2.161
 6606SOL     OW20716   6.730   4.475   2.788
 6606SOL    HW120717   6.757   4.456   2.883
 6606SOL    HW220718   6.652   4.537   2.788
 6607SOL     OW20719   6.558   5.377   3.797
 6607SOL    HW120720   6.507   5.437   3.735
 6607SOL    HW220721   6.505   5.293   3.812
 6608SOL     OW20722   7.003   0.061   1.036
 6608SOL    HW120723   6.937   0.088   0.966
 6608SOL    HW220724   0.021   7.002   1.008
 6609SOL     OW20725   4.942   1.601   6.107
 6609SOL    HW120726   5.024   1.639   6.150
 6609SOL    HW220727   4.874   1.580   6.178
 6610SOL     OW20728   2.592   6.143   0.176
 6610SOL    HW120729   2.558   6.218   0.233
 6610SOL    HW220730   2.667   6.176   0.118
 6611SOL     OW20731   5.350   3.059   3.360
 6611SOL    HW120732   5.295   3.112   3.424
 6611SOL    HW220733   5.309   2.969   3.346
 6612SOL     OW20734   6.478   2.379   6.232
 6612SOL    HW120735   6.468   2.426   6.144
 6612SOL    HW220736   6.478   2.280   6.217
 6613SOL     OW20737   5.665   0.414   6.189
 6613SOL    HW120738   5.755   0.406   6.231
 6613SOL    HW220739   5.635   0.324   6.157
 6614SOL     OW20740   4.625   6.757   0.853
 6614SOL    HW120741   4.685   6.745   0.774
 6614SOL    HW220742   4.530   6.750   0.823
 6615SOL     OW20743   2.346   5.377   0.478
 6615SOL    HW120744   2.284   5.320   0.533
 6615SOL    HW220745   2.350   5.469   0.517
 6616SOL     OW20746   4.648   0.089   5.752
 6616SOL    HW120747   4.721   0.039   5.799
 6616SOL    HW220748   4.685   0.131   5.669
 6617SOL     OW20749   4.146   6.478   3.241
 6617SOL    HW120750   4.169   6.411   3.311
 6617SOL    HW220751   4.226   6.534   3.220
 6618SOL     OW20752   0.852   1.238   3.235
 6618SOL    HW120753   0.948   1.247   3.210
 6618SOL    HW220754   0.809   1.328   3.240
 6619SOL     OW20755   4.539   6.888   3.812
 6619SOL    HW120756   4.558   6.922   3.720
 6619SOL    HW220757   4.626   6.873   3.860
 6620SOL     OW20758   2.087   3.520   4.138
 6620SOL    HW120759   2.028   3.448   4.102
 6620SOL    HW220760   2.094   3.511   4.237
 6621SOL     OW20761   3.766   2.785   5.214
 6621SOL    HW120762   3.777   2.690   5.184
 6621SOL    HW220763   3.773   2.846   5.134
 6622SOL     OW20764   6.009   6.062   1.832
 6622SOL    HW120765   6.085   6.121   1.859
 6622SOL    HW220766   6.017   5.974   1.880
 6623SOL     OW20767   3.681   4.222   5.270
 6623SOL    HW120768   3.674   4.179   5.360
 6623SOL    HW220769   3.701   4.320   5.281
 6624SOL     OW20770   0.944   3.668   5.667
 6624SOL    HW120771   1.044   3.666   5.659
 6624SOL    HW220772   0.905   3.594   5.612
 6625SOL     OW20773   5.613   2.071   5.098
 6625SOL    HW120774   5.536   2.123   5.061
 6625SOL    HW220775   5.604   1.975   5.072
 6626SOL     OW20776   3.181   6.609   5.603
 6626SOL    HW120777   3.100   6.668   5.611
 6626SOL    HW220778   3.207   6.576   5.694
 6627SOL     OW20779   1.951   6.316   4.218
 6627SOL    HW120780   1.972   6.376   4.295
 6627SOL    HW220781   1.914   6.230   4.252
 6628SOL     OW20782   5.272   4.701   3.984
 6628SOL    HW120783   5.204   4.773   3.992
 6628SOL    HW220784   5.363   4.740   3.996
 6629SOL     OW20785   4.208   5.515   6.483
 6629SOL    HW120786   4.306   5.523   6.467
 6629SOL    HW220787   4.192   5.487   6.578
 6630SOL     OW20788   3.298   1.459   1.778
 6630SOL    HW120789   3.207   1.493   1.803
 6630SOL    HW220790   3.368   1.516   1.821
 6631SOL     OW20791   2.170   5.588   4.237
 6631SOL    HW120792   2.187   5.664   4.300
 6631SOL    HW220793   2.160   5.623   4.144
 6632SOL     OW20794   1.588   1.279   0.951
 6632SOL    HW120795   1.578   1.199   1.010
 6632SOL    HW220796   1.531   1.353   0.987
 6633SOL     OW20797   2.706   4.697   6.231
 6633SOL    HW120798   2.777   4.712   6.299
 6633SOL    HW220799   2.624   4.660   6.276
 6634SOL     OW20800   4.706   1.889   4.981
 6634SOL    HW120801   4.783   1.952   4.974
 6634SOL    HW220802   4.729   1.813   5.042
 6635SOL     OW20803   4.774   3.976   3.015
 6635SOL    HW120804   4.863   3.953   3.053
 6635SOL    HW220805   4.761   3.927   2.928
 6636SOL     OW20806   3.273   1.888   1.291
 6636SOL    HW120807   3.364   1.861   1.322
 6636SOL    HW220808   3.245   1.829   1.215
 6637SOL     OW20809   2.697   0.327   6.515
 6637SOL    HW120810   2.710   0.242   6.566
 6637SOL    HW220811   2.730   0.316   6.422
 6638SOL     OW20812   3.420   3.553   2.961
 6638SOL    HW120813   3.364   3.586   3.038
 6638SOL    HW220814   3.425   3.453   2.965
 6639SOL     OW20815   3.492   3.530   6.419
 6639SOL    HW120816   3.523   3.612   6.466
 6639SOL    HW220817   3.508   3.540   6.320
 6640SOL     OW20818   6.896   2.537   5.178
 6640SOL    HW120819   6.810   2.512   5.223
 6640SOL    HW220820   6.911   2.477   5.100
 6641SOL     OW20821   3.742   1.466   0.135
 6641SOL    HW120822   3.781   1.388   0.085
 6641SOL    HW220823   3.777   1.467   0.228
 6642SOL     OW20824   2.337   5.159   6.207
 6642SOL    HW120825   2.284   5.153   6.122
 6642SOL    HW220826   2.368   5.068   6.233
 6643SOL     OW20827   6.700   6.737   0.950
 6643SOL    HW120828   6.706   6.653   0.898
 6643SOL    HW220829   6.752   6.809   0.904
 6644SOL     OW20830   1.738   5.889   3.390
 6644SOL    HW120831   1.787   5.827   3.329
 6644SOL    HW220832   1.804   5.944   3.442
 6645SOL     OW20833   6.122   3.154   0.466
 6645SOL    HW120834   6.117   3.069   0.412
 6645SOL    HW220835   6.171   3.136   0.551
 6646SOL     OW20836   4.674   0.823   6.057
 6646SOL    HW120837   4.667   0.724   6.044
 6646SOL    HW220838   4.757   0.844   6.108
 6647SOL     OW20839   4.339   6.587   1.162
 6647SOL    HW120840   4.242   6.606   1.152
 6647SOL    HW220841   4.368   6.608   1.255
 6648SOL     OW20842   3.276   5.526   4.542
 6648SOL    HW120843   3.339   5.455   4.576
 6648SOL    HW220844   3.324   5.613   4.538
 6649SOL     OW20845   5.859   3.169   6.650
 6649SOL    HW120846   5.907   3.101   6.704
 6649SOL    HW220847   5.896   3.170   6.557
 6650SOL     OW20848   3.981   1.352   5.078
 6650SOL    HW120849   4.047   1.311   5.015
 6650SOL    HW220850   4.023   1.363   5.168
 6651SOL     OW20851   1.875   1.939   6.798
 6651SOL    HW120852   1.786   1.899   6.780
 6651SOL    HW220853   1.880   2.029   6.755
 6652SOL     OW20854   0.711   4.687   6.931
 6652SOL    HW120855   0.804   4.649   6.937
 6652SOL    HW220856   0.654   4.627   6.875
 6653SOL     OW20857   4.953   3.164   0.863
 6653SOL    HW120858   4.924   3.251   0.903
 6653SOL    HW220859   4.991   3.181   0.772
 6654SOL     OW20860   0.318   5.349   2.443
 6654SOL    HW120861   0.304   5.445   2.420
 6654SOL    HW220862   0.268   5.327   2.527
 6655SOL     OW20863   0.071   6.004   1.909
 6655SOL    HW120864   0.140   5.942   1.871
 6655SOL    HW220865   0.115   6.069   1.971
 6656SOL     OW20866   5.318   1.978   3.246
 6656SOL    HW120867   5.248   1.994   3.177
 6656SOL    HW220868   5.407   2.009   3.211
 6657SOL     OW20869   5.984   3.029   4.551
 6657SOL    HW120870   5.956   3.109   4.497
 6657SOL    HW220871   6.030   2.964   4.491
 6658SOL     OW20872   6.197   0.163   5.885
 6658SOL    HW120873   6.102   0.176   5.914
 6658SOL    HW220874   6.199   0.145   5.786
 6659SOL     OW20875   1.248   3.865   1.781
 6659SOL    HW120876   1.212   3.958   1.777
 6659SOL    HW220877   1.314   3.851   1.708
 6660SOL     OW20878   2.058   5.069   1.637
 6660SOL    HW120879   2.048   5.136   1.710
 6660SOL    HW220880   2.000   4.990   1.656
 6661SOL     OW20881   2.820   0.724   4.718
 6661SOL    HW120882   2.854   0.732   4.811
 6661SOL    HW220883   2.728   0.762   4.712
 6662SOL     OW20884   2.076   0.804   0.708
 6662SOL    HW120885   2.101   0.726   0.651
 6662SOL    HW220886   2.086   0.779   0.804
 6663SOL     OW20887   0.642   6.543   4.861
 6663SOL    HW120888   0.720   6.542   4.798
 6663SOL    HW220889   0.652   6.468   4.927
 6664SOL     OW20890   2.316   0.727   0.976
 6664SOL    HW120891   2.309   0.818   1.017
 6664SOL    HW220892   2.225   0.687   0.967
 6665SOL     OW20893   1.701   6.696   5.585
 6665SOL    HW120894   1.681   6.793   5.578
 6665SOL    HW220895   1.736   6.662   5.497
 6666SOL     OW20896   6.269   5.376   5.257
 6666SOL    HW120897   6.217   5.398   5.175
 6666SOL    HW220898   6.366   5.392   5.239
 6667SOL     OW20899   6.498   6.482   5.896
 6667SOL    HW120900   6.541   6.536   5.824
 6667SOL    HW220901   6.558   6.481   5.977
 6668SOL     OW20902   6.820   5.979   1.086
 6668SOL    HW120903   6.860   5.893   1.055
 6668SOL    HW220904   6.806   6.040   1.008
 6669SOL     OW20905   3.934   2.098   1.452
 6669SOL    HW120906   3.844   2.133   1.479
 6669SOL    HW220907   3.937   2.086   1.353
 6670SOL     OW20908   3.540   0.709   6.241
 6670SOL    HW120909   3.488   0.757   6.312
 6670SOL    HW220910   3.586   0.629   6.282
 6671SOL     OW20911   5.751   6.502   0.162
 6671SOL    HW120912   5.745   6.426   0.227
 6671SOL    HW220913   5.755   6.465   0.069
 6672SOL     OW20914   1.247   2.795   0.274
 6672SOL    HW120915   1.321   2.842   0.321
 6672SOL    HW220916   1.283   2.716   0.225
 6673SOL     OW20917   4.816   4.254   3.486
 6673SOL    HW120918   4.736   4.314   3.498
 6673SOL    HW220919   4.791   4.178   3.426
 6674SOL     OW20920   0.207   3.323   6.760
 6674SOL    HW120921   0.266   3.242   6.756
 6674SOL    HW220922   0.262   3.401   6.791
 6675SOL     OW20923   5.823   2.288   0.345
 6675SOL    HW120924   5.789   2.198   0.371
 6675SOL    HW220925   5.895   2.279   0.277
 6676SOL     OW20926   0.823   3.227   3.001
 6676SOL    HW120927   0.832   3.284   3.083
 6676SOL    HW220928   0.893   3.253   2.934
 6677SOL     OW20929   0.529   1.167   6.768
 6677SOL    HW120930   0.537   1.159   6.867
 6677SOL    HW220931   0.449   1.117   6.736
 6678SOL     OW20932   2.431   4.610   0.843
 6678SOL    HW120933   2.465   4.685   0.787
 6678SOL    HW220934   2.391   4.647   0.927
 6679SOL     OW20935   3.768   0.991   3.848
 6679SOL    HW120936   3.848   1.023   3.798
 6679SOL    HW220937   3.794   0.916   3.908
 6680SOL     OW20938   4.576   6.225   6.621
 6680SOL    HW120939   4.492   6.267   6.657
 6680SOL    HW220940   4.638   6.206   6.697
 6681SOL     OW20941   4.964   5.409   1.076
 6681SOL    HW120942   4.970   5.324   1.127
 6681SOL    HW220943   4.870   5.422   1.043
 6682SOL     OW20944   2.564   4.411   0.125
 6682SOL    HW120945   2.636   4.433   0.059
 6682SOL    HW220946   2.523   4.323   0.102
 6683SOL     OW20947   6.045   3.260   6.093
 6683SOL    HW120948   6.139   3.290   6.109
 6683SOL    HW220949   6.043   3.195   6.017
 6684SOL     OW20950   3.759   6.619   2.533
 6684SOL    HW120951   3.671   6.659   2.559
 6684SOL    HW220952   3.797   6.670   2.456
 6685SOL     OW20953   5.059   2.326   6.231
 6685SOL    HW120954   5.147   2.300   6.191
 6685SOL    HW220955   5.069   2.337   6.330
 6686SOL     OW20956   5.886   5.884   3.788
 6686SOL    HW120957   5.981   5.898   3.815
 6686SOL    HW220958   5.868   5.786   3.779
 6687SOL     OW20959   0.679   2.761   2.024
 6687SOL    HW120960   0.680   2.811   1.937
 6687SOL    HW220961   0.772   2.750   2.058
 6688SOL     OW20962   4.222   4.593   0.587
 6688SOL    HW120963   4.165   4.673   0.567
 6688SOL    HW220964   4.280   4.573   0.508
 6689SOL     OW20965   4.376   3.388   5.952
 6689SOL    HW120966   4.347   3.467   5.899
 6689SOL    HW220967   4.464   3.407   5.994
 6690SOL     OW20968   1.231   6.690   0.219
 6690SOL    HW120969   1.197   6.651   0.305
 6690SOL    HW220970   1.226   6.621   0.147
 6691SOL     OW20971   2.110   0.027   2.263
 6691SOL    HW120972   2.181   0.079   2.216
 6691SOL    HW220973   2.123   0.036   2.362
 6692SOL     OW20974   4.279   3.797   1.797
 6692SOL    HW120975   4.326   3.782   1.710
 6692SOL    HW220976   4.191   3.749   1.796
 6693SOL     OW20977   4.285   1.907   4.767
 6693SOL    HW120978   4.260   1.994   4.725
 6693SOL    HW220979   4.335   1.924   4.852
 6694SOL     OW20980   4.429   6.578   1.413
 6694SOL    HW120981   4.344   6.525   1.417
 6694SOL    HW220982   4.488   6.551   1.489
 6695SOL     OW20983   2.704   2.029   6.971
 6695SOL    HW120984   2.803   2.034   6.984
 6695SOL    HW220985   2.680   2.070   6.883
 6696SOL     OW20986   3.855   3.048   3.424
 6696SOL    HW120987   3.877   3.004   3.512
 6696SOL    HW220988   3.932   3.105   3.395
 6697SOL     OW20989   4.722   2.498   3.192
 6697SOL    HW120990   4.706   2.594   3.216
 6697SOL    HW220991   4.657   2.440   3.241
 6698SOL     OW20992   3.429   3.358   0.879
 6698SOL    HW120993   3.387   3.441   0.916
 6698SOL    HW220994   3.410   3.353   0.781
 6699SOL     OW20995   2.126   6.899   5.377
 6699SOL    HW120996   2.039   6.948   5.385
 6699SOL    HW220997   2.114   6.805   5.410
 6700SOL     OW20998   6.437   1.465   1.115
 6700SOL    HW120999   6.420   1.422   1.026
 6700SOL    HW221000   6.350   1.499   1.152
 6701SOL     OW21001   5.553   6.102   1.693
 6701SOL    HW121002   5.512   6.050   1.618
 6701SOL    HW221003   5.518   6.196   1.691
 6702SOL     OW21004   1.804   2.429   2.054
 6702SOL    HW121005   1.865   2.508   2.048
 6702SOL    HW221006   1.724   2.452   2.110
 6703SOL     OW21007   1.006   1.028   0.451
 6703SOL    HW121008   0.937   0.955   0.457
 6703SOL    HW221009   1.083   0.996   0.396
 6704SOL     OW21010   4.059   2.239   4.476
 6704SOL    HW121011   4.125   2.245   4.401
 6704SOL    HW221012   4.014   2.328   4.487
 6705SOL     OW21013   5.930   2.730   0.656
 6705SOL    HW121014   5.887   2.819   0.672
 6705SOL    HW221015   5.894   2.663   0.721
 6706SOL     OW21016   1.916   5.988   0.531
 6706SOL    HW121017   1.907   5.892   0.505
 6706SOL    HW221018   2.013   6.011   0.542
 6707SOL     OW21019   5.246   6.677   3.251
 6707SOL    HW121020   5.225   6.688   3.348
 6707SOL    HW221021   5.238   6.580   3.225
 6708SOL     OW21022   5.796   5.411   1.023
 6708SOL    HW121023   5.845   5.466   1.090
 6708SOL    HW221024   5.765   5.326   1.066
 6709SOL     OW21025   0.293   5.516   3.288
 6709SOL    HW121026   0.216   5.481   3.235
 6709SOL    HW221027   0.320   5.448   3.356
 6710SOL     OW21028   4.420   0.992   0.740
 6710SOL    HW121029   4.414   0.967   0.643
 6710SOL    HW221030   4.434   1.090   0.749
 6711SOL     OW21031   5.135   6.833   6.027
 6711SOL    HW121032   5.193   6.912   6.047
 6711SOL    HW221033   5.088   6.847   5.940
 6712SOL     OW21034   6.175   3.141   1.502
 6712SOL    HW121035   6.190   3.054   1.455
 6712SOL    HW221036   6.145   3.124   1.596
 6713SOL     OW21037   1.202   0.803   3.082
 6713SOL    HW121038   1.196   0.714   3.036
 6713SOL    HW221039   1.116   0.822   3.129
 6714SOL     OW21040   6.023   1.049   0.859
 6714SOL    HW121041   6.088   1.115   0.823
 6714SOL    HW221042   5.999   1.074   0.953
 6715SOL     OW21043   1.482   0.050   1.273
 6715SOL    HW121044   1.500   0.145   1.298
 6715SOL    HW221045   1.570   0.001   1.265
 6716SOL     OW21046   0.100   5.850   2.385
 6716SOL    HW121047   0.050   5.837   2.299
 6716SOL    HW221048   0.051   5.805   2.459
 6717SOL     OW21049   2.062   2.280   6.367
 6717SOL    HW121050   2.008   2.280   6.283
 6717SOL    HW221051   2.159   2.290   6.345
 6718SOL     OW21052   4.313   0.393   1.232
 6718SOL    HW121053   4.343   0.403   1.138
 6718SOL    HW221054   4.309   0.483   1.275
 6719SOL     OW21055   1.931   6.822   0.140
 6719SOL    HW121056   2.003   6.885   0.109
 6719SOL    HW221057   1.856   6.875   0.179
 6720SOL     OW21058   2.143   1.090   4.470
 6720SOL    HW121059   2.225   1.113   4.417
 6720SOL    HW221060   2.065   1.141   4.434
 6721SOL     OW21061   6.857   6.612   0.730
 6721SOL    HW121062   6.929   6.625   0.799
 6721SOL    HW221063   6.887   6.546   0.662
 6722SOL     OW21064   6.961   2.824   6.878
 6722SOL    HW121065   6.942   2.895   6.811
 6722SOL    HW221066   6.887   2.757   6.880
 6723SOL     OW21067   1.468   6.848   5.373
 6723SOL    HW121068   1.520   6.893   5.446
 6723SOL    HW221069   1.493   6.887   5.285
 6724SOL     OW21070   1.999   2.641   6.307
 6724SOL    HW121071   1.906   2.604   6.306
 6724SOL    HW221072   2.015   2.690   6.393
 6725SOL     OW21073   6.798   2.275   2.301
 6725SOL    HW121074   6.756   2.223   2.227
 6725SOL    HW221075   6.735   2.347   2.331
 6726SOL     OW21076   0.396   2.368   3.675
 6726SOL    HW121077   0.332   2.334   3.606
 6726SOL    HW221078   0.365   2.340   3.766
 6727SOL     OW21079   0.160   4.652   5.919
 6727SOL    HW121080   0.192   4.745   5.901
 6727SOL    HW221081   0.118   4.649   6.010
 6728SOL     OW21082   3.986   1.801   2.845
 6728SOL    HW121083   3.920   1.875   2.829
 6728SOL    HW221084   4.004   1.753   2.760
 6729SOL     OW21085   6.993   1.494   0.781
 6729SOL    HW121086   0.010   1.406   0.799
 6729SOL    HW221087   0.029   1.567   0.807
 6730SOL     OW21088   1.827   0.229   0.965
 6730SOL    HW121089   1.763   0.171   0.916
 6730SOL    HW221090   1.817   0.214   1.064
 6731SOL     OW21091   1.148   0.075   0.857
 6731SOL    HW121092   1.081   0.007   0.826
 6731SOL    HW221093   1.216   0.029   0.915
 6732SOL     OW21094   5.217   4.577   4.679
 6732SOL    HW121095   5.235   4.664   4.725
 6732SOL    HW221096   5.177   4.513   4.744
 6733SOL     OW21097   3.936   5.935   6.349
 6733SOL    HW121098   3.861   5.871   6.366
 6733SOL    HW221099   3.932   5.967   6.254
 6734SOL     OW21100   5.422   2.034   6.057
 6734SOL    HW121101   5.490   1.974   6.098
 6734SOL    HW221102   5.364   1.980   5.995
 6735SOL     OW21103   5.826   3.446   4.102
 6735SOL    HW121104   5.890   3.419   4.030
 6735SOL    HW221105   5.798   3.365   4.154
 6736SOL     OW21106   3.286   3.708   6.223
 6736SOL    HW121107   3.249   3.625   6.182
 6736SOL    HW221108   3.226   3.738   6.297
 6737SOL     OW21109   1.553   3.173   1.050
 6737SOL    HW121110   1.492   3.216   0.983
 6737SOL    HW221111   1.498   3.130   1.122
 6738SOL     OW21112   1.710   5.722   4.265
 6738SOL    HW121113   1.697   5.799   4.327
 6738SOL    HW221114   1.781   5.744   4.198
 6739SOL     OW21115   6.184   5.916   4.058
 6739SOL    HW121116   6.179   6.014   4.076
 6739SOL    HW221117   6.123   5.868   4.121
 6740SOL     OW21118   6.227   0.571   5.598
 6740SOL    HW121119   6.259   0.645   5.657
 6740SOL    HW221120   6.231   0.601   5.502
 6741SOL     OW21121   3.632   2.170   5.486
 6741SOL    HW121122   3.542   2.129   5.469
 6741SOL    HW221123   3.674   2.197   5.399
 6742SOL     OW21124   5.285   5.575   3.459
 6742SOL    HW121125   5.310   5.602   3.551
 6742SOL    HW221126   5.283   5.655   3.399
 6743SOL     OW21127   3.730   3.845   6.323
 6743SOL    HW121128   3.704   3.847   6.420
 6743SOL    HW221129   3.681   3.771   6.277
 6744SOL     OW21130   0.471   6.510   5.327
 6744SOL    HW121131   0.459   6.547   5.234
 6744SOL    HW221132   0.424   6.422   5.333
 6745SOL     OW21133   6.587   6.197   3.923
 6745SOL    HW121134   6.626   6.285   3.950
 6745SOL    HW221135   6.574   6.195   3.824
 6746SOL     OW21136   0.981   0.501   3.827
 6746SOL    HW121137   1.036   0.417   3.836
 6746SOL    HW221138   0.916   0.507   3.902
 6747SOL     OW21139   5.990   0.205   0.313
 6747SOL    HW121140   6.000   0.197   0.412
 6747SOL    HW221141   5.937   0.287   0.291
 6748SOL     OW21142   3.323   1.708   3.125
 6748SOL    HW121143   3.413   1.747   3.108
 6748SOL    HW221144   3.253   1.766   3.082
 6749SOL     OW21145   4.299   4.460   0.929
 6749SOL    HW121146   4.267   4.543   0.973
 6749SOL    HW221147   4.388   4.433   0.967
 6750SOL     OW21148   2.825   1.986   4.422
 6750SOL    HW121149   2.769   1.993   4.504
 6750SOL    HW221150   2.922   1.982   4.448
 6751SOL     OW21151   4.889   0.685   3.534
 6751SOL    HW121152   4.832   0.663   3.455
 6751SOL    HW221153   4.832   0.689   3.616
 6752SOL     OW21154   2.147   0.052   2.551
 6752SOL    HW121155   2.234   0.088   2.584
 6752SOL    HW221156   2.073   0.086   2.608
 6753SOL     OW21157   3.542   1.391   6.518
 6753SOL    HW121158   3.631   1.435   6.506
 6753SOL    HW221159   3.471   1.460   6.527
 6754SOL     OW21160   6.872   1.152   0.805
 6754SOL    HW121161   6.930   1.233   0.801
 6754SOL    HW221162   6.842   1.137   0.899
 6755SOL     OW21163   4.360   4.168   1.122
 6755SOL    HW121164   4.419   4.246   1.100
 6755SOL    HW221165   4.416   4.093   1.156
 6756SOL     OW21166   3.637   6.676   5.542
 6756SOL    HW121167   3.713   6.647   5.483
 6756SOL    HW221168   3.639   6.622   5.626
 6757SOL     OW21169   3.871   2.440   0.568
 6757SOL    HW121170   3.902   2.533   0.547
 6757SOL    HW221171   3.778   2.444   0.606
 6758SOL     OW21172   6.319   2.915   1.747
 6758SOL    HW121173   6.327   2.855   1.668
 6758SOL    HW221174   6.230   2.961   1.746
 6759SOL     OW21175   0.826   3.145   2.470
 6759SOL    HW121176   0.765   3.225   2.473
 6759SOL    HW221177   0.809   3.093   2.387
 6760SOL     OW21178   6.639   3.789   2.493
 6760SOL    HW121179   6.707   3.717   2.477
 6760SOL    HW221180   6.664   3.843   2.573
 6761SOL     OW21181   6.096   3.045   4.784
 6761SOL    HW121182   6.060   3.050   4.691
 6761SOL    HW221183   6.186   3.000   4.783
 6762SOL     OW21184   0.590   5.161   4.225
 6762SOL    HW121185   0.587   5.258   4.200
 6762SOL    HW221186   0.497   5.126   4.232
 6763SOL     OW21187   5.670   5.347   3.993
 6763SOL    HW121188   5.644   5.252   4.008
 6763SOL    HW221189   5.588   5.402   3.979
 6764SOL     OW21190   2.796   5.299   1.630
 6764SOL    HW121191   2.742   5.319   1.548
 6764SOL    HW221192   2.840   5.384   1.661
 6765SOL     OW21193   5.833   5.146   2.969
 6765SOL    HW121194   5.863   5.231   3.013
 6765SOL    HW221195   5.865   5.145   2.875
 6766SOL     OW21196   5.422   6.388   5.641
 6766SOL    HW121197   5.512   6.404   5.681
 6766SOL    HW221198   5.393   6.294   5.660
 6767SOL     OW21199   3.186   0.509   1.146
 6767SOL    HW121200   3.167   0.512   1.244
 6767SOL    HW221201   3.149   0.591   1.103
 6768SOL     OW21202   1.942   0.788   5.500
 6768SOL    HW121203   1.849   0.758   5.522
 6768SOL    HW221204   1.943   0.826   5.407
 6769SOL     OW21205   3.319   1.778   0.531
 6769SOL    HW121206   3.230   1.816   0.508
 6769SOL    HW221207   3.380   1.852   0.560
 6770SOL     OW21208   6.967   1.171   2.296
 6770SOL    HW121209   7.012   1.141   2.211
 6770SOL    HW221210   6.931   1.091   2.344
 6771SOL     OW21211   5.001   2.644   3.414
 6771SOL    HW121212   4.967   2.555   3.443
 6771SOL    HW221213   4.940   2.716   3.446
 6772SOL     OW21214   3.762   2.161   3.224
 6772SOL    HW121215   3.753   2.125   3.317
 6772SOL    HW221216   3.673   2.194   3.193
 6773SOL     OW21217   6.517   5.224   2.303
 6773SOL    HW121218   6.513   5.274   2.389
 6773SOL    HW221219   6.605   5.178   2.295
 6774SOL     OW21220   0.454   2.026   5.759
 6774SOL    HW121221   0.358   2.054   5.760
 6774SOL    HW221222   0.476   1.985   5.670
 6775SOL     OW21223   2.476   2.946   1.743
 6775SOL    HW121224   2.559   2.891   1.752
 6775SOL    HW221225   2.495   3.025   1.684
 6776SOL     OW21226   4.290   4.905   0.205
 6776SOL    HW121227   4.362   4.965   0.241
 6776SOL    HW221228   4.206   4.920   0.256
 6777SOL     OW21229   4.420   4.370   6.974
 6777SOL    HW121230   4.336   4.386   7.025
 6777SOL    HW221231   4.401   4.378   6.876
 6778SOL     OW21232   5.845   4.791   2.153
 6778SOL    HW121233   5.748   4.767   2.165
 6778SOL    HW221234   5.876   4.758   2.064
 6779SOL     OW21235   6.413   5.748   6.718
 6779SOL    HW121236   6.505   5.787   6.729
 6779SOL    HW221237   6.414   5.653   6.748
 6780SOL     OW21238   1.332   2.851   1.982
 6780SOL    HW121239   1.425   2.886   1.984
 6780SOL    HW221240   1.300   2.847   1.887
 6781SOL     OW21241   6.460   0.586   4.602
 6781SOL    HW121242   6.489   0.504   4.652
 6781SOL    HW221243   6.383   0.629   4.650
 6782SOL     OW21244   6.890   0.337   3.573
 6782SOL    HW121245   6.853   0.304   3.660
 6782SOL    HW221246   6.974   0.288   3.551
 6783SOL     OW21247   6.093   1.435   5.798
 6783SOL    HW121248   6.051   1.499   5.733
 6783SOL    HW221249   6.192   1.433   5.783
 6784SOL     OW21250   2.388   3.972   0.893
 6784SOL    HW121251   2.440   4.058   0.896
 6784SOL    HW221252   2.452   3.896   0.882
 6785SOL     OW21253   5.474   5.204   3.624
 6785SOL    HW121254   5.543   5.277   3.633
 6785SOL    HW221255   5.500   5.143   3.549
 6786SOL     OW21256   1.849   2.306   6.931
 6786SOL    HW121257   1.848   2.378   7.001
 6786SOL    HW221258   1.897   2.226   6.966
 6787SOL     OW21259   1.958   2.385   1.571
 6787SOL    HW121260   1.859   2.398   1.572
 6787SOL    HW221261   2.002   2.463   1.615
 6788SOL     OW21262   2.164   3.889   1.464
 6788SOL    HW121263   2.224   3.858   1.390
 6788SOL    HW221264   2.141   3.812   1.523
 6789SOL     OW21265   6.706   5.456   3.417
 6789SOL    HW121266   6.731   5.543   3.374
 6789SOL    HW221267   6.650   5.403   3.353
 6790SOL     OW21268   0.736   3.789   1.299
 6790SOL    HW121269   0.756   3.723   1.371
 6790SOL    HW221270   0.723   3.880   1.340
 6791SOL     OW21271   4.110   2.331   1.390
 6791SOL    HW121272   4.102   2.347   1.489
 6791SOL    HW221273   4.051   2.255   1.363
 6792SOL     OW21274   6.383   5.779   5.386
 6792SOL    HW121275   6.458   5.820   5.437
 6792SOL    HW221276   6.338   5.709   5.442
 6793SOL     OW21277   1.300   1.993   0.984
 6793SOL    HW121278   1.203   1.968   0.980
 6793SOL    HW221279   1.336   1.970   1.074
 6794SOL     OW21280   5.106   1.703   6.392
 6794SOL    HW121281   5.192   1.745   6.361
 6794SOL    HW221282   5.051   1.772   6.439
 6795SOL     OW21283   2.478   6.702   1.255
 6795SOL    HW121284   2.557   6.654   1.217
 6795SOL    HW221285   2.415   6.635   1.294
 6796SOL     OW21286   6.280   0.867   1.880
 6796SOL    HW121287   6.193   0.828   1.848
 6796SOL    HW221288   6.311   0.817   1.961
 6797SOL     OW21289   5.229   2.830   1.701
 6797SOL    HW121290   5.253   2.734   1.717
 6797SOL    HW221291   5.213   2.875   1.789
 6798SOL     OW21292   4.728   0.035   2.332
 6798SOL    HW121293   4.746   0.003   2.239
 6798SOL    HW221294   4.720   0.135   2.332
 6799SOL     OW21295   6.248   6.480   1.215
 6799SOL    HW121296   6.250   6.575   1.245
 6799SOL    HW221297   6.257   6.476   1.115
 6800SOL     OW21298   1.928   3.926   1.324
 6800SOL    HW121299   1.927   3.916   1.224
 6800SOL    HW221300   2.022   3.923   1.357
 6801SOL     OW21301   0.577   0.248   2.898
 6801SOL    HW121302   0.636   0.181   2.943
 6801SOL    HW221303   0.568   0.225   2.801
 6802SOL     OW21304   3.403   5.544   0.835
 6802SOL    HW121305   3.449   5.456   0.824
 6802SOL    HW221306   3.336   5.537   0.909
 6803SOL     OW21307   5.183   3.024   6.256
 6803SOL    HW121308   5.119   3.047   6.329
 6803SOL    HW221309   5.250   3.097   6.246
 6804SOL     OW21310   3.497   5.253   3.712
 6804SOL    HW121311   3.472   5.157   3.716
 6804SOL    HW221312   3.445   5.298   3.639
 6805SOL     OW21313   6.549   4.872   6.604
 6805SOL    HW121314   6.539   4.773   6.596
 6805SOL    HW221315   6.604   4.894   6.685
 6806SOL     OW21316   6.003   0.513   4.156
 6806SOL    HW121317   6.044   0.490   4.068
 6806SOL    HW221318   5.975   0.609   4.157
 6807SOL     OW21319   3.507   3.099   0.131
 6807SOL    HW121320   3.600   3.097   0.170
 6807SOL    HW221321   3.510   3.064   0.037
 6808SOL     OW21322   0.136   2.086   4.823
 6808SOL    HW121323   0.167   2.123   4.910
 6808SOL    HW221324   0.106   1.991   4.835
 6809SOL     OW21325   1.390   3.083   1.250
 6809SOL    HW121326   1.408   3.126   1.339
 6809SOL    HW221327   1.292   3.065   1.242
 6810SOL     OW21328   1.851   0.207   2.140
 6810SOL    HW121329   1.885   0.296   2.110
 6810SOL    HW221330   1.924   0.157   2.186
 6811SOL     OW21331   5.610   3.950   0.643
 6811SOL    HW121332   5.639   3.948   0.548
 6811SOL    HW221333   5.510   3.952   0.648
 6812SOL     OW21334   3.229   3.542   3.170
 6812SOL    HW121335   3.162   3.468   3.174
 6812SOL    HW221336   3.267   3.557   3.261
 6813SOL     OW21337   5.140   2.256   3.053
 6813SOL    HW121338   5.152   2.157   3.067
 6813SOL    HW221339   5.209   2.289   2.990
 6814SOL     OW21340   3.412   1.884   6.009
 6814SOL    HW121341   3.430   1.880   5.910
 6814SOL    HW221342   3.419   1.979   6.040
 6815SOL     OW21343   3.340   6.781   1.712
 6815SOL    HW121344   3.272   6.724   1.666
 6815SOL    HW221345   3.308   6.876   1.714
 6816SOL     OW21346   0.588   0.069   0.025
 6816SOL    HW121347   0.489   0.067   0.012
 6816SOL    HW221348   0.627   7.011   7.016
 6817SOL     OW21349   1.427   2.449   3.388
 6817SOL    HW121350   1.435   2.424   3.485
 6817SOL    HW221351   1.496   2.399   3.335
 6818SOL     OW21352   2.987   5.104   1.935
 6818SOL    HW121353   2.973   5.059   1.847
 6818SOL    HW221354   2.901   5.144   1.966
 6819SOL     OW21355   4.939   0.845   4.737
 6819SOL    HW121356   4.894   0.929   4.766
 6819SOL    HW221357   5.015   0.825   4.800
 6820SOL     OW21358   1.852   5.869   2.626
 6820SOL    HW121359   1.796   5.853   2.708
 6820SOL    HW221360   1.851   5.788   2.569
 6821SOL     OW21361   3.298   1.111   4.266
 6821SOL    HW121362   3.257   1.157   4.187
 6821SOL    HW221363   3.243   1.129   4.347
 6822SOL     OW21364   5.733   2.536   6.822
 6822SOL    HW121365   5.742   2.464   6.890
 6822SOL    HW221366   5.705   2.496   6.735
 6823SOL     OW21367   4.054   3.268   4.597
 6823SOL    HW121368   4.041   3.324   4.516
 6823SOL    HW221369   4.115   3.316   4.661
 6824SOL     OW21370   0.645   2.573   6.636
 6824SOL    HW121371   0.573   2.560   6.568
 6824SOL    HW221372   0.615   2.639   6.704
 6825SOL     OW21373   5.101   6.906   2.322
 6825SOL    HW121374   5.174   6.964   2.285
 6825SOL    HW221375   5.015   6.957   2.322
 6826SOL     OW21376   2.211   4.283   2.394
 6826SOL    HW121377   2.196   4.185   2.408
 6826SOL    HW221378   2.220   4.329   2.482
 6827SOL     OW21379   4.712   5.544   6.265
 6827SOL    HW121380   4.763   5.477   6.211
 6827SOL    HW221381   4.625   5.563   6.221
 6828SOL     OW21382   2.780   2.306   1.515
 6828SOL    HW121383   2.829   2.223   1.539
 6828SOL    HW221384   2.744   2.348   1.599
 6829SOL     OW21385   4.459   6.245   4.172
 6829SOL    HW121386   4.489   6.152   4.192
 6829SOL    HW221387   4.535   6.308   4.186
 6830SOL     OW21388   5.031   1.120   3.968
 6830SOL    HW121389   4.968   1.087   3.898
 6830SOL    HW221390   5.014   1.216   3.987
 6831SOL     OW21391   1.424   0.772   6.675
 6831SOL    HW121392   1.459   0.860   6.708
 6831SOL    HW221393   1.478   0.697   6.713
 6832SOL     OW21394   2.120   4.196   1.215
 6832SOL    HW121395   2.062   4.274   1.194
 6832SOL    HW221396   2.207   4.228   1.252
 6833SOL     OW21397   4.057   3.849   6.356
 6833SOL    HW121398   4.001   3.918   6.402
 6833SOL    HW221399   4.104   3.891   6.278
 6834SOL     OW21400   5.151   6.244   0.870
 6834SOL    HW121401   5.235   6.298   0.868
 6834SOL    HW221402   5.167   6.157   0.823
 6835SOL     OW21403   3.665   0.219   4.087
 6835SOL    HW121404   3.737   0.219   4.018
 6835SOL    HW221405   3.611   0.303   4.079
 6836SOL     OW21406   2.767   5.687   0.217
 6836SOL    HW121407   2.853   5.668   0.169
 6836SOL    HW221408   2.731   5.602   0.256
 6837SOL     OW21409   0.888   1.753   2.484
 6837SOL    HW121410   0.945   1.818   2.534
 6837SOL    HW221411   0.831   1.802   2.419
 6838SOL     OW21412   2.966   6.307   0.423
 6838SOL    HW121413   2.954   6.349   0.514
 6838SOL    HW221414   2.906   6.353   0.358
 6839SOL     OW21415   5.292   0.792   0.073
 6839SOL    HW121416   5.293   0.706   0.123
 6839SOL    HW221417   5.207   0.799   0.020
 6840SOL     OW21418   3.103   1.383   4.990
 6840SOL    HW121419   3.159   1.344   4.917
 6840SOL    HW221420   3.033   1.316   5.018
 6841SOL     OW21421   4.971   4.178   6.403
 6841SOL    HW121422   5.057   4.135   6.429
 6841SOL    HW221423   4.962   4.179   6.303
 6842SOL     OW21424   2.921   4.120   1.477
 6842SOL    HW121425   2.918   4.148   1.381
 6842SOL    HW221426   2.988   4.047   1.489
 6843SOL     OW21427   5.957   6.655   0.627
 6843SOL    HW121428   5.913   6.699   0.706
 6843SOL    HW221429   5.888   6.625   0.562
 6844SOL     OW21430   5.667   0.907   4.556
 6844SOL    HW121431   5.595   0.874   4.616
 6844SOL    HW221432   5.752   0.858   4.577
 6845SOL     OW21433   5.893   3.732   3.027
 6845SOL    HW121434   5.873   3.637   3.052
 6845SOL    HW221435   5.854   3.752   2.937
 6846SOL     OW21436   3.763   3.439   0.365
 6846SOL    HW121437   3.802   3.410   0.278
 6846SOL    HW221438   3.832   3.486   0.419
 6847SOL     OW21439   0.000   3.455   4.939
 6847SOL    HW121440   6.948   3.393   4.935
 6847SOL    HW221441   0.007   3.505   4.853
 6848SOL     OW21442   5.454   4.612   3.557
 6848SOL    HW121443   5.370   4.643   3.512
 6848SOL    HW221444   5.499   4.542   3.501
 6849SOL     OW21445   4.601   3.884   5.313
 6849SOL    HW121446   4.570   3.790   5.296
 6849SOL    HW221447   4.672   3.907   5.247
 6850SOL     OW21448   5.333   2.989   2.905
 6850SOL    HW121449   5.432   2.987   2.920
 6850SOL    HW221450   5.314   2.983   2.807
 6851SOL     OW21451   0.350   2.244   2.859
 6851SOL    HW121452   0.353   2.344   2.851
 6851SOL    HW221453   0.270   2.218   2.914
 6852SOL     OW21454   2.779   4.444   1.226
 6852SOL    HW121455   2.724   4.421   1.307
 6852SOL    HW221456   2.745   4.529   1.185
 6853SOL     OW21457   5.633   4.480   6.591
 6853SOL    HW121458   5.729   4.476   6.621
 6853SOL    HW221459   5.627   4.537   6.509
 6854SOL     OW21460   5.182   0.853   5.485
 6854SOL    HW121461   5.182   0.761   5.525
 6854SOL    HW221462   5.266   0.901   5.512
 6855SOL     OW21463   4.361   5.894   3.608
 6855SOL    HW121464   4.315   5.963   3.551
 6855SOL    HW221465   4.459   5.896   3.590
 6856SOL     OW21466   0.286   2.336   4.807
 6856SOL    HW121467   0.269   2.357   4.710
 6856SOL    HW221468   0.369   2.282   4.815
 6857SOL     OW21469   1.480   2.737   6.675
 6857SOL    HW121470   1.526   2.821   6.646
 6857SOL    HW221471   1.522   2.703   6.759
 6858SOL     OW21472   4.105   4.009   1.773
 6858SOL    HW121473   4.136   4.085   1.717
 6858SOL    HW221474   4.184   3.957   1.806
 6859SOL     OW21475   0.971   1.436   1.316
 6859SOL    HW121476   0.936   1.469   1.403
 6859SOL    HW221477   0.960   1.508   1.246
 6860SOL     OW21478   6.893   4.813   1.296
 6860SOL    HW121479   6.960   4.743   1.320
 6860SOL    HW221480   6.826   4.822   1.369
 6861SOL     OW21481   4.920   3.795   6.741
 6861SOL    HW121482   4.911   3.741   6.657
 6861SOL    HW221483   4.832   3.799   6.788
 6862SOL     OW21484   0.417   5.920   5.562
 6862SOL    HW121485   0.346   5.910   5.491
 6862SOL    HW221486   0.452   6.013   5.561
 6863SOL     OW21487   6.190   6.890   5.940
 6863SOL    HW121488   6.211   6.807   5.888
 6863SOL    HW221489   6.256   6.961   5.917
 6864SOL     OW21490   2.646   4.557   5.474
 6864SOL    HW121491   2.690   4.477   5.432
 6864SOL    HW221492   2.660   4.637   5.416
 6865SOL     OW21493   0.464   6.688   4.492
 6865SOL    HW121494   0.546   6.655   4.445
 6865SOL    HW221495   0.410   6.744   4.429
 6866SOL     OW21496   5.838   5.497   2.855
 6866SOL    HW121497   5.866   5.556   2.780
 6866SOL    HW221498   5.818   5.405   2.820
 6867SOL     OW21499   2.013   3.436   1.825
 6867SOL    HW121500   2.097   3.442   1.878
 6867SOL    HW221501   1.949   3.374   1.872
 6868SOL     OW21502   2.086   6.738   5.777
 6868SOL    HW121503   2.089   6.685   5.862
 6868SOL    HW221504   2.045   6.827   5.795
 6869SOL     OW21505   5.248   0.961   6.045
 6869SOL    HW121506   5.196   0.931   6.125
 6869SOL    HW221507   5.215   0.911   5.964
 6870SOL     OW21508   0.490   4.511   0.886
 6870SOL    HW121509   0.508   4.605   0.914
 6870SOL    HW221510   0.571   4.455   0.905
 6871SOL     OW21511   5.992   4.141   3.214
 6871SOL    HW121512   5.923   4.203   3.176
 6871SOL    HW221513   6.047   4.103   3.140
 6872SOL     OW21514   0.536   2.606   1.719
 6872SOL    HW121515   0.466   2.592   1.789
 6872SOL    HW221516   0.493   2.639   1.635
 6873SOL     OW21517   0.822   3.170   4.283
 6873SOL    HW121518   0.809   3.270   4.290
 6873SOL    HW221519   0.781   3.138   4.198
 6874SOL     OW21520   6.674   4.924   3.404
 6874SOL    HW121521   6.605   4.953   3.470
 6874SOL    HW221522   6.754   4.888   3.452
 6875SOL     OW21523   2.306   1.697   2.397
 6875SOL    HW121524   2.344   1.610   2.366
 6875SOL    HW221525   2.287   1.755   2.318
 6876SOL     OW21526   3.968   0.028   3.528
 6876SOL    HW121527   3.937   6.989   3.458
 6876SOL    HW221528   4.005   7.004   3.606
 6877SOL     OW21529   3.223   4.368   1.330
 6877SOL    HW121530   3.256   4.456   1.298
 6877SOL    HW221531   3.194   4.375   1.425
 6878SOL     OW21532   3.053   1.837   4.136
 6878SOL    HW121533   3.075   1.843   4.039
 6878SOL    HW221534   3.125   1.788   4.184
 6879SOL     OW21535   2.290   2.660   0.359
 6879SOL    HW121536   2.300   2.739   0.420
 6879SOL    HW221537   2.220   2.680   0.290
 6880SOL     OW21538   0.909   6.221   5.818
 6880SOL    HW121539   0.935   6.128   5.844
 6880SOL    HW221540   0.839   6.254   5.881
 6881SOL     OW21541   1.178   3.537   1.619
 6881SOL    HW121542   1.189   3.601   1.544
 6881SOL    HW221543   1.101   3.566   1.676
 6882SOL     OW21544   2.570   0.488   0.449
 6882SOL    HW121545   2.643   0.513   0.385
 6882SOL    HW221546   2.580   0.541   0.533
 6883SOL     OW21547   5.021   1.457   0.342
 6883SOL    HW121548   4.981   1.378   0.387
 6883SOL    HW221549   5.068   1.514   0.410
 6884SOL     OW21550   0.673   4.240   2.779
 6884SOL    HW121551   0.746   4.251   2.846
 6884SOL    HW221552   0.710   4.203   2.694
 6885SOL     OW21553   4.552   4.876   3.011
 6885SOL    HW121554   4.588   4.851   2.922
 6885SOL    HW221555   4.593   4.820   3.082
 6886SOL     OW21556   0.001   1.364   4.672
 6886SOL    HW121557   0.081   1.401   4.720
 6886SOL    HW221558   7.022   1.266   4.689
 6887SOL     OW21559   4.469   5.562   6.501
 6887SOL    HW121560   4.504   5.627   6.569
 6887SOL    HW221561   4.526   5.480   6.501
 6888SOL     OW21562   5.009   5.325   6.662
 6888SOL    HW121563   4.933   5.383   6.630
 6888SOL    HW221564   5.057   5.287   6.583
 6889SOL     OW21565   1.552   2.751   6.212
 6889SOL    HW121566   1.524   2.676   6.152
 6889SOL    HW221567   1.472   2.805   6.239
 6890SOL     OW21568   4.290   6.407   1.932
 6890SOL    HW121569   4.387   6.381   1.925
 6890SOL    HW221570   4.278   6.469   2.009
 6891SOL     OW21571   1.751   3.615   1.322
 6891SOL    HW121572   1.682   3.637   1.253
 6891SOL    HW221573   1.754   3.687   1.391
 6892SOL     OW21574   3.637   1.675   4.274
 6892SOL    HW121575   3.604   1.597   4.327
 6892SOL    HW221576   3.699   1.643   4.203
 6893SOL     OW21577   4.863   4.088   6.851
 6893SOL    HW121578   4.818   4.095   6.762
 6893SOL    HW221579   4.889   4.179   6.883
 6894SOL     OW21580   6.009   4.783   1.116
 6894SOL    HW121581   6.044   4.690   1.131
 6894SOL    HW221582   5.910   4.781   1.105
 6895SOL     OW21583   1.947   5.134   1.386
 6895SOL    HW121584   2.003   5.123   1.468
 6895SOL    HW221585   1.856   5.098   1.403
 6896SOL     OW21586   3.093   1.925   3.589
 6896SOL    HW121587   3.059   1.894   3.500
 6896SOL    HW221588   3.157   1.859   3.626
 6897SOL     OW21589   4.903   3.311   5.117
 6897SOL    HW121590   4.808   3.340   5.108
 6897SOL    HW221591   4.924   3.298   5.214
 6898SOL     OW21592   3.933   1.594   1.614
 6898SOL    HW121593   3.968   1.647   1.537
 6898SOL    HW221594   3.903   1.504   1.581
 6899SOL     OW21595   4.764   5.901   2.269
 6899SOL    HW121596   4.691   5.944   2.322
 6899SOL    HW221597   4.770   5.804   2.293
 6900SOL     OW21598   6.712   5.118   4.584
 6900SOL    HW121599   6.743   5.204   4.622
 6900SOL    HW221600   6.614   5.124   4.563
 6901SOL     OW21601   5.903   6.570   6.662
 6901SOL    HW121602   5.883   6.666   6.643
 6901SOL    HW221603   5.861   6.545   6.750
 6902SOL     OW21604   6.493   5.617   6.169
 6902SOL    HW121605   6.576   5.671   6.179
 6902SOL    HW221606   6.413   5.677   6.174
 6903SOL     OW21607   3.433   4.843   5.174
 6903SOL    HW121608   3.435   4.898   5.090
 6903SOL    HW221609   3.342   4.847   5.214
 6904SOL     OW21610   5.946   0.407   6.266
 6904SOL    HW121611   5.974   0.312   6.279
 6904SOL    HW221612   6.013   0.468   6.309
 6905SOL     OW21613   5.419   5.577   6.740
 6905SOL    HW121614   5.352   5.561   6.667
 6905SOL    HW221615   5.386   5.648   6.801
 6906SOL     OW21616   3.969   1.407   3.855
 6906SOL    HW121617   4.055   1.452   3.879
 6906SOL    HW221618   3.969   1.314   3.891
 6907SOL     OW21619   5.902   2.170   1.193
 6907SOL    HW121620   5.814   2.217   1.189
 6907SOL    HW221621   5.896   2.092   1.256
 6908SOL     OW21622   2.120   5.492   6.113
 6908SOL    HW121623   2.051   5.561   6.093
 6908SOL    HW221624   2.193   5.497   6.044
 6909SOL     OW21625   4.977   4.073   0.215
 6909SOL    HW121626   5.050   4.092   0.280
 6909SOL    HW221627   4.960   4.155   0.160
 6910SOL     OW21628   1.183   3.613   3.063
 6910SOL    HW121629   1.173   3.661   3.150
 6910SOL    HW221630   1.258   3.656   3.010
 6911SOL     OW21631   4.334   7.009   4.137
 6911SOL    HW121632   4.383   7.002   4.224
 6911SOL    HW221633   4.365   0.063   4.087
 6912SOL     OW21634   2.843   3.107   6.188
 6912SOL    HW121635   2.779   3.184   6.184
 6912SOL    HW221636   2.911   3.116   6.116
 6913SOL     OW21637   5.489   6.057   4.720
 6913SOL    HW121638   5.389   6.058   4.719
 6913SOL    HW221639   5.522   6.019   4.806
 6914SOL     OW21640   5.717   4.666   4.053
 6914SOL    HW121641   5.727   4.581   4.106
 6914SOL    HW221642   5.653   4.650   3.978
 6915SOL     OW21643   6.986   2.375   1.810
 6915SOL    HW121644   6.922   2.436   1.857
 6915SOL    HW221645   7.010   2.299   1.871
 6916SOL     OW21646   5.681   1.196   0.868
 6916SOL    HW121647   5.751   1.211   0.798
 6916SOL    HW221648   5.591   1.216   0.829
 6917SOL     OW21649   3.971   6.702   1.374
 6917SOL    HW121650   3.893   6.723   1.433
 6917SOL    HW221651   3.987   6.603   1.374
 6918SOL     OW21652   0.250   2.320   3.901
 6918SOL    HW121653   0.255   2.361   3.993
 6918SOL    HW221654   0.188   2.242   3.903
 6919SOL     OW21655   6.077   5.382   4.210
 6919SOL    HW121656   6.166   5.348   4.240
 6919SOL    HW221657   6.031   5.427   4.286
 6920SOL     OW21658   4.885   6.389   5.181
 6920SOL    HW121659   4.881   6.486   5.159
 6920SOL    HW221660   4.975   6.353   5.155
 6921SOL     OW21661   4.599   6.419   3.142
 6921SOL    HW121662   4.556   6.448   3.228
 6921SOL    HW221663   4.529   6.415   3.070
 6922SOL     OW21664   1.699   6.111   5.765
 6922SOL    HW121665   1.603   6.118   5.790
 6922SOL    HW221666   1.756   6.153   5.836
 6923SOL     OW21667   5.134   5.676   2.433
 6923SOL    HW121668   5.195   5.713   2.503
 6923SOL    HW221669   5.172   5.591   2.398
 6924SOL     OW21670   2.405   4.144   0.023
 6924SOL    HW121671   2.316   4.168   7.012
 6924SOL    HW221672   2.477   4.176   6.988
 6925SOL     OW21673   5.201   5.483   4.527
 6925SOL    HW121674   5.254   5.432   4.595
 6925SOL    HW221675   5.225   5.450   4.435
 6926SOL     OW21676   2.635   2.255   0.533
 6926SOL    HW121677   2.641   2.355   0.536
 6926SOL    HW221678   2.724   2.218   0.505
 6927SOL     OW21679   3.930   2.292   5.757
 6927SOL    HW121680   4.007   2.341   5.799
 6927SOL    HW221681   3.883   2.238   5.827
 6928SOL     OW21682   5.692   5.640   0.930
 6928SOL    HW121683   5.729   5.552   0.962
 6928SOL    HW221684   5.705   5.709   1.002
 6929SOL     OW21685   5.031   5.968   2.243
 6929SOL    HW121686   5.078   5.897   2.296
 6929SOL    HW221687   4.933   5.964   2.261
 6930SOL     OW21688   1.398   0.924   1.629
 6930SOL    HW121689   1.386   0.859   1.704
 6930SOL    HW221690   1.469   0.990   1.653
 6931SOL     OW21691   1.568   1.550   2.623
 6931SOL    HW121692   1.612   1.480   2.566
 6931SOL    HW221693   1.571   1.638   2.575
 6932SOL     OW21694   4.712   6.763   0.584
 6932SOL    HW121695   4.622   6.772   0.543
 6932SOL    HW221696   4.770   6.840   0.556
 6933SOL     OW21697   3.518   6.475   5.373
 6933SOL    HW121698   3.517   6.575   5.377
 6933SOL    HW221699   3.471   6.443   5.291
 6934SOL     OW21700   4.839   3.218   6.061
 6934SOL    HW121701   4.785   3.273   5.998
 6934SOL    HW221702   4.865   3.133   6.016
 6935SOL     OW21703   4.483   5.948   2.412
 6935SOL    HW121704   4.429   6.029   2.434
 6935SOL    HW221705   4.469   5.924   2.316
 6936SOL     OW21706   6.409   3.063   3.939
 6936SOL    HW121707   6.402   2.966   3.914
 6936SOL    HW221708   6.476   3.073   4.013
 6937SOL     OW21709   6.256   6.426   0.965
 6937SOL    HW121710   6.333   6.366   0.942
 6937SOL    HW221711   6.257   6.506   0.906
 6938SOL     OW21712   6.930   2.525   4.168
 6938SOL    HW121713   7.025   2.496   4.180
 6938SOL    HW221714   6.918   2.617   4.207
 6939SOL     OW21715   0.079   4.902   2.555
 6939SOL    HW121716   0.123   4.978   2.507
 6939SOL    HW221717   0.110   4.815   2.516
 6940SOL     OW21718   4.084   0.622   0.038
 6940SOL    HW121719   4.165   0.681   0.038
 6940SOL    HW221720   4.098   0.545   0.100
 6941SOL     OW21721   3.269   3.773   1.943
 6941SOL    HW121722   3.326   3.697   1.971
 6941SOL    HW221723   3.294   3.802   1.850
 6942SOL     OW21724   5.736   6.633   2.461
 6942SOL    HW121725   5.772   6.718   2.500
 6942SOL    HW221726   5.787   6.611   2.378
 6943SOL     OW21727   3.826   5.531   0.880
 6943SOL    HW121728   3.839   5.601   0.950
 6943SOL    HW221729   3.798   5.573   0.794
 6944SOL     OW21730   1.070   5.275   5.922
 6944SOL    HW121731   0.980   5.260   5.962
 6944SOL    HW221732   1.124   5.191   5.925
 6945SOL     OW21733   0.043   1.785   1.403
 6945SOL    HW121734   7.000   1.769   1.333
 6945SOL    HW221735   0.057   1.884   1.413
 6946SOL     OW21736   4.235   6.810   1.434
 6946SOL    HW121737   4.316   6.808   1.375
 6946SOL    HW221738   4.162   6.756   1.392
 6947SOL     OW21739   3.865   5.377   6.387
 6947SOL    HW121740   3.918   5.460   6.404
 6947SOL    HW221741   3.830   5.378   6.294
 6948SOL     OW21742   1.033   6.315   0.960
 6948SOL    HW121743   1.031   6.215   0.968
 6948SOL    HW221744   1.119   6.350   0.995
 6949SOL     OW21745   2.803   0.637   3.397
 6949SOL    HW121746   2.857   0.613   3.478
 6949SOL    HW221747   2.726   0.575   3.388
 6950SOL     OW21748   1.460   0.815   4.818
 6950SOL    HW121749   1.424   0.777   4.903
 6950SOL    HW221750   1.402   0.788   4.741
 6951SOL     OW21751   0.784   5.680   6.262
 6951SOL    HW121752   0.745   5.757   6.312
 6951SOL    HW221753   0.791   5.601   6.323
 6952SOL     OW21754   1.065   5.111   3.290
 6952SOL    HW121755   1.023   5.025   3.318
 6952SOL    HW221756   1.015   5.149   3.212
 6953SOL     OW21757   5.370   6.437   0.884
 6953SOL    HW121758   5.409   6.398   0.800
 6953SOL    HW221759   5.439   6.494   0.929
 6954SOL     OW21760   0.827   4.522   1.585
 6954SOL    HW121761   0.759   4.541   1.656
 6954SOL    HW221762   0.870   4.608   1.557
 6955SOL     OW21763   4.861   0.610   2.588
 6955SOL    HW121764   4.873   0.515   2.560
 6955SOL    HW221765   4.875   0.618   2.686
 6956SOL     OW21766   4.825   5.931   3.190
 6956SOL    HW121767   4.910   5.915   3.140
 6956SOL    HW221768   4.749   5.936   3.126
 6957SOL     OW21769   6.088   5.660   7.021
 6957SOL    HW121770   6.022   5.732   0.017
 6957SOL    HW221771   6.075   5.633   6.926
 6958SOL     OW21772   4.152   3.355   4.836
 6958SOL    HW121773   4.228   3.291   4.846
 6958SOL    HW221774   4.084   3.336   4.907
 6959SOL     OW21775   1.699   3.623   3.515
 6959SOL    HW121776   1.672   3.719   3.510
 6959SOL    HW221777   1.797   3.616   3.535
 6960SOL     OW21778   1.698   4.329   0.535
 6960SOL    HW121779   1.638   4.248   0.529
 6960SOL    HW221780   1.656   4.397   0.595
 6961SOL     OW21781   6.276   1.179   4.938
 6961SOL    HW121782   6.216   1.111   4.896
 6961SOL    HW221783   6.371   1.152   4.925
 6962SOL     OW21784   4.454   5.588   0.835
 6962SOL    HW121785   4.409   5.546   0.914
 6962SOL    HW221786   4.495   5.675   0.863
 6963SOL     OW21787   5.406   5.545   1.027
 6963SOL    HW121788   5.426   5.503   1.116
 6963SOL    HW221789   5.472   5.617   1.009
 6964SOL     OW21790   3.771   0.891   6.129
 6964SOL    HW121791   3.704   0.826   6.165
 6964SOL    HW221792   3.828   0.925   6.203
 6965SOL     OW21793   1.932   1.587   6.366
 6965SOL    HW121794   1.938   1.676   6.411
 6965SOL    HW221795   1.846   1.543   6.391
 6966SOL     OW21796   0.184   0.816   2.872
 6966SOL    HW121797   0.148   0.860   2.954
 6966SOL    HW221798   0.146   0.723   2.864
 6967SOL     OW21799   3.490   1.075   5.561
 6967SOL    HW121800   3.575   1.024   5.547
 6967SOL    HW221801   3.501   1.167   5.525
 6968SOL     OW21802   2.842   1.265   3.548
 6968SOL    HW121803   2.767   1.199   3.542
 6968SOL    HW221804   2.827   1.339   3.483
 6969SOL     OW21805   3.359   2.357   1.435
 6969SOL    HW121806   3.264   2.372   1.408
 6969SOL    HW221807   3.366   2.355   1.535
 6970SOL     OW21808   4.091   3.729   5.541
 6970SOL    HW121809   4.000   3.757   5.509
 6970SOL    HW221810   4.115   3.781   5.623
 6971SOL     OW21811   6.172   4.507   1.121
 6971SOL    HW121812   6.207   4.556   1.041
 6971SOL    HW221813   6.146   4.414   1.095
 6972SOL     OW21814   5.170   4.259   2.860
 6972SOL    HW121815   5.104   4.317   2.813
 6972SOL    HW221816   5.190   4.296   2.950
 6973SOL     OW21817   0.797   2.440   3.382
 6973SOL    HW121818   0.840   2.476   3.465
 6973SOL    HW221819   0.740   2.361   3.405
 6974SOL     OW21820   2.967   3.876   2.686
 6974SOL    HW121821   2.893   3.939   2.711
 6974SOL    HW221822   2.961   3.856   2.588
 6975SOL     OW21823   1.224   6.931   4.632
 6975SOL    HW121824   1.316   6.912   4.664
 6975SOL    HW221825   1.218   6.913   4.534
 6976SOL     OW21826   6.405   4.723   6.177
 6976SOL    HW121827   6.350   4.788   6.229
 6976SOL    HW221828   6.431   4.647   6.238
 6977SOL     OW21829   3.725   3.433   0.769
 6977SOL    HW121830   3.633   3.459   0.798
 6977SOL    HW221831   3.758   3.358   0.827
 6978SOL     OW21832   5.249   2.562   1.758
 6978SOL    HW121833   5.196   2.551   1.674
 6978SOL    HW221834   5.225   2.490   1.823
 6979SOL     OW21835   0.972   3.889   1.160
 6979SOL    HW121836   0.910   3.895   1.238
 6979SOL    HW221837   0.981   3.793   1.131
 6980SOL     OW21838   2.048   0.966   3.523
 6980SOL    HW121839   2.020   1.058   3.497
 6980SOL    HW221840   2.141   0.969   3.561
 6981SOL     OW21841   3.670   3.259   5.938
 6981SOL    HW121842   3.726   3.317   5.880
 6981SOL    HW221843   3.575   3.291   5.935
 6982SOL     OW21844   1.076   0.848   4.541
 6982SOL    HW121845   0.998   0.829   4.601
 6982SOL    HW221846   1.059   0.932   4.490
 6983SOL     OW21847   4.511   1.672   4.867
 6983SOL    HW121848   4.414   1.646   4.877
 6983SOL    HW221849   4.520   1.736   4.791
 6984SOL     OW21850   2.293   1.762   2.886
 6984SOL    HW121851   2.380   1.749   2.839
 6984SOL    HW221852   2.301   1.728   2.980
 6985SOL     OW21853   6.114   5.125   0.847
 6985SOL    HW121854   6.069   5.152   0.932
 6985SOL    HW221855   6.194   5.071   0.868
 6986SOL     OW21856   3.182   0.108   6.866
 6986SOL    HW121857   3.096   0.157   6.879
 6986SOL    HW221858   3.237   0.156   6.797
 6987SOL     OW21859   6.664   1.272   6.464
 6987SOL    HW121860   6.699   1.210   6.394
 6987SOL    HW221861   6.571   1.246   6.489
 6988SOL     OW21862   1.151   0.098   6.314
 6988SOL    HW121863   1.057   0.078   6.341
 6988SOL    HW221864   1.214   0.051   6.376
 6989SOL     OW21865   0.246   4.753   3.144
 6989SOL    HW121866   0.272   4.845   3.174
 6989SOL    HW221867   0.310   4.721   3.074
 6990SOL     OW21868   4.431   2.974   1.137
 6990SOL    HW121869   4.341   3.008   1.111
 6990SOL    HW221870   4.474   3.037   1.201
 6991SOL     OW21871   4.816   4.024   3.323
 6991SOL    HW121872   4.744   3.986   3.265
 6991SOL    HW221873   4.898   3.967   3.316
 6992SOL     OW21874   5.916   6.820   0.011
 6992SOL    HW121875   5.863   6.867   0.081
 6992SOL    HW221876   5.871   6.831   6.949
 6993SOL     OW21877   6.107   0.433   2.018
 6993SOL    HW121878   6.164   0.494   2.072
 6993SOL    HW221879   6.019   0.478   2.000
 6994SOL     OW21880   0.717   1.956   4.067
 6994SOL    HW121881   0.743   1.925   3.975
 6994SOL    HW221882   0.800   1.971   4.121
 6995SOL     OW21883   0.466   3.766   6.718
 6995SOL    HW121884   0.430   3.737   6.629
 6995SOL    HW221885   0.493   3.862   6.714
 6996SOL     OW21886   1.780   0.644   0.283
 6996SOL    HW121887   1.845   0.613   0.214
 6996SOL    HW221888   1.788   0.585   0.364
 6997SOL     OW21889   0.510   4.762   4.962
 6997SOL    HW121890   0.456   4.680   4.941
 6997SOL    HW221891   0.449   4.838   4.983
 6998SOL     OW21892   1.731   1.744   1.384
 6998SOL    HW121893   1.807   1.691   1.422
 6998SOL    HW221894   1.668   1.768   1.458
 6999SOL     OW21895   1.530   2.499   6.115
 6999SOL    HW121896   1.431   2.488   6.124
 6999SOL    HW221897   1.577   2.435   6.176
 7000SOL     OW21898   5.919   0.497   2.720
 7000SOL    HW121899   5.981   0.451   2.656
 7000SOL    HW221900   5.827   0.460   2.710
 7001SOL     OW21901   0.861   2.512   5.146
 7001SOL    HW121902   0.817   2.484   5.061
 7001SOL    HW221903   0.955   2.478   5.148
 7002SOL     OW21904   2.074   5.363   4.094
 7002SOL    HW121905   2.104   5.435   4.157
 7002SOL    HW221906   1.996   5.314   4.134
 7003SOL     OW21907   4.695   6.084   1.419
 7003SOL    HW121908   4.794   6.089   1.401
 7003SOL    HW221909   4.657   6.005   1.369
 7004SOL     OW21910   0.434   6.092   1.206
 7004SOL    HW121911   0.487   6.136   1.279
 7004SOL    HW221912   0.338   6.118   1.215
 7005SOL     OW21913   1.326   1.007   0.792
 7005SOL    HW121914   1.247   0.946   0.806
 7005SOL    HW221915   1.404   0.972   0.844
 7006SOL     OW21916   5.809   5.610   3.710
 7006SOL    HW121917   5.732   5.599   3.646
 7006SOL    HW221918   5.895   5.594   3.661
 7007SOL     OW21919   4.030   0.473   4.652
 7007SOL    HW121920   4.016   0.392   4.709
 7007SOL    HW221921   4.097   0.533   4.696
 7008SOL     OW21922   0.367   4.074   4.521
 7008SOL    HW121923   0.343   3.980   4.500
 7008SOL    HW221924   0.296   4.135   4.486
 7009SOL     OW21925   3.914   6.380   2.550
 7009SOL    HW121926   3.847   6.446   2.584
 7009SOL    HW221927   3.904   6.293   2.598
 7010SOL     OW21928   5.287   4.208   3.764
 7010SOL    HW121929   5.310   4.206   3.667
 7010SOL    HW221930   5.287   4.115   3.800
 7011SOL     OW21931   3.795   6.974   0.239
 7011SOL    HW121932   3.698   6.955   0.229
 7011SOL    HW221933   3.807   0.032   0.291
 7012SOL     OW21934   0.723   1.794   1.187
 7012SOL    HW121935   0.670   1.714   1.163
 7012SOL    HW221936   0.718   1.809   1.286
 7013SOL     OW21937   0.920   6.863   6.483
 7013SOL    HW121938   0.913   6.957   6.451
 7013SOL    HW221939   0.835   6.835   6.526
 7014SOL     OW21940   5.821   3.041   0.303
 7014SOL    HW121941   5.732   3.014   0.339
 7014SOL    HW221942   5.873   2.960   0.278
 7015SOL     OW21943   5.778   4.405   1.569
 7015SOL    HW121944   5.685   4.385   1.601
 7015SOL    HW221945   5.777   4.486   1.511
 7016SOL     OW21946   4.412   4.785   1.547
 7016SOL    HW121947   4.341   4.853   1.567
 7016SOL    HW221948   4.372   4.693   1.553
 7017SOL     OW21949   3.168   5.181   3.088
 7017SOL    HW121950   3.159   5.114   3.015
 7017SOL    HW221951   3.239   5.248   3.064
 7018SOL     OW21952   5.232   3.799   4.604
 7018SOL    HW121953   5.218   3.727   4.536
 7018SOL    HW221954   5.271   3.759   4.687
 7019SOL     OW21955   4.083   4.270   0.731
 7019SOL    HW121956   4.169   4.236   0.767
 7019SOL    HW221957   4.052   4.347   0.787
 7020SOL     OW21958   0.016   3.985   5.712
 7020SOL    HW121959   0.039   4.051   5.783
 7020SOL    HW221960   7.020   4.033   5.627
 7021SOL     OW21961   1.974   3.069   4.177
 7021SOL    HW121962   1.897   3.131   4.160
 7021SOL    HW221963   1.956   3.018   4.261
 7022SOL     OW21964   5.068   0.215   0.222
 7022SOL    HW121965   5.010   0.265   0.158
 7022SOL    HW221966   5.106   0.279   0.289
 7023SOL     OW21967   0.665   2.903   1.583
 7023SOL    HW121968   0.635   2.925   1.490
 7023SOL    HW221969   0.684   2.805   1.588
 7024SOL     OW21970   3.484   3.464   4.415
 7024SOL    HW121971   3.440   3.493   4.500
 7024SOL    HW221972   3.429   3.395   4.370
 7025SOL     OW21973   3.912   0.676   1.452
 7025SOL    HW121974   4.011   0.690   1.451
 7025SOL    HW221975   3.866   0.764   1.441
 7026SOL     OW21976   3.532   2.053   2.093
 7026SOL    HW121977   3.606   2.120   2.092
 7026SOL    HW221978   3.552   1.979   2.030
 7027SOL     OW21979   2.445   5.589   4.076
 7027SOL    HW121980   2.448   5.676   4.126
 7027SOL    HW221981   2.357   5.579   4.031
 7028SOL     OW21982   3.855   0.736   3.948
 7028SOL    HW121983   3.938   0.741   3.892
 7028SOL    HW221984   3.806   0.652   3.925
 7029SOL     OW21985   4.484   3.455   5.675
 7029SOL    HW121986   4.401   3.508   5.695
 7029SOL    HW221987   4.460   3.376   5.619
 7030SOL     OW21988   0.434   1.286   4.453
 7030SOL    HW121989   0.409   1.252   4.544
 7030SOL    HW221990   0.410   1.383   4.446
 7031SOL     OW21991   3.828   6.138   0.033
 7031SOL    HW121992   3.874   6.189   6.987
 7031SOL    HW221993   3.764   6.073   7.019
 7032SOL     OW21994   4.408   1.432   3.386
 7032SOL    HW121995   4.313   1.404   3.372
 7032SOL    HW221996   4.424   1.520   3.342
 7033SOL     OW21997   1.117   3.040   3.281
 7033SOL    HW121998   1.186   3.015   3.214
 7033SOL    HW221999   1.156   3.032   3.373
 7034SOL     OW22000   0.013   1.764   2.977
 7034SOL    HW122001   0.054   1.853   2.998
 7034SOL    HW222002   0.054   1.728   2.894
 7035SOL     OW22003   1.756   0.480   0.516
 7035SOL    HW122004   1.826   0.408   0.520
 7035SOL    HW222005   1.666   0.439   0.525
 7036SOL     OW22006   6.746   1.619   2.223
 7036SOL    HW122007   6.807   1.542   2.242
 7036SOL    HW222008   6.776   1.665   2.140
 7037SOL     OW22009   0.866   1.058   6.478
 7037SOL    HW122010   0.851   1.157   6.472
 7037SOL    HW222011   0.900   1.024   6.391
 7038SOL     OW22012   2.618   4.616   4.767
 7038SOL    HW122013   2.582   4.607   4.860
 7038SOL    HW222014   2.717   4.627   4.770
 7039SOL     OW22015   0.180   6.032   3.217
 7039SOL    HW122016   0.205   5.938   3.194
 7039SOL    HW222017   0.219   6.094   3.149
 7040SOL     OW22018   4.682   2.674   5.980
 7040SOL    HW122019   4.731   2.759   6.000
 7040SOL    HW222020   4.740   2.596   6.003
 7041SOL     OW22021   0.293   1.531   2.846
 7041SOL    HW122022   0.326   1.531   2.940
 7041SOL    HW222023   0.357   1.582   2.788
 7042SOL     OW22024   4.009   5.806   4.560
 7042SOL    HW122025   4.047   5.868   4.628
 7042SOL    HW222026   3.960   5.732   4.607
 7043SOL     OW22027   2.710   5.199   3.228
 7043SOL    HW122028   2.787   5.248   3.269
 7043SOL    HW222029   2.739   5.158   3.142
 7044SOL     OW22030   5.243   5.906   5.670
 7044SOL    HW122031   5.173   5.924   5.602
 7044SOL    HW222032   5.205   5.850   5.744
 7045SOL     OW22033   5.242   5.873   1.992
 7045SOL    HW122034   5.329   5.848   2.035
 7045SOL    HW222035   5.186   5.791   1.980
 7046SOL     OW22036   3.282   1.389   3.777
 7046SOL    HW122037   3.185   1.396   3.755
 7046SOL    HW222038   3.328   1.334   3.708
 7047SOL     OW22039   6.871   0.739   1.864
 7047SOL    HW122040   6.863   0.824   1.812
 7047SOL    HW222041   6.964   0.731   1.900
 7048SOL     OW22042   5.778   6.197   4.705
 7048SOL    HW122043   5.680   6.193   4.727
 7048SOL    HW222044   5.801   6.124   4.641
 7049SOL     OW22045   3.648   1.711   1.660
 7049SOL    HW122046   3.609   1.698   1.751
 7049SOL    HW222047   3.733   1.660   1.653
 7050SOL     OW22048   3.941   3.987   1.287
 7050SOL    HW122049   4.014   3.923   1.313
 7050SOL    HW222050   3.981   4.064   1.237
 7051SOL     OW22051   6.995   6.486   1.447
 7051SOL    HW122052   6.943   6.477   1.362
 7051SOL    HW222053   7.013   6.583   1.465
 7052SOL     OW22054   6.102   0.848   4.438
 7052SOL    HW122055   6.047   0.922   4.477
 7052SOL    HW222056   6.182   0.887   4.393
 7053SOL     OW22057   1.587   4.024   4.279
 7053SOL    HW122058   1.513   3.993   4.218
 7053SOL    HW222059   1.667   4.050   4.225
 7054SOL     OW22060   0.320   6.832   1.401
 7054SOL    HW122061   0.263   6.914   1.401
 7054SOL    HW222062   0.312   6.785   1.489
 7055SOL     OW22063   2.710   0.510   0.056
 7055SOL    HW122064   2.770   0.510   7.002
 7055SOL    HW222065   2.758   0.551   0.133
 7056SOL     OW22066   6.839   5.585   1.332
 7056SOL    HW122067   6.871   5.538   1.251
 7056SOL    HW222068   6.896   5.665   1.350
 7057SOL     OW22069   3.139   5.364   3.835
 7057SOL    HW122070   3.170   5.319   3.918
 7057SOL    HW222071   3.186   5.451   3.824
 7058SOL     OW22072   5.232   2.027   6.491
 7058SOL    HW122073   5.288   1.944   6.493
 7058SOL    HW222074   5.282   2.101   6.447
 7059SOL     OW22075   1.439   1.018   4.041
 7059SOL    HW122076   1.522   1.074   4.052
 7059SOL    HW222077   1.376   1.064   3.979
 7060SOL     OW22078   3.769   6.824   1.554
 7060SOL    HW122079   3.812   6.902   1.599
 7060SOL    HW222080   3.712   6.775   1.619
 7061SOL     OW22081   0.199   2.895   3.121
 7061SOL    HW122082   0.227   2.982   3.080
 7061SOL    HW222083   0.181   2.828   3.048
 7062SOL     OW22084   3.785   2.219   5.262
 7062SOL    HW122085   3.853   2.269   5.315
 7062SOL    HW222086   3.818   2.126   5.244
 7063SOL     OW22087   1.347   0.326   1.693
 7063SOL    HW122088   1.318   0.268   1.617
 7063SOL    HW222089   1.391   0.408   1.658
 7064SOL     OW22090   4.254   1.848   6.488
 7064SOL    HW122091   4.175   1.859   6.428
 7064SOL    HW222092   4.301   1.936   6.498
 7065SOL     OW22093   3.238   4.070   5.035
 7065SOL    HW122094   3.333   4.083   5.062
 7065SOL    HW222095   3.200   3.991   5.083
 7066SOL     OW22096   4.484   6.718   5.783
 7066SOL    HW122097   4.482   6.641   5.847
 7066SOL    HW222098   4.421   6.701   5.708
 7067SOL     OW22099   1.498   3.710   5.833
 7067SOL    HW122100   1.537   3.643   5.770
 7067SOL    HW222101   1.431   3.666   5.892
 7068SOL     OW22102   5.555   4.162   4.345
 7068SOL    HW122103   5.650   4.141   4.322
 7068SOL    HW222104   5.525   4.103   4.420
 7069SOL     OW22105   5.421   1.827   5.387
 7069SOL    HW122106   5.480   1.893   5.339
 7069SOL    HW222107   5.460   1.736   5.380
 7070SOL     OW22108   0.986   6.223   4.377
 7070SOL    HW122109   0.940   6.252   4.292
 7070SOL    HW222110   0.981   6.124   4.385
 7071SOL     OW22111   4.552   5.960   6.532
 7071SOL    HW122112   4.494   5.959   6.450
 7071SOL    HW222113   4.554   6.052   6.570
 7072SOL     OW22114   2.613   4.547   0.368
 7072SOL    HW122115   2.605   4.533   0.269
 7072SOL    HW222116   2.704   4.582   0.389
 7073SOL     OW22117   3.332   0.345   2.993
 7073SOL    HW122118   3.339   0.270   2.927
 7073SOL    HW222119   3.322   0.432   2.944
 7074SOL     OW22120   6.494   3.521   3.151
 7074SOL    HW122121   6.560   3.543   3.222
 7074SOL    HW222122   6.490   3.422   3.139
 7075SOL     OW22123   2.680   5.116   4.492
 7075SOL    HW122124   2.691   5.213   4.514
 7075SOL    HW222125   2.603   5.105   4.429
 7076SOL     OW22126   5.710   2.248   0.711
 7076SOL    HW122127   5.764   2.260   0.794
 7076SOL    HW222128   5.694   2.337   0.668
 7077SOL     OW22129   2.322   4.212   3.355
 7077SOL    HW122130   2.380   4.274   3.302
 7077SOL    HW222131   2.275   4.150   3.293
 7078SOL     OW22132   5.988   6.499   1.062
 7078SOL    HW122133   5.971   6.529   1.156
 7078SOL    HW222134   6.051   6.422   1.063
 7079SOL     OW22135   1.196   6.511   3.733
 7079SOL    HW122136   1.105   6.501   3.774
 7079SOL    HW222137   1.213   6.608   3.714
 7080SOL     OW22138   3.897   2.114   3.972
 7080SOL    HW122139   3.924   2.038   4.031
 7080SOL    HW222140   3.797   2.125   3.977
 7081SOL     OW22141   1.007   5.760   0.521
 7081SOL    HW122142   1.060   5.843   0.503
 7081SOL    HW222143   0.982   5.717   0.435
 7082SOL     OW22144   6.795   4.468   0.475
 7082SOL    HW122145   6.848   4.393   0.434
 7082SOL    HW222146   6.708   4.477   0.426
 7083SOL     OW22147   0.152   1.620   2.348
 7083SOL    HW122148   0.170   1.711   2.312
 7083SOL    HW222149   0.225   1.595   2.413
 7084SOL     OW22150   0.575   5.634   5.408
 7084SOL    HW122151   0.566   5.695   5.328
 7084SOL    HW222152   0.485   5.621   5.449
 7085SOL     OW22153   6.542   2.184   2.651
 7085SOL    HW122154   6.495   2.271   2.638
 7085SOL    HW222155   6.582   2.181   2.743
 7086SOL     OW22156   5.521   0.856   6.619
 7086SOL    HW122157   5.447   0.904   6.665
 7086SOL    HW222158   5.579   0.810   6.687
 7087SOL     OW22159   5.390   3.918   2.146
 7087SOL    HW122160   5.293   3.903   2.160
 7087SOL    HW222161   5.425   3.851   2.080
 7088SOL     OW22162   5.069   2.243   5.444
 7088SOL    HW122163   5.108   2.150   5.443
 7088SOL    HW222164   4.977   2.240   5.482
 7089SOL     OW22165   2.439   4.420   3.225
 7089SOL    HW122166   2.538   4.407   3.226
 7089SOL    HW222167   2.418   4.513   3.196
 7090SOL     OW22168   2.568   1.747   0.378
 7090SOL    HW122169   2.564   1.647   0.369
 7090SOL    HW222170   2.476   1.785   0.368
 7091SOL     OW22171   0.755   0.763   1.631
 7091SOL    HW122172   0.827   0.754   1.562
 7091SOL    HW222173   0.693   0.836   1.603
 7092SOL     OW22174   4.029   3.005   5.833
 7092SOL    HW122175   4.050   2.925   5.778
 7092SOL    HW222176   4.103   3.072   5.825
 7093SOL     OW22177   3.503   3.525   1.651
 7093SOL    HW122178   3.448   3.517   1.734
 7093SOL    HW222179   3.445   3.559   1.577
 7094SOL     OW22180   1.232   0.210   5.500
 7094SOL    HW122181   1.241   0.129   5.441
 7094SOL    HW222182   1.170   0.190   5.575
 7095SOL     OW22183   3.716   4.612   6.330
 7095SOL    HW122184   3.789   4.576   6.272
 7095SOL    HW222185   3.738   4.706   6.357
 7096SOL     OW22186   6.416   0.662   2.006
 7096SOL    HW122187   6.413   0.605   1.924
 7096SOL    HW222188   6.367   0.616   2.080
 7097SOL     OW22189   5.167   0.681   1.633
 7097SOL    HW122190   5.151   0.615   1.706
 7097SOL    HW222191   5.248   0.736   1.655
 7098SOL     OW22192   1.474   5.792   5.577
 7098SOL    HW122193   1.482   5.697   5.605
 7098SOL    HW222194   1.382   5.808   5.540
 7099SOL     OW22195   3.646   1.977   4.474
 7099SOL    HW122196   3.736   2.006   4.444
 7099SOL    HW222197   3.644   1.877   4.481
 7100SOL     OW22198   6.347   2.825   0.528
 7100SOL    HW122199   6.377   2.736   0.563
 7100SOL    HW222200   6.274   2.812   0.461
 7101SOL     OW22201   2.786   0.834   5.521
 7101SOL    HW122202   2.820   0.800   5.608
 7101SOL    HW222203   2.832   0.786   5.446
 7102SOL     OW22204   6.127   0.039   1.468
 7102SOL    HW122205   6.169   7.000   1.530
 7102SOL    HW222206   6.029   0.045   1.487
 7103SOL     OW22207   5.340   5.195   1.695
 7103SOL    HW122208   5.346   5.211   1.794
 7103SOL    HW222209   5.376   5.275   1.647
 7104SOL     OW22210   5.637   3.655   2.393
 7104SOL    HW122211   5.610   3.742   2.434
 7104SOL    HW222212   5.658   3.668   2.296
 7105SOL     OW22213   3.801   3.726   4.599
 7105SOL    HW122214   3.787   3.748   4.696
 7105SOL    HW222215   3.812   3.811   4.548
 7106SOL     OW22216   3.376   2.913   1.462
 7106SOL    HW122217   3.278   2.899   1.472
 7106SOL    HW222218   3.400   2.917   1.365
 7107SOL     OW22219   3.793   0.585   0.831
 7107SOL    HW122220   3.819   0.614   0.923
 7107SOL    HW222221   3.786   0.485   0.828
 7108SOL     OW22222   2.457   6.172   2.467
 7108SOL    HW122223   2.489   6.173   2.562
 7108SOL    HW222224   2.497   6.094   2.419
 7109SOL     OW22225   1.625   1.290   6.938
 7109SOL    HW122226   1.601   1.196   6.912
 7109SOL    HW222227   1.712   1.315   6.895
 7110SOL     OW22228   3.117   5.725   3.928
 7110SOL    HW122229   3.211   5.718   3.893
 7110SOL    HW222230   3.109   5.807   3.984
 7111SOL     OW22231   1.827   1.819   4.031
 7111SOL    HW122232   1.822   1.917   4.048
 7111SOL    HW222233   1.746   1.789   3.981
 7112SOL     OW22234   1.952   4.282   4.409
 7112SOL    HW122235   2.003   4.238   4.483
 7112SOL    HW222236   1.911   4.367   4.442
 7113SOL     OW22237   3.332   4.385   5.325
 7113SOL    HW122238   3.359   4.303   5.377
 7113SOL    HW222239   3.414   4.428   5.287
 7114SOL     OW22240   4.795   5.384   1.322
 7114SOL    HW122241   4.739   5.368   1.404
 7114SOL    HW222242   4.744   5.356   1.241
 7115SOL     OW22243   5.312   3.661   6.795
 7115SOL    HW122244   5.321   3.565   6.822
 7115SOL    HW222245   5.397   3.710   6.815
 7116SOL     OW22246   5.464   4.265   3.216
 7116SOL    HW122247   5.373   4.227   3.235
 7116SOL    HW222248   5.456   4.337   3.147
 7117SOL     OW22249   0.120   0.130   4.539
 7117SOL    HW122250   0.213   0.160   4.561
 7117SOL    HW222251   0.115   0.031   4.545
 7118SOL     OW22252   3.901   4.089   5.461
 7118SOL    HW122253   3.895   3.991   5.444
 7118SOL    HW222254   3.979   4.127   5.411
 7119SOL     OW22255   5.143   0.990   4.877
 7119SOL    HW122256   5.168   0.994   4.780
 7119SOL    HW222257   5.225   1.005   4.933
 7120SOL     OW22258   4.505   1.790   2.099
 7120SOL    HW122259   4.514   1.767   2.002
 7120SOL    HW222260   4.573   1.859   2.124
 7121SOL     OW22261   0.478   6.653   2.943
 7121SOL    HW122262   0.508   6.621   2.853
 7121SOL    HW222263   0.435   6.743   2.934
 7122SOL     OW22264   1.793   0.570   5.773
 7122SOL    HW122265   1.882   0.558   5.817
 7122SOL    HW222266   1.745   0.483   5.771
 7123SOL     OW22267   0.176   5.133   4.082
 7123SOL    HW122268   0.183   5.216   4.139
 7123SOL    HW222269   0.263   5.084   4.084
 7124SOL     OW22270   0.924   2.179   1.342
 7124SOL    HW122271   0.967   2.168   1.432
 7124SOL    HW222272   0.837   2.130   1.341
 7125SOL     OW22273   1.629   1.413   1.762
 7125SOL    HW122274   1.653   1.336   1.703
 7125SOL    HW222275   1.690   1.490   1.743
 7126SOL     OW22276   4.362   5.691   0.619
 7126SOL    HW122277   4.413   5.643   0.691
 7126SOL    HW222278   4.315   5.770   0.659
 7127SOL     OW22279   2.614   6.116   5.680
 7127SOL    HW122280   2.701   6.132   5.634
 7127SOL    HW222281   2.565   6.042   5.635
 7128SOL     OW22282   3.905   3.565   6.429
 7128SOL    HW122283   3.980   3.617   6.470
 7128SOL    HW222284   3.874   3.610   6.345
 7129SOL     OW22285   1.632   1.218   1.426
 7129SOL    HW122286   1.721   1.193   1.388
 7129SOL    HW222287   1.589   1.287   1.368
 7130SOL     OW22288   3.785   6.231   4.189
 7130SOL    HW122289   3.789   6.261   4.285
 7130SOL    HW222290   3.787   6.311   4.130
 7131SOL     OW22291   3.544   1.178   1.415
 7131SOL    HW122292   3.478   1.237   1.461
 7131SOL    HW222293   3.504   1.087   1.401
 7132SOL     OW22294   5.305   4.382   6.944
 7132SOL    HW122295   5.398   4.385   6.906
 7132SOL    HW222296   5.265   4.292   6.926
 7133SOL     OW22297   4.315   4.792   4.073
 7133SOL    HW122298   4.231   4.845   4.078
 7133SOL    HW222299   4.388   4.839   4.124
 7134SOL     OW22300   5.062   6.589   2.042
 7134SOL    HW122301   5.123   6.617   2.116
 7134SOL    HW222302   4.994   6.661   2.026
 7135SOL     OW22303   2.043   3.420   2.693
 7135SOL    HW122304   2.046   3.513   2.657
 7135SOL    HW222305   2.023   3.423   2.791
 7136SOL     OW22306   2.948   1.601   1.326
 7136SOL    HW122307   2.956   1.590   1.227
 7136SOL    HW222308   3.012   1.671   1.358
 7137SOL     OW22309   3.030   1.887   0.530
 7137SOL    HW122310   2.984   1.852   0.448
 7137SOL    HW222311   3.023   1.820   0.604
 7138SOL     OW22312   1.851   1.260   1.008
 7138SOL    HW122313   1.753   1.268   0.988
 7138SOL    HW222314   1.888   1.179   0.962
 7139SOL     OW22315   5.681   4.485   1.981
 7139SOL    HW122316   5.693   4.426   1.901
 7139SOL    HW222317   5.677   4.581   1.952
 7140SOL     OW22318   6.110   4.235   1.095
 7140SOL    HW122319   6.106   4.263   0.999
 7140SOL    HW222320   6.025   4.188   1.119
 7141SOL     OW22321   4.480   6.951   1.008
 7141SOL    HW122322   4.521   0.011   1.037
 7141SOL    HW222323   4.546   6.901   0.951
 7142SOL     OW22324   3.152   0.241   3.994
 7142SOL    HW122325   3.062   0.237   3.949
 7142SOL    HW222326   3.223   0.246   3.924
 7143SOL     OW22327   1.643   3.890   0.004
 7143SOL    HW122328   1.667   3.881   6.934
 7143SOL    HW222329   1.566   3.953   0.014
 7144SOL     OW22330   0.419   0.828   3.483
 7144SOL    HW122331   0.379   0.900   3.428
 7144SOL    HW222332   0.370   0.822   3.570
 7145SOL     OW22333   4.148   0.703   6.752
 7145SOL    HW122334   4.106   0.794   6.759
 7145SOL    HW222335   4.078   0.636   6.730
 7146SOL     OW22336   1.647   1.736   6.129
 7146SOL    HW122337   1.689   1.740   6.219
 7146SOL    HW222338   1.685   1.808   6.070
 7147SOL     OW22339   6.190   5.955   3.193
 7147SOL    HW122340   6.279   5.967   3.148
 7147SOL    HW222341   6.136   5.888   3.142
 7148SOL     OW22342   6.061   5.847   1.589
 7148SOL    HW122343   6.086   5.939   1.561
 7148SOL    HW222344   6.075   5.837   1.688
 7149SOL     OW22345   0.343   5.316   3.793
 7149SOL    HW122346   0.253   5.272   3.804
 7149SOL    HW222347   0.357   5.381   3.867
 7150SOL     OW22348   3.732   3.067   0.285
 7150SOL    HW122349   3.754   3.146   0.342
 7150SOL    HW222350   3.716   2.987   0.344
 7151SOL     OW22351   3.399   6.591   0.919
 7151SOL    HW122352   3.331   6.519   0.928
 7151SOL    HW222353   3.354   6.680   0.918
 7152SOL     OW22354   6.165   0.861   6.667
 7152SOL    HW122355   6.196   0.909   6.750
 7152SOL    HW222356   6.129   0.928   6.602
 7153SOL     OW22357   4.049   5.147   2.310
 7153SOL    HW122358   3.952   5.169   2.299
 7153SOL    HW222359   4.058   5.055   2.349
 7154SOL     OW22360   3.882   0.462   3.066
 7154SOL    HW122361   3.905   0.462   2.968
 7154SOL    HW222362   3.820   0.386   3.085
 7155SOL     OW22363   2.907   2.895   0.983
 7155SOL    HW122364   2.878   2.989   1.004
 7155SOL    HW222365   2.991   2.897   0.931
 7156SOL     OW22366   5.030   3.542   2.358
 7156SOL    HW122367   4.952   3.554   2.420
 7156SOL    HW222368   5.012   3.464   2.297
 7157SOL     OW22369   6.568   4.000   1.421
 7157SOL    HW122370   6.602   4.011   1.514
 7157SOL    HW222371   6.633   4.038   1.356
 7158SOL     OW22372   6.482   0.243   3.528
 7158SOL    HW122373   6.523   0.334   3.536
 7158SOL    HW222374   6.469   0.205   3.619
 7159SOL     OW22375   0.596   4.501   4.508
 7159SOL    HW122376   0.668   4.516   4.441
 7159SOL    HW222377   0.532   4.578   4.506
 7160SOL     OW22378   6.280   6.571   2.752
 7160SOL    HW122379   6.219   6.494   2.770
 7160SOL    HW222380   6.327   6.557   2.664
 7161SOL     OW22381   3.819   4.073   3.033
 7161SOL    HW122382   3.721   4.069   3.013
 7161SOL    HW222383   3.839   4.155   3.087
 7162SOL     OW22384   0.197   4.984   6.915
 7162SOL    HW122385   0.242   4.896   6.929
 7162SOL    HW222386   0.161   5.016   7.003
 7163SOL     OW22387   2.008   0.432   2.760
 7163SOL    HW122388   1.996   0.471   2.669
 7163SOL    HW222389   1.998   0.332   2.755
 7164SOL     OW22390   1.961   0.714   4.764
 7164SOL    HW122391   1.888   0.780   4.746
 7164SOL    HW222392   1.944   0.667   4.851
 7165SOL     OW22393   6.333   5.765   2.059
 7165SOL    HW122394   6.300   5.788   2.150
 7165SOL    HW222395   6.401   5.832   2.030
 7166SOL     OW22396   5.773   0.819   6.716
 7166SOL    HW122397   5.808   0.810   6.809
 7166SOL    HW222398   5.797   0.737   6.663
 7167SOL     OW22399   5.226   2.527   5.411
 7167SOL    HW122400   5.182   2.546   5.499
 7167SOL    HW222401   5.196   2.438   5.377
 7168SOL     OW22402   2.959   1.958   2.344
 7168SOL    HW122403   2.992   2.024   2.276
 7168SOL    HW222404   3.027   1.950   2.417
 7169SOL     OW22405   0.717   4.419   4.740
 7169SOL    HW122406   0.700   4.494   4.804
 7169SOL    HW222407   0.668   4.436   4.654
 7170SOL     OW22408   4.087   6.508   2.384
 7170SOL    HW122409   4.039   6.440   2.440
 7170SOL    HW222410   4.032   6.529   2.303
 7171SOL     OW22411   6.146   3.911   0.979
 7171SOL    HW122412   6.073   3.970   1.014
 7171SOL    HW222413   6.135   3.900   0.880
 7172SOL     OW22414   1.782   1.698   5.379
 7172SOL    HW122415   1.758   1.611   5.338
 7172SOL    HW222416   1.706   1.762   5.369
 7173SOL     OW22417   6.630   5.312   0.164
 7173SOL    HW122418   6.703   5.289   0.100
 7173SOL    HW222419   6.669   5.327   0.255
 7174SOL     OW22420   6.513   4.647   0.861
 7174SOL    HW122421   6.414   4.636   0.869
 7174SOL    HW222422   6.552   4.564   0.822
 7175SOL     OW22423   6.566   3.891   5.317
 7175SOL    HW122424   6.528   3.930   5.401
 7175SOL    HW222425   6.494   3.847   5.265
 7176SOL     OW22426   0.631   1.235   4.242
 7176SOL    HW122427   0.559   1.240   4.311
 7176SOL    HW222428   0.657   1.327   4.213
 7177SOL     OW22429   1.838   5.383   5.387
 7177SOL    HW122430   1.903   5.408   5.458
 7177SOL    HW222431   1.855   5.438   5.305
 7178SOL     OW22432   1.090   0.974   6.247
 7178SOL    HW122433   1.165   1.024   6.291
 7178SOL    HW222434   1.113   0.877   6.241
 7179SOL     OW22435   1.668   4.346   4.684
 7179SOL    HW122436   1.633   4.284   4.755
 7179SOL    HW222437   1.672   4.298   4.597
 7180SOL     OW22438   2.213   3.943   1.119
 7180SOL    HW122439   2.266   3.969   1.038
 7180SOL    HW222440   2.174   4.024   1.161
 7181SOL     OW22441   2.112   1.271   6.100
 7181SOL    HW122442   2.174   1.290   6.025
 7181SOL    HW222443   2.099   1.172   6.109
 7182SOL     OW22444   0.646   3.787   3.451
 7182SOL    HW122445   0.590   3.740   3.519
 7182SOL    HW222446   0.633   3.743   3.362
 7183SOL     OW22447   2.196   5.803   2.039
 7183SOL    HW122448   2.113   5.789   2.092
 7183SOL    HW222449   2.173   5.838   1.948
 7184SOL     OW22450   5.907   1.133   3.965
 7184SOL    HW122451   5.990   1.184   3.986
 7184SOL    HW222452   5.828   1.195   3.965
 7185SOL     OW22453   5.409   0.964   5.656
 7185SOL    HW122454   5.474   0.948   5.731
 7185SOL    HW222455   5.366   1.053   5.667
 7186SOL     OW22456   0.368   0.966   1.186
 7186SOL    HW122457   0.416   0.911   1.118
 7186SOL    HW222458   0.380   1.063   1.166
 7187SOL     OW22459   3.106   3.551   5.400
 7187SOL    HW122460   3.126   3.578   5.306
 7187SOL    HW222461   3.094   3.632   5.457
 7188SOL     OW22462   4.731   4.664   6.972
 7188SOL    HW122463   4.728   4.567   6.948
 7188SOL    HW222464   4.827   4.694   6.980
 7189SOL     OW22465   5.995   3.254   5.169
 7189SOL    HW122466   5.979   3.165   5.125
 7189SOL    HW222467   5.995   3.326   5.099
 7190SOL     OW22468   6.114   6.315   1.412
 7190SOL    HW122469   6.028   6.364   1.426
 7190SOL    HW222470   6.165   6.359   1.338
 7191SOL     OW22471   0.110   4.306   3.444
 7191SOL    HW122472   0.177   4.377   3.466
 7191SOL    HW222473   0.113   4.286   3.346
 7192SOL     OW22474   1.202   4.615   6.173
 7192SOL    HW122475   1.120   4.579   6.217
 7192SOL    HW222476   1.260   4.659   6.241
 7193SOL     OW22477   2.993   1.737   2.850
 7193SOL    HW122478   3.008   1.652   2.798
 7193SOL    HW222479   2.948   1.804   2.790
 7194SOL     OW22480   2.495   2.553   0.081
 7194SOL    HW122481   2.497   2.460   0.045
 7194SOL    HW222482   2.482   2.550   0.181
 7195SOL     OW22483   6.266   4.144   6.471
 7195SOL    HW122484   6.171   4.171   6.486
 7195SOL    HW222485   6.270   4.067   6.408
 7196SOL     OW22486   3.283   4.109   1.846
 7196SOL    HW122487   3.348   4.177   1.811
 7196SOL    HW222488   3.294   4.100   1.945
 7197SOL     OW22489   1.068   3.983   5.761
 7197SOL    HW122490   1.143   3.922   5.735
 7197SOL    HW222491   1.061   4.058   5.696
 7198SOL     OW22492   0.088   0.820   0.038
 7198SOL    HW122493   0.034   0.791   6.986
 7198SOL    HW222494   0.143   0.899   0.014
 7199SOL     OW22495   0.901   0.470   2.344
 7199SOL    HW122496   0.949   0.519   2.417
 7199SOL    HW222497   0.966   0.444   2.273
 7200SOL     OW22498   1.470   3.396   0.692
 7200SOL    HW122499   1.434   3.317   0.742
 7200SOL    HW222500   1.516   3.458   0.756
 7201SOL     OW22501   6.994   5.577   4.346
 7201SOL    HW122502   6.963   5.643   4.276
 7201SOL    HW222503   0.041   5.617   4.399
 7202SOL     OW22504   5.252   0.196   6.064
 7202SOL    HW122505   5.283   0.103   6.083
 7202SOL    HW222506   5.324   0.261   6.086
 7203SOL     OW22507   0.844   0.951   2.017
 7203SOL    HW122508   0.916   1.008   1.976
 7203SOL    HW222509   0.822   0.986   2.108
 7204SOL     OW22510   6.423   1.129   6.606
 7204SOL    HW122511   6.432   1.040   6.650
 7204SOL    HW222512   6.420   1.201   6.676
 7205SOL     OW22513   1.206   3.539   4.716
 7205SOL    HW122514   1.190   3.634   4.744
 7205SOL    HW222515   1.216   3.534   4.617
 7206SOL     OW22516   1.416   1.553   1.644
 7206SOL    HW122517   1.476   1.633   1.651
 7206SOL    HW222518   1.472   1.470   1.646
 7207SOL     OW22519   2.512   1.252   3.745
 7207SOL    HW122520   2.499   1.181   3.676
 7207SOL    HW222521   2.425   1.299   3.761
 7208SOL     OW22522   4.879   0.151   4.469
 7208SOL    HW122523   4.780   0.138   4.474
 7208SOL    HW222524   4.924   0.063   4.453
 7209SOL     OW22525   2.186   2.851   2.271
 7209SOL    HW122526   2.160   2.804   2.355
 7209SOL    HW222527   2.265   2.805   2.231
 7210SOL     OW22528   3.632   2.137   4.028
 7210SOL    HW122529   3.597   2.082   3.952
 7210SOL    HW222530   3.566   2.135   4.103
 7211SOL     OW22531   2.999   6.125   5.304
 7211SOL    HW122532   3.044   6.202   5.258
 7211SOL    HW222533   2.921   6.095   5.251
 7212SOL     OW22534   0.056   6.626   6.364
 7212SOL    HW122535   0.057   6.726   6.363
 7212SOL    HW222536   0.113   6.592   6.290
 7213SOL     OW22537   3.593   6.199   6.163
 7213SOL    HW122538   3.678   6.236   6.199
 7213SOL    HW222539   3.546   6.147   6.235
 7214SOL     OW22540   6.824   1.218   5.732
 7214SOL    HW122541   6.868   1.151   5.672
 7214SOL    HW222542   6.816   1.179   5.824
 7215SOL     OW22543   6.220   2.586   4.341
 7215SOL    HW122544   6.217   2.603   4.243
 7215SOL    HW222545   6.178   2.663   4.390
 7216SOL     OW22546   3.234   5.715   2.242
 7216SOL    HW122547   3.258   5.681   2.333
 7216SOL    HW222548   3.281   5.802   2.225
 7217SOL     OW22549   1.440   3.458   3.654
 7217SOL    HW122550   1.524   3.440   3.704
 7217SOL    HW222551   1.425   3.556   3.647
 7218SOL     OW22552   6.942   3.082   4.084
 7218SOL    HW122553   6.926   3.104   4.180
 7218SOL    HW222554   0.000   3.029   4.077
 7219SOL     OW22555   2.946   6.792   1.932
 7219SOL    HW122556   2.923   6.710   1.984
 7219SOL    HW222557   2.884   6.801   1.854
 7220SOL     OW22558   6.464   4.723   3.765
 7220SOL    HW122559   6.477   4.783   3.686
 7220SOL    HW222560   6.396   4.762   3.826
 7221SOL     OW22561   3.379   5.816   4.507
 7221SOL    HW122562   3.479   5.811   4.511
 7221SOL    HW222563   3.352   5.894   4.450
 7222SOL     OW22564   5.647   0.077   3.487
 7222SOL    HW122565   5.660   7.009   3.513
 7222SOL    HW222566   5.589   0.081   3.405
 7223SOL     OW22567   2.845   1.100   0.922
 7223SOL    HW122568   2.817   1.124   1.015
 7223SOL    HW222569   2.769   1.056   0.875
 7224SOL     OW22570   4.839   2.506   4.773
 7224SOL    HW122571   4.877   2.458   4.852
 7224SOL    HW222572   4.911   2.558   4.727
 7225SOL     OW22573   1.984   6.587   0.824
 7225SOL    HW122574   2.075   6.545   0.824
 7225SOL    HW222575   1.984   6.666   0.885
 7226SOL     OW22576   6.244   0.239   1.649
 7226SOL    HW122577   6.161   0.277   1.608
 7226SOL    HW222578   6.307   0.211   1.577
 7227SOL     OW22579   3.247   1.904   1.686
 7227SOL    HW122580   3.185   1.869   1.616
 7227SOL    HW222581   3.196   1.922   1.770
 7228SOL     OW22582   1.315   1.445   3.469
 7228SOL    HW122583   1.391   1.494   3.511
 7228SOL    HW222584   1.254   1.409   3.540
 7229SOL     OW22585   0.632   0.027   4.582
 7229SOL    HW122586   0.656   0.122   4.602
 7229SOL    HW222587   0.533   0.016   4.584
 7230SOL     OW22588   3.107   5.607   3.482
 7230SOL    HW122589   3.206   5.611   3.495
 7230SOL    HW222590   3.071   5.526   3.529
 7231SOL     OW22591   4.562   0.740   0.451
 7231SOL    HW122592   4.598   0.826   0.414
 7231SOL    HW222593   4.486   0.708   0.395
 7232SOL     OW22594   4.969   6.305   2.494
 7232SOL    HW122595   4.968   6.374   2.566
 7232SOL    HW222596   5.047   6.321   2.433
 7233SOL     OW22597   0.879   1.461   5.168
 7233SOL    HW122598   0.883   1.378   5.223
 7233SOL    HW222599   0.971   1.499   5.158
 7234SOL     OW22600   5.715   3.570   2.640
 7234SOL    HW122601   5.625   3.552   2.680
 7234SOL    HW222602   5.703   3.596   2.544
 7235SOL     OW22603   6.299   4.387   2.091
 7235SOL    HW122604   6.207   4.424   2.085
 7235SOL    HW222605   6.365   4.462   2.097
 7236SOL     OW22606   2.372   2.595   2.708
 7236SOL    HW122607   2.273   2.603   2.697
 7236SOL    HW222608   2.394   2.591   2.806
 7237SOL     OW22609   3.773   6.936   6.575
 7237SOL    HW122610   3.745   6.914   6.482
 7237SOL    HW222611   3.873   6.941   6.580
 7238SOL     OW22612   4.571   2.471   6.257
 7238SOL    HW122613   4.631   2.491   6.334
 7238SOL    HW222614   4.586   2.539   6.185
 7239SOL     OW22615   1.218   2.874   1.736
 7239SOL    HW122616   1.126   2.837   1.726
 7239SOL    HW222617   1.266   2.868   1.649
 7240SOL     OW22618   6.704   1.392   6.704
 7240SOL    HW122619   6.717   1.354   6.613
 7240SOL    HW222620   6.671   1.486   6.697
 7241SOL     OW22621   2.530   0.198   0.480
 7241SOL    HW122622   2.523   0.293   0.448
 7241SOL    HW222623   2.486   0.137   0.414
 7242SOL     OW22624   6.793   5.307   6.161
 7242SOL    HW122625   6.744   5.293   6.075
 7242SOL    HW222626   6.834   5.398   6.162
 7243SOL     OW22627   6.979   4.651   6.112
 7243SOL    HW122628   6.961   4.660   6.210
 7243SOL    HW222629   6.898   4.679   6.061
 7244SOL     OW22630   0.648   0.166   1.346
 7244SOL    HW122631   0.715   0.237   1.366
 7244SOL    HW222632   0.635   0.109   1.428
 7245SOL     OW22633   1.040   2.713   5.212
 7245SOL    HW122634   1.127   2.685   5.172
 7245SOL    HW222635   0.966   2.659   5.171
 7246SOL     OW22636   1.780   0.235   3.995
 7246SOL    HW122637   1.707   0.251   4.061
 7246SOL    HW222638   1.770   0.297   3.918
 7247SOL     OW22639   2.914   1.880   5.683
 7247SOL    HW122640   3.010   1.907   5.681
 7247SOL    HW222641   2.890   1.838   5.595
 7248SOL     OW22642   3.195   0.683   2.511
 7248SOL    HW122643   3.098   0.667   2.491
 7248SOL    HW222644   3.230   0.610   2.569
 7249SOL     OW22645   5.083   5.160   1.611
 7249SOL    HW122646   5.174   5.186   1.645
 7249SOL    HW222647   5.034   5.241   1.580
 7250SOL     OW22648   5.119   5.399   6.023
 7250SOL    HW122649   5.189   5.327   6.023
 7250SOL    HW222650   5.135   5.461   5.946
 7251SOL     OW22651   0.947   6.924   4.741
 7251SOL    HW122652   0.936   7.006   4.797
 7251SOL    HW222653   1.039   6.922   4.702
 7252SOL     OW22654   3.012   3.399   1.899
 7252SOL    HW122655   3.023   3.477   1.838
 7252SOL    HW222656   3.002   3.430   1.993
 7253SOL     OW22657   2.103   5.768   6.717
 7253SOL    HW122658   2.076   5.850   6.768
 7253SOL    HW222659   2.167   5.714   6.772
 7254SOL     OW22660   5.352   5.178   4.678
 7254SOL    HW122661   5.393   5.109   4.737
 7254SOL    HW222662   5.368   5.269   4.715
 7255SOL     OW22663   4.688   3.744   6.936
 7255SOL    HW122664   4.593   3.772   6.947
 7255SOL    HW222665   4.725   3.715   7.024
 7256SOL     OW22666   3.127   5.948   5.592
 7256SOL    HW122667   3.107   5.919   5.498
 7256SOL    HW222668   3.226   5.947   5.606
 7257SOL     OW22669   0.220   2.245   3.505
 7257SOL    HW122670   0.159   2.195   3.566
 7257SOL    HW222671   0.230   2.196   3.419
 7258SOL     OW22672   4.847   2.313   3.045
 7258SOL    HW122673   4.822   2.387   3.108
 7258SOL    HW222674   4.946   2.313   3.031
 7259SOL     OW22675   1.676   3.510   1.912
 7259SOL    HW122676   1.588   3.506   1.960
 7259SOL    HW222677   1.723   3.422   1.920
 7260SOL     OW22678   5.900   1.451   1.972
 7260SOL    HW122679   5.917   1.464   2.069
 7260SOL    HW222680   5.971   1.498   1.919
 7261SOL     OW22681   0.953   4.861   1.665
 7261SOL    HW122682   1.053   4.858   1.663
 7261SOL    HW222683   0.921   4.835   1.756
 7262SOL     OW22684   5.281   2.106   6.755
 7262SOL    HW122685   5.297   2.028   6.815
 7262SOL    HW222686   5.240   2.073   6.669
 7263SOL     OW22687   0.528   6.249   6.952
 7263SOL    HW122688   0.461   6.177   6.937
 7263SOL    HW222689   0.482   6.338   6.946
 7264SOL     OW22690   5.385   1.259   0.897
 7264SOL    HW122691   5.315   1.295   0.835
 7264SOL    HW222692   5.408   1.328   0.965
 7265SOL     OW22693   5.505   4.920   6.019
 7265SOL    HW122694   5.488   4.893   5.925
 7265SOL    HW222695   5.601   4.907   6.041
 7266SOL     OW22696   5.543   1.170   3.464
 7266SOL    HW122697   5.479   1.210   3.529
 7266SOL    HW222698   5.634   1.209   3.478
 7267SOL     OW22699   6.426   6.437   5.039
 7267SOL    HW122700   6.496   6.367   5.050
 7267SOL    HW222701   6.350   6.400   4.986
 7268SOL     OW22702   7.022   6.062   4.799
 7268SOL    HW122703   7.000   5.965   4.804
 7268SOL    HW222704   0.012   6.098   4.891
 7269SOL     OW22705   2.060   6.441   5.718
 7269SOL    HW122706   2.096   6.350   5.738
 7269SOL    HW222707   2.032   6.445   5.622
 7270SOL     OW22708   0.478   2.939   4.781
 7270SOL    HW122709   0.529   2.962   4.863
 7270SOL    HW222710   0.528   2.970   4.700
 7271SOL     OW22711   1.514   4.865   4.124
 7271SOL    HW122712   1.428   4.818   4.143
 7271SOL    HW222713   1.506   4.961   4.152
 7272SOL     OW22714   6.079   6.021   2.378
 7272SOL    HW122715   6.109   6.107   2.420
 7272SOL    HW222716   6.028   5.967   2.444
 7273SOL     OW22717   6.307   4.023   0.725
 7273SOL    HW122718   6.337   4.040   0.631
 7273SOL    HW222719   6.214   4.059   0.737
 7274SOL     OW22720   0.661   4.933   6.707
 7274SOL    HW122721   0.735   4.981   6.660
 7274SOL    HW222722   0.641   4.979   6.793
 7275SOL     OW22723   6.760   5.356   2.964
 7275SOL    HW122724   6.688   5.344   2.895
 7275SOL    HW222725   6.799   5.266   2.987
 7276SOL     OW22726   4.717   0.812   3.784
 7276SOL    HW122727   4.796   0.869   3.806
 7276SOL    HW222728   4.681   0.772   3.869
 7277SOL     OW22729   4.974   0.418   4.507
 7277SOL    HW122730   4.907   0.466   4.564
 7277SOL    HW222731   4.940   0.326   4.487
 7278SOL     OW22732   3.782   3.141   1.142
 7278SOL    HW122733   3.794   3.126   1.240
 7278SOL    HW222734   3.801   3.056   1.093
 7279SOL     OW22735   4.339   4.901   6.173
 7279SOL    HW122736   4.287   4.908   6.258
 7279SOL    HW222737   4.324   4.811   6.132
 7280SOL     OW22738   0.202   1.353   3.543
 7280SOL    HW122739   0.297   1.327   3.555
 7280SOL    HW222740   0.197   1.445   3.503
 7281SOL     OW22741   2.636   1.712   6.310
 7281SOL    HW122742   2.660   1.616   6.300
 7281SOL    HW222743   2.693   1.768   6.251
 7282SOL     OW22744   5.256   5.523   3.154
 7282SOL    HW122745   5.261   5.622   3.172
 7282SOL    HW222746   5.189   5.482   3.216
 7283SOL     OW22747   4.465   1.640   2.791
 7283SOL    HW122748   4.462   1.544   2.820
 7283SOL    HW222749   4.394   1.691   2.839
 7284SOL     OW22750   0.542   3.062   6.182
 7284SOL    HW122751   0.484   3.067   6.101
 7284SOL    HW222752   0.553   2.966   6.209
 7285SOL     OW22753   5.115   3.062   2.484
 7285SOL    HW122754   5.157   3.152   2.494
 7285SOL    HW222755   5.017   3.073   2.467
 7286SOL     OW22756   2.790   0.652   0.318
 7286SOL    HW122757   2.769   0.732   0.262
 7286SOL    HW222758   2.809   0.681   0.412
 7287SOL     OW22759   6.916   2.489   5.921
 7287SOL    HW122760   7.013   2.513   5.934
 7287SOL    HW222761   6.861   2.534   5.991
 7288SOL     OW22762   3.054   0.532   0.326
 7288SOL    HW122763   2.962   0.568   0.340
 7288SOL    HW222764   3.110   0.600   0.278
 7289SOL     OW22765   5.049   2.564   4.587
 7289SOL    HW122766   5.082   2.559   4.493
 7289SOL    HW222767   5.083   2.649   4.629
 7290SOL     OW22768   3.572   0.224   5.601
 7290SOL    HW122769   3.658   0.254   5.643
 7290SOL    HW222770   3.586   0.134   5.559
 7291SOL     OW22771   1.951   6.767   1.019
 7291SOL    HW122772   1.892   6.737   1.094
 7291SOL    HW222773   1.977   6.862   1.033
 7292SOL     OW22774   3.580   0.847   3.137
 7292SOL    HW122775   3.544   0.891   3.055
 7292SOL    HW222776   3.548   0.896   3.219
 7293SOL     OW22777   1.140   1.892   5.074
 7293SOL    HW122778   1.238   1.902   5.057
 7293SOL    HW222779   1.124   1.891   5.173
 7294SOL     OW22780   2.770   4.505   7.005
 7294SOL    HW122781   2.839   4.513   0.050
 7294SOL    HW222782   2.815   4.487   6.917
 7295SOL     OW22783   0.872   2.694   0.915
 7295SOL    HW122784   0.901   2.612   0.965
 7295SOL    HW222785   0.857   2.768   0.980
 7296SOL     OW22786   3.217   5.342   1.696
 7296SOL    HW122787   3.242   5.321   1.601
 7296SOL    HW222788   3.124   5.379   1.699
 7297SOL     OW22789   3.553   6.290   1.698
 7297SOL    HW122790   3.484   6.252   1.637
 7297SOL    HW222791   3.595   6.370   1.656
 7298SOL     OW22792   4.752   4.635   5.080
 7298SOL    HW122793   4.667   4.686   5.077
 7298SOL    HW222794   4.733   4.537   5.081
 7299SOL     OW22795   0.925   1.771   0.574
 7299SOL    HW122796   0.966   1.764   0.665
 7299SOL    HW222797   0.969   1.706   0.512
 7300SOL     OW22798   6.750   5.860   2.888
 7300SOL    HW122799   6.756   5.953   2.924
 7300SOL    HW222800   6.697   5.861   2.803
 7301SOL     OW22801   5.733   1.124   4.975
 7301SOL    HW122802   5.640   1.090   4.958
 7301SOL    HW222803   5.734   1.174   5.062
 7302SOL     OW22804   0.588   1.930   5.528
 7302SOL    HW122805   0.665   1.919   5.591
 7302SOL    HW222806   0.617   1.984   5.449
 7303SOL     OW22807   3.883   0.516   0.432
 7303SOL    HW122808   3.794   0.482   0.402
 7303SOL    HW222809   3.943   0.438   0.450
 7304SOL     OW22810   4.358   4.758   1.117
 7304SOL    HW122811   4.333   4.684   1.180
 7304SOL    HW222812   4.279   4.782   1.060
 7305SOL     OW22813   4.772   1.080   0.581
 7305SOL    HW122814   4.734   1.066   0.489
 7305SOL    HW222815   4.712   1.038   0.649
 7306SOL     OW22816   5.050   2.281   1.762
 7306SOL    HW122817   4.994   2.228   1.825
 7306SOL    HW222818   5.037   2.379   1.778
 7307SOL     OW22819   2.397   6.831   2.167
 7307SOL    HW122820   2.478   6.863   2.216
 7307SOL    HW222821   2.337   6.783   2.232
 7308SOL     OW22822   6.952   3.373   6.034
 7308SOL    HW122823   6.903   3.360   5.948
 7308SOL    HW222824   6.989   3.286   6.065
 7309SOL     OW22825   4.890   5.654   1.318
 7309SOL    HW122826   4.988   5.668   1.335
 7309SOL    HW222827   4.875   5.561   1.286
 7310SOL     OW22828   2.305   4.148   1.519
 7310SOL    HW122829   2.258   4.224   1.563
 7310SOL    HW222830   2.238   4.085   1.480
 7311SOL     OW22831   2.986   2.133   1.575
 7311SOL    HW122832   3.009   2.162   1.668
 7311SOL    HW222833   3.069   2.128   1.520
 7312SOL     OW22834   0.584   3.263   4.673
 7312SOL    HW122835   0.611   3.350   4.632
 7312SOL    HW222836   0.594   3.269   4.772
 7313SOL     OW22837   2.669   1.236   6.375
 7313SOL    HW122838   2.746   1.284   6.419
 7313SOL    HW222839   2.598   1.303   6.351
 7314SOL     OW22840   6.857   5.560   6.122
 7314SOL    HW122841   6.797   5.634   6.153
 7314SOL    HW222842   6.927   5.597   6.060
 7315SOL     OW22843   6.445   0.497   2.563
 7315SOL    HW122844   6.405   0.510   2.654
 7315SOL    HW222845   6.531   0.547   2.558
 7316SOL     OW22846   3.017   3.551   6.510
 7316SOL    HW122847   3.065   3.537   6.423
 7316SOL    HW222848   2.978   3.465   6.542
 7317SOL     OW22849   5.034   1.428   2.733
 7317SOL    HW122850   5.060   1.393   2.823
 7317SOL    HW222851   5.114   1.428   2.673
 7318SOL     OW22852   1.598   0.755   1.469
 7318SOL    HW122853   1.510   0.765   1.424
 7318SOL    HW222854   1.660   0.827   1.439
 7319SOL     OW22855   7.006   4.418   6.378
 7319SOL    HW122856   6.984   4.335   6.429
 7319SOL    HW222857   0.039   4.476   6.433
 7320SOL     OW22858   6.414   3.601   2.427
 7320SOL    HW122859   6.414   3.579   2.330
 7320SOL    HW222860   6.464   3.686   2.442
 7321SOL     OW22861   2.474   0.581   5.779
 7321SOL    HW122862   2.514   0.671   5.800
 7321SOL    HW222863   2.543   0.525   5.734
 7322SOL     OW22864   6.813   2.773   3.152
 7322SOL    HW122865   6.858   2.853   3.114
 7322SOL    HW222866   6.716   2.775   3.128
 7323SOL     OW22867   1.919   1.929   2.294
 7323SOL    HW122868   1.921   1.898   2.199
 7323SOL    HW222869   1.860   2.009   2.302
 7324SOL     OW22870   4.593   6.416   2.302
 7324SOL    HW122871   4.623   6.323   2.322
 7324SOL    HW222872   4.670   6.479   2.312
 7325SOL     OW22873   3.384   6.805   0.446
 7325SOL    HW122874   3.338   6.819   0.358
 7325SOL    HW222875   3.322   6.828   0.520
 7326SOL     OW22876   3.046   5.841   5.370
 7326SOL    HW122877   3.091   5.892   5.296
 7326SOL    HW222878   2.958   5.807   5.338
 7327SOL     OW22879   5.810   1.847   6.467
 7327SOL    HW122880   5.893   1.841   6.523
 7327SOL    HW222881   5.730   1.846   6.526
 7328SOL     OW22882   3.757   0.644   6.677
 7328SOL    HW122883   3.693   0.637   6.754
 7328SOL    HW222884   3.817   0.723   6.691
 7329SOL     OW22885   5.907   3.768   1.281
 7329SOL    HW122886   5.862   3.770   1.191
 7329SOL    HW222887   5.849   3.814   1.348
 7330SOL     OW22888   2.369   2.050   0.010
 7330SOL    HW122889   2.356   2.138   6.990
 7330SOL    HW222890   2.370   1.976   6.970
 7331SOL     OW22891   5.383   6.928   2.002
 7331SOL    HW122892   5.368   0.001   2.002
 7331SOL    HW222893   5.437   6.903   2.082
 7332SOL     OW22894   2.123   6.203   0.289
 7332SOL    HW122895   2.198   6.265   0.270
 7332SOL    HW222896   2.160   6.112   0.311
 7333SOL     OW22897   0.541   2.194   2.401
 7333SOL    HW122898   0.574   2.105   2.434
 7333SOL    HW222899   0.588   2.218   2.316
 7334SOL     OW22900   2.937   5.657   6.008
 7334SOL    HW122901   2.973   5.740   6.050
 7334SOL    HW222902   2.973   5.649   5.915
 7335SOL     OW22903   1.910   2.548   3.244
 7335SOL    HW122904   1.870   2.584   3.328
 7335SOL    HW222905   1.837   2.531   3.177
 7336SOL     OW22906   1.364   6.934   2.869
 7336SOL    HW122907   1.374   6.878   2.787
 7336SOL    HW222908   1.330   7.024   2.845
 7337SOL     OW22909   6.994   3.326   1.968
 7337SOL    HW122910   6.994   3.327   2.068
 7337SOL    HW222911   6.994   3.419   1.933
 7338SOL     OW22912   6.581   2.227   1.371
 7338SOL    HW122913   6.660   2.192   1.321
 7338SOL    HW222914   6.540   2.153   1.424
 7339SOL     OW22915   5.792   6.761   3.752
 7339SOL    HW122916   5.808   6.686   3.816
 7339SOL    HW222917   5.710   6.811   3.780
 7340SOL     OW22918   2.549   1.146   0.904
 7340SOL    HW122919   2.462   1.155   0.854
 7340SOL    HW222920   2.540   1.187   0.994
 7341SOL     OW22921   6.958   3.211   6.484
 7341SOL    HW122922   6.976   3.260   6.569
 7341SOL    HW222923   0.008   3.224   6.421
 7342SOL     OW22924   0.345   1.752   1.358
 7342SOL    HW122925   0.366   1.759   1.260
 7342SOL    HW222926   0.256   1.793   1.376
 7343SOL     OW22927   5.683   3.846   0.390
 7343SOL    HW122928   5.676   3.871   0.293
 7343SOL    HW222929   5.779   3.830   0.413
 7344SOL     OW22930   0.922   1.496   6.752
 7344SOL    HW122931   0.849   1.435   6.723
 7344SOL    HW222932   1.001   1.441   6.782
 7345SOL     OW22933   4.458   4.332   5.964
 7345SOL    HW122934   4.510   4.362   5.884
 7345SOL    HW222935   4.395   4.259   5.938
 7346SOL     OW22936   4.005   5.988   2.007
 7346SOL    HW122937   4.081   6.052   2.000
 7346SOL    HW222938   4.040   5.894   2.003
 7347SOL     OW22939   0.981   1.868   0.889
 7347SOL    HW122940   0.991   1.886   0.986
 7347SOL    HW222941   1.046   1.925   0.838
 7348SOL     OW22942   1.163   4.240   3.576
 7348SOL    HW122943   1.079   4.244   3.522
 7348SOL    HW222944   1.225   4.312   3.547
 7349SOL     OW22945   4.440   0.706   1.539
 7349SOL    HW122946   4.454   0.616   1.580
 7349SOL    HW222947   4.529   0.746   1.514
 7350SOL     OW22948   2.764   2.336   5.455
 7350SOL    HW122949   2.746   2.406   5.385
 7350SOL    HW222950   2.861   2.337   5.478
 7351SOL     OW22951   5.698   5.399   4.529
 7351SOL    HW122952   5.718   5.305   4.500
 7351SOL    HW222953   5.599   5.412   4.534
 7352SOL     OW22954   2.003   1.845   2.860
 7352SOL    HW122955   2.002   1.941   2.890
 7352SOL    HW222956   2.093   1.805   2.878
 7353SOL     OW22957   0.094   0.493   6.350
 7353SOL    HW122958   0.156   0.415   6.361
 7353SOL    HW222959   0.099   0.551   6.431
 7354SOL     OW22960   1.069   2.027   4.539
 7354SOL    HW122961   1.099   2.112   4.583
 7354SOL    HW222962   1.022   1.970   4.607
 7355SOL     OW22963   1.550   0.842   0.879
 7355SOL    HW122964   1.602   0.759   0.858
 7355SOL    HW222965   1.598   0.921   0.841
 7356SOL     OW22966   4.186   3.451   6.399
 7356SOL    HW122967   4.139   3.379   6.452
 7356SOL    HW222968   4.173   3.434   6.302
 7357SOL     OW22969   3.032   6.063   2.055
 7357SOL    HW122970   2.950   6.053   1.999
 7357SOL    HW222971   3.101   6.115   2.004
 7358SOL     OW22972   6.619   2.984   2.505
 7358SOL    HW122973   6.550   3.056   2.499
 7358SOL    HW222974   6.636   2.963   2.601
 7359SOL     OW22975   4.446   2.045   5.505
 7359SOL    HW122976   4.531   2.072   5.460
 7359SOL    HW222977   4.449   1.948   5.528
 7360SOL     OW22978   3.190   3.083   5.454
 7360SOL    HW122979   3.124   3.158   5.453
 7360SOL    HW222980   3.282   3.121   5.468
 7361SOL     OW22981   5.007   0.791   3.093
 7361SOL    HW122982   5.094   0.838   3.075
 7361SOL    HW222983   5.020   0.724   3.166
 7362SOL     OW22984   1.338   5.745   6.269
 7362SOL    HW122985   1.404   5.721   6.198
 7362SOL    HW222986   1.371   5.713   6.358
 7363SOL     OW22987   4.328   1.781   1.221
 7363SOL    HW122988   4.424   1.800   1.239
 7363SOL    HW222989   4.298   1.832   1.140
 7364SOL     OW22990   4.066   0.748   2.457
 7364SOL    HW122991   4.059   0.774   2.361
 7364SOL    HW222992   4.162   0.748   2.485
 7365SOL     OW22993   0.718   6.105   1.664
 7365SOL    HW122994   0.651   6.134   1.732
 7365SOL    HW222995   0.751   6.185   1.613
 7366SOL     OW22996   2.257   6.895   5.632
 7366SOL    HW122997   2.225   6.868   5.541
 7366SOL    HW222998   2.219   6.834   5.700
 7367SOL     OW22999   4.661   2.964   0.779
 7367SOL    HW123000   4.611   2.891   0.732
 7367SOL    HW223001   4.603   3.006   0.848
 7368SOL     OW23002   3.762   2.868   2.567
 7368SOL    HW123003   3.724   2.863   2.475
 7368SOL    HW223004   3.833   2.799   2.578
 7369SOL     OW23005   3.038   2.337   1.138
 7369SOL    HW123006   3.046   2.246   1.098
 7369SOL    HW223007   3.070   2.405   1.073
 7370SOL     OW23008   1.697   1.569   5.688
 7370SOL    HW123009   1.632   1.536   5.619
 7370SOL    HW223010   1.735   1.491   5.738
 7371SOL     OW23011   2.527   6.813   3.344
 7371SOL    HW123012   2.596   6.872   3.301
 7371SOL    HW223013   2.441   6.821   3.295
 7372SOL     OW23014   4.208   6.931   4.586
 7372SOL    HW123015   4.153   6.962   4.509
 7372SOL    HW223016   4.148   6.892   4.656
 7373SOL     OW23017   6.060   1.630   4.296
 7373SOL    HW123018   6.158   1.634   4.318
 7373SOL    HW223019   6.007   1.657   4.376
 7374SOL     OW23020   2.522   2.096   5.142
 7374SOL    HW123021   2.547   2.037   5.219
 7374SOL    HW223022   2.502   2.188   5.177
 7375SOL     OW23023   2.173   2.637   2.479
 7375SOL    HW123024   2.252   2.663   2.535
 7375SOL    HW223025   2.122   2.564   2.526
 7376SOL     OW23026   1.718   1.648   1.117
 7376SOL    HW123027   1.717   1.701   1.202
 7376SOL    HW223028   1.641   1.584   1.117
 7377SOL     OW23029   5.113   5.049   0.537
 7377SOL    HW123030   5.176   4.995   0.481
 7377SOL    HW223031   5.039   5.085   0.480
 7378SOL     OW23032   1.183   0.463   5.025
 7378SOL    HW123033   1.263   0.405   5.012
 7378SOL    HW223034   1.117   0.446   4.952
 7379SOL     OW23035   3.625   1.579   2.344
 7379SOL    HW123036   3.615   1.480   2.343
 7379SOL    HW223037   3.633   1.610   2.439
 7380SOL     OW23038   0.431   4.632   4.069
 7380SOL    HW123039   0.523   4.594   4.067
 7380SOL    HW223040   0.374   4.587   3.999
 7381SOL     OW23041   4.438   3.072   0.398
 7381SOL    HW123042   4.359   3.129   0.421
 7381SOL    HW223043   4.421   3.024   0.312
 7382SOL     OW23044   6.786   0.995   4.928
 7382SOL    HW123045   6.838   0.983   5.013
 7382SOL    HW223046   6.846   1.034   4.858
 7383SOL     OW23047   3.001   6.209   1.343
 7383SOL    HW123048   2.933   6.136   1.345
 7383SOL    HW223049   3.037   6.219   1.251
 7384SOL     OW23050   0.040   6.483   3.040
 7384SOL    HW123051   0.136   6.500   3.062
 7384SOL    HW223052   0.012   6.396   3.080
 7385SOL     OW23053   2.838   5.403   2.292
 7385SOL    HW123054   2.792   5.409   2.381
 7385SOL    HW223055   2.911   5.335   2.296
 7386SOL     OW23056   6.709   2.777   6.609
 7386SOL    HW123057   6.740   2.753   6.701
 7386SOL    HW223058   6.652   2.703   6.573
 7387SOL     OW23059   6.795   5.248   5.553
 7387SOL    HW123060   6.714   5.214   5.505
 7387SOL    HW223061   6.796   5.348   5.549
 7388SOL     OW23062   1.148   4.856   2.493
 7388SOL    HW123063   1.084   4.904   2.552
 7388SOL    HW223064   1.099   4.812   2.418
 7389SOL     OW23065   6.469   4.026   6.256
 7389SOL    HW123066   6.407   4.028   6.178
 7389SOL    HW223067   6.473   3.933   6.294
 7390SOL     OW23068   2.214   1.976   2.228
 7390SOL    HW123069   2.269   2.008   2.305
 7390SOL    HW223070   2.117   1.976   2.254
 7391SOL     OW23071   3.677   3.466   3.158
 7391SOL    HW123072   3.649   3.471   3.254
 7391SOL    HW223073   3.774   3.489   3.151
 7392SOL     OW23074   3.071   6.218   6.763
 7392SOL    HW123075   3.009   6.200   6.840
 7392SOL    HW223076   3.085   6.317   6.755
 7393SOL     OW23077   5.899   4.622   3.101
 7393SOL    HW123078   5.996   4.632   3.126
 7393SOL    HW223079   5.844   4.684   3.157
 7394SOL     OW23080   1.330   2.893   5.292
 7394SOL    HW123081   1.284   2.825   5.235
 7394SOL    HW223082   1.319   2.869   5.388
 7395SOL     OW23083   1.801   3.764   1.013
 7395SOL    HW123084   1.701   3.773   1.006
 7395SOL    HW223085   1.844   3.851   0.987
 7396SOL     OW23086   2.232   6.643   1.090
 7396SOL    HW123087   2.303   6.586   1.050
 7396SOL    HW223088   2.272   6.729   1.122
 7397SOL     OW23089   4.790   5.246   4.383
 7397SOL    HW123090   4.776   5.169   4.446
 7397SOL    HW223091   4.704   5.269   4.339
 7398SOL     OW23092   0.956   5.053   3.023
 7398SOL    HW123093   0.924   4.963   2.995
 7398SOL    HW223094   1.054   5.050   3.043
 7399SOL     OW23095   0.617   2.783   4.033
 7399SOL    HW123096   0.600   2.691   4.068
 7399SOL    HW223097   0.649   2.842   4.108
 7400SOL     OW23098   4.306   2.455   6.097
 7400SOL    HW123099   4.376   2.419   6.036
 7400SOL    HW223100   4.338   2.541   6.138
 7401SOL     OW23101   1.104   3.314   3.365
 7401SOL    HW123102   1.187   3.324   3.419
 7401SOL    HW223103   1.092   3.218   3.338
 7402SOL     OW23104   3.365   3.992   6.144
 7402SOL    HW123105   3.354   3.897   6.174
 7402SOL    HW223106   3.344   4.053   6.220
 7403SOL     OW23107   1.441   4.133   2.310
 7403SOL    HW123108   1.399   4.156   2.397
 7403SOL    HW223109   1.371   4.129   2.239
 7404SOL     OW23110   2.748   4.764   1.768
 7404SOL    HW123111   2.694   4.828   1.823
 7404SOL    HW223112   2.793   4.699   1.829
 7405SOL     OW23113   3.832   4.915   4.268
 7405SOL    HW123114   3.827   4.984   4.196
 7405SOL    HW223115   3.751   4.923   4.327
 7406SOL     OW23116   0.849   1.601   4.337
 7406SOL    HW123117   0.898   1.531   4.389
 7406SOL    HW223118   0.903   1.626   4.256
 7407SOL     OW23119   1.219   6.768   5.192
 7407SOL    HW123120   1.314   6.781   5.163
 7407SOL    HW223121   1.166   6.731   5.115
 7408SOL     OW23122   3.882   3.980   6.016
 7408SOL    HW123123   3.876   3.883   5.991
 7408SOL    HW223124   3.799   4.007   6.064
 7409SOL     OW23125   5.619   3.570   0.113
 7409SOL    HW123126   5.538   3.614   0.152
 7409SOL    HW223127   5.682   3.546   0.187
 7410SOL     OW23128   0.756   0.829   0.160
 7410SOL    HW123129   0.767   0.889   0.081
 7410SOL    HW223130   0.824   0.755   0.156
 7411SOL     OW23131   2.025   0.960   6.997
 7411SOL    HW123132   1.945   0.979   0.027
 7411SOL    HW223133   2.092   1.033   7.009
 7412SOL     OW23134   4.479   6.840   1.266
 7412SOL    HW123135   4.537   6.766   1.234
 7412SOL    HW223136   4.456   6.900   1.189
 7413SOL     OW23137   4.245   4.959   3.790
 7413SOL    HW123138   4.306   5.012   3.731
 7413SOL    HW223139   4.162   4.935   3.739
 7414SOL     OW23140   2.107   0.944   3.188
 7414SOL    HW123141   2.033   0.969   3.250
 7414SOL    HW223142   2.144   0.855   3.213
 7415SOL     OW23143   1.966   4.400   5.106
 7415SOL    HW123144   2.027   4.451   5.166
 7415SOL    HW223145   2.019   4.327   5.061
 7416SOL     OW23146   2.281   0.171   2.103
 7416SOL    HW123147   2.228   0.247   2.140
 7416SOL    HW223148   2.377   0.180   2.131
 7417SOL     OW23149   2.200   2.059   1.592
 7417SOL    HW123150   2.270   2.069   1.521
 7417SOL    HW223151   2.201   2.140   1.651
 7418SOL     OW23152   1.729   5.500   6.645
 7418SOL    HW123153   1.829   5.506   6.645
 7418SOL    HW223154   1.690   5.592   6.650
 7419SOL     OW23155   6.771   3.849   4.097
 7419SOL    HW123156   6.871   3.839   4.094
 7419SOL    HW223157   6.736   3.858   4.004
 7420SOL     OW23158   0.102   6.339   1.054
 7420SOL    HW123159   0.147   6.413   1.104
 7420SOL    HW223160   0.133   6.339   0.959
 7421SOL     OW23161   4.107   3.639   0.968
 7421SOL    HW123162   4.188   3.693   0.945
 7421SOL    HW223163   4.058   3.682   1.044
 7422SOL     OW23164   0.263   4.374   2.067
 7422SOL    HW123165   0.269   4.308   1.992
 7422SOL    HW223166   0.334   4.354   2.135
 7423SOL     OW23167   6.188   2.270   5.554
 7423SOL    HW123168   6.241   2.194   5.592
 7423SOL    HW223169   6.166   2.336   5.625
 7424SOL     OW23170   6.636   1.736   5.645
 7424SOL    HW123171   6.625   1.778   5.555
 7424SOL    HW223172   6.659   1.639   5.634
 7425SOL     OW23173   5.064   6.912   0.465
 7425SOL    HW123174   5.122   6.866   0.398
 7425SOL    HW223175   5.116   6.985   0.510
 7426SOL     OW23176   3.270   1.587   5.409
 7426SOL    HW123177   3.270   1.686   5.424
 7426SOL    HW223178   3.207   1.544   5.474
 7427SOL     OW23179   4.892   0.848   4.488
 7427SOL    HW123180   4.915   0.812   4.578
 7427SOL    HW223181   4.886   0.948   4.492
 7428SOL     OW23182   4.305   0.304   5.418
 7428SOL    HW123183   4.268   0.305   5.325
 7428SOL    HW223184   4.332   0.210   5.441
 7429SOL     OW23185   0.460   6.382   3.446
 7429SOL    HW123186   0.421   6.404   3.535
 7429SOL    HW223187   0.558   6.364   3.455
 7430SOL     OW23188   0.272   3.406   1.148
 7430SOL    HW123189   0.299   3.347   1.071
 7430SOL    HW223190   0.307   3.499   1.133
 7431SOL     OW23191   0.732   2.263   2.929
 7431SOL    HW123192   0.679   2.214   2.860
 7431SOL    HW223193   0.825   2.277   2.895
 7432SOL     OW23194   1.995   0.182   3.355
 7432SOL    HW123195   1.903   0.165   3.391
 7432SOL    HW223196   2.002   0.145   3.262
 7433SOL     OW23197   4.108   6.193   6.329
 7433SOL    HW123198   4.120   6.203   6.230
 7433SOL    HW223199   4.037   6.256   6.360
 7434SOL     OW23200   4.790   5.100   5.533
 7434SOL    HW123201   4.869   5.072   5.587
 7434SOL    HW223202   4.813   5.100   5.436
 7435SOL     OW23203   4.792   6.929   1.415
 7435SOL    HW123204   4.722   6.956   1.480
 7435SOL    HW223205   4.797   6.995   1.340
 7436SOL     OW23206   4.718   4.278   6.153
 7436SOL    HW123207   4.701   4.366   6.196
 7436SOL    HW223208   4.788   4.288   6.083
 7437SOL     OW23209   3.145   5.740   0.295
 7437SOL    HW123210   3.220   5.675   0.307
 7437SOL    HW223211   3.080   5.704   0.229
 7438SOL     OW23212   1.068   0.126   0.157
 7438SOL    HW123213   1.006   0.147   0.081
 7438SOL    HW223214   1.129   0.052   0.129
 7439SOL     OW23215   1.900   6.251   5.890
 7439SOL    HW123216   1.953   6.224   5.809
 7439SOL    HW223217   1.912   6.348   5.908
 7440SOL     OW23218   6.916   2.813   3.854
 7440SOL    HW123219   6.882   2.768   3.772
 7440SOL    HW223220   7.014   2.794   3.865
 7441SOL     OW23221   5.624   0.165   5.019
 7441SOL    HW123222   5.663   0.224   4.949
 7441SOL    HW223223   5.534   0.199   5.045
 7442SOL     OW23224   6.253   1.432   0.273
 7442SOL    HW123225   6.260   1.342   0.316
 7442SOL    HW223226   6.190   1.490   0.325
 7443SOL     OW23227   5.720   5.416   1.785
 7443SOL    HW123228   5.748   5.320   1.791
 7443SOL    HW223229   5.643   5.432   1.846
 7444SOL     OW23230   5.686   1.365   0.322
 7444SOL    HW123231   5.696   1.420   0.240
 7444SOL    HW223232   5.637   1.280   0.301
 7445SOL     OW23233   3.271   0.998   1.223
 7445SOL    HW123234   3.208   0.978   1.299
 7445SOL    HW223235   3.365   0.984   1.253
 7446SOL     OW23236   5.438   2.277   0.331
 7446SOL    HW123237   5.474   2.224   0.407
 7446SOL    HW223238   5.473   2.371   0.336
 7447SOL     OW23239   6.497   4.988   6.980
 7447SOL    HW123240   6.579   5.022   6.934
 7447SOL    HW223241   6.472   4.899   6.942
 7448SOL     OW23242   5.967   6.813   4.793
 7448SOL    HW123243   5.949   6.879   4.720
 7448SOL    HW223244   5.983   6.723   4.753
 7449SOL     OW23245   0.714   5.342   1.138
 7449SOL    HW123246   0.778   5.409   1.100
 7449SOL    HW223247   0.697   5.363   1.234
 7450SOL     OW23248   5.618   2.789   4.945
 7450SOL    HW123249   5.680   2.712   4.962
 7450SOL    HW223250   5.656   2.847   4.873
 7451SOL     OW23251   6.281   6.256   2.032
 7451SOL    HW123252   6.226   6.196   2.090
 7451SOL    HW223253   6.244   6.349   2.037
 7452SOL     OW23254   5.605   5.669   4.441
 7452SOL    HW123255   5.602   5.714   4.351
 7452SOL    HW223256   5.674   5.597   4.440
 7453SOL     OW23257   4.566   5.059   4.708
 7453SOL    HW123258   4.663   5.080   4.696
 7453SOL    HW223259   4.547   4.968   4.670
 7454SOL     OW23260   2.582   2.134   1.211
 7454SOL    HW123261   2.634   2.218   1.224
 7454SOL    HW223262   2.585   2.107   1.115
 7455SOL     OW23263   6.817   2.757   2.147
 7455SOL    HW123264   6.796   2.739   2.243
 7455SOL    HW223265   6.770   2.840   2.117
 7456SOL     OW23266   1.906   1.376   4.760
 7456SOL    HW123267   1.999   1.401   4.783
 7456SOL    HW223268   1.903   1.341   4.666
 7457SOL     OW23269   3.147   0.445   4.894
 7457SOL    HW123270   3.209   0.476   4.822
 7457SOL    HW223271   3.053   0.449   4.862
 7458SOL     OW23272   2.027   0.497   5.918
 7458SOL    HW123273   2.113   0.547   5.908
 7458SOL    HW223274   2.010   0.479   6.015
 7459SOL     OW23275   5.944   1.499   2.668
 7459SOL    HW123276   6.011   1.448   2.614
 7459SOL    HW223277   5.991   1.554   2.737
 7460SOL     OW23278   0.946   5.656   0.277
 7460SOL    HW123279   0.921   5.559   0.286
 7460SOL    HW223280   0.984   5.671   0.186
 7461SOL     OW23281   6.182   6.785   6.317
 7461SOL    HW123282   6.213   6.778   6.412
 7461SOL    HW223283   6.198   6.699   6.270
 7462SOL     OW23284   1.898   4.416   1.918
 7462SOL    HW123285   1.829   4.397   1.987
 7462SOL    HW223286   1.933   4.330   1.882
 7463SOL     OW23287   2.999   4.188   0.038
 7463SOL    HW123288   2.939   4.186   6.985
 7463SOL    HW223289   2.965   4.125   0.107
 7464SOL     OW23290   5.624   6.657   5.562
 7464SOL    HW123291   5.705   6.705   5.528
 7464SOL    HW223292   5.650   6.598   5.638
 7465SOL     OW23293   2.387   4.718   6.711
 7465SOL    HW123294   2.298   4.679   6.689
 7465SOL    HW223295   2.378   4.817   6.724
 7466SOL     OW23296   6.700   0.593   5.474
 7466SOL    HW123297   6.751   0.594   5.560
 7466SOL    HW223298   6.728   0.672   5.418
 7467SOL     OW23299   0.453   2.543   5.928
 7467SOL    HW123300   0.547   2.513   5.914
 7467SOL    HW223301   0.397   2.464   5.955
 7468SOL     OW23302   5.294   3.187   4.347
 7468SOL    HW123303   5.322   3.233   4.263
 7468SOL    HW223304   5.237   3.248   4.401
 7469SOL     OW23305   6.972   1.165   0.029
 7469SOL    HW123306   7.016   1.133   0.113
 7469SOL    HW223307   6.909   1.095   7.022
 7470SOL     OW23308   5.404   4.224   3.508
 7470SOL    HW123309   5.501   4.242   3.526
 7470SOL    HW223310   5.390   4.125   3.499
 7471SOL     OW23311   5.270   6.553   6.215
 7471SOL    HW123312   5.245   6.650   6.211
 7471SOL    HW223313   5.292   6.520   6.123
 7472SOL     OW23314   6.545   1.052   5.580
 7472SOL    HW123315   6.629   1.063   5.527
 7472SOL    HW223316   6.552   1.102   5.666
 7473SOL     OW23317   5.044   5.522   3.957
 7473SOL    HW123318   4.996   5.586   4.016
 7473SOL    HW223319   4.979   5.456   3.919
 7474SOL     OW23320   6.420   1.817   6.642
 7474SOL    HW123321   6.341   1.853   6.693
 7474SOL    HW223322   6.421   1.858   6.551
 7475SOL     OW23323   4.329   2.398   1.969
 7475SOL    HW123324   4.340   2.465   1.896
 7475SOL    HW223325   4.263   2.328   1.942
 7476SOL     OW23326   2.535   1.459   2.619
 7476SOL    HW123327   2.480   1.420   2.693
 7476SOL    HW223328   2.516   1.557   2.612
 7477SOL     OW23329   0.019   2.379   4.519
 7477SOL    HW123330   6.993   2.369   4.435
 7477SOL    HW223331   0.116   2.394   4.497
 7478SOL     OW23332   6.418   3.713   5.152
 7478SOL    HW123333   6.455   3.620   5.146
 7478SOL    HW223334   6.344   3.724   5.086
 7479SOL     OW23335   5.032   2.711   2.054
 7479SOL    HW123336   5.067   2.629   2.099
 7479SOL    HW223337   4.933   2.713   2.061
 7480SOL     OW23338   1.781   4.720   2.566
 7480SOL    HW123339   1.704   4.707   2.629
 7480SOL    HW223340   1.769   4.661   2.487
 7481SOL     OW23341   6.199   4.839   0.400
 7481SOL    HW123342   6.233   4.777   0.329
 7481SOL    HW223343   6.130   4.900   0.360
 7482SOL     OW23344   4.868   2.391   2.522
 7482SOL    HW123345   4.905   2.421   2.610
 7482SOL    HW223346   4.864   2.469   2.460
 7483SOL     OW23347   5.240   3.234   4.960
 7483SOL    HW123348   5.200   3.324   4.946
 7483SOL    HW223349   5.168   3.164   4.961
 7484SOL     OW23350   1.975   5.905   4.531
 7484SOL    HW123351   2.034   5.966   4.478
 7484SOL    HW223352   2.031   5.843   4.586
 7485SOL     OW23353   2.672   0.369   4.806
 7485SOL    HW123354   2.679   0.314   4.889
 7485SOL    HW223355   2.591   0.426   4.810
 7486SOL     OW23356   1.091   6.101   6.897
 7486SOL    HW123357   1.038   6.020   6.869
 7486SOL    HW223358   1.118   6.152   6.815
 7487SOL     OW23359   2.935   0.551   3.616
 7487SOL    HW123360   3.018   0.496   3.613
 7487SOL    HW223361   2.951   0.633   3.672
 7488SOL     OW23362   1.710   5.874   4.508
 7488SOL    HW123363   1.797   5.862   4.555
 7488SOL    HW223364   1.643   5.810   4.545
 7489SOL     OW23365   6.396   2.918   6.881
 7489SOL    HW123366   6.407   2.863   6.798
 7489SOL    HW223367   6.359   3.007   6.858
 7490SOL     OW23368   1.474   0.324   3.682
 7490SOL    HW123369   1.565   0.357   3.709
 7490SOL    HW223370   1.457   0.349   3.587
 7491SOL     OW23371   4.151   2.990   6.591
 7491SOL    HW123372   4.158   2.900   6.548
 7491SOL    HW223373   4.170   2.982   6.689
 7492SOL     OW23374   2.267   0.829   4.088
 7492SOL    HW123375   2.225   0.756   4.142
 7492SOL    HW223376   2.272   0.802   3.992
 7493SOL     OW23377   6.489   2.596   6.025
 7493SOL    HW123378   6.464   2.558   5.936
 7493SOL    HW223379   6.504   2.695   6.016
 7494SOL     OW23380   5.904   1.981   3.642
 7494SOL    HW123381   5.827   1.941   3.592
 7494SOL    HW223382   5.926   1.923   3.720
 7495SOL     OW23383   1.113   3.156   5.707
 7495SOL    HW123384   1.118   3.106   5.794
 7495SOL    HW223385   1.024   3.201   5.700
 7496SOL     OW23386   5.777   3.963   4.359
 7496SOL    HW123387   5.715   3.920   4.294
 7496SOL    HW223388   5.855   4.002   4.310
 7497SOL     OW23389   1.448   5.029   1.282
 7497SOL    HW123390   1.373   5.087   1.249
 7497SOL    HW223391   1.445   4.941   1.234
 7498SOL     OW23392   2.993   1.004   4.189
 7498SOL    HW123393   3.086   0.966   4.183
 7498SOL    HW223394   2.986   1.084   4.129
 7499SOL     OW23395   4.022   2.206   3.337
 7499SOL    HW123396   3.932   2.182   3.302
 7499SOL    HW223397   4.042   2.301   3.313
 7500SOL     OW23398   3.474   5.905   2.878
 7500SOL    HW123399   3.421   5.974   2.828
 7500SOL    HW223400   3.412   5.835   2.914
 7501SOL     OW23401   5.254   4.544   3.766
 7501SOL    HW123402   5.273   4.586   3.854
 7501SOL    HW223403   5.338   4.538   3.713
 7502SOL     OW23404   2.912   0.036   4.493
 7502SOL    HW123405   2.834   0.093   4.518
 7502SOL    HW223406   2.888   7.008   4.413
 7503SOL     OW23407   2.885   6.430   1.482
 7503SOL    HW123408   2.900   6.350   1.424
 7503SOL    HW223409   2.878   6.511   1.425
 7504SOL     OW23410   0.315   6.486   3.088
 7504SOL    HW123411   0.368   6.556   3.040
 7504SOL    HW223412   0.300   6.514   3.183
 7505SOL     OW23413   1.124   2.234   6.194
 7505SOL    HW123414   1.129   2.195   6.102
 7505SOL    HW223415   1.199   2.197   6.249
 7506SOL     OW23416   4.836   2.472   4.031
 7506SOL    HW123417   4.764   2.542   4.027
 7506SOL    HW223418   4.794   2.381   4.037
 7507SOL     OW23419   5.889   2.334   2.958
 7507SOL    HW123420   5.918   2.239   2.961
 7507SOL    HW223421   5.846   2.353   2.870
 7508SOL     OW23422   2.463   5.059   0.553
 7508SOL    HW123423   2.364   5.051   0.546
 7508SOL    HW223424   2.506   4.979   0.512
 7509SOL     OW23425   6.184   3.419   0.447
 7509SOL    HW123426   6.157   3.323   0.454
 7509SOL    HW223427   6.283   3.425   0.434
 7510SOL     OW23428   4.152   3.674   4.801
 7510SOL    HW123429   4.151   3.709   4.708
 7510SOL    HW223430   4.188   3.580   4.801
 7511SOL     OW23431   2.721   6.151   2.950
 7511SOL    HW123432   2.697   6.109   3.038
 7511SOL    HW223433   2.820   6.160   2.943
 7512SOL     OW23434   2.771   0.999   6.933
 7512SOL    HW123435   2.674   1.012   6.956
 7512SOL    HW223436   2.803   1.076   6.878
 7513SOL     OW23437   1.343   1.408   2.561
 7513SOL    HW123438   1.351   1.321   2.513
 7513SOL    HW223439   1.430   1.458   2.554
 7514SOL     OW23440   2.382   4.846   2.972
 7514SOL    HW123441   2.338   4.833   2.883
 7514SOL    HW223442   2.387   4.943   2.993
 7515SOL     OW23443   6.701   4.930   4.803
 7515SOL    HW123444   6.732   4.968   4.716
 7515SOL    HW223445   6.623   4.869   4.786
 7516SOL     OW23446   0.877   5.054   5.775
 7516SOL    HW123447   0.916   5.013   5.858
 7516SOL    HW223448   0.951   5.079   5.712
 7517SOL     OW23449   0.733   2.201   0.097
 7517SOL    HW123450   0.688   2.281   0.059
 7517SOL    HW223451   0.681   2.119   0.073
 7518SOL     OW23452   5.191   3.591   3.761
 7518SOL    HW123453   5.119   3.534   3.721
 7518SOL    HW223454   5.150   3.656   3.824
 7519SOL     OW23455   6.673   6.708   4.638
 7519SOL    HW123456   6.623   6.667   4.714
 7519SOL    HW223457   6.652   6.805   4.631
 7520SOL     OW23458   1.914   0.344   2.407
 7520SOL    HW123459   1.923   0.432   2.453
 7520SOL    HW223460   1.817   0.318   2.403
 7521SOL     OW23461   5.802   2.931   4.806
 7521SOL    HW123462   5.847   2.981   4.880
 7521SOL    HW223463   5.849   2.950   4.720
 7522SOL     OW23464   1.417   0.485   5.652
 7522SOL    HW123465   1.460   0.544   5.720
 7522SOL    HW223466   1.346   0.429   5.696
 7523SOL     OW23467   5.092   0.777   6.583
 7523SOL    HW123468   5.087   0.854   6.520
 7523SOL    HW223469   5.169   0.719   6.559
 7524SOL     OW23470   0.222   3.033   4.746
 7524SOL    HW123471   0.204   3.109   4.808
 7524SOL    HW223472   0.319   3.008   4.751
 7525SOL     OW23473   4.431   6.796   7.012
 7525SOL    HW123474   4.383   6.843   6.939
 7525SOL    HW223475   4.470   6.863   0.049
 7526SOL     OW23476   2.760   3.162   1.708
 7526SOL    HW123477   2.859   3.151   1.704
 7526SOL    HW223478   2.738   3.240   1.766
 7527SOL     OW23479   3.380   5.806   3.751
 7527SOL    HW123480   3.472   5.841   3.763
 7527SOL    HW223481   3.380   5.707   3.765
 7528SOL     OW23482   6.079   2.245   6.825
 7528SOL    HW123483   6.087   2.340   6.794
 7528SOL    HW223484   5.995   2.205   6.789
 7529SOL     OW23485   5.352   1.974   4.531
 7529SOL    HW123486   5.445   1.939   4.523
 7529SOL    HW223487   5.325   2.014   4.443
 7530SOL     OW23488   5.856   2.712   2.153
 7530SOL    HW123489   5.866   2.622   2.110
 7530SOL    HW223490   5.899   2.709   2.244
 7531SOL     OW23491   5.383   3.408   3.877
 7531SOL    HW123492   5.315   3.477   3.850
 7531SOL    HW223493   5.472   3.451   3.888
 7532SOL     OW23494   4.598   6.217   0.332
 7532SOL    HW123495   4.663   6.180   0.398
 7532SOL    HW223496   4.526   6.267   0.381
 7533SOL     OW23497   3.692   2.016   1.850
 7533SOL    HW123498   3.704   2.083   1.923
 7533SOL    HW223499   3.611   2.039   1.797
 7534SOL     OW23500   5.116   5.733   4.451
 7534SOL    HW123501   5.145   5.662   4.515
 7534SOL    HW223502   5.169   5.724   4.366
 7535SOL     OW23503   1.743   6.655   5.048
 7535SOL    HW123504   1.709   6.650   5.142
 7535SOL    HW223505   1.672   6.622   4.985
 7536SOL     OW23506   4.709   5.662   3.706
 7536SOL    HW123507   4.725   5.671   3.804
 7536SOL    HW223508   4.675   5.749   3.670
 7537SOL     OW23509   2.060   4.637   2.583
 7537SOL    HW123510   2.096   4.643   2.490
 7537SOL    HW223511   1.967   4.672   2.586
 7538SOL     OW23512   2.092   2.599   1.650
 7538SOL    HW123513   2.068   2.693   1.623
 7538SOL    HW223514   2.190   2.594   1.668
 7539SOL     OW23515   1.340   4.440   3.541
 7539SOL    HW123516   1.431   4.432   3.500
 7539SOL    HW223517   1.331   4.530   3.582
 7540SOL     OW23518   4.394   6.488   4.487
 7540SOL    HW123519   4.349   6.440   4.413
 7540SOL    HW223520   4.372   6.445   4.575
 7541SOL     OW23521   0.645   4.262   6.083
 7541SOL    HW123522   0.579   4.199   6.123
 7541SOL    HW223523   0.681   4.323   6.153
 7542SOL     OW23524   6.571   6.072   0.245
 7542SOL    HW123525   6.644   6.141   0.245
 7542SOL    HW223526   6.574   6.021   0.159
 7543SOL     OW23527   3.609   1.234   5.111
 7543SOL    HW123528   3.571   1.295   5.181
 7543SOL    HW223529   3.539   1.169   5.081
 7544SOL     OW23530   6.895   2.782   4.268
 7544SOL    HW123531   6.830   2.829   4.208
 7544SOL    HW223532   6.981   2.832   4.270
 7545SOL     OW23533   0.719   6.603   6.342
 7545SOL    HW123534   0.683   6.512   6.362
 7545SOL    HW223535   0.721   6.657   6.426
 7546SOL     OW23536   4.601   2.392   1.672
 7546SOL    HW123537   4.654   2.357   1.594
 7546SOL    HW223538   4.562   2.315   1.722
 7547SOL     OW23539   5.247   0.783   1.193
 7547SOL    HW123540   5.234   0.736   1.281
 7547SOL    HW223541   5.263   0.880   1.209
 7548SOL     OW23542   4.703   2.577   6.538
 7548SOL    HW123543   4.776   2.613   6.480
 7548SOL    HW223544   4.730   2.487   6.573
 7549SOL     OW23545   3.690   3.179   6.224
 7549SOL    HW123546   3.655   3.097   6.268
 7549SOL    HW223547   3.655   3.184   6.130
 7550SOL     OW23548   1.948   4.641   3.210
 7550SOL    HW123549   1.917   4.688   3.293
 7550SOL    HW223550   2.033   4.593   3.229
 7551SOL     OW23551   5.757   2.975   5.573
 7551SOL    HW123552   5.819   3.045   5.609
 7551SOL    HW223553   5.730   2.914   5.648
 7552SOL     OW23554   1.824   6.101   4.338
 7552SOL    HW123555   1.829   6.031   4.410
 7552SOL    HW223556   1.729   6.126   4.323
 7553SOL     OW23557   5.012   6.835   5.790
 7553SOL    HW123558   4.958   6.753   5.773
 7553SOL    HW223559   5.022   6.888   5.706
 7554SOL     OW23560   4.800   0.673   0.181
 7554SOL    HW123561   4.874   0.695   0.118
 7554SOL    HW223562   4.717   0.652   0.129
 7555SOL     OW23563   3.267   5.833   6.501
 7555SOL    HW123564   3.248   5.756   6.441
 7555SOL    HW223565   3.317   5.802   6.582
 7556SOL     OW23566   2.437   1.637   0.120
 7556SOL    HW123567   2.482   1.557   0.160
 7556SOL    HW223568   2.504   1.709   0.105
 7557SOL     OW23569   4.878   0.440   6.384
 7557SOL    HW123570   4.930   0.354   6.381
 7557SOL    HW223571   4.910   0.496   6.459
 7558SOL     OW23572   2.232   3.131   4.142
 7558SOL    HW123573   2.243   3.157   4.046
 7558SOL    HW223574   2.136   3.107   4.159
 7559SOL     OW23575   4.160   2.419   5.865
 7559SOL    HW123576   4.223   2.413   5.788
 7559SOL    HW223577   4.211   2.443   5.948
 7560SOL     OW23578   5.846   6.950   0.249
 7560SOL    HW123579   5.922   7.001   0.289
 7560SOL    HW223580   5.844   6.857   0.286
 7561SOL     OW23581   6.373   2.874   5.811
 7561SOL    HW123582   6.331   2.939   5.748
 7561SOL    HW223583   6.439   2.818   5.761
 7562SOL     OW23584   0.855   4.765   5.332
 7562SOL    HW123585   0.921   4.760   5.257
 7562SOL    HW223586   0.769   4.802   5.297
 7563SOL     OW23587   2.411   5.920   1.730
 7563SOL    HW123588   2.323   5.885   1.761
 7563SOL    HW223589   2.454   5.974   1.803
 7564SOL     OW23590   3.782   0.254   4.335
 7564SOL    HW123591   3.719   0.314   4.384
 7564SOL    HW223592   3.736   0.215   4.255
 7565SOL     OW23593   5.554   3.848   5.733
 7565SOL    HW123594   5.495   3.863   5.812
 7565SOL    HW223595   5.648   3.872   5.756
 7566SOL     OW23596   5.626   5.266   2.236
 7566SOL    HW123597   5.725   5.250   2.238
 7566SOL    HW223598   5.582   5.212   2.307
 7567SOL     OW23599   0.924   1.056   6.057
 7567SOL    HW123600   0.991   1.017   6.120
 7567SOL    HW223601   0.970   1.091   5.976
 7568SOL     OW23602   5.358   4.897   2.185
 7568SOL    HW123603   5.317   4.861   2.101
 7568SOL    HW223604   5.448   4.856   2.199
 7569SOL     OW23605   3.658   4.363   6.488
 7569SOL    HW123606   3.635   4.451   6.448
 7569SOL    HW223607   3.718   4.312   6.426
 7570SOL     OW23608   5.885   3.943   4.077
 7570SOL    HW123609   5.889   3.971   3.981
 7570SOL    HW223610   5.791   3.923   4.102
 7571SOL     OW23611   5.148   3.735   3.422
 7571SOL    HW123612   5.215   3.663   3.442
 7571SOL    HW223613   5.060   3.712   3.465
 7572SOL     OW23614   5.433   0.887   3.308
 7572SOL    HW123615   5.341   0.896   3.268
 7572SOL    HW223616   5.501   0.910   3.239
 7573SOL     OW23617   6.012   0.487   5.748
 7573SOL    HW123618   6.092   0.498   5.689
 7573SOL    HW223619   6.035   0.515   5.841
 7574SOL     OW23620   5.666   1.188   4.311
 7574SOL    HW123621   5.753   1.197   4.360
 7574SOL    HW223622   5.661   1.258   4.239
 7575SOL     OW23623   6.046   6.773   0.316
 7575SOL    HW123624   6.079   6.678   0.313
 7575SOL    HW223625   6.088   6.825   0.242
 7576SOL     OW23626   5.185   2.363   0.213
 7576SOL    HW123627   5.153   2.430   0.280
 7576SOL    HW223628   5.281   2.340   0.231
 7577SOL     OW23629   0.613   6.127   0.385
 7577SOL    HW123630   0.587   6.076   0.303
 7577SOL    HW223631   0.712   6.136   0.389
 7578SOL     OW23632   1.620   5.206   2.601
 7578SOL    HW123633   1.600   5.273   2.674
 7578SOL    HW223634   1.575   5.235   2.517
 7579SOL     OW23635   0.146   1.477   1.415
 7579SOL    HW123636   0.172   1.410   1.485
 7579SOL    HW223637   0.140   1.568   1.457
 7580SOL     OW23638   0.855   4.289   2.975
 7580SOL    HW123639   0.822   4.367   3.028
 7580SOL    HW223640   0.954   4.297   2.962
 7581SOL     OW23641   0.530   1.554   1.442
 7581SOL    HW123642   0.452   1.616   1.455
 7581SOL    HW223643   0.534   1.526   1.346
 7582SOL     OW23644   4.086   1.898   4.194
 7582SOL    HW123645   4.099   1.813   4.246
 7582SOL    HW223646   4.163   1.911   4.132
 7583SOL     OW23647   5.461   3.298   2.212
 7583SOL    HW123648   5.544   3.251   2.183
 7583SOL    HW223649   5.384   3.268   2.156
 7584SOL     OW23650   1.495   0.185   3.037
 7584SOL    HW123651   1.524   0.093   3.061
 7584SOL    HW223652   1.425   0.216   3.101
 7585SOL     OW23653   1.447   2.107   6.138
 7585SOL    HW123654   1.532   2.142   6.178
 7585SOL    HW223655   1.383   2.083   6.211
 7586SOL     OW23656   1.762   6.726   3.003
 7586SOL    HW123657   1.775   6.631   3.031
 7586SOL    HW223658   1.808   6.741   2.915
 7587SOL     OW23659   2.741   1.597   6.889
 7587SOL    HW123660   2.766   1.642   6.803
 7587SOL    HW223661   2.648   1.562   6.882
 7588SOL     OW23662   1.732   2.475   3.775
 7588SOL    HW123663   1.719   2.567   3.814
 7588SOL    HW223664   1.807   2.429   3.822
 7589SOL     OW23665   6.955   0.888   2.677
 7589SOL    HW123666   0.021   0.905   2.711
 7589SOL    HW223667   6.928   0.795   2.701
 7590SOL     OW23668   5.676   1.032   0.261
 7590SOL    HW123669   5.647   1.008   0.168
 7590SOL    HW223670   5.624   0.978   0.327
 7591SOL     OW23671   5.439   3.995   6.758
 7591SOL    HW123672   5.499   3.930   6.804
 7591SOL    HW223673   5.345   3.984   6.792
 7592SOL     OW23674   6.119   5.094   4.849
 7592SOL    HW123675   6.196   5.151   4.878
 7592SOL    HW223676   6.131   5.002   4.885
 7593SOL     OW23677   6.830   3.246   6.905
 7593SOL    HW123678   6.772   3.164   6.903
 7593SOL    HW223679   6.794   3.314   6.840
 7594SOL     OW23680   1.001   4.850   1.242
 7594SOL    HW123681   1.071   4.784   1.215
 7594SOL    HW223682   0.972   4.830   1.336
 7595SOL     OW23683   6.235   2.910   6.307
 7595SOL    HW123684   6.262   2.894   6.213
 7595SOL    HW223685   6.315   2.908   6.367
 7596SOL     OW23686   3.280   6.558   4.405
 7596SOL    HW123687   3.209   6.606   4.354
 7596SOL    HW223688   3.259   6.562   4.503
 7597SOL     OW23689   1.935   6.735   2.765
 7597SOL    HW123690   1.926   6.657   2.702
 7597SOL    HW223691   2.028   6.771   2.760
 7598SOL     OW23692   6.184   0.843   3.294
 7598SOL    HW123693   6.222   0.751   3.287
 7598SOL    HW223694   6.128   0.849   3.377
 7599SOL     OW23695   5.599   2.954   1.208
 7599SOL    HW123696   5.564   3.047   1.201
 7599SOL    HW223697   5.697   2.956   1.224
 7600SOL     OW23698   0.936   0.864   3.474
 7600SOL    HW123699   0.866   0.936   3.480
 7600SOL    HW223700   0.916   0.792   3.540
 7601SOL     OW23701   3.222   5.112   2.052
 7601SOL    HW123702   3.127   5.097   2.024
 7601SOL    HW223703   3.275   5.028   2.040
 7602SOL     OW23704   1.242   3.151   6.596
 7602SOL    HW123705   1.283   3.177   6.684
 7602SOL    HW223706   1.243   3.052   6.587
 7603SOL     OW23707   2.156   6.538   6.016
 7603SOL    HW123708   2.156   6.459   6.077
 7603SOL    HW223709   2.127   6.509   5.925
 7604SOL     OW23710   0.676   2.112   5.323
 7604SOL    HW123711   0.771   2.138   5.309
 7604SOL    HW223712   0.616   2.171   5.269
 7605SOL     OW23713   1.412   0.587   0.617
 7605SOL    HW123714   1.353   0.529   0.561
 7605SOL    HW223715   1.449   0.661   0.562
 7606SOL     OW23716   5.906   3.006   5.063
 7606SOL    HW123717   5.826   3.064   5.046
 7606SOL    HW223718   5.888   2.948   5.142
 7607SOL     OW23719   4.061   5.232   0.170
 7607SOL    HW123720   4.070   5.202   0.074
 7607SOL    HW223721   4.120   5.311   0.186
 7608SOL     OW23722   5.542   2.677   0.556
 7608SOL    HW123723   5.519   2.646   0.649
 7608SOL    HW223724   5.609   2.614   0.516
 7609SOL     OW23725   1.219   3.389   3.820
 7609SOL    HW123726   1.250   3.421   3.910
 7609SOL    HW223727   1.292   3.401   3.753
 7610SOL     OW23728   3.907   4.405   5.465
 7610SOL    HW123729   3.956   4.358   5.392
 7610SOL    HW223730   3.929   4.503   5.462
 7611SOL     OW23731   5.230   3.724   0.960
 7611SOL    HW123732   5.271   3.670   0.887
 7611SOL    HW223733   5.131   3.723   0.950
 7612SOL     OW23734   4.781   2.868   3.008
 7612SOL    HW123735   4.763   2.781   2.963
 7612SOL    HW223736   4.880   2.881   3.016
 7613SOL     OW23737   0.252   1.636   1.937
 7613SOL    HW123738   0.291   1.715   1.983
 7613SOL    HW223739   0.222   1.568   2.005
 7614SOL     OW23740   5.378   3.598   1.172
 7614SOL    HW123741   5.442   3.541   1.121
 7614SOL    HW223742   5.314   3.642   1.108
 7615SOL     OW23743   4.986   4.139   6.122
 7615SOL    HW123744   5.076   4.097   6.113
 7615SOL    HW223745   4.916   4.068   6.121
 7616SOL     OW23746   6.915   0.143   4.144
 7616SOL    HW123747   6.923   0.049   4.111
 7616SOL    HW223748   6.988   0.162   4.210
 7617SOL     OW23749   5.424   5.924   3.627
 7617SOL    HW123750   5.516   5.962   3.620
 7617SOL    HW223751   5.395   5.926   3.722
 7618SOL     OW23752   0.887   2.699   6.954
 7618SOL    HW123753   0.944   2.746   7.022
 7618SOL    HW223754   0.902   2.601   6.959
 7619SOL     OW23755   0.178   2.445   4.177
 7619SOL    HW123756   0.224   2.531   4.198
 7619SOL    HW223757   0.230   2.369   4.218
 7620SOL     OW23758   4.491   5.540   1.154
 7620SOL    HW123759   4.497   5.583   1.244
 7620SOL    HW223760   4.403   5.492   1.145
 7621SOL     OW23761   0.605   0.773   1.284
 7621SOL    HW123762   0.602   0.833   1.364
 7621SOL    HW223763   0.658   0.691   1.306
 7622SOL     OW23764   4.619   4.799   6.174
 7622SOL    HW123765   4.602   4.703   6.194
 7622SOL    HW223766   4.533   4.850   6.177
 7623SOL     OW23767   4.572   4.635   0.995
 7623SOL    HW123768   4.493   4.686   1.029
 7623SOL    HW223769   4.654   4.668   1.041
 7624SOL     OW23770   6.875   3.721   3.455
 7624SOL    HW123771   6.969   3.731   3.421
 7624SOL    HW223772   6.834   3.811   3.468
 7625SOL     OW23773   6.820   1.516   0.133
 7625SOL    HW123774   6.832   1.463   0.049
 7625SOL    HW223775   6.723   1.514   0.160
 7626SOL     OW23776   6.520   1.113   5.845
 7626SOL    HW123777   6.459   1.099   5.923
 7626SOL    HW223778   6.615   1.110   5.875
 7627SOL     OW23779   3.269   2.142   0.220
 7627SOL    HW123780   3.322   2.139   0.135
 7627SOL    HW223781   3.208   2.063   0.224
 7628SOL     OW23782   3.945   2.731   1.701
 7628SOL    HW123783   4.022   2.675   1.672
 7628SOL    HW223784   3.862   2.675   1.701
 7629SOL     OW23785   6.780   4.218   3.422
 7629SOL    HW123786   6.681   4.224   3.434
 7629SOL    HW223787   6.826   4.250   3.505
 7630SOL     OW23788   1.015   0.933   6.657
 7630SOL    HW123789   0.939   0.966   6.600
 7630SOL    HW223790   1.064   0.860   6.608
 7631SOL     OW23791   0.929   1.667   5.636
 7631SOL    HW123792   0.918   1.600   5.710
 7631SOL    HW223793   1.002   1.636   5.574
 7632SOL     OW23794   4.342   4.859   0.513
 7632SOL    HW123795   4.247   4.834   0.498
 7632SOL    HW223796   4.393   4.781   0.549
 7633SOL     OW23797   5.241   0.411   2.151
 7633SOL    HW123798   5.149   0.378   2.129
 7633SOL    HW223799   5.236   0.468   2.233
 7634SOL     OW23800   2.333   1.255   1.490
 7634SOL    HW123801   2.371   1.171   1.530
 7634SOL    HW223802   2.403   1.326   1.490
 7635SOL     OW23803   3.424   5.256   4.589
 7635SOL    HW123804   3.374   5.179   4.631
 7635SOL    HW223805   3.461   5.314   4.662
 7636SOL     OW23806   1.328   4.180   3.974
 7636SOL    HW123807   1.297   4.198   3.881
 7636SOL    HW223808   1.263   4.219   4.039
 7637SOL     OW23809   1.782   6.073   2.962
 7637SOL    HW123810   1.723   6.100   2.886
 7637SOL    HW223811   1.727   6.032   3.034
 7638SOL     OW23812   1.182   5.422   2.603
 7638SOL    HW123813   1.160   5.366   2.682
 7638SOL    HW223814   1.099   5.467   2.570
 7639SOL     OW23815   0.679   1.197   0.489
 7639SOL    HW123816   0.723   1.249   0.416
 7639SOL    HW223817   0.746   1.175   0.559
 7640SOL     OW23818   2.779   2.400   6.878
 7640SOL    HW123819   2.695   2.373   6.830
 7640SOL    HW223820   2.800   2.495   6.858
 7641SOL     OW23821   6.734   3.948   2.701
 7641SOL    HW123822   6.707   4.044   2.696
 7641SOL    HW223823   6.682   3.901   2.772
 7642SOL     OW23824   5.506   1.289   2.440
 7642SOL    HW123825   5.430   1.231   2.471
 7642SOL    HW223826   5.479   1.385   2.443
 7643SOL     OW23827   5.509   1.504   2.722
 7643SOL    HW123828   5.412   1.513   2.700
 7643SOL    HW223829   5.559   1.582   2.683
 7644SOL     OW23830   4.893   3.078   2.317
 7644SOL    HW123831   4.859   3.004   2.376
 7644SOL    HW223832   4.881   3.052   2.221
 7645SOL     OW23833   4.222   3.499   5.532
 7645SOL    HW123834   4.166   3.582   5.533
 7645SOL    HW223835   4.280   3.498   5.450
 7646SOL     OW23836   0.442   2.629   3.602
 7646SOL    HW123837   0.427   2.689   3.680
 7646SOL    HW223838   0.440   2.533   3.632
 7647SOL     OW23839   0.586   2.998   4.543
 7647SOL    HW123840   0.609   3.093   4.568
 7647SOL    HW223841   0.531   2.998   4.459
 7648SOL     OW23842   2.501   1.734   2.577
 7648SOL    HW123843   2.557   1.807   2.538
 7648SOL    HW223844   2.422   1.717   2.518
 7649SOL     OW23845   1.509   1.026   4.566
 7649SOL    HW123846   1.431   1.028   4.629
 7649SOL    HW223847   1.498   0.950   4.502
 7650SOL     OW23848   6.228   0.484   1.225
 7650SOL    HW123849   6.292   0.550   1.265
 7650SOL    HW223850   6.243   0.394   1.267
 7651SOL     OW23851   2.516   6.360   4.170
 7651SOL    HW123852   2.586   6.312   4.224
 7651SOL    HW223853   2.560   6.408   4.095
 7652SOL     OW23854   5.812   2.810   5.254
 7652SOL    HW123855   5.815   2.711   5.248
 7652SOL    HW223856   5.758   2.837   5.334
 7653SOL     OW23857   1.516   1.563   0.450
 7653SOL    HW123858   1.466   1.477   0.465
 7653SOL    HW223859   1.604   1.543   0.407
 7654SOL     OW23860   5.449   3.199   4.771
 7654SOL    HW123861   5.366   3.230   4.819
 7654SOL    HW223862   5.450   3.099   4.768
 7655SOL     OW23863   3.350   0.794   3.850
 7655SOL    HW123864   3.368   0.703   3.814
 7655SOL    HW223865   3.401   0.808   3.934
 7656SOL     OW23866   5.110   2.752   6.604
 7656SOL    HW123867   5.099   2.825   6.672
 7656SOL    HW223868   5.207   2.741   6.582
 7657SOL     OW23869   2.112   2.464   4.071
 7657SOL    HW123870   2.075   2.426   3.987
 7657SOL    HW223871   2.081   2.559   4.082
 7658SOL     OW23872   2.987   0.428   0.774
 7658SOL    HW123873   2.916   0.495   0.796
 7658SOL    HW223874   3.042   0.462   0.697
 7659SOL     OW23875   4.853   4.411   6.826
 7659SOL    HW123876   4.770   4.384   6.777
 7659SOL    HW223877   4.918   4.451   6.761
 7660SOL     OW23878   6.524   5.303   4.219
 7660SOL    HW123879   6.461   5.376   4.192
 7660SOL    HW223880   6.567   5.264   4.138
 7661SOL     OW23881   5.032   1.773   5.690
 7661SOL    HW123882   5.076   1.862   5.676
 7661SOL    HW223883   4.983   1.747   5.608
 7662SOL     OW23884   1.121   2.703   3.049
 7662SOL    HW123885   1.095   2.608   3.067
 7662SOL    HW223886   1.040   2.755   3.023
 7663SOL     OW23887   4.787   5.481   6.618
 7663SOL    HW123888   4.835   5.519   6.540
 7663SOL    HW223889   4.807   5.536   6.699
 7664SOL     OW23890   4.019   1.373   2.212
 7664SOL    HW123891   4.013   1.326   2.300
 7664SOL    HW223892   3.928   1.404   2.185
 7665SOL     OW23893   5.447   1.443   4.067
 7665SOL    HW123894   5.452   1.543   4.072
 7665SOL    HW223895   5.388   1.409   4.140
 7666SOL     OW23896   0.154   4.739   4.002
 7666SOL    HW123897   0.156   4.761   4.099
 7666SOL    HW223898   0.075   4.784   3.959
 7667SOL     OW23899   4.573   0.419   3.175
 7667SOL    HW123900   4.598   0.339   3.229
 7667SOL    HW223901   4.638   0.430   3.100
 7668SOL     OW23902   2.680   4.660   1.069
 7668SOL    HW123903   2.619   4.631   0.995
 7668SOL    HW223904   2.627   4.709   1.139
 7669SOL     OW23905   4.736   0.964   5.142
 7669SOL    HW123906   4.825   0.936   5.106
 7669SOL    HW223907   4.747   0.994   5.237
 7670SOL     OW23908   1.188   6.007   0.499
 7670SOL    HW123909   1.182   6.058   0.584
 7670SOL    HW223910   1.246   6.057   0.434
 7671SOL     OW23911   4.259   0.336   2.466
 7671SOL    HW123912   4.238   0.241   2.441
 7671SOL    HW223913   4.245   0.395   2.386
 7672SOL     OW23914   6.496   4.974   3.594
 7672SOL    HW123915   6.522   4.998   3.687
 7672SOL    HW223916   6.408   5.015   3.572
 7673SOL     OW23917   1.810   5.517   2.331
 7673SOL    HW123918   1.853   5.435   2.366
 7673SOL    HW223919   1.731   5.492   2.274
 7674SOL     OW23920   4.650   0.265   4.188
 7674SOL    HW123921   4.739   0.308   4.170
 7674SOL    HW223922   4.621   0.287   4.281
 7675SOL     OW23923   5.047   6.351   3.419
 7675SOL    HW123924   4.989   6.430   3.436
 7675SOL    HW223925   5.001   6.289   3.355
 7676SOL     OW23926   3.203   2.233   6.139
 7676SOL    HW123927   3.158   2.322   6.129
 7676SOL    HW223928   3.170   2.188   6.221
 7677SOL     OW23929   0.237   4.450   0.802
 7677SOL    HW123930   0.314   4.468   0.863
 7677SOL    HW223931   0.235   4.519   0.729
 7678SOL     OW23932   1.739   2.716   5.393
 7678SOL    HW123933   1.694   2.686   5.309
 7678SOL    HW223934   1.820   2.770   5.370
 7679SOL     OW23935   1.970   5.087   5.318
 7679SOL    HW123936   2.025   5.048   5.392
 7679SOL    HW223937   1.886   5.126   5.356
 7680SOL     OW23938   1.479   0.490   6.697
 7680SOL    HW123939   1.555   0.516   6.637
 7680SOL    HW223940   1.443   0.402   6.668
 7681SOL     OW23941   2.776   0.880   0.159
 7681SOL    HW123942   2.809   0.901   0.067
 7681SOL    HW223943   2.732   0.961   0.198
 7682SOL     OW23944   4.827   0.858   2.344
 7682SOL    HW123945   4.845   0.834   2.440
 7682SOL    HW223946   4.735   0.897   2.337
 7683SOL     OW23947   0.243   1.790   5.045
 7683SOL    HW123948   0.319   1.846   5.077
 7683SOL    HW223949   0.157   1.835   5.067
 7684SOL     OW23950   3.919   2.390   1.040
 7684SOL    HW123951   3.821   2.405   1.029
 7684SOL    HW223952   3.956   2.456   1.106
 7685SOL     OW23953   3.361   1.580   6.564
 7685SOL    HW123954   3.312   1.493   6.571
 7685SOL    HW223955   3.304   1.647   6.518
 7686SOL     OW23956   5.964   6.900   4.505
 7686SOL    HW123957   6.055   6.872   4.472
 7686SOL    HW223958   5.946   6.993   4.475
 7687SOL     OW23959   4.738   5.421   4.770
 7687SOL    HW123960   4.805   5.393   4.701
 7687SOL    HW223961   4.749   5.365   4.851
 7688SOL     OW23962   0.052   6.268   6.307
 7688SOL    HW123963   0.073   6.214   6.225
 7688SOL    HW223964   0.128   6.330   6.327
 7689SOL     OW23965   5.162   6.783   3.015
 7689SOL    HW123966   5.218   6.863   2.990
 7689SOL    HW223967   5.190   6.750   3.105
 7690SOL     OW23968   5.674   5.174   0.578
 7690SOL    HW123969   5.700   5.244   0.644
 7690SOL    HW223970   5.574   5.166   0.576
 7691SOL     OW23971   5.328   4.164   1.763
 7691SOL    HW123972   5.304   4.078   1.718
 7691SOL    HW223973   5.246   4.206   1.801
 7692SOL     OW23974   0.654   5.845   1.557
 7692SOL    HW123975   0.567   5.884   1.586
 7692SOL    HW223976   0.716   5.918   1.529
 7693SOL     OW23977   3.225   0.257   1.267
 7693SOL    HW123978   3.226   0.332   1.202
 7693SOL    HW223979   3.314   0.211   1.267
 7694SOL     OW23980   5.902   3.227   4.380
 7694SOL    HW123981   5.939   3.170   4.307
 7694SOL    HW223982   5.935   3.321   4.369
 7695SOL     OW23983   6.111   0.633   1.550
 7695SOL    HW123984   6.070   0.693   1.481
 7695SOL    HW223985   6.096   0.538   1.524
 7696SOL     OW23986   6.385   1.415   6.025
 7696SOL    HW123987   6.323   1.352   5.978
 7696SOL    HW223988   6.334   1.496   6.053
 7697SOL     OW23989   2.857   0.953   2.555
 7697SOL    HW123990   2.942   0.938   2.504
 7697SOL    HW223991   2.782   0.905   2.509
 7698SOL     OW23992   6.729   1.264   5.371
 7698SOL    HW123993   6.651   1.292   5.426
 7698SOL    HW223994   6.760   1.174   5.401
 7699SOL     OW23995   2.690   5.135   6.692
 7699SOL    HW123996   2.725   5.046   6.719
 7699SOL    HW223997   2.706   5.202   6.765
 7700SOL     OW23998   3.968   6.238   3.425
 7700SOL    HW123999   3.910   6.284   3.358
 7700SOL    HW224000   3.919   6.231   3.512
 7701SOL     OW24001   0.108   2.722   6.534
 7701SOL    HW124002   0.033   2.656   6.548
 7701SOL    HW224003   0.086   2.781   6.456
 7702SOL     OW24004   4.563   5.770   5.120
 7702SOL    HW124005   4.545   5.772   5.022
 7702SOL    HW224006   4.494   5.713   5.165
 7703SOL     OW24007   6.170   6.251   5.689
 7703SOL    HW124008   6.149   6.349   5.695
 7703SOL    HW224009   6.156   6.219   5.596
 7704SOL     OW24010   6.119   1.939   3.285
 7704SOL    HW124011   6.046   1.967   3.348
 7704SOL    HW224012   6.119   1.839   3.278
 7705SOL     OW24013   2.501   5.016   1.185
 7705SOL    HW124014   2.436   5.045   1.115
 7705SOL    HW224015   2.553   5.096   1.217
 7706SOL     OW24016   3.804   3.516   3.606
 7706SOL    HW124017   3.900   3.539   3.619
 7706SOL    HW224018   3.768   3.561   3.524
 7707SOL     OW24019   0.558   4.476   6.811
 7707SOL    HW124020   0.592   4.390   6.849
 7707SOL    HW224021   0.477   4.457   6.755
 7708SOL     OW24022   1.393   6.659   4.380
 7708SOL    HW124023   1.475   6.606   4.362
 7708SOL    HW224024   1.312   6.608   4.349
 7709SOL     OW24025   6.670   4.914   1.787
 7709SOL    HW124026   6.672   4.866   1.700
 7709SOL    HW224027   6.583   4.895   1.833
 7710SOL     OW24028   1.993   2.379   0.679
 7710SOL    HW124029   2.003   2.434   0.596
 7710SOL    HW224030   2.007   2.283   0.658
 7711SOL     OW24031   5.366   5.802   6.094
 7711SOL    HW124032   5.421   5.863   6.152
 7711SOL    HW224033   5.277   5.845   6.077
 7712SOL     OW24034   6.290   4.636   0.222
 7712SOL    HW124035   6.261   4.540   0.214
 7712SOL    HW224036   6.389   4.642   0.213
 7713SOL     OW24037   1.758   3.706   0.597
 7713SOL    HW124038   1.687   3.776   0.596
 7713SOL    HW224039   1.742   3.644   0.674
 7714SOL     OW24040   0.614   6.341   5.050
 7714SOL    HW124041   0.651   6.250   5.033
 7714SOL    HW224042   0.514   6.337   5.044
 7715SOL     OW24043   2.796   1.980   6.547
 7715SOL    HW124044   2.871   2.019   6.601
 7715SOL    HW224045   2.824   1.971   6.452
 7716SOL     OW24046   6.416   5.261   0.609
 7716SOL    HW124047   6.506   5.220   0.621
 7716SOL    HW224048   6.403   5.284   0.512
 7717SOL     OW24049   1.040   1.966   5.319
 7717SOL    HW124050   1.124   1.947   5.371
 7717SOL    HW224051   0.967   1.906   5.351
 7718SOL     OW24052   6.848   4.513   3.037
 7718SOL    HW124053   6.941   4.488   3.010
 7718SOL    HW224054   6.849   4.555   3.127
 7719SOL     OW24055   0.959   4.354   4.803
 7719SOL    HW124056   0.883   4.389   4.748
 7719SOL    HW224057   1.033   4.324   4.742
 7720SOL     OW24058   6.194   1.596   6.185
 7720SOL    HW124059   6.202   1.679   6.240
 7720SOL    HW224060   6.112   1.602   6.128
 7721SOL     OW24061   0.414   7.002   2.739
 7721SOL    HW124062   0.417   6.957   2.650
 7721SOL    HW224063   0.343   6.959   2.795
 7722SOL     OW24064   1.759   5.098   3.895
 7722SOL    HW124065   1.796   5.190   3.904
 7722SOL    HW224066   1.756   5.054   3.985
 7723SOL     OW24067   4.741   3.736   6.365
 7723SOL    HW124068   4.645   3.721   6.343
 7723SOL    HW224069   4.759   3.834   6.374
 7724SOL     OW24070   3.254   4.279   0.178
 7724SOL    HW124071   3.162   4.244   0.158
 7724SOL    HW224072   3.296   4.224   0.250
 7725SOL     OW24073   5.918   2.052   2.785
 7725SOL    HW124074   5.850   2.043   2.712
 7725SOL    HW224075   6.007   2.071   2.745
 7726SOL     OW24076   1.161   3.305   6.102
 7726SOL    HW124077   1.213   3.233   6.057
 7726SOL    HW224078   1.223   3.376   6.136
 7727SOL     OW24079   6.059   2.825   1.466
 7727SOL    HW124080   6.005   2.741   1.477
 7727SOL    HW224081   6.156   2.803   1.472
 7728SOL     OW24082   2.421   2.671   5.011
 7728SOL    HW124083   2.469   2.753   5.040
 7728SOL    HW224084   2.488   2.604   4.977
 7729SOL     OW24085   5.626   1.823   2.075
 7729SOL    HW124086   5.579   1.909   2.053
 7729SOL    HW224087   5.614   1.803   2.172
 7730SOL     OW24088   6.930   4.838   6.482
 7730SOL    HW124089   6.858   4.801   6.423
 7730SOL    HW224090   6.970   4.764   6.536
 7731SOL     OW24091   6.490   6.840   0.652
 7731SOL    HW124092   6.432   6.840   0.734
 7731SOL    HW224093   6.432   6.841   0.571
 7732SOL     OW24094   4.050   0.338   0.519
 7732SOL    HW124095   4.069   0.261   0.458
 7732SOL    HW224096   4.110   0.333   0.599
 7733SOL     OW24097   6.163   5.131   2.282
 7733SOL    HW124098   6.110   5.047   2.294
 7733SOL    HW224099   6.237   5.115   2.217
 7734SOL     OW24100   2.157   4.650   4.294
 7734SOL    HW124101   2.068   4.621   4.261
 7734SOL    HW224102   2.190   4.726   4.238
 7735SOL     OW24103   6.287   5.775   0.387
 7735SOL    HW124104   6.351   5.755   0.313
 7735SOL    HW224105   6.268   5.691   0.438
 7736SOL     OW24106   2.091   3.283   0.518
 7736SOL    HW124107   2.038   3.317   0.596
 7736SOL    HW224108   2.141   3.359   0.476
 7737SOL     OW24109   3.353   5.721   1.831
 7737SOL    HW124110   3.445   5.684   1.820
 7737SOL    HW224111   3.355   5.820   1.819
 7738SOL     OW24112   2.710   5.431   0.336
 7738SOL    HW124113   2.683   5.407   0.429
 7738SOL    HW224114   2.749   5.350   0.291
 7739SOL     OW24115   1.933   1.858   1.752
 7739SOL    HW124116   1.900   1.952   1.756
 7739SOL    HW224117   2.027   1.857   1.720
 7740SOL     OW24118   1.732   0.994   2.756
 7740SOL    HW124119   1.765   0.952   2.840
 7740SOL    HW224120   1.788   1.074   2.734
 7741SOL     OW24121   0.582   3.814   5.367
 7741SOL    HW124122   0.535   3.839   5.452
 7741SOL    HW224123   0.679   3.834   5.376
 7742SOL     OW24124   4.170   1.799   3.888
 7742SOL    HW124125   4.163   1.700   3.895
 7742SOL    HW224126   4.104   1.832   3.821
 7743SOL     OW24127   4.742   1.173   0.014
 7743SOL    HW124128   4.815   1.180   0.083
 7743SOL    HW224129   4.705   1.264   7.022
 7744SOL     OW24130   0.861   6.100   3.510
 7744SOL    HW124131   0.884   6.022   3.451
 7744SOL    HW224132   0.938   6.120   3.570
 7745SOL     OW24133   2.246   7.024   0.142
 7745SOL    HW124134   2.175   0.067   0.135
 7745SOL    HW224135   2.272   7.014   0.238
 7746SOL     OW24136   1.456   0.182   0.819
 7746SOL    HW124137   1.439   0.123   0.898
 7746SOL    HW224138   1.374   0.186   0.762
 7747SOL     OW24139   0.417   5.996   1.529
 7747SOL    HW124140   0.328   6.025   1.564
 7747SOL    HW224141   0.461   6.074   1.483
 7748SOL     OW24142   3.216   4.061   4.387
 7748SOL    HW124143   3.204   4.099   4.295
 7748SOL    HW224144   3.313   4.049   4.405
 7749SOL     OW24145   3.672   3.907   3.698
 7749SOL    HW124146   3.759   3.879   3.658
 7749SOL    HW224147   3.607   3.928   3.625
 7750SOL     OW24148   6.063   5.929   6.091
 7750SOL    HW124149   6.055   5.944   5.992
 7750SOL    HW224150   6.125   5.998   6.130
 7751SOL     OW24151   0.828   1.989   2.818
 7751SOL    HW124152   0.789   1.943   2.898
 7751SOL    HW224153   0.862   2.079   2.844
 7752SOL     OW24154   5.373   6.122   5.771
 7752SOL    HW124155   5.462   6.092   5.805
 7752SOL    HW224156   5.319   6.043   5.741
 7753SOL     OW24157   2.776   0.948   3.937
 7753SOL    HW124158   2.875   0.948   3.919
 7753SOL    HW224159   2.756   0.885   4.012
 7754SOL     OW24160   5.798   0.288   1.750
 7754SOL    HW124161   5.835   0.200   1.720
 7754SOL    HW224162   5.714   0.308   1.701
 7755SOL     OW24163   1.021   1.535   6.129
 7755SOL    HW124164   1.110   1.489   6.131
 7755SOL    HW224165   0.954   1.480   6.179
 7756SOL     OW24166   2.864   5.922   2.443
 7756SOL    HW124167   2.869   5.919   2.542
 7756SOL    HW224168   2.931   5.987   2.408
 7757SOL     OW24169   5.383   6.156   4.079
 7757SOL    HW124170   5.339   6.221   4.017
 7757SOL    HW224171   5.328   6.145   4.161
 7758SOL     OW24172   1.939   2.144   6.624
 7758SOL    HW124173   2.030   2.113   6.600
 7758SOL    HW224174   1.921   2.233   6.583
 7759SOL     OW24175   1.578   1.569   4.960
 7759SOL    HW124176   1.672   1.601   4.948
 7759SOL    HW224177   1.557   1.501   4.890
 7760SOL     OW24178   6.001   3.325   2.306
 7760SOL    HW124179   6.039   3.414   2.281
 7760SOL    HW224180   5.946   3.290   2.231
 7761SOL     OW24181   2.004   6.985   5.825
 7761SOL    HW124182   2.080   0.024   5.833
 7761SOL    HW224183   1.923   0.006   5.791
 7762SOL     OW24184   4.221   0.778   5.100
 7762SOL    HW124185   4.309   0.822   5.117
 7762SOL    HW224186   4.147   0.836   5.134
 7763SOL     OW24187   1.451   1.410   1.339
 7763SOL    HW124188   1.367   1.384   1.290
 7763SOL    HW224189   1.433   1.490   1.395
 7764SOL     OW24190   3.507   3.228   2.776
 7764SOL    HW124191   3.508   3.143   2.723
 7764SOL    HW224192   3.556   3.214   2.862
 7765SOL     OW24193   6.368   2.817   4.201
 7765SOL    HW124194   6.395   2.861   4.286
 7765SOL    HW224195   6.352   2.886   4.131
 7766SOL     OW24196   4.973   1.494   0.652
 7766SOL    HW124197   4.997   1.446   0.736
 7766SOL    HW224198   4.929   1.581   0.675
 7767SOL     OW24199   3.732   6.679   3.764
 7767SOL    HW124200   3.814   6.691   3.708
 7767SOL    HW224201   3.710   6.581   3.769
 7768SOL     OW24202   4.255   5.334   2.267
 7768SOL    HW124203   4.227   5.238   2.271
 7768SOL    HW224204   4.265   5.370   2.360
 7769SOL     OW24205   4.886   1.645   1.598
 7769SOL    HW124206   4.940   1.683   1.673
 7769SOL    HW224207   4.796   1.619   1.632
 7770SOL     OW24208   1.366   4.236   2.541
 7770SOL    HW124209   1.398   4.215   2.633
 7770SOL    HW224210   1.373   4.335   2.525
 7771SOL     OW24211   2.566   2.802   5.331
 7771SOL    HW124212   2.491   2.830   5.391
 7771SOL    HW224213   2.581   2.872   5.260
 7772SOL     OW24214   5.054   0.643   3.765
 7772SOL    HW124215   5.117   0.565   3.769
 7772SOL    HW224216   5.042   0.671   3.670
 7773SOL     OW24217   2.871   5.149   5.526
 7773SOL    HW124218   2.889   5.234   5.577
 7773SOL    HW224219   2.873   5.072   5.589
 7774SOL     OW24220   6.298   2.416   6.421
 7774SOL    HW124221   6.362   2.419   6.345
 7774SOL    HW224222   6.304   2.327   6.466
 7775SOL     OW24223   3.449   6.733   2.973
 7775SOL    HW124224   3.445   6.680   2.889
 7775SOL    HW224225   3.540   6.771   2.985
 7776SOL     OW24226   3.390   3.527   6.759
 7776SOL    HW124227   3.398   3.546   6.857
 7776SOL    HW224228   3.434   3.440   6.739
 7777SOL     OW24229   2.297   1.429   5.198
 7777SOL    HW124230   2.223   1.423   5.132
 7777SOL    HW224231   2.384   1.444   5.151
 7778SOL     OW24232   5.205   6.517   0.204
 7778SOL    HW124233   5.116   6.478   0.226
 7778SOL    HW224234   5.253   6.459   0.139
 7779SOL     OW24235   3.442   3.040   0.385
 7779SOL    HW124236   3.453   3.060   0.288
 7779SOL    HW224237   3.527   3.061   0.434
 7780SOL     OW24238   1.891   5.538   4.696
 7780SOL    HW124239   1.841   5.596   4.760
 7780SOL    HW224240   1.829   5.472   4.654
 7781SOL     OW24241   1.483   4.388   6.721
 7781SOL    HW124242   1.505   4.298   6.757
 7781SOL    HW224243   1.568   4.436   6.698
 7782SOL     OW24244   1.807   4.104   5.778
 7782SOL    HW124245   1.878   4.152   5.728
 7782SOL    HW224246   1.727   4.163   5.787
 7783SOL     OW24247   2.017   5.758   5.821
 7783SOL    HW124248   2.108   5.726   5.850
 7783SOL    HW224249   1.960   5.774   5.902
 7784SOL     OW24250   2.389   2.450   0.501
 7784SOL    HW124251   2.426   2.396   0.426
 7784SOL    HW224252   2.351   2.536   0.466
 7785SOL     OW24253   1.256   6.441   4.163
 7785SOL    HW124254   1.324   6.375   4.132
 7785SOL    HW224255   1.244   6.433   4.262
 7786SOL     OW24256   3.013   6.013   6.398
 7786SOL    HW124257   2.939   5.987   6.460
 7786SOL    HW224258   3.089   5.949   6.406
 7787SOL     OW24259   2.449   3.503   5.457
 7787SOL    HW124260   2.419   3.413   5.489
 7787SOL    HW224261   2.380   3.541   5.395
 7788SOL     OW24262   1.485   6.782   1.443
 7788SOL    HW124263   1.499   6.873   1.480
 7788SOL    HW224264   1.495   6.714   1.516
 7789SOL     OW24265   3.111   6.996   0.262
 7789SOL    HW124266   3.120   6.999   0.361
 7789SOL    HW224267   3.121   0.062   0.224
 7790SOL     OW24268   5.584   4.733   2.241
 7790SOL    HW124269   5.565   4.635   2.230
 7790SOL    HW224270   5.644   4.746   2.320
 7791SOL     OW24271   2.921   6.390   3.579
 7791SOL    HW124272   2.908   6.482   3.616
 7791SOL    HW224273   2.838   6.361   3.531
 7792SOL     OW24274   0.961   5.590   5.872
 7792SOL    HW124275   1.008   5.568   5.786
 7792SOL    HW224276   1.029   5.602   5.945
 7793SOL     OW24277   1.806   1.040   6.163
 7793SOL    HW124278   1.815   1.109   6.235
 7793SOL    HW224279   1.761   1.080   6.083
 7794SOL     OW24280   4.855   5.101   3.656
 7794SOL    HW124281   4.780   5.135   3.599
 7794SOL    HW224282   4.852   5.145   3.745
 7795SOL     OW24283   2.248   3.631   5.307
 7795SOL    HW124284   2.161   3.678   5.321
 7795SOL    HW224285   2.232   3.541   5.266
 7796SOL     OW24286   2.979   3.742   3.947
 7796SOL    HW124287   3.079   3.735   3.943
 7796SOL    HW224288   2.952   3.793   4.028
 7797SOL     OW24289   0.765   6.193   2.964
 7797SOL    HW124290   0.691   6.225   3.022
 7797SOL    HW224291   0.820   6.270   2.933
 7798SOL     OW24292   1.638   4.983   6.264
 7798SOL    HW124293   1.721   4.976   6.319
 7798SOL    HW224294   1.590   5.067   6.287
 7799SOL     OW24295   6.717   6.588   1.601
 7799SOL    HW124296   6.632   6.577   1.550
 7799SOL    HW224297   6.747   6.498   1.635
 7800SOL     OW24298   1.959   5.163   0.336
 7800SOL    HW124299   1.928   5.110   0.415
 7800SOL    HW224300   1.880   5.206   0.291
 7801SOL     OW24301   2.552   2.220   1.723
 7801SOL    HW124302   2.554   2.121   1.739
 7801SOL    HW224303   2.559   2.268   1.810
 7802SOL     OW24304   5.297   1.962   1.375
 7802SOL    HW124305   5.198   1.969   1.363
 7802SOL    HW224306   5.318   1.897   1.448
 7803SOL     OW24307   4.580   2.986   6.044
 7803SOL    HW124308   4.584   3.037   6.130
 7803SOL    HW224309   4.671   2.983   6.003
 7804SOL     OW24310   5.882   1.461   3.893
 7804SOL    HW124311   5.845   1.513   3.816
 7804SOL    HW224312   5.945   1.519   3.945
 7805SOL     OW24313   5.797   1.317   1.060
 7805SOL    HW124314   5.771   1.272   1.146
 7805SOL    HW224315   5.749   1.273   0.984
 7806SOL     OW24316   5.708   2.266   5.988
 7806SOL    HW124317   5.646   2.285   5.912
 7806SOL    HW224318   5.737   2.171   5.985
 7807SOL     OW24319   7.019   4.361   6.117
 7807SOL    HW124320   6.990   4.445   6.072
 7807SOL    HW224321   0.014   4.379   6.213
 7808SOL     OW24322   0.758   2.894   4.346
 7808SOL    HW124323   0.787   2.980   4.305
 7808SOL    HW224324   0.702   2.912   4.427
 7809SOL     OW24325   2.450   6.183   4.769
 7809SOL    HW124326   2.387   6.223   4.836
 7809SOL    HW224327   2.402   6.116   4.713
 7810SOL     OW24328   3.817   6.880   5.142
 7810SOL    HW124329   3.852   6.819   5.213
 7810SOL    HW224330   3.857   6.971   5.153
 7811SOL     OW24331   0.299   4.872   3.815
 7811SOL    HW124332   0.278   4.816   3.895
 7811SOL    HW224333   0.389   4.848   3.779
 7812SOL     OW24334   1.724   1.946   3.771
 7812SOL    HW124335   1.814   1.931   3.730
 7812SOL    HW224336   1.661   1.875   3.739
 7813SOL     OW24337   3.898   2.390   6.511
 7813SOL    HW124338   3.953   2.414   6.431
 7813SOL    HW224339   3.938   2.431   6.592
 7814SOL     OW24340   6.783   3.537   3.654
 7814SOL    HW124341   6.697   3.490   3.633
 7814SOL    HW224342   6.798   3.609   3.586
 7815SOL     OW24343   4.673   0.625   6.921
 7815SOL    HW124344   4.670   0.684   6.840
 7815SOL    HW224345   4.721   0.541   6.899
 7816SOL     OW24346   1.090   2.798   6.365
 7816SOL    HW124347   1.027   2.724   6.341
 7816SOL    HW224348   1.043   2.886   6.359
 7817SOL     OW24349   5.658   4.260   3.701
 7817SOL    HW124350   5.615   4.282   3.788
 7817SOL    HW224351   5.714   4.337   3.671
 7818SOL     OW24352   4.237   1.070   2.874
 7818SOL    HW124353   4.209   1.139   2.941
 7818SOL    HW224354   4.309   1.013   2.913
 7819SOL     OW24355   6.693   2.986   2.051
 7819SOL    HW124356   6.705   3.036   2.137
 7819SOL    HW224357   6.758   3.020   1.983
 7820SOL     OW24358   1.076   2.308   4.327
 7820SOL    HW124359   1.061   2.298   4.426
 7820SOL    HW224360   1.099   2.403   4.307
 7821SOL     OW24361   4.934   6.299   1.110
 7821SOL    HW124362   4.851   6.353   1.097
 7821SOL    HW224363   4.948   6.239   1.031
 7822SOL     OW24364   0.778   0.541   5.618
 7822SOL    HW124365   0.765   0.442   5.618
 7822SOL    HW224366   0.726   0.583   5.544
 7823SOL     OW24367   2.680   3.948   5.386
 7823SOL    HW124368   2.762   3.961   5.330
 7823SOL    HW224369   2.599   3.966   5.331
 7824SOL     OW24370   5.940   1.544   4.756
 7824SOL    HW124371   5.882   1.489   4.696
 7824SOL    HW224372   5.912   1.531   4.851
 7825SOL     OW24373   1.505   3.300   0.452
 7825SOL    HW124374   1.484   3.343   0.540
 7825SOL    HW224375   1.421   3.271   0.407
 7826SOL     OW24376   6.155   1.542   1.517
 7826SOL    HW124377   6.058   1.562   1.503
 7826SOL    HW224378   6.189   1.595   1.594
 7827SOL     OW24379   2.004   5.859   0.859
 7827SOL    HW124380   1.919   5.814   0.834
 7827SOL    HW224381   2.056   5.798   0.920
 7828SOL     OW24382   6.464   4.425   0.387
 7828SOL    HW124383   6.478   4.524   0.391
 7828SOL    HW224384   6.398   4.399   0.458
 7829SOL     OW24385   2.305   3.631   1.332
 7829SOL    HW124386   2.223   3.647   1.277
 7829SOL    HW224387   2.283   3.570   1.408
 7830SOL     OW24388   3.164   5.045   5.628
 7830SOL    HW124389   3.198   4.995   5.548
 7830SOL    HW224390   3.178   5.143   5.615
 7831SOL     OW24391   1.482   0.059   1.639
 7831SOL    HW124392   1.428   0.093   1.562
 7831SOL    HW224393   1.545   0.130   1.670
 7832SOL     OW24394   6.416   0.384   5.023
 7832SOL    HW124395   6.324   0.401   5.056
 7832SOL    HW224396   6.481   0.438   5.076
 7833SOL     OW24397   1.121   0.715   4.798
 7833SOL    HW124398   1.085   0.716   4.892
 7833SOL    HW224399   1.131   0.809   4.766
 7834SOL     OW24400   6.983   1.587   3.885
 7834SOL    HW124401   6.981   1.541   3.797
 7834SOL    HW224402   0.018   1.538   3.947
 7835SOL     OW24403   3.840   1.961   5.200
 7835SOL    HW124404   3.862   1.899   5.125
 7835SOL    HW224405   3.814   1.908   5.280
 7836SOL     OW24406   3.118   3.888   5.213
 7836SOL    HW124407   3.033   3.898   5.161
 7836SOL    HW224408   3.155   3.796   5.201
 7837SOL     OW24409   4.597   5.732   6.688
 7837SOL    HW124410   4.611   5.722   6.787
 7837SOL    HW224411   4.594   5.829   6.664
 7838SOL     OW24412   4.108   6.713   1.099
 7838SOL    HW124413   4.017   6.703   1.140
 7838SOL    HW224414   4.142   6.805   1.118
 7839SOL     OW24415   6.144   4.184   4.781
 7839SOL    HW124416   6.187   4.271   4.806
 7839SOL    HW224417   6.137   4.178   4.681
 7840SOL     OW24418   0.387   3.342   4.369
 7840SOL    HW124419   0.371   3.371   4.463
 7840SOL    HW224420   0.401   3.423   4.311
 7841SOL     OW24421   3.908   1.945   6.522
 7841SOL    HW124422   3.965   1.902   6.452
 7841SOL    HW224423   3.812   1.921   6.507
 7842SOL     OW24424   2.155   1.269   2.556
 7842SOL    HW124425   2.152   1.177   2.518
 7842SOL    HW224426   2.117   1.334   2.489
 7843SOL     OW24427   0.058   6.014   3.474
 7843SOL    HW124428   0.090   6.025   3.380
 7843SOL    HW224429   0.136   6.010   3.536
 7844SOL     OW24430   2.729   0.679   2.224
 7844SOL    HW124431   2.688   0.665   2.134
 7844SOL    HW224432   2.712   0.599   2.281
 7845SOL     OW24433   4.979   1.701   2.785
 7845SOL    HW124434   4.898   1.702   2.726
 7845SOL    HW224435   5.024   1.612   2.779
 7846SOL     OW24436   1.388   2.442   1.270
 7846SOL    HW124437   1.332   2.374   1.318
 7846SOL    HW224438   1.383   2.529   1.319
 7847SOL     OW24439   6.535   1.353   3.338
 7847SOL    HW124440   6.587   1.310   3.265
 7847SOL    HW224441   6.533   1.452   3.325
 7848SOL     OW24442   3.635   4.723   1.046
 7848SOL    HW124443   3.539   4.750   1.041
 7848SOL    HW224444   3.693   4.805   1.044
 7849SOL     OW24445   6.495   4.342   4.734
 7849SOL    HW124446   6.453   4.380   4.816
 7849SOL    HW224447   6.466   4.394   4.654
 7850SOL     OW24448   0.632   1.207   3.757
 7850SOL    HW124449   0.620   1.295   3.710
 7850SOL    HW224450   0.565   1.200   3.831
 7851SOL     OW24451   0.016   2.150   1.357
 7851SOL    HW124452   6.975   2.139   1.430
 7851SOL    HW224453   0.101   2.187   1.395
 7852SOL     OW24454   3.347   1.309   0.168
 7852SOL    HW124455   3.373   1.321   0.264
 7852SOL    HW224456   3.317   1.215   0.153
 7853SOL     OW24457   4.944   2.881   1.328
 7853SOL    HW124458   4.930   2.889   1.229
 7853SOL    HW224459   4.867   2.921   1.377
 7854SOL     OW24460   3.253   2.813   5.515
 7854SOL    HW124461   3.328   2.775   5.461
 7854SOL    HW224462   3.246   2.911   5.498
 7855SOL     OW24463   4.318   6.340   4.737
 7855SOL    HW124464   4.219   6.322   4.732
 7855SOL    HW224465   4.354   6.302   4.822
 7856SOL     OW24466   0.243   5.613   5.070
 7856SOL    HW124467   0.192   5.623   4.985
 7856SOL    HW224468   0.292   5.698   5.090
 7857SOL     OW24469   4.640   3.148   0.554
 7857SOL    HW124470   4.671   3.078   0.619
 7857SOL    HW224471   4.556   3.117   0.510
 7858SOL     OW24472   6.560   6.613   4.853
 7858SOL    HW124473   6.518   6.702   4.874
 7858SOL    HW224474   6.500   6.540   4.886
 7859SOL     OW24475   4.474   3.213   6.893
 7859SOL    HW124476   4.559   3.169   6.864
 7859SOL    HW224477   4.425   3.154   6.957
 7860SOL     OW24478   4.464   0.878   4.296
 7860SOL    HW124479   4.417   0.791   4.307
 7860SOL    HW224480   4.553   0.864   4.255
 7861SOL     OW24481   2.963   4.962   1.708
 7861SOL    HW124482   3.052   4.924   1.734
 7861SOL    HW224483   2.894   4.890   1.712
 7862SOL     OW24484   2.029   4.997   2.409
 7862SOL    HW124485   2.103   4.930   2.410
 7862SOL    HW224486   2.002   5.015   2.315
 7863SOL     OW24487   0.189   4.113   3.815
 7863SOL    HW124488   0.187   4.015   3.835
 7863SOL    HW224489   0.241   4.129   3.732
 7864SOL     OW24490   0.889   5.448   5.524
 7864SOL    HW124491   0.818   5.413   5.585
 7864SOL    HW224492   0.978   5.433   5.565
 7865SOL     OW24493   6.536   5.646   4.370
 7865SOL    HW124494   6.506   5.564   4.321
 7865SOL    HW224495   6.538   5.724   4.308
 7866SOL     OW24496   0.886   0.415   5.895
 7866SOL    HW124497   0.968   0.431   5.839
 7866SOL    HW224498   0.809   0.392   5.836
 7867SOL     OW24499   5.829   6.269   3.098
 7867SOL    HW124500   5.835   6.266   3.198
 7867SOL    HW224501   5.820   6.176   3.063
 7868SOL     OW24502   4.406   5.877   1.199
 7868SOL    HW124503   4.486   5.818   1.185
 7868SOL    HW224504   4.392   5.891   1.297
 7869SOL     OW24505   5.484   4.369   6.169
 7869SOL    HW124506   5.451   4.462   6.181
 7869SOL    HW224507   5.441   4.309   6.236
 7870SOL     OW24508   5.159   6.344   4.447
 7870SOL    HW124509   5.085   6.330   4.512
 7870SOL    HW224510   5.247   6.329   4.494
 7871SOL     OW24511   4.719   2.464   1.946
 7871SOL    HW124512   4.660   2.447   1.867
 7871SOL    HW224513   4.799   2.517   1.917
 7872SOL     OW24514   1.892   3.964   2.946
 7872SOL    HW124515   1.895   4.052   2.898
 7872SOL    HW224516   1.822   3.968   3.016
 7873SOL     OW24517   6.425   0.103   0.296
 7873SOL    HW124518   6.505   0.085   0.239
 7873SOL    HW224519   6.342   0.094   0.241
 7874SOL     OW24520   4.555   2.578   0.929
 7874SOL    HW124521   4.590   2.501   0.875
 7874SOL    HW224522   4.490   2.544   0.997
 7875SOL     OW24523   4.145   2.559   0.161
 7875SOL    HW124524   4.153   2.618   0.241
 7875SOL    HW224525   4.085   2.481   0.184
 7876SOL     OW24526   1.090   6.192   3.655
 7876SOL    HW124527   1.096   6.132   3.734
 7876SOL    HW224528   1.162   6.168   3.590
 7877SOL     OW24529   0.377   1.248   2.977
 7877SOL    HW124530   0.424   1.332   2.952
 7877SOL    HW224531   0.439   1.170   2.968
 7878SOL     OW24532   4.648   4.523   3.805
 7878SOL    HW124533   4.698   4.462   3.867
 7878SOL    HW224534   4.562   4.550   3.847
 7879SOL     OW24535   4.024   5.420   2.667
 7879SOL    HW124536   3.939   5.398   2.619
 7879SOL    HW224537   4.010   5.408   2.765
 7880SOL     OW24538   2.040   4.065   1.638
 7880SOL    HW124539   2.018   3.995   1.705
 7880SOL    HW224540   2.067   4.022   1.552
 7881SOL     OW24541   4.962   4.159   4.762
 7881SOL    HW124542   4.948   4.078   4.706
 7881SOL    HW224543   5.000   4.233   4.705
 7882SOL     OW24544   1.834   3.687   1.760
 7882SOL    HW124545   1.873   3.611   1.706
 7882SOL    HW224546   1.769   3.650   1.826
 7883SOL     OW24547   0.910   0.663   6.206
 7883SOL    HW124548   0.862   0.576   6.193
 7883SOL    HW224549   1.008   0.646   6.216
 7884SOL     OW24550   1.174   3.806   4.760
 7884SOL    HW124551   1.129   3.792   4.849
 7884SOL    HW224552   1.247   3.874   4.770
 7885SOL     OW24553   6.829   5.721   0.969
 7885SOL    HW124554   6.729   5.722   0.976
 7885SOL    HW224555   6.864   5.630   0.988
 7886SOL     OW24556   3.960   6.309   6.879
 7886SOL    HW124557   4.041   6.263   6.918
 7886SOL    HW224558   3.964   6.303   6.779
 7887SOL     OW24559   3.605   2.409   6.087
 7887SOL    HW124560   3.689   2.463   6.087
 7887SOL    HW224561   3.537   2.452   6.147
 7888SOL     OW24562   6.176   0.300   5.351
 7888SOL    HW124563   6.089   0.278   5.307
 7888SOL    HW224564   6.189   0.399   5.352
 7889SOL     OW24565   1.996   4.723   1.924
 7889SOL    HW124566   2.043   4.636   1.913
 7889SOL    HW224567   2.015   4.782   1.845
 7890SOL     OW24568   1.513   3.860   2.703
 7890SOL    HW124569   1.600   3.809   2.705
 7890SOL    HW224570   1.447   3.814   2.762
 7891SOL     OW24571   1.372   4.004   3.098
 7891SOL    HW124572   1.390   3.919   3.146
 7891SOL    HW224573   1.274   4.012   3.078
 7892SOL     OW24574   2.021   2.748   4.097
 7892SOL    HW124575   2.070   2.762   4.183
 7892SOL    HW224576   1.997   2.837   4.058
 7893SOL     OW24577   6.637   6.957   2.768
 7893SOL    HW124578   6.589   6.978   2.853
 7893SOL    HW224579   6.675   0.014   2.729
 7894SOL     OW24580   2.803   6.505   1.731
 7894SOL    HW124581   2.827   6.482   1.636
 7894SOL    HW224582   2.759   6.426   1.774
 7895SOL     OW24583   6.327   1.325   5.700
 7895SOL    HW124584   6.262   1.250   5.711
 7895SOL    HW224585   6.398   1.318   5.769
 7896SOL     OW24586   5.183   4.101   6.583
 7896SOL    HW124587   5.168   4.028   6.650
 7896SOL    HW224588   5.153   4.188   6.622
 7897SOL     OW24589   2.580   3.895   6.218
 7897SOL    HW124590   2.560   3.947   6.135
 7897SOL    HW224591   2.602   3.801   6.194
 7898SOL     OW24592   5.590   2.251   3.685
 7898SOL    HW124593   5.544   2.334   3.716
 7898SOL    HW224594   5.648   2.215   3.758
 7899SOL     OW24595   6.450   1.436   1.778
 7899SOL    HW124596   6.359   1.395   1.784
 7899SOL    HW224597   6.492   1.412   1.691
 7900SOL     OW24598   1.373   5.354   1.248
 7900SOL    HW124599   1.326   5.356   1.160
 7900SOL    HW224600   1.313   5.312   1.317
 7901SOL     OW24601   4.902   0.614   6.598
 7901SOL    HW124602   4.830   0.656   6.654
 7901SOL    HW224603   4.977   0.679   6.587
 7902SOL     OW24604   5.728   5.146   1.862
 7902SOL    HW124605   5.645   5.098   1.889
 7902SOL    HW224606   5.787   5.084   1.810
 7903SOL     OW24607   6.223   2.294   0.756
 7903SOL    HW124608   6.208   2.301   0.854
 7903SOL    HW224609   6.164   2.223   0.718
 7904SOL     OW24610   5.970   0.587   3.177
 7904SOL    HW124611   6.065   0.575   3.206
 7904SOL    HW224612   5.919   0.633   3.250
 7905SOL     OW24613   4.423   2.009   0.301
 7905SOL    HW124614   4.480   1.927   0.309
 7905SOL    HW224615   4.407   2.029   0.204
 7906SOL     OW24616   0.563   5.771   0.359
 7906SOL    HW124617   0.624   5.849   0.371
 7906SOL    HW224618   0.478   5.801   0.317
 7907SOL     OW24619   6.015   2.110   4.033
 7907SOL    HW124620   5.941   2.132   3.969
 7907SOL    HW224621   6.000   2.019   4.072
 7908SOL     OW24622   1.267   1.380   4.438
 7908SOL    HW124623   1.352   1.340   4.472
 7908SOL    HW224624   1.247   1.343   4.348
 7909SOL     OW24625   5.366   3.813   5.093
 7909SOL    HW124626   5.465   3.809   5.104
 7909SOL    HW224627   5.323   3.745   5.153
 7910SOL     OW24628   2.964   2.707   5.694
 7910SOL    HW124629   2.884   2.745   5.649
 7910SOL    HW224630   3.047   2.738   5.646
 7911SOL     OW24631   0.947   3.452   6.390
 7911SOL    HW124632   1.034   3.494   6.365
 7911SOL    HW224633   0.964   3.372   6.448
 7912SOL     OW24634   0.392   5.213   0.225
 7912SOL    HW124635   0.469   5.160   0.257
 7912SOL    HW224636   0.422   5.276   0.153
 7913SOL     OW24637   1.313   4.954   0.378
 7913SOL    HW124638   1.300   5.032   0.440
 7913SOL    HW224639   1.406   4.956   0.341
 7914SOL     OW24640   0.394   4.750   6.674
 7914SOL    HW124641   0.471   4.799   6.713
 7914SOL    HW224642   0.317   4.813   6.661
 7915SOL     OW24643   4.827   2.599   2.297
 7915SOL    HW124644   4.772   2.625   2.217
 7915SOL    HW224645   4.881   2.677   2.328
 7916SOL     OW24646   6.187   3.944   5.430
 7916SOL    HW124647   6.264   3.997   5.466
 7916SOL    HW224648   6.169   3.972   5.336
 7917SOL     OW24649   3.433   2.991   3.944
 7917SOL    HW124650   3.492   3.071   3.957
 7917SOL    HW224651   3.411   2.981   3.848
 7918SOL     OW24652   0.324   1.502   0.518
 7918SOL    HW124653   0.374   1.531   0.437
 7918SOL    HW224654   0.226   1.504   0.500
 7919SOL     OW24655   0.081   4.536   3.160
 7919SOL    HW124656   0.026   4.545   3.243
 7919SOL    HW224657   0.160   4.597   3.165
 7920SOL     OW24658   0.285   4.702   1.582
 7920SOL    HW124659   0.215   4.706   1.654
 7920SOL    HW224660   0.261   4.764   1.508
 7921SOL     OW24661   3.695   5.560   0.184
 7921SOL    HW124662   3.777   5.599   0.225
 7921SOL    HW224663   3.639   5.517   0.255
 7922SOL     OW24664   6.742   5.801   0.425
 7922SOL    HW124665   6.680   5.879   0.429
 7922SOL    HW224666   6.817   5.815   0.490
 7923SOL     OW24667   2.692   0.413   2.420
 7923SOL    HW124668   2.720   0.330   2.467
 7923SOL    HW224669   2.593   0.411   2.406
 7924SOL     OW24670   3.523   6.339   3.149
 7924SOL    HW124671   3.534   6.246   3.184
 7924SOL    HW224672   3.549   6.405   3.219
 7925SOL     OW24673   0.485   1.782   6.386
 7925SOL    HW124674   0.473   1.880   6.405
 7925SOL    HW224675   0.558   1.746   6.444
 7926SOL     OW24676   4.520   1.125   4.428
 7926SOL    HW124677   4.602   1.111   4.484
 7926SOL    HW224678   4.525   1.066   4.347
 7927SOL     OW24679   3.966   5.644   5.014
 7927SOL    HW124680   3.984   5.560   5.066
 7927SOL    HW224681   3.990   5.629   4.918
 7928SOL     OW24682   0.968   3.389   4.153
 7928SOL    HW124683   1.032   3.315   4.131
 7928SOL    HW224684   0.875   3.358   4.136
 7929SOL     OW24685   4.195   4.041   5.316
 7929SOL    HW124686   4.282   4.060   5.361
 7929SOL    HW224687   4.196   3.947   5.281
 7930SOL     OW24688   4.783   5.772   3.955
 7930SOL    HW124689   4.789   5.872   3.947
 7930SOL    HW224690   4.847   5.740   4.025
 7931SOL     OW24691   1.529   2.090   6.575
 7931SOL    HW124692   1.606   2.142   6.539
 7931SOL    HW224693   1.443   2.132   6.544
 7932SOL     OW24694   2.591   6.629   0.476
 7932SOL    HW124695   2.500   6.668   0.488
 7932SOL    HW224696   2.643   6.684   0.411
 7933SOL     OW24697   6.817   6.960   0.326
 7933SOL    HW124698   6.762   7.005   0.255
 7933SOL    HW224699   6.757   6.925   0.397
 7934SOL     OW24700   2.575   4.216   6.863
 7934SOL    HW124701   2.600   4.142   6.801
 7934SOL    HW224702   2.571   4.302   6.813
 7935SOL     OW24703   4.897   5.484   0.113
 7935SOL    HW124704   4.819   5.436   0.073
 7935SOL    HW224705   4.979   5.466   0.058
 7936SOL     OW24706   3.581   5.483   2.303
 7936SOL    HW124707   3.564   5.401   2.249
 7936SOL    HW224708   3.568   5.462   2.400
 7937SOL     OW24709   5.355   6.640   3.852
 7937SOL    HW124710   5.447   6.613   3.878
 7937SOL    HW224711   5.357   6.686   3.764
 7938SOL     OW24712   5.310   4.746   5.146
 7938SOL    HW124713   5.338   4.842   5.147
 7938SOL    HW224714   5.338   4.704   5.060
 7939SOL     OW24715   0.398   2.053   6.018
 7939SOL    HW124716   0.397   2.152   6.033
 7939SOL    HW224717   0.412   2.034   5.921
 7940SOL     OW24718   2.213   4.671   2.362
 7940SOL    HW124719   2.300   4.621   2.364
 7940SOL    HW224720   2.215   4.737   2.287
 7941SOL     OW24721   0.043   6.780   1.308
 7941SOL    HW124722   0.076   6.832   1.386
 7941SOL    HW224723   6.970   6.787   1.303
 7942SOL     OW24724   6.775   6.100   2.975
 7942SOL    HW124725   6.795   6.153   2.892
 7942SOL    HW224726   6.849   6.113   3.041
 7943SOL     OW24727   5.602   1.945   1.003
 7943SOL    HW124728   5.506   1.952   1.032
 7943SOL    HW224729   5.605   1.908   0.910
 7944SOL     OW24730   0.461   3.007   0.559
 7944SOL    HW124731   0.479   2.946   0.481
 7944SOL    HW224732   0.508   3.094   0.545
 7945SOL     OW24733   5.684   0.069   2.559
 7945SOL    HW124734   5.590   0.046   2.535
 7945SOL    HW224735   5.728   7.017   2.602
 7946SOL     OW24736   1.971   2.828   5.822
 7946SOL    HW124737   1.882   2.786   5.843
 7946SOL    HW224738   2.036   2.757   5.798
 7947SOL     OW24739   3.810   3.008   6.441
 7947SOL    HW124740   3.803   2.975   6.535
 7947SOL    HW224741   3.784   3.105   6.438
 7948SOL     OW24742   0.370   6.457   1.365
 7948SOL    HW124743   0.308   6.385   1.398
 7948SOL    HW224744   0.329   6.502   1.286
 7949SOL     OW24745   4.434   4.636   3.564
 7949SOL    HW124746   4.478   4.726   3.573
 7949SOL    HW224747   4.359   4.629   3.629
 7950SOL     OW24748   4.894   5.520   3.417
 7950SOL    HW124749   4.957   5.444   3.435
 7950SOL    HW224750   4.833   5.532   3.495
 7951SOL     OW24751   2.233   3.837   0.716
 7951SOL    HW124752   2.140   3.846   0.750
 7951SOL    HW224753   2.291   3.906   0.759
 7952SOL     OW24754   7.013   3.494   6.678
 7952SOL    HW124755   6.934   3.494   6.739
 7952SOL    HW224756   0.065   3.455   6.725
 7953SOL     OW24757   1.971   3.025   3.238
 7953SOL    HW124758   2.064   3.062   3.235
 7953SOL    HW224759   1.933   3.024   3.145
 7954SOL     OW24760   4.521   4.752   5.430
 7954SOL    HW124761   4.548   4.739   5.526
 7954SOL    HW224762   4.602   4.753   5.372
 7955SOL     OW24763   1.165   6.451   6.081
 7955SOL    HW124764   1.173   6.386   6.005
 7955SOL    HW224765   1.252   6.500   6.092
 7956SOL     OW24766   1.343   6.220   2.701
 7956SOL    HW124767   1.298   6.297   2.746
 7956SOL    HW224768   1.293   6.197   2.617
 7957SOL     OW24769   2.071   1.336   0.519
 7957SOL    HW124770   2.123   1.263   0.565
 7957SOL    HW224771   2.116   1.424   0.535
 7958SOL     OW24772   3.002   5.543   4.474
 7958SOL    HW124773   3.003   5.570   4.378
 7958SOL    HW224774   3.095   5.535   4.508
 7959SOL     OW24775   4.251   5.396   1.067
 7959SOL    HW124776   4.204   5.385   1.154
 7959SOL    HW224777   4.185   5.401   0.993
 7960SOL     OW24778   3.946   1.627   0.575
 7960SOL    HW124779   3.911   1.641   0.668
 7960SOL    HW224780   4.016   1.696   0.555
 7961SOL     OW24781   1.674   6.112   6.677
 7961SOL    HW124782   1.616   6.131   6.597
 7961SOL    HW224783   1.721   6.195   6.704
 7962SOL     OW24784   1.870   0.538   0.021
 7962SOL    HW124785   1.969   0.547   0.035
 7962SOL    HW224786   1.853   0.459   6.989
 7963SOL     OW24787   6.157   1.204   4.241
 7963SOL    HW124788   6.161   1.217   4.142
 7963SOL    HW224789   6.191   1.113   4.265
 7964SOL     OW24790   6.225   5.304   3.914
 7964SOL    HW124791   6.296   5.330   3.980
 7964SOL    HW224792   6.138   5.294   3.961
 7965SOL     OW24793   3.351   2.696   6.658
 7965SOL    HW124794   3.426   2.743   6.611
 7965SOL    HW224795   3.372   2.599   6.666
 7966SOL     OW24796   0.674   3.531   5.041
 7966SOL    HW124797   0.607   3.522   5.115
 7966SOL    HW224798   0.648   3.472   4.965
 7967SOL     OW24799   2.831   6.383   4.059
 7967SOL    HW124800   2.923   6.397   4.022
 7967SOL    HW224801   2.797   6.468   4.098
 7968SOL     OW24802   2.244   2.773   3.425
 7968SOL    HW124803   2.236   2.814   3.335
 7968SOL    HW224804   2.294   2.686   3.418
 7969SOL     OW24805   4.737   0.343   2.355
 7969SOL    HW124806   4.729   0.408   2.279
 7969SOL    HW224807   4.650   0.339   2.405
 7970SOL     OW24808   0.216   3.599   2.686
 7970SOL    HW124809   0.153   3.611   2.763
 7970SOL    HW224810   0.292   3.541   2.714
 7971SOL     OW24811   3.391   1.716   1.022
 7971SOL    HW124812   3.342   1.676   0.945
 7971SOL    HW224813   3.398   1.649   1.096
 7972SOL     OW24814   0.396   4.160   1.392
 7972SOL    HW124815   0.373   4.214   1.312
 7972SOL    HW224816   0.318   4.156   1.454
 7973SOL     OW24817   5.101   3.377   2.852
 7973SOL    HW124818   5.014   3.339   2.822
 7973SOL    HW224819   5.106   3.474   2.825
 7974SOL     OW24820   5.184   0.217   4.887
 7974SOL    HW124821   5.197   0.263   4.799
 7974SOL    HW224822   5.167   0.120   4.871
 7975SOL     OW24823   5.596   0.289   3.893
 7975SOL    HW124824   5.544   0.303   3.810
 7975SOL    HW224825   5.683   0.338   3.887
 7976SOL     OW24826   0.439   0.415   5.898
 7976SOL    HW124827   0.472   0.490   5.955
 7976SOL    HW224828   0.462   0.433   5.802
 7977SOL     OW24829   4.320   5.638   2.201
 7977SOL    HW124830   4.384   5.664   2.129
 7977SOL    HW224831   4.291   5.720   2.251
 7978SOL     OW24832   5.786   3.678   5.955
 7978SOL    HW124833   5.720   3.721   6.016
 7978SOL    HW224834   5.858   3.634   6.009
 7979SOL     OW24835   2.948   0.665   5.333
 7979SOL    HW124836   2.877   0.633   5.270
 7979SOL    HW224837   2.946   0.610   5.417
 7980SOL     OW24838   3.007   6.078   0.011
 7980SOL    HW124839   3.089   6.126   0.046
 7980SOL    HW224840   3.034   5.992   6.996
 7981SOL     OW24841   0.463   5.547   2.150
 7981SOL    HW124842   0.384   5.571   2.206
 7981SOL    HW224843   0.542   5.529   2.209
 7982SOL     OW24844   6.909   1.936   0.897
 7982SOL    HW124845   6.843   1.903   0.964
 7982SOL    HW224846   6.862   1.953   0.810
 7983SOL     OW24847   5.503   2.070   2.872
 7983SOL    HW124848   5.471   2.101   2.962
 7983SOL    HW224849   5.539   2.148   2.821
 7984SOL     OW24850   1.631   1.803   1.629
 7984SOL    HW124851   1.559   1.865   1.662
 7984SOL    HW224852   1.704   1.797   1.698
 7985SOL     OW24853   1.897   6.760   3.283
 7985SOL    HW124854   1.996   6.744   3.291
 7985SOL    HW224855   1.869   6.746   3.189
 7986SOL     OW24856   3.512   0.941   6.823
 7986SOL    HW124857   3.419   0.903   6.821
 7986SOL    HW224858   3.514   1.028   6.773
 7987SOL     OW24859   0.154   3.889   6.291
 7987SOL    HW124860   0.055   3.904   6.289
 7987SOL    HW224861   0.174   3.802   6.337
 7988SOL     OW24862   1.984   1.982   4.715
 7988SOL    HW124863   1.936   1.993   4.628
 7988SOL    HW224864   1.921   1.947   4.784
 7989SOL     OW24865   3.434   2.192   5.240
 7989SOL    HW124866   3.478   2.153   5.159
 7989SOL    HW224867   3.347   2.234   5.213
 7990SOL     OW24868   6.682   3.918   3.444
 7990SOL    HW124869   6.685   3.964   3.356
 7990SOL    HW224870   6.589   3.888   3.464
 7991SOL     OW24871   6.490   1.538   5.295
 7991SOL    HW124872   6.481   1.469   5.367
 7991SOL    HW224873   6.406   1.543   5.242
 7992SOL     OW24874   1.582   6.470   0.751
 7992SOL    HW124875   1.580   6.535   0.675
 7992SOL    HW224876   1.667   6.417   0.747
 7993SOL     OW24877   1.646   5.817   6.407
 7993SOL    HW124878   1.612   5.886   6.343
 7993SOL    HW224879   1.569   5.782   6.462
 7994SOL     OW24880   4.709   0.589   3.389
 7994SOL    HW124881   4.671   0.523   3.325
 7994SOL    HW224882   4.644   0.603   3.464
 7995SOL     OW24883   4.063   5.670   3.551
 7995SOL    HW124884   4.111   5.598   3.601
 7995SOL    HW224885   4.041   5.638   3.459
 7996SOL     OW24886   2.591   6.521   4.425
 7996SOL    HW124887   2.679   6.568   4.421
 7996SOL    HW224888   2.531   6.556   4.353
 7997SOL     OW24889   0.100   1.301   0.898
 7997SOL    HW124890   0.128   1.222   0.842
 7997SOL    HW224891   0.143   1.295   0.988
 7998SOL     OW24892   4.074   5.398   0.860
 7998SOL    HW124893   3.991   5.446   0.889
 7998SOL    HW224894   4.103   5.433   0.771
 7999SOL     OW24895   1.182   0.712   6.262
 7999SOL    HW124896   1.180   0.727   6.361
 7999SOL    HW224897   1.272   0.675   6.236
 8000SOL     OW24898   5.891   0.583   0.055
 8000SOL    HW124899   5.941   0.608   6.999
 8000SOL    HW224900   5.797   0.616   0.048
 8001SOL     OW24901   3.332   6.280   1.502
 8001SOL    HW124902   3.372   6.295   1.411
 8001SOL    HW224903   3.289   6.189   1.504
 8002SOL     OW24904   0.315   3.096   5.974
 8002SOL    HW124905   0.307   2.997   5.985
 8002SOL    HW224906   0.338   3.118   5.879
 8003SOL     OW24907   2.480   4.570   2.295
 8003SOL    HW124908   2.454   4.515   2.215
 8003SOL    HW224909   2.553   4.633   2.270
 8004SOL     OW24910   1.482   4.549   3.118
 8004SOL    HW124911   1.521   4.491   3.047
 8004SOL    HW224912   1.404   4.502   3.160
 8005SOL     OW24913   3.473   1.638   1.882
 8005SOL    HW124914   3.410   1.648   1.959
 8005SOL    HW224915   3.567   1.634   1.916
 8006SOL     OW24916   2.533   6.360   0.434
 8006SOL    HW124917   2.558   6.456   0.445
 8006SOL    HW224918   2.581   6.305   0.504
 8007SOL     OW24919   1.035   6.427   4.003
 8007SOL    HW124920   1.029   6.329   3.987
 8007SOL    HW224921   1.122   6.449   4.047
 8008SOL     OW24922   4.718   6.888   5.906
 8008SOL    HW124923   4.810   6.855   5.885
 8008SOL    HW224924   4.651   6.822   5.873
 8009SOL     OW24925   6.205   0.151   3.901
 8009SOL    HW124926   6.108   0.130   3.911
 8009SOL    HW224927   6.243   0.101   3.823
 8010SOL     OW24928   1.614   1.512   0.062
 8010SOL    HW124929   1.587   1.438   0.001
 8010SOL    HW224930   1.605   1.599   0.014
 8011SOL     OW24931   2.472   2.913   1.405
 8011SOL    HW124932   2.458   2.942   1.310
 8011SOL    HW224933   2.494   2.816   1.407
 8012SOL     OW24934   2.153   5.460   1.361
 8012SOL    HW124935   2.224   5.528   1.344
 8012SOL    HW224936   2.099   5.487   1.441
 8013SOL     OW24937   0.684   5.266   4.897
 8013SOL    HW124938   0.741   5.336   4.942
 8013SOL    HW224939   0.743   5.200   4.850
 8014SOL     OW24940   1.030   6.337   5.304
 8014SOL    HW124941   1.111   6.392   5.320
 8014SOL    HW224942   0.948   6.389   5.327
 8015SOL     OW24943   2.910   1.509   0.112
 8015SOL    HW124944   2.863   1.555   0.036
 8015SOL    HW224945   3.003   1.544   0.120
 8016SOL     OW24946   4.327   0.104   6.452
 8016SOL    HW124947   4.250   0.158   6.486
 8016SOL    HW224948   4.404   0.114   6.514
 8017SOL     OW24949   6.469   5.014   6.386
 8017SOL    HW124950   6.506   4.973   6.469
 8017SOL    HW224951   6.381   4.973   6.364
 8018SOL     OW24952   4.047   2.437   6.274
 8018SOL    HW124953   4.146   2.437   6.281
 8018SOL    HW224954   4.017   2.500   6.202
 8019SOL     OW24955   1.887   3.990   0.079
 8019SOL    HW124956   1.853   4.061   0.141
 8019SOL    HW224957   1.810   3.952   0.027
 8020SOL     OW24958   6.489   6.253   0.847
 8020SOL    HW124959   6.465   6.293   0.758
 8020SOL    HW224960   6.503   6.155   0.837
 8021SOL     OW24961   1.423   2.075   2.008
 8021SOL    HW124962   1.520   2.051   2.016
 8021SOL    HW224963   1.367   1.994   2.022
 8022SOL     OW24964   4.387   0.633   3.142
 8022SOL    HW124965   4.309   0.586   3.183
 8022SOL    HW224966   4.469   0.578   3.154
 8023SOL     OW24967   5.919   5.982   3.535
 8023SOL    HW124968   5.862   5.922   3.590
 8023SOL    HW224969   6.012   5.983   3.573
 8024SOL     OW24970   3.092   4.703   0.283
 8024SOL    HW124971   3.071   4.795   0.249
 8024SOL    HW224972   3.029   4.637   0.242
 8025SOL     OW24973   2.894   6.132   5.562
 8025SOL    HW124974   2.947   6.054   5.596
 8025SOL    HW224975   2.929   6.160   5.472
 8026SOL     OW24976   0.713   4.255   6.866
 8026SOL    HW124977   0.790   4.275   6.805
 8026SOL    HW224978   0.725   4.165   6.907
 8027SOL     OW24979   4.656   2.134   5.362
 8027SOL    HW124980   4.729   2.066   5.347
 8027SOL    HW224981   4.698   2.222   5.385
 8028SOL     OW24982   3.869   4.878   6.326
 8028SOL    HW124983   3.780   4.923   6.313
 8028SOL    HW224984   3.942   4.939   6.298
 8029SOL     OW24985   5.669   4.014   0.125
 8029SOL    HW124986   5.726   4.093   0.103
 8029SOL    HW224987   5.573   4.042   0.125
 8030SOL     OW24988   5.980   4.184   6.460
 8030SOL    HW124989   5.954   4.090   6.438
 8030SOL    HW224990   5.919   4.247   6.411
 8031SOL     OW24991   4.683   5.921   2.625
 8031SOL    HW124992   4.694   5.832   2.669
 8031SOL    HW224993   4.607   5.917   2.560
 8032SOL     OW24994   5.601   4.245   5.372
 8032SOL    HW124995   5.587   4.340   5.342
 8032SOL    HW224996   5.660   4.245   5.453
 8033SOL     OW24997   4.905   3.427   0.118
 8033SOL    HW124998   4.955   3.383   0.043
 8033SOL    HW224999   4.830   3.368   0.147
 8034SOL     OW25000   5.787   1.458   5.440
 8034SOL    HW125001   5.787   1.545   5.390
 8034SOL    HW225002   5.773   1.383   5.376
 8035SOL     OW25003   4.564   6.869   5.090
 8035SOL    HW125004   4.495   6.910   5.031
 8035SOL    HW225005   4.637   6.829   5.034
 8036SOL     OW25006   1.101   4.061   2.218
 8036SOL    HW125007   1.110   3.966   2.191
 8036SOL    HW225008   1.162   4.117   2.162
 8037SOL     OW25009   1.501   3.735   1.765
 8037SOL    HW125010   1.549   3.648   1.755
 8037SOL    HW225011   1.548   3.790   1.835
 8038SOL     OW25012   4.856   1.300   2.341
 8038SOL    HW125013   4.761   1.280   2.319
 8038SOL    HW225014   4.912   1.219   2.325
 8039SOL     OW25015   1.383   6.783   3.280
 8039SOL    HW125016   1.416   6.706   3.335
 8039SOL    HW225017   1.436   6.865   3.302
 8040SOL     OW25018   1.663   6.005   1.139
 8040SOL    HW125019   1.613   6.004   1.226
 8040SOL    HW225020   1.599   5.989   1.063
 8041SOL     OW25021   3.271   2.053   1.974
 8041SOL    HW125022   3.353   2.073   2.028
 8041SOL    HW225023   3.275   2.104   1.888
 8042SOL     OW25024   3.551   2.956   2.686
 8042SOL    HW125025   3.637   2.919   2.652
 8042SOL    HW225026   3.475   2.915   2.636
 8043SOL     OW25027   3.914   6.233   0.560
 8043SOL    HW125028   3.857   6.212   0.480
 8043SOL    HW225029   3.932   6.331   0.564
 8044SOL     OW25030   3.089   3.757   0.996
 8044SOL    HW125031   3.050   3.810   0.920
 8044SOL    HW225032   3.015   3.723   1.055
 8045SOL     OW25033   5.392   0.668   2.180
 8045SOL    HW125034   5.424   0.748   2.129
 8045SOL    HW225035   5.308   0.633   2.140
 8046SOL     OW25036   6.285   5.039   6.631
 8046SOL    HW125037   6.354   4.968   6.622
 8046SOL    HW225038   6.330   5.127   6.649
 8047SOL     OW25039   3.777   4.942   5.146
 8047SOL    HW125040   3.814   5.035   5.153
 8047SOL    HW225041   3.731   4.919   5.232
 8048SOL     OW25042   4.976   1.035   5.683
 8048SOL    HW125043   5.038   0.982   5.741
 8048SOL    HW225044   4.998   1.018   5.587
 8049SOL     OW25045   0.984   6.967   1.375
 8049SOL    HW125046   0.937   6.889   1.334
 8049SOL    HW225047   1.003   0.008   1.304
 8050SOL     OW25048   0.808   4.147   1.884
 8050SOL    HW125049   0.869   4.073   1.914
 8050SOL    HW225050   0.727   4.150   1.943
 8051SOL     OW25051   4.994   6.579   2.933
 8051SOL    HW125052   4.957   6.548   3.021
 8051SOL    HW225053   5.051   6.660   2.947
 8052SOL     OW25054   3.567   1.300   2.249
 8052SOL    HW125055   3.631   1.246   2.196
 8052SOL    HW225056   3.496   1.336   2.189
 8053SOL     OW25057   3.613   3.525   2.778
 8053SOL    HW125058   3.587   3.508   2.683
 8053SOL    HW225059   3.533   3.555   2.830
 8054SOL     OW25060   5.637   6.184   4.162
 8054SOL    HW125061   5.620   6.188   4.260
 8054SOL    HW225062   5.551   6.170   4.114
 8055SOL     OW25063   0.411   0.259   6.101
 8055SOL    HW125064   0.433   0.323   6.028
 8055SOL    HW225065   0.314   0.269   6.126
 8056SOL     OW25066   4.188   1.253   3.561
 8056SOL    HW125067   4.277   1.227   3.597
 8056SOL    HW225068   4.160   1.340   3.603
 8057SOL     OW25069   2.363   1.207   2.173
 8057SOL    HW125070   2.430   1.217   2.100
 8057SOL    HW225071   2.395   1.140   2.239
 8058SOL     OW25072   3.060   0.349   2.757
 8058SOL    HW125073   3.063   0.254   2.788
 8058SOL    HW225074   2.998   0.401   2.817
 8059SOL     OW25075   4.176   2.223   4.836
 8059SOL    HW125076   4.170   2.149   4.904
 8059SOL    HW225077   4.197   2.309   4.882
 8060SOL     OW25078   0.231   1.263   4.217
 8060SOL    HW125079   0.284   1.347   4.205
 8060SOL    HW225080   0.242   1.231   4.311
 8061SOL     OW25081   6.820   6.763   1.960
 8061SOL    HW125082   6.795   6.666   1.962
 8061SOL    HW225083   6.800   6.803   2.050
 8062SOL     OW25084   2.358   4.287   4.034
 8062SOL    HW125085   2.315   4.337   4.109
 8062SOL    HW225086   2.300   4.210   4.007
 8063SOL     OW25087   1.738   3.532   0.794
 8063SOL    HW125088   1.781   3.549   0.883
 8063SOL    HW225089   1.771   3.445   0.758
 8064SOL     OW25090   0.331   4.559   1.177
 8064SOL    HW125091   0.386   4.515   1.106
 8064SOL    HW225092   0.350   4.658   1.177
 8065SOL     OW25093   4.522   6.557   3.388
 8065SOL    HW125094   4.500   6.534   3.483
 8065SOL    HW225095   4.522   6.657   3.378
 8066SOL     OW25096   1.440   1.563   6.703
 8066SOL    HW125097   1.449   1.587   6.800
 8066SOL    HW225098   1.386   1.633   6.656
 8067SOL     OW25099   4.599   3.189   1.441
 8067SOL    HW125100   4.606   3.205   1.343
 8067SOL    HW225101   4.518   3.133   1.461
 8068SOL     OW25102   6.751   5.491   6.509
 8068SOL    HW125103   6.847   5.464   6.515
 8068SOL    HW225104   6.697   5.412   6.479
 8069SOL     OW25105   2.269   5.914   1.328
 8069SOL    HW125106   2.218   5.974   1.267
 8069SOL    HW225107   2.208   5.876   1.398
 8070SOL     OW25108   3.148   4.251   0.643
 8070SOL    HW125109   3.245   4.237   0.659
 8070SOL    HW225110   3.096   4.222   0.723
 8071SOL     OW25111   2.972   6.315   4.423
 8071SOL    HW125112   3.041   6.249   4.396
 8071SOL    HW225113   2.903   6.323   4.351
 8072SOL     OW25114   3.385   1.378   0.457
 8072SOL    HW125115   3.313   1.366   0.526
 8072SOL    HW225116   3.440   1.459   0.480
 8073SOL     OW25117   5.109   0.035   6.589
 8073SOL    HW125118   5.184   0.009   6.649
 8073SOL    HW225119   5.033   6.997   6.601
 8074SOL     OW25120   3.046   2.630   6.711
 8074SOL    HW125121   3.065   2.692   6.635
 8074SOL    HW225122   3.113   2.646   6.784
 8075SOL     OW25123   6.669   0.958   1.695
 8075SOL    HW125124   6.592   0.895   1.684
 8075SOL    HW225125   6.686   1.005   1.609
 8076SOL     OW25126   4.343   2.798   5.475
 8076SOL    HW125127   4.408   2.775   5.548
 8076SOL    HW225128   4.393   2.823   5.392
 8077SOL     OW25129   1.006   6.339   1.999
 8077SOL    HW125130   1.030   6.299   2.087
 8077SOL    HW225131   1.061   6.421   1.983
 8078SOL     OW25132   6.409   1.997   0.992
 8078SOL    HW125133   6.356   2.033   0.915
 8078SOL    HW225134   6.351   1.995   1.073
 8079SOL     OW25135   5.370   1.703   3.546
 8079SOL    HW125136   5.427   1.745   3.615
 8079SOL    HW225137   5.286   1.756   3.534
 8080SOL     OW25138   0.736   3.912   0.652
 8080SOL    HW125139   0.778   3.942   0.566
 8080SOL    HW225140   0.740   3.812   0.658
 8081SOL     OW25141   5.249   0.557   5.250
 8081SOL    HW125142   5.234   0.550   5.151
 8081SOL    HW225143   5.348   0.560   5.268
 8082SOL     OW25144   6.069   1.609   2.161
 8082SOL    HW125145   6.063   1.669   2.081
 8082SOL    HW225146   6.153   1.555   2.156
 8083SOL     OW25147   5.243   3.075   2.234
 8083SOL    HW125148   5.162   3.069   2.293
 8083SOL    HW225149   5.325   3.054   2.287
 8084SOL     OW25150   5.817   6.600   0.883
 8084SOL    HW125151   5.829   6.696   0.859
 8084SOL    HW225152   5.886   6.574   0.951
 8085SOL     OW25153   5.635   0.529   2.702
 8085SOL    HW125154   5.602   0.474   2.779
 8085SOL    HW225155   5.592   0.497   2.618
 8086SOL     OW25156   4.141   0.579   3.816
 8086SOL    HW125157   4.137   0.569   3.717
 8086SOL    HW225158   4.144   0.488   3.859
 8087SOL     OW25159   2.043   1.690   1.198
 8087SOL    HW125160   2.087   1.773   1.164
 8087SOL    HW225161   2.026   1.627   1.122
 8088SOL     OW25162   6.064   1.581   1.794
 8088SOL    HW125163   6.066   1.672   1.837
 8088SOL    HW225164   6.137   1.525   1.834
 8089SOL     OW25165   5.652   1.793   0.689
 8089SOL    HW125166   5.667   1.699   0.658
 8089SOL    HW225167   5.737   1.846   0.679
 8090SOL     OW25168   4.379   1.793   6.251
 8090SOL    HW125169   4.375   1.700   6.216
 8090SOL    HW225170   4.313   1.803   6.325
 8091SOL     OW25171   3.204   3.701   6.633
 8091SOL    HW125172   3.132   3.658   6.578
 8091SOL    HW225173   3.277   3.636   6.650
 8092SOL     OW25174   0.888   1.799   4.957
 8092SOL    HW125175   0.809   1.826   5.011
 8092SOL    HW225176   0.971   1.836   4.999
 8093SOL     OW25177   5.880   5.650   1.871
 8093SOL    HW125178   5.835   5.738   1.856
 8093SOL    HW225179   5.813   5.577   1.862
 8094SOL     OW25180   2.199   3.945   4.716
 8094SOL    HW125181   2.148   3.879   4.661
 8094SOL    HW225182   2.191   3.922   4.813
 8095SOL     OW25183   6.012   3.724   3.756
 8095SOL    HW125184   6.053   3.815   3.757
 8095SOL    HW225185   5.924   3.725   3.803
 8096SOL     OW25186   3.364   5.555   3.823
 8096SOL    HW125187   3.402   5.480   3.770
 8096SOL    HW225188   3.408   5.558   3.913
 8097SOL     OW25189   5.224   0.812   4.372
 8097SOL    HW125190   5.150   0.757   4.334
 8097SOL    HW225191   5.278   0.851   4.297
 8098SOL     OW25192   2.416   6.845   4.628
 8098SOL    HW125193   2.412   6.901   4.545
 8098SOL    HW225194   2.347   6.877   4.693
 8099SOL     OW25195   6.299   0.626   4.846
 8099SOL    HW125196   6.229   0.649   4.779
 8099SOL    HW225197   6.263   0.559   4.912
 8100SOL     OW25198   0.181   6.772   0.144
 8100SOL    HW125199   0.087   6.766   0.176
 8100SOL    HW225200   0.241   6.720   0.206
 8101SOL     OW25201   2.129   0.327   4.653
 8101SOL    HW125202   2.095   0.408   4.606
 8101SOL    HW225203   2.157   0.352   4.746
 8102SOL     OW25204   1.348   5.236   6.199
 8102SOL    HW125205   1.315   5.164   6.138
 8102SOL    HW225206   1.308   5.324   6.174
 8103SOL     OW25207   4.024   1.302   1.233
 8103SOL    HW125208   4.021   1.399   1.211
 8103SOL    HW225209   3.950   1.254   1.186
 8104SOL     OW25210   2.654   6.814   5.996
 8104SOL    HW125211   2.597   6.781   5.921
 8104SOL    HW225212   2.723   6.745   6.017
 8105SOL     OW25213   2.138   2.239   3.601
 8105SOL    HW125214   2.139   2.303   3.524
 8105SOL    HW225215   2.230   2.228   3.636
 8106SOL     OW25216   2.199   5.592   3.932
 8106SOL    HW125217   2.212   5.505   3.885
 8106SOL    HW225218   2.218   5.668   3.870
 8107SOL     OW25219   1.654   6.329   5.604
 8107SOL    HW125220   1.651   6.397   5.678
 8107SOL    HW225221   1.668   6.238   5.643
 8108SOL     OW25222   6.165   2.789   4.517
 8108SOL    HW125223   6.253   2.746   4.538
 8108SOL    HW225224   6.095   2.756   4.581
 8109SOL     OW25225   1.292   4.224   4.571
 8109SOL    HW125226   1.286   4.273   4.484
 8109SOL    HW225227   1.299   4.126   4.552
 8110SOL     OW25228   3.580   6.601   0.472
 8110SOL    HW125229   3.509   6.669   0.455
 8110SOL    HW225230   3.650   6.607   0.401
 8111SOL     OW25231   3.337   0.161   5.909
 8111SOL    HW125232   3.394   0.243   5.916
 8111SOL    HW225233   3.249   0.185   5.867
 8112SOL     OW25234   1.777   1.226   5.201
 8112SOL    HW125235   1.855   1.224   5.263
 8112SOL    HW225236   1.806   1.196   5.110
 8113SOL     OW25237   2.308   3.082   7.007
 8113SOL    HW125238   2.272   3.119   0.066
 8113SOL    HW225239   2.304   2.982   7.010
 8114SOL     OW25240   2.165   3.120   2.377
 8114SOL    HW125241   2.185   3.195   2.313
 8114SOL    HW225242   2.186   3.033   2.333
 8115SOL     OW25243   3.898   1.311   1.667
 8115SOL    HW125244   3.971   1.249   1.637
 8115SOL    HW225245   3.818   1.258   1.693
 8116SOL     OW25246   5.019   6.719   4.702
 8116SOL    HW125247   5.050   6.783   4.631
 8116SOL    HW225248   4.920   6.728   4.714
 8117SOL     OW25249   2.092   1.568   3.573
 8117SOL    HW125250   2.017   1.631   3.594
 8117SOL    HW225251   2.055   1.477   3.554
 8118SOL     OW25252   0.157   3.692   5.665
 8118SOL    HW125253   0.112   3.610   5.629
 8118SOL    HW225254   0.090   3.766   5.675
 8119SOL     OW25255   0.189   5.929   5.035
 8119SOL    HW125256   0.130   5.909   4.957
 8119SOL    HW225257   0.197   6.029   5.046
 8120SOL     OW25258   3.868   4.391   7.008
 8120SOL    HW125259   3.856   4.381   6.909
 8120SOL    HW225260   3.778   4.394   0.025
 8121SOL     OW25261   6.605   5.874   3.496
 8121SOL    HW125262   6.525   5.917   3.454
 8121SOL    HW225263   6.580   5.841   3.587
 8122SOL     OW25264   0.209   5.070   2.371
 8122SOL    HW125265   0.260   5.153   2.393
 8122SOL    HW225266   0.265   5.011   2.313
 8123SOL     OW25267   0.532   0.395   0.005
 8123SOL    HW125268   0.608   0.455   0.032
 8123SOL    HW225269   0.458   0.451   6.994
 8124SOL     OW25270   0.829   6.337   1.562
 8124SOL    HW125271   0.871   6.416   1.607
 8124SOL    HW225272   0.873   6.321   1.474
 8125SOL     OW25273   6.560   5.328   3.243
 8125SOL    HW125274   6.561   5.228   3.242
 8125SOL    HW225275   6.552   5.362   3.150
 8126SOL     OW25276   6.592   3.987   1.908
 8126SOL    HW125277   6.536   3.908   1.884
 8126SOL    HW225278   6.610   3.987   2.006
 8127SOL     OW25279   2.184   5.977   0.690
 8127SOL    HW125280   2.223   5.928   0.612
 8127SOL    HW225281   2.121   5.917   0.739
 8128SOL     OW25282   3.087   2.596   0.053
 8128SOL    HW125283   3.059   2.510   0.010
 8128SOL    HW225284   3.110   2.579   0.149
 8129SOL     OW25285   4.906   1.150   6.468
 8129SOL    HW125286   4.842   1.076   6.487
 8129SOL    HW225287   4.858   1.238   6.476
 8130SOL     OW25288   0.855   5.258   6.155
 8130SOL    HW125289   0.880   5.166   6.185
 8130SOL    HW225290   0.756   5.268   6.155
 8131SOL     OW25291   2.674   0.968   0.537
 8131SOL    HW125292   2.598   0.903   0.543
 8131SOL    HW225293   2.644   1.057   0.571
 8132SOL     OW25294   5.347   6.103   6.184
 8132SOL    HW125295   5.256   6.140   6.168
 8132SOL    HW225296   5.367   6.104   6.282
 8133SOL     OW25297   3.626   4.853   2.418
 8133SOL    HW125298   3.547   4.895   2.463
 8133SOL    HW225299   3.618   4.865   2.319
 8134SOL     OW25300   1.520   1.331   4.245
 8134SOL    HW125301   1.580   1.410   4.258
 8134SOL    HW225302   1.567   1.248   4.274
 8135SOL     OW25303   2.823   5.063   2.199
 8135SOL    HW125304   2.899   5.122   2.226
 8135SOL    HW225305   2.779   5.027   2.282
 8136SOL     OW25306   4.517   5.156   2.849
 8136SOL    HW125307   4.448   5.125   2.915
 8136SOL    HW225308   4.518   5.256   2.848
 8137SOL     OW25309   2.408   2.153   4.132
 8137SOL    HW125310   2.438   2.147   4.227
 8137SOL    HW225311   2.395   2.249   4.107
 8138SOL     OW25312   5.958   1.846   2.043
 8138SOL    HW125313   5.859   1.862   2.035
 8138SOL    HW225314   5.992   1.888   2.126
 8139SOL     OW25315   1.150   2.456   3.343
 8139SOL    HW125316   1.126   2.531   3.281
 8139SOL    HW225317   1.248   2.456   3.360
 8140SOL     OW25318   3.657   0.400   0.347
 8140SOL    HW125319   3.697   0.309   0.356
 8140SOL    HW225320   3.558   0.394   0.359
 8141SOL     OW25321   5.442   0.293   5.394
 8141SOL    HW125322   5.466   0.387   5.371
 8141SOL    HW225323   5.383   0.292   5.475
 8142SOL     OW25324   2.050   5.070   0.937
 8142SOL    HW125325   2.130   5.121   0.905
 8142SOL    HW225326   1.967   5.108   0.896
 8143SOL     OW25327   5.347   5.064   0.980
 8143SOL    HW125328   5.261   5.044   0.933
 8143SOL    HW225329   5.329   5.086   1.076
 8144SOL     OW25330   0.843   6.149   5.396
 8144SOL    HW125331   0.876   6.081   5.462
 8144SOL    HW225332   0.919   6.208   5.370
 8145SOL     OW25333   5.377   4.517   0.625
 8145SOL    HW125334   5.323   4.543   0.705
 8145SOL    HW225335   5.397   4.419   0.629
 8146SOL     OW25336   6.241   0.147   5.616
 8146SOL    HW125337   6.227   0.222   5.551
 8146SOL    HW225338   6.175   0.074   5.597
 8147SOL     OW25339   0.353   0.868   0.586
 8147SOL    HW125340   0.316   0.790   0.638
 8147SOL    HW225341   0.357   0.844   0.489
 8148SOL     OW25342   4.191   4.477   6.781
 8148SOL    HW125343   4.156   4.402   6.725
 8148SOL    HW225344   4.166   4.462   6.877
 8149SOL     OW25345   1.503   6.380   4.471
 8149SOL    HW125346   1.411   6.394   4.434
 8149SOL    HW225347   1.516   6.438   4.551
 8150SOL     OW25348   0.625   3.248   1.203
 8150SOL    HW125349   0.664   3.340   1.204
 8150SOL    HW225350   0.598   3.225   1.109
 8151SOL     OW25351   6.018   5.762   4.199
 8151SOL    HW125352   5.956   5.726   4.269
 8151SOL    HW225353   5.988   5.732   4.109
 8152SOL     OW25354   5.111   2.086   3.374
 8152SOL    HW125355   5.062   2.055   3.455
 8152SOL    HW225356   5.167   2.012   3.338
 8153SOL     OW25357   0.069   0.718   3.243
 8153SOL    HW125358   0.160   0.680   3.260
 8153SOL    HW225359   0.074   0.817   3.237
 8154SOL     OW25360   3.176   0.834   2.936
 8154SOL    HW125361   3.244   0.868   2.871
 8154SOL    HW225362   3.095   0.803   2.886
 8155SOL     OW25363   1.301   4.446   2.124
 8155SOL    HW125364   1.368   4.520   2.125
 8155SOL    HW225365   1.252   4.443   2.211
 8156SOL     OW25366   4.987   6.092   1.757
 8156SOL    HW125367   4.956   6.021   1.820
 8156SOL    HW225368   4.909   6.148   1.728
 8157SOL     OW25369   6.124   4.481   6.016
 8157SOL    HW125370   6.038   4.444   5.983
 8157SOL    HW225371   6.155   4.554   5.955
 8158SOL     OW25372   5.211   5.199   6.462
 8158SOL    HW125373   5.203   5.210   6.362
 8158SOL    HW225374   5.171   5.111   6.489
 8159SOL     OW25375   3.615   5.684   5.830
 8159SOL    HW125376   3.542   5.740   5.789
 8159SOL    HW225377   3.704   5.721   5.805
 8160SOL     OW25378   4.437   0.196   4.010
 8160SOL    HW125379   4.524   0.204   4.058
 8160SOL    HW225380   4.452   0.210   3.912
 8161SOL     OW25381   5.894   3.936   6.293
 8161SOL    HW125382   5.801   3.903   6.308
 8161SOL    HW225383   5.958   3.860   6.304
 8162SOL     OW25384   0.143   5.369   0.193
 8162SOL    HW125385   0.224   5.320   0.227
 8162SOL    HW225386   0.109   5.429   0.265
 8163SOL     OW25387   3.309   4.874   5.846
 8163SOL    HW125388   3.249   4.947   5.813
 8163SOL    HW225389   3.359   4.905   5.926
 8164SOL     OW25390   4.436   1.245   0.659
 8164SOL    HW125391   4.529   1.270   0.686
 8164SOL    HW225392   4.372   1.312   0.696
 8165SOL     OW25393   6.899   4.170   6.517
 8165SOL    HW125394   6.978   4.109   6.524
 8165SOL    HW225395   6.816   4.121   6.543
 8166SOL     OW25396   2.331   1.729   3.145
 8166SOL    HW125397   2.336   1.829   3.139
 8166SOL    HW225398   2.306   1.703   3.238
 8167SOL     OW25399   6.983   0.844   3.951
 8167SOL    HW125400   6.973   0.881   3.859
 8167SOL    HW225401   0.043   0.876   3.991
 8168SOL     OW25402   2.778   6.970   1.375
 8168SOL    HW125403   2.700   6.941   1.431
 8168SOL    HW225404   2.786   0.043   1.377
 8169SOL     OW25405   3.854   2.067   0.379
 8169SOL    HW125406   3.799   1.987   0.400
 8169SOL    HW225407   3.940   2.063   0.431
 8170SOL     OW25408   6.477   4.337   1.628
 8170SOL    HW125409   6.463   4.307   1.722
 8170SOL    HW225410   6.572   4.318   1.601
 8171SOL     OW25411   1.316   1.400   6.307
 8171SOL    HW125412   1.357   1.487   6.279
 8171SOL    HW225413   1.226   1.418   6.347
 8172SOL     OW25414   0.430   2.360   2.030
 8172SOL    HW125415   0.523   2.397   2.028
 8172SOL    HW225416   0.366   2.428   1.992
 8173SOL     OW25417   5.751   2.000   2.583
 8173SOL    HW125418   5.749   1.900   2.592
 8173SOL    HW225419   5.778   2.025   2.490
 8174SOL     OW25420   0.890   6.441   2.823
 8174SOL    HW125421   0.874   6.540   2.820
 8174SOL    HW225422   0.854   6.399   2.739
 8175SOL     OW25423   0.927   2.612   4.104
 8175SOL    HW125424   0.903   2.625   4.007
 8175SOL    HW225425   0.960   2.518   4.117
 8176SOL     OW25426   2.246   4.406   1.635
 8176SOL    HW125427   2.292   4.417   1.724
 8176SOL    HW225428   2.250   4.493   1.585
 8177SOL     OW25429   3.924   1.095   3.194
 8177SOL    HW125430   3.973   1.031   3.135
 8177SOL    HW225431   3.897   1.049   3.279
 8178SOL     OW25432   3.253   6.370   1.050
 8178SOL    HW125433   3.247   6.418   1.138
 8178SOL    HW225434   3.174   6.309   1.040
 8179SOL     OW25435   5.500   1.310   4.628
 8179SOL    HW125436   5.470   1.227   4.581
 8179SOL    HW225437   5.437   1.332   4.703
 8180SOL     OW25438   5.778   0.381   0.214
 8180SOL    HW125439   5.820   0.446   0.151
 8180SOL    HW225440   5.754   0.297   0.165
 8181SOL     OW25441   1.044   0.704   1.184
 8181SOL    HW125442   1.062   0.688   1.087
 8181SOL    HW225443   0.997   0.791   1.196
 8182SOL     OW25444   3.701   3.602   4.320
 8182SOL    HW125445   3.616   3.553   4.338
 8182SOL    HW225446   3.703   3.686   4.375
 8183SOL     OW25447   6.331   1.673   4.384
 8183SOL    HW125448   6.398   1.715   4.446
 8183SOL    HW225449   6.343   1.574   4.384
 8184SOL     OW25450   0.954   0.104   0.398
 8184SOL    HW125451   0.861   0.138   0.383
 8184SOL    HW225452   1.009   0.119   0.316
 8185SOL     OW25453   2.112   0.614   0.519
 8185SOL    HW125454   2.099   0.516   0.509
 8185SOL    HW225455   2.078   0.661   0.437
 8186SOL     OW25456   2.495   4.274   5.322
 8186SOL    HW125457   2.525   4.347   5.261
 8186SOL    HW225458   2.494   4.187   5.273
 8187SOL     OW25459   2.280   1.292   4.645
 8187SOL    HW125460   2.263   1.382   4.605
 8187SOL    HW225461   2.242   1.221   4.586
 8188SOL     OW25462   4.507   2.406   3.790
 8188SOL    HW125463   4.536   2.316   3.758
 8188SOL    HW225464   4.479   2.399   3.886
 8189SOL     OW25465   5.487   5.510   2.226
 8189SOL    HW125466   5.498   5.562   2.311
 8189SOL    HW225467   5.532   5.421   2.236
 8190SOL     OW25468   5.004   4.119   3.867
 8190SOL    HW125469   4.918   4.104   3.916
 8190SOL    HW225470   5.043   4.031   3.840
 8191SOL     OW25471   4.359   5.214   2.582
 8191SOL    HW125472   4.309   5.301   2.579
 8191SOL    HW225473   4.453   5.228   2.550
 8192SOL     OW25474   1.430   5.308   2.391
 8192SOL    HW125475   1.355   5.243   2.376
 8192SOL    HW225476   1.397   5.387   2.443
 8193SOL     OW25477   6.264   5.006   5.093
 8193SOL    HW125478   6.173   5.031   5.128
 8193SOL    HW225479   6.323   4.982   5.170
 8194SOL     OW25480   3.990   0.883   1.011
 8194SOL    HW125481   4.019   0.908   0.918
 8194SOL    HW225482   3.938   0.798   1.008
 8195SOL     OW25483   6.163   0.442   3.896
 8195SOL    HW125484   6.190   0.345   3.900
 8195SOL    HW225485   6.236   0.498   3.935
 8196SOL     OW25486   5.028   6.827   6.924
 8196SOL    HW125487   5.060   6.847   7.017
 8196SOL    HW225488   5.072   6.743   6.891
 8197SOL     OW25489   4.085   1.765   1.386
 8197SOL    HW125490   4.121   1.800   1.472
 8197SOL    HW225491   4.152   1.780   1.313
 8198SOL     OW25492   3.312   5.962   2.165
 8198SOL    HW125493   3.321   6.055   2.202
 8198SOL    HW225494   3.221   5.951   2.124
 8199SOL     OW25495   5.341   3.231   6.262
 8199SOL    HW125496   5.354   3.288   6.180
 8199SOL    HW225497   5.326   3.290   6.341
 8200SOL     OW25498   6.054   4.406   1.644
 8200SOL    HW125499   5.955   4.397   1.654
 8200SOL    HW225500   6.079   4.389   1.548
 8201SOL     OW25501   6.757   0.811   5.312
 8201SOL    HW125502   6.696   0.878   5.270
 8201SOL    HW225503   6.808   0.763   5.240
 8202SOL     OW25504   6.891   5.544   3.123
 8202SOL    HW125505   6.841   5.488   3.057
 8202SOL    HW225506   6.826   5.597   3.178
 8203SOL     OW25507   2.107   2.324   0.147
 8203SOL    HW125508   2.161   2.405   0.123
 8203SOL    HW225509   2.070   2.282   0.064
 8204SOL     OW25510   3.987   4.226   0.470
 8204SOL    HW125511   4.036   4.295   0.416
 8204SOL    HW225512   4.022   4.226   0.564
 8205SOL     OW25513   0.017   4.184   6.874
 8205SOL    HW125514   6.947   4.158   6.876
 8205SOL    HW225515   0.059   4.163   6.963
 8206SOL     OW25516   4.737   2.003   6.865
 8206SOL    HW125517   4.723   2.053   6.950
 8206SOL    HW225518   4.686   2.048   6.791
 8207SOL     OW25519   3.506   3.859   3.947
 8207SOL    HW125520   3.569   3.784   3.967
 8207SOL    HW225521   3.533   3.904   3.862
 8208SOL     OW25522   1.352   0.496   1.291
 8208SOL    HW125523   1.269   0.475   1.239
 8208SOL    HW225524   1.404   0.567   1.243
 8209SOL     OW25525   0.289   0.727   4.861
 8209SOL    HW125526   0.275   0.667   4.940
 8209SOL    HW225527   0.331   0.674   4.787
 8210SOL     OW25528   2.524   2.203   0.288
 8210SOL    HW125529   2.582   2.225   0.366
 8210SOL    HW225530   2.561   2.246   0.206
 8211SOL     OW25531   3.950   4.370   1.467
 8211SOL    HW125532   3.911   4.456   1.433
 8211SOL    HW225533   4.014   4.333   1.400
 8212SOL     OW25534   1.698   2.354   3.028
 8212SOL    HW125535   1.789   2.318   3.008
 8212SOL    HW225536   1.677   2.339   3.125
 8213SOL     OW25537   6.949   4.497   1.521
 8213SOL    HW125538   0.013   4.536   1.506
 8213SOL    HW225539   6.922   4.443   1.441
 8214SOL     OW25540   6.077   5.171   4.529
 8214SOL    HW125541   6.144   5.242   4.506
 8214SOL    HW225542   6.070   5.163   4.628
 8215SOL     OW25543   3.776   5.742   5.470
 8215SOL    HW125544   3.832   5.759   5.390
 8215SOL    HW225545   3.746   5.646   5.470
 8216SOL     OW25546   5.268   5.657   4.254
 8216SOL    HW125547   5.308   5.659   4.162
 8216SOL    HW225548   5.264   5.563   4.286
 8217SOL     OW25549   2.280   5.180   0.822
 8217SOL    HW125550   2.245   5.181   0.729
 8217SOL    HW225551   2.312   5.271   0.846
 8218SOL     OW25552   6.797   0.516   6.517
 8218SOL    HW125553   6.865   0.587   6.496
 8218SOL    HW225554   6.720   0.557   6.566
 8219SOL     OW25555   4.697   2.187   0.067
 8219SOL    HW125556   4.625   2.251   0.095
 8219SOL    HW225557   4.723   2.131   0.145
 8220SOL     OW25558   3.572   3.443   3.419
 8220SOL    HW125559   3.608   3.354   3.445
 8220SOL    HW225560   3.482   3.456   3.461
 8221SOL     OW25561   4.989   5.698   5.047
 8221SOL    HW125562   5.073   5.667   5.002
 8221SOL    HW225563   4.931   5.620   5.068
 8222SOL     OW25564   5.382   1.613   2.159
 8222SOL    HW125565   5.307   1.663   2.116
 8222SOL    HW225566   5.350   1.523   2.187
 8223SOL     OW25567   1.929   4.336   5.915
 8223SOL    HW125568   2.011   4.333   5.858
 8223SOL    HW225569   1.875   4.416   5.892
 8224SOL     OW25570   6.973   2.192   2.732
 8224SOL    HW125571   6.886   2.207   2.778
 8224SOL    HW225572   6.956   2.169   2.636
 8225SOL     OW25573   3.768   1.084   6.880
 8225SOL    HW125574   3.714   1.035   6.949
 8225SOL    HW225575   3.707   1.127   6.814
 8226SOL     OW25576   3.896   6.483   1.697
 8226SOL    HW125577   3.961   6.523   1.761
 8226SOL    HW225578   3.926   6.392   1.670
 8227SOL     OW25579   6.721   2.536   3.453
 8227SOL    HW125580   6.690   2.446   3.483
 8227SOL    HW225581   6.785   2.526   3.377
 8228SOL     OW25582   0.053   2.581   5.484
 8228SOL    HW125583   0.079   2.639   5.560
 8228SOL    HW225584   0.130   2.574   5.419
 8229SOL     OW25585   4.022   4.580   0.818
 8229SOL    HW125586   3.983   4.670   0.800
 8229SOL    HW225587   4.103   4.566   0.760
 8230SOL     OW25588   3.957   6.752   5.361
 8230SOL    HW125589   4.042   6.776   5.407
 8230SOL    HW225590   3.955   6.654   5.343
 8231SOL     OW25591   4.268   5.405   0.241
 8231SOL    HW125592   4.229   5.497   0.237
 8231SOL    HW225593   4.366   5.411   0.257
 8232SOL     OW25594   4.968   1.742   1.021
 8232SOL    HW125595   4.901   1.700   0.960
 8232SOL    HW225596   4.922   1.806   1.083
 8233SOL     OW25597   1.098   5.880   6.354
 8233SOL    HW125598   1.196   5.861   6.341
 8233SOL    HW225599   1.087   5.977   6.378
 8234SOL     OW25600   2.302   4.005   6.749
 8234SOL    HW125601   2.247   3.958   6.679
 8234SOL    HW225602   2.321   3.943   6.825
 8235SOL     OW25603   0.897   3.619   0.256
 8235SOL    HW125604   0.882   3.561   0.337
 8235SOL    HW225605   0.960   3.573   0.193
 8236SOL     OW25606   7.012   4.487   0.078
 8236SOL    HW125607   0.083   4.508   0.068
 8236SOL    HW225608   7.001   4.411   0.143
 8237SOL     OW25609   4.361   6.052   4.418
 8237SOL    HW125610   4.277   6.106   4.411
 8237SOL    HW225611   4.440   6.114   4.425
 8238SOL     OW25612   1.186   4.937   0.068
 8238SOL    HW125613   1.148   4.845   0.075
 8238SOL    HW225614   1.148   4.982   7.014
 8239SOL     OW25615   6.304   1.120   5.443
 8239SOL    HW125616   6.234   1.138   5.512
 8239SOL    HW225617   6.393   1.109   5.488
 8240SOL     OW25618   3.312   4.102   2.569
 8240SOL    HW125619   3.352   4.186   2.532
 8240SOL    HW225620   3.320   4.103   2.669
 8241SOL     OW25621   3.993   0.046   6.943
 8241SOL    HW125622   4.010   7.023   0.001
 8241SOL    HW225623   4.077   0.050   6.889
 8242SOL     OW25624   0.607   5.001   5.826
 8242SOL    HW125625   0.686   5.063   5.829
 8242SOL    HW225626   0.605   4.954   5.738
 8243SOL     OW25627   1.005   2.350   0.252
 8243SOL    HW125628   1.000   2.262   0.205
 8243SOL    HW225629   1.006   2.335   0.351
 8244SOL     OW25630   1.193   0.131   4.110
 8244SOL    HW125631   1.267   0.084   4.158
 8244SOL    HW225632   1.106   0.103   4.150
 8245SOL     OW25633   4.488   2.133   2.759
 8245SOL    HW125634   4.560   2.065   2.744
 8245SOL    HW225635   4.399   2.090   2.747
 8246SOL     OW25636   0.755   3.405   5.885
 8246SOL    HW125637   0.750   3.505   5.889
 8246SOL    HW225638   0.786   3.370   5.974
 8247SOL     OW25639   0.442   0.102   2.269
 8247SOL    HW125640   0.432   0.085   2.171
 8247SOL    HW225641   0.538   0.119   2.291
 8248SOL     OW25642   6.376   5.090   4.688
 8248SOL    HW125643   6.378   5.177   4.737
 8248SOL    HW225644   6.297   5.037   4.718
 8249SOL     OW25645   2.039   2.761   5.033
 8249SOL    HW125646   2.103   2.837   5.016
 8249SOL    HW225647   2.091   2.678   5.054
 8250SOL     OW25648   3.603   4.091   2.098
 8250SOL    HW125649   3.518   4.040   2.090
 8250SOL    HW225650   3.605   4.138   2.186
 8251SOL     OW25651   6.190   3.566   3.884
 8251SOL    HW125652   6.138   3.630   3.827
 8251SOL    HW225653   6.131   3.491   3.912
 8252SOL     OW25654   3.224   1.928   5.661
 8252SOL    HW125655   3.230   2.012   5.716
 8252SOL    HW225656   3.278   1.856   5.705
 8253SOL     OW25657   4.688   4.526   5.378
 8253SOL    HW125658   4.762   4.533   5.445
 8253SOL    HW225659   4.680   4.431   5.348
 8254SOL     OW25660   4.300   4.782   4.856
 8254SOL    HW125661   4.311   4.685   4.877
 8254SOL    HW225662   4.366   4.836   4.909
 8255SOL     OW25663   2.928   6.485   4.658
 8255SOL    HW125664   2.937   6.421   4.581
 8255SOL    HW225665   2.832   6.493   4.684
 8256SOL     OW25666   6.343   0.394   2.846
 8256SOL    HW125667   6.274   0.382   2.918
 8256SOL    HW225668   6.433   0.410   2.888
 8257SOL     OW25669   6.153   4.020   3.728
 8257SOL    HW125670   6.210   4.069   3.794
 8257SOL    HW225671   6.147   4.073   3.643
 8258SOL     OW25672   5.389   1.560   0.795
 8258SOL    HW125673   5.424   1.528   0.883
 8258SOL    HW225674   5.299   1.602   0.808
 8259SOL     OW25675   4.237   2.023   3.307
 8259SOL    HW125676   4.141   2.049   3.318
 8259SOL    HW225677   4.245   1.955   3.234
 8260SOL     OW25678   2.698   6.274   1.844
 8260SOL    HW125679   2.726   6.288   1.939
 8260SOL    HW225680   2.741   6.191   1.808
 8261SOL     OW25681   6.308   1.140   1.817
 8261SOL    HW125682   6.319   1.047   1.850
 8261SOL    HW225683   6.273   1.139   1.724
 8262SOL     OW25684   0.637   2.800   0.235
 8262SOL    HW125685   0.649   2.836   0.142
 8262SOL    HW225686   0.544   2.821   0.267
 8263SOL     OW25687   1.358   1.909   0.071
 8263SOL    HW125688   1.282   1.945   0.017
 8263SOL    HW225689   1.331   1.906   0.168
 8264SOL     OW25690   2.254   6.191   2.963
 8264SOL    HW125691   2.280   6.099   2.936
 8264SOL    HW225692   2.163   6.190   3.004
 8265SOL     OW25693   0.888   6.647   0.604
 8265SOL    HW125694   0.793   6.617   0.610
 8265SOL    HW225695   0.891   6.746   0.594
 8266SOL     OW25696   2.266   1.408   4.012
 8266SOL    HW125697   2.223   1.389   3.924
 8266SOL    HW225698   2.288   1.506   4.017
 8267SOL     OW25699   1.113   2.549   0.832
 8267SOL    HW125700   1.097   2.533   0.735
 8267SOL    HW225701   1.051   2.619   0.866
 8268SOL     OW25702   2.194   6.665   5.496
 8268SOL    HW125703   2.118   6.601   5.507
 8268SOL    HW225704   2.249   6.665   5.580
 8269SOL     OW25705   4.385   2.239   2.256
 8269SOL    HW125706   4.461   2.173   2.249
 8269SOL    HW225707   4.388   2.301   2.179
 8270SOL     OW25708   3.220   6.811   5.248
 8270SOL    HW125709   3.291   6.777   5.310
 8270SOL    HW225710   3.250   6.897   5.208
 8271SOL     OW25711   6.430   0.245   3.231
 8271SOL    HW125712   6.526   0.226   3.208
 8271SOL    HW225713   6.426   0.301   3.314
 8272SOL     OW25714   4.653   1.850   1.588
 8272SOL    HW125715   4.637   1.755   1.614
 8272SOL    HW225716   4.571   1.887   1.546
 8273SOL     OW25717   2.760   6.886   0.526
 8273SOL    HW125718   2.735   6.856   0.618
 8273SOL    HW225719   2.775   6.806   0.468
 8274SOL     OW25720   5.158   4.956   3.170
 8274SOL    HW125721   5.226   4.932   3.101
 8274SOL    HW225722   5.197   5.019   3.236
 8275SOL     OW25723   4.907   1.441   5.378
 8275SOL    HW125724   4.908   1.432   5.279
 8275SOL    HW225725   4.852   1.368   5.418
 8276SOL     OW25726   0.966   2.128   3.662
 8276SOL    HW125727   1.055   2.086   3.683
 8276SOL    HW225728   0.955   2.212   3.716
 8277SOL     OW25729   6.763   6.957   0.759
 8277SOL    HW125730   6.787   0.005   0.821
 8277SOL    HW225731   6.666   6.963   0.735
 8278SOL     OW25732   2.528   2.193   5.492
 8278SOL    HW125733   2.604   2.255   5.471
 8278SOL    HW225734   2.537   2.110   5.438
 8279SOL     OW25735   1.354   6.837   4.178
 8279SOL    HW125736   1.399   6.765   4.231
 8279SOL    HW225737   1.359   6.814   4.081
 8280SOL     OW25738   2.599   3.521   0.495
 8280SOL    HW125739   2.653   3.452   0.446
 8280SOL    HW225740   2.537   3.475   0.558
 8281SOL     OW25741   2.639   4.699   1.529
 8281SOL    HW125742   2.655   4.716   1.626
 8281SOL    HW225743   2.727   4.695   1.481
 8282SOL     OW25744   4.967   3.893   0.022
 8282SOL    HW125745   4.900   3.932   6.986
 8282SOL    HW225746   4.978   3.954   0.101
 8283SOL     OW25747   1.991   5.486   6.558
 8283SOL    HW125748   2.020   5.581   6.547
 8283SOL    HW225749   2.013   5.434   6.476
 8284SOL     OW25750   0.691   3.627   0.912
 8284SOL    HW125751   0.668   3.629   0.814
 8284SOL    HW225752   0.719   3.718   0.941
 8285SOL     OW25753   3.104   3.077   4.587
 8285SOL    HW125754   3.104   3.096   4.685
 8285SOL    HW225755   3.105   3.164   4.537
 8286SOL     OW25756   5.516   2.920   6.075
 8286SOL    HW125757   5.567   2.953   6.155
 8286SOL    HW225758   5.490   2.998   6.018
 8287SOL     OW25759   2.304   5.383   3.710
 8287SOL    HW125760   2.227   5.321   3.694
 8287SOL    HW225761   2.389   5.337   3.684
 8288SOL     OW25762   3.620   1.943   1.410
 8288SOL    HW125763   3.692   1.896   1.359
 8288SOL    HW225764   3.606   1.896   1.498
 8289SOL     OW25765   0.877   5.535   1.067
 8289SOL    HW125766   0.871   5.584   1.154
 8289SOL    HW225767   0.902   5.598   0.994
 8290SOL     OW25768   6.220   1.567   1.255
 8290SOL    HW125769   6.165   1.633   1.203
 8290SOL    HW225770   6.196   1.573   1.352
 8291SOL     OW25771   5.201   6.487   5.938
 8291SOL    HW125772   5.207   6.525   5.846
 8291SOL    HW225773   5.192   6.388   5.933
 8292SOL     OW25774   2.801   6.263   0.042
 8292SOL    HW125775   2.807   6.312   6.981
 8292SOL    HW225776   2.868   6.189   0.044
 8293SOL     OW25777   3.548   6.292   0.034
 8293SOL    HW125778   3.624   6.250   0.083
 8293SOL    HW225779   3.462   6.270   0.082
 8294SOL     OW25780   5.419   4.288   4.736
 8294SOL    HW125781   5.445   4.265   4.830
 8294SOL    HW225782   5.347   4.357   4.738
 8295SOL     OW25783   5.277   5.442   1.509
 8295SOL    HW125784   5.177   5.439   1.504
 8295SOL    HW225785   5.312   5.499   1.435
 8296SOL     OW25786   1.622   5.793   5.797
 8296SOL    HW125787   1.567   5.800   5.713
 8296SOL    HW225788   1.707   5.745   5.777
 8297SOL     OW25789   6.243   2.577   2.177
 8297SOL    HW125790   6.264   2.663   2.222
 8297SOL    HW225791   6.327   2.531   2.150
 8298SOL     OW25792   6.115   1.758   1.054
 8298SOL    HW125793   6.154   1.841   1.094
 8298SOL    HW225794   6.017   1.769   1.042
 8299SOL     OW25795   6.492   2.807   1.945
 8299SOL    HW125796   6.413   2.843   1.895
 8299SOL    HW225797   6.552   2.882   1.972
 8300SOL     OW25798   0.131   6.206   5.005
 8300SOL    HW125799   0.211   6.266   5.010
 8300SOL    HW225800   0.063   6.235   5.072
 8301SOL     OW25801   4.308   1.735   1.730
 8301SOL    HW125802   4.266   1.809   1.677
 8301SOL    HW225803   4.250   1.714   1.809
 8302SOL     OW25804   5.989   6.034   0.189
 8302SOL    HW125805   6.066   6.063   0.132
 8302SOL    HW225806   6.023   5.992   0.273
 8303SOL     OW25807   6.359   0.517   4.335
 8303SOL    HW125808   6.280   0.557   4.288
 8303SOL    HW225809   6.385   0.576   4.412
 8304SOL     OW25810   0.567   3.287   0.648
 8304SOL    HW125811   0.647   3.320   0.597
 8304SOL    HW225812   0.497   3.359   0.649
 8305SOL     OW25813   4.315   5.228   4.377
 8305SOL    HW125814   4.282   5.314   4.338
 8305SOL    HW225815   4.272   5.151   4.329
 8306SOL     OW25816   6.864   2.858   5.770
 8306SOL    HW125817   6.891   2.920   5.697
 8306SOL    HW225818   6.882   2.763   5.742
 8307SOL     OW25819   3.844   5.324   1.201
 8307SOL    HW125820   3.757   5.364   1.173
 8307SOL    HW225821   3.881   5.269   1.126
 8308SOL     OW25822   4.066   5.424   1.323
 8308SOL    HW125823   4.074   5.376   1.410
 8308SOL    HW225824   3.993   5.382   1.268
 8309SOL     OW25825   5.921   5.128   4.234
 8309SOL    HW125826   6.005   5.116   4.287
 8309SOL    HW225827   5.936   5.194   4.161
 8310SOL     OW25828   0.576   4.781   0.907
 8310SOL    HW125829   0.634   4.771   0.826
 8310SOL    HW225830   0.509   4.854   0.892
 8311SOL     OW25831   0.685   1.487   4.135
 8311SOL    HW125832   0.720   1.533   4.053
 8311SOL    HW225833   0.713   1.539   4.216
 8312SOL     OW25834   4.810   7.020   0.486
 8312SOL    HW125835   4.887   6.971   0.446
 8312SOL    HW225836   4.825   0.092   0.479
 8313SOL     OW25837   5.097   0.759   2.280
 8313SOL    HW125838   5.021   0.764   2.345
 8313SOL    HW225839   5.128   0.851   2.256
 8314SOL     OW25840   4.372   0.532   0.653
 8314SOL    HW125841   4.288   0.530   0.598
 8314SOL    HW225842   4.449   0.556   0.595
 8315SOL     OW25843   4.065   3.360   1.196
 8315SOL    HW125844   4.004   3.379   1.120
 8315SOL    HW225845   4.012   3.332   1.275
 8316SOL     OW25846   0.413   2.088   2.088
 8316SOL    HW125847   0.408   2.187   2.098
 8316SOL    HW225848   0.503   2.062   2.053
 8317SOL     OW25849   2.172   2.437   2.836
 8317SOL    HW125850   2.267   2.412   2.854
 8317SOL    HW225851   2.152   2.423   2.739
 8318SOL     OW25852   4.439   1.370   4.549
 8318SOL    HW125853   4.473   1.287   4.506
 8318SOL    HW225854   4.462   1.449   4.493
 8319SOL     OW25855   2.172   1.282   6.366
 8319SOL    HW125856   2.131   1.290   6.275
 8319SOL    HW225857   2.217   1.369   6.389
 8320SOL     OW25858   3.007   3.376   1.455
 8320SOL    HW125859   2.979   3.281   1.462
 8320SOL    HW225860   2.938   3.435   1.498
 8321SOL     OW25861   0.137   0.569   0.402
 8321SOL    HW125862   0.130   0.602   0.496
 8321SOL    HW225863   0.215   0.611   0.358
 8322SOL     OW25864   0.511   0.170   1.095
 8322SOL    HW125865   0.425   0.119   1.095
 8322SOL    HW225866   0.549   0.171   1.187
 8323SOL     OW25867   5.958   5.866   2.573
 8323SOL    HW125868   6.000   5.811   2.646
 8323SOL    HW225869   5.886   5.923   2.611
 8324SOL     OW25870   5.564   0.382   1.647
 8324SOL    HW125871   5.543   0.451   1.717
 8324SOL    HW225872   5.596   0.428   1.564
 8325SOL     OW25873   3.003   3.300   5.447
 8325SOL    HW125874   2.906   3.289   5.425
 8325SOL    HW225875   3.039   3.380   5.399
 8326SOL     OW25876   5.239   3.244   5.837
 8326SOL    HW125877   5.298   3.275   5.763
 8326SOL    HW225878   5.157   3.200   5.798
 8327SOL     OW25879   6.189   1.371   6.356
 8327SOL    HW125880   6.208   1.438   6.284
 8327SOL    HW225881   6.139   1.415   6.430
 8328SOL     OW25882   2.447   4.809   5.428
 8328SOL    HW125883   2.428   4.712   5.443
 8328SOL    HW225884   2.442   4.829   5.330
 8329SOL     OW25885   0.623   3.454   6.180
 8329SOL    HW125886   0.722   3.461   6.192
 8329SOL    HW225887   0.587   3.542   6.150
 8330SOL     OW25888   2.632   0.026   0.273
 8330SOL    HW125889   2.698   0.099   0.260
 8330SOL    HW225890   2.649   7.007   0.360
 8331SOL     OW25891   3.083   1.775   1.474
 8331SOL    HW125892   2.994   1.796   1.515
 8331SOL    HW225893   3.110   1.850   1.414
 8332SOL     OW25894   5.328   5.255   2.563
 8332SOL    HW125895   5.367   5.286   2.650
 8332SOL    HW225896   5.250   5.195   2.581
 8333SOL     OW25897   0.713   6.707   6.613
 8333SOL    HW125898   0.626   6.686   6.656
 8333SOL    HW225899   0.786   6.707   6.681
 8334SOL     OW25900   3.810   1.684   3.750
 8334SOL    HW125901   3.870   1.749   3.703
 8334SOL    HW225902   3.817   1.594   3.707
 8335SOL     OW25903   6.435   6.108   6.653
 8335SOL    HW125904   6.406   6.174   6.584
 8335SOL    HW225905   6.354   6.071   6.699
 8336SOL     OW25906   6.136   6.694   3.126
 8336SOL    HW125907   6.205   6.646   3.180
 8336SOL    HW225908   6.175   6.777   3.088
 8337SOL     OW25909   0.987   5.979   2.959
 8337SOL    HW125910   0.932   6.062   2.955
 8337SOL    HW225911   1.032   5.973   3.048
 8338SOL     OW25912   2.330   5.045   1.551
 8338SOL    HW125913   2.386   5.016   1.629
 8338SOL    HW225914   2.236   5.062   1.582
 8339SOL     OW25915   5.949   0.186   1.963
 8339SOL    HW125916   5.880   0.234   1.908
 8339SOL    HW225917   6.002   0.253   2.016
 8340SOL     OW25918   5.222   3.485   1.372
 8340SOL    HW125919   5.140   3.429   1.360
 8340SOL    HW225920   5.244   3.530   1.286
 8341SOL     OW25921   1.994   5.987   6.835
 8341SOL    HW125922   2.053   6.028   6.903
 8341SOL    HW225923   1.901   5.980   6.871
 8342SOL     OW25924   4.165   0.373   2.009
 8342SOL    HW125925   4.234   0.306   2.038
 8342SOL    HW225926   4.165   0.380   1.910
 8343SOL     OW25927   0.944   5.006   6.250
 8343SOL    HW125928   1.004   4.970   6.321
 8343SOL    HW225929   0.853   4.964   6.259
 8344SOL     OW25930   4.072   6.627   5.084
 8344SOL    HW125931   4.051   6.591   5.175
 8344SOL    HW225932   3.989   6.668   5.045
 8345SOL     OW25933   4.597   1.638   3.532
 8345SOL    HW125934   4.643   1.688   3.605
 8345SOL    HW225935   4.662   1.576   3.488
 8346SOL     OW25936   2.678   4.447   0.803
 8346SOL    HW125937   2.715   4.368   0.850
 8346SOL    HW225938   2.578   4.446   0.809
 8347SOL     OW25939   3.671   5.317   4.913
 8347SOL    HW125940   3.589   5.329   4.970
 8347SOL    HW225941   3.660   5.370   4.829
 8348SOL     OW25942   1.537   6.426   2.325
 8348SOL    HW125943   1.506   6.420   2.230
 8348SOL    HW225944   1.536   6.335   2.366
 8349SOL     OW25945   5.763   6.806   1.720
 8349SOL    HW125946   5.744   6.736   1.651
 8349SOL    HW225947   5.708   6.888   1.700
 8350SOL     OW25948   4.454   0.755   4.794
 8350SOL    HW125949   4.521   0.697   4.842
 8350SOL    HW225950   4.498   0.796   4.714
 8351SOL     OW25951   4.655   4.918   3.844
 8351SOL    HW125952   4.637   4.887   3.751
 8351SOL    HW225953   4.659   5.018   3.846
 8352SOL     OW25954   6.945   6.027   3.200
 8352SOL    HW125955   0.019   6.031   3.205
 8352SOL    HW225956   6.918   5.945   3.150
 8353SOL     OW25957   6.918   3.655   1.397
 8353SOL    HW125958   6.931   3.697   1.308
 8353SOL    HW225959   6.829   3.681   1.435
 8354SOL     OW25960   3.675   6.896   6.844
 8354SOL    HW125961   3.698   6.888   6.747
 8354SOL    HW225962   3.659   6.992   6.866
 8355SOL     OW25963   3.091   0.683   6.731
 8355SOL    HW125964   3.101   0.627   6.649
 8355SOL    HW225965   3.006   0.735   6.726
 8356SOL     OW25966   1.876   6.361   0.762
 8356SOL    HW125967   1.902   6.449   0.800
 8356SOL    HW225968   1.843   6.301   0.835
 8357SOL     OW25969   3.988   0.155   5.494
 8357SOL    HW125970   3.930   0.236   5.499
 8357SOL    HW225971   4.075   0.172   5.540
 8358SOL     OW25972   1.300   3.802   5.406
 8358SOL    HW125973   1.382   3.782   5.354
 8358SOL    HW225974   1.237   3.856   5.350
 8359SOL     OW25975   2.621   6.514   5.018
 8359SOL    HW125976   2.623   6.565   4.932
 8359SOL    HW225977   2.526   6.498   5.046
 8360SOL     OW25978   3.710   6.010   0.754
 8360SOL    HW125979   3.656   6.092   0.773
 8360SOL    HW225980   3.662   5.930   0.789
 8361SOL     OW25981   2.697   0.092   2.949
 8361SOL    HW125982   2.751   0.013   2.921
 8361SOL    HW225983   2.678   0.085   3.047
 8362SOL     OW25984   3.389   2.058   0.906
 8362SOL    HW125985   3.481   2.025   0.928
 8362SOL    HW225986   3.385   2.157   0.919
 8363SOL     OW25987   0.461   2.631   6.924
 8363SOL    HW125988   0.373   2.648   6.881
 8363SOL    HW225989   0.532   2.686   6.880
 8364SOL     OW25990   6.997   2.937   2.481
 8364SOL    HW125991   0.022   2.881   2.416
 8364SOL    HW225992   6.939   3.001   2.432
 8365SOL     OW25993   2.311   3.875   1.792
 8365SOL    HW125994   2.220   3.835   1.780
 8365SOL    HW225995   2.364   3.864   1.708
 8366SOL     OW25996   2.360   6.017   2.166
 8366SOL    HW125997   2.333   6.113   2.179
 8366SOL    HW225998   2.283   5.967   2.126
 8367SOL     OW25999   4.190   6.039   4.066
 8367SOL    HW126000   4.206   6.115   4.129
 8367SOL    HW226001   4.104   6.055   4.016
 8368SOL     OW26002   2.246   6.768   6.110
 8368SOL    HW126003   2.215   6.776   6.205
 8368SOL    HW226004   2.199   6.691   6.066
 8369SOL     OW26005   1.865   6.783   6.602
 8369SOL    HW126006   1.946   6.725   6.592
 8369SOL    HW226007   1.858   6.845   6.523
 8370SOL     OW26008   2.507   2.382   5.171
 8370SOL    HW126009   2.578   2.430   5.223
 8370SOL    HW226010   2.522   2.397   5.073
 8371SOL     OW26011   1.709   4.656   1.460
 8371SOL    HW126012   1.744   4.570   1.497
 8371SOL    HW226013   1.774   4.691   1.392
 8372SOL     OW26014   0.227   5.248   2.693
 8372SOL    HW126015   0.271   5.306   2.762
 8372SOL    HW226016   0.212   5.157   2.732
 8373SOL     OW26017   1.349   0.456   3.884
 8373SOL    HW126018   1.387   0.547   3.900
 8373SOL    HW226019   1.377   0.423   3.794
 8374SOL     OW26020   6.941   0.731   5.972
 8374SOL    HW126021   6.894   0.777   6.047
 8374SOL    HW226022   7.013   0.791   5.936
 8375SOL     OW26023   3.870   0.168   6.102
 8375SOL    HW126024   3.794   0.112   6.069
 8375SOL    HW226025   3.836   0.240   6.161
 8376SOL     OW26026   1.742   0.542   4.044
 8376SOL    HW126027   1.743   0.642   4.042
 8376SOL    HW226028   1.836   0.508   4.033
 8377SOL     OW26029   5.679   5.773   1.379
 8377SOL    HW126030   5.729   5.856   1.403
 8377SOL    HW226031   5.697   5.702   1.447
 8378SOL     OW26032   4.175   5.057   2.746
 8378SOL    HW126033   4.231   5.101   2.675
 8378SOL    HW226034   4.205   5.087   2.836
 8379SOL     OW26035   6.227   2.345   1.461
 8379SOL    HW126036   6.282   2.418   1.419
 8379SOL    HW226037   6.147   2.385   1.505
 8380SOL     OW26038   6.868   0.915   2.419
 8380SOL    HW126039   6.876   0.907   2.519
 8380SOL    HW226040   6.879   0.825   2.378
 8381SOL     OW26041   0.071   3.725   5.356
 8381SOL    HW126042   0.026   3.709   5.268
 8381SOL    HW226043   0.018   3.682   5.429
 8382SOL     OW26044   2.136   0.598   2.165
 8382SOL    HW126045   2.236   0.608   2.169
 8382SOL    HW226046   2.093   0.688   2.178
 8383SOL     OW26047   2.527   0.253   5.948
 8383SOL    HW126048   2.563   0.341   5.978
 8383SOL    HW226049   2.443   0.233   5.998
 8384SOL     OW26050   0.312   0.313   0.610
 8384SOL    HW126051   0.371   0.288   0.687
 8384SOL    HW226052   0.234   0.366   0.642
 8385SOL     OW26053   6.311   2.075   1.484
 8385SOL    HW126054   6.288   2.171   1.469
 8385SOL    HW226055   6.336   2.061   1.580
 8386SOL     OW26056   1.039   4.590   2.089
 8386SOL    HW126057   0.992   4.542   2.015
 8386SOL    HW226058   1.034   4.535   2.173
 8387SOL     OW26059   1.449   1.278   2.186
 8387SOL    HW126060   1.370   1.314   2.135
 8387SOL    HW226061   1.519   1.248   2.122
 8388SOL     OW26062   1.684   6.177   0.059
 8388SOL    HW126063   1.645   6.114   7.018
 8388SOL    HW226064   1.710   6.125   0.141
 8389SOL     OW26065   6.134   3.854   2.759
 8389SOL    HW126066   6.168   3.771   2.801
 8389SOL    HW226067   6.038   3.842   2.734
 8390SOL     OW26068   4.313   0.474   6.376
 8390SOL    HW126069   4.272   0.479   6.285
 8390SOL    HW226070   4.411   0.494   6.370
 8391SOL     OW26071   6.410   5.313   0.907
 8391SOL    HW126072   6.466   5.394   0.924
 8391SOL    HW226073   6.421   5.284   0.812
 8392SOL     OW26074   0.090   3.682   4.298
 8392SOL    HW126075   0.053   3.590   4.310
 8392SOL    HW226076   0.035   3.732   4.231
 8393SOL     OW26077   6.349   0.911   2.509
 8393SOL    HW126078   6.281   0.881   2.442
 8393SOL    HW226079   6.424   0.957   2.461
 8394SOL     OW26080   6.171   2.817   1.200
 8394SOL    HW126081   6.100   2.819   1.271
 8394SOL    HW226082   6.128   2.816   1.110
 8395SOL     OW26083   2.793   6.589   5.510
 8395SOL    HW126084   2.848   6.553   5.435
 8395SOL    HW226085   2.778   6.518   5.579
 8396SOL     OW26086   4.850   4.897   3.455
 8396SOL    HW126087   4.875   4.987   3.490
 8396SOL    HW226088   4.870   4.893   3.357
 8397SOL     OW26089   1.151   0.852   2.559
 8397SOL    HW126090   1.243   0.890   2.550
 8397SOL    HW226091   1.157   0.756   2.587
 8398SOL     OW26092   4.441   2.708   6.137
 8398SOL    HW126093   4.485   2.769   6.071
 8398SOL    HW226094   4.393   2.762   6.206
 8399SOL     OW26095   6.442   0.004   6.809
 8399SOL    HW126096   6.354   6.984   6.803
 8399SOL    HW226097   6.501   6.984   6.875
 8400SOL     OW26098   2.209   1.966   4.156
 8400SOL    HW126099   2.272   2.037   4.123
 8400SOL    HW226100   2.215   1.887   4.096
 8401SOL     OW26101   1.978   1.548   5.273
 8401SOL    HW126102   1.950   1.593   5.358
 8401SOL    HW226103   1.992   1.617   5.202
 8402SOL     OW26104   5.311   1.770   6.605
 8402SOL    HW126105   5.286   1.679   6.571
 8402SOL    HW226106   5.277   1.781   6.698
 8403SOL     OW26107   0.440   3.600   4.263
 8403SOL    HW126108   0.511   3.665   4.289
 8403SOL    HW226109   0.350   3.640   4.283
 8404SOL     OW26110   3.462   6.968   5.851
 8404SOL    HW126111   3.488   6.956   5.755
 8404SOL    HW226112   3.434   0.036   5.865
 8405SOL     OW26113   2.825   1.282   5.588
 8405SOL    HW126114   2.794   1.231   5.669
 8405SOL    HW226115   2.787   1.240   5.506
 8406SOL     OW26116   4.300   0.635   0.255
 8406SOL    HW126117   4.343   0.576   0.187
 8406SOL    HW226118   4.331   0.729   0.240
 8407SOL     OW26119   4.254   6.380   3.489
 8407SOL    HW126120   4.296   6.415   3.572
 8407SOL    HW226121   4.156   6.368   3.503
 8408SOL     OW26122   5.496   4.282   1.088
 8408SOL    HW126123   5.557   4.214   1.129
 8408SOL    HW226124   5.542   4.324   1.010
 8409SOL     OW26125   4.842   2.176   3.307
 8409SOL    HW126126   4.857   2.208   3.214
 8409SOL    HW226127   4.910   2.107   3.331
 8410SOL     OW26128   6.424   0.926   1.414
 8410SOL    HW126129   6.436   0.912   1.512
 8410SOL    HW226130   6.436   1.023   1.393
 8411SOL     OW26131   0.514   6.301   0.853
 8411SOL    HW126132   0.452   6.319   0.777
 8411SOL    HW226133   0.495   6.210   0.890
 8412SOL     OW26134   3.795   2.676   1.352
 8412SOL    HW126135   3.803   2.752   1.416
 8412SOL    HW226136   3.717   2.618   1.378
 8413SOL     OW26137   5.018   5.930   6.303
 8413SOL    HW126138   4.928   5.896   6.330
 8413SOL    HW226139   5.032   5.913   6.206
 8414SOL     OW26140   2.833   0.299   3.588
 8414SOL    HW126141   2.848   0.396   3.607
 8414SOL    HW226142   2.797   0.255   3.670
 8415SOL     OW26143   0.787   5.981   4.495
 8415SOL    HW126144   0.825   6.040   4.566
 8415SOL    HW226145   0.857   5.962   4.426
 8416SOL     OW26146   6.339   1.704   4.121
 8416SOL    HW126147   6.308   1.616   4.085
 8416SOL    HW226148   6.342   1.700   4.221
 8417SOL     OW26149   0.770   3.324   5.368
 8417SOL    HW126150   0.739   3.282   5.283
 8417SOL    HW226151   0.845   3.271   5.407
 8418SOL     OW26152   6.683   5.516   1.639
 8418SOL    HW126153   6.702   5.613   1.654
 8418SOL    HW226154   6.648   5.504   1.546
 8419SOL     OW26155   5.298   0.745   2.603
 8419SOL    HW126156   5.339   0.713   2.688
 8419SOL    HW226157   5.367   0.744   2.531
 8420SOL     OW26158   3.732   0.170   1.364
 8420SOL    HW126159   3.636   0.187   1.386
 8420SOL    HW226160   3.790   0.211   1.433
 8421SOL     OW26161   3.265   4.869   0.416
 8421SOL    HW126162   3.237   4.795   0.355
 8421SOL    HW226163   3.210   4.867   0.499
 8422SOL     OW26164   4.645   1.051   2.340
 8422SOL    HW126165   4.639   1.143   2.301
 8422SOL    HW226166   4.565   1.034   2.397
 8423SOL     OW26167   4.051   4.181   6.110
 8423SOL    HW126168   3.969   4.129   6.085
 8423SOL    HW226169   4.040   4.218   6.202
 8424SOL     OW26170   1.948   2.332   2.923
 8424SOL    HW126171   2.033   2.376   2.895
 8424SOL    HW226172   1.876   2.354   2.858
 8425SOL     OW26173   4.065   3.739   5.823
 8425SOL    HW126174   4.060   3.830   5.865
 8425SOL    HW226175   3.974   3.699   5.819
 8426SOL     OW26176   3.253   3.278   2.748
 8426SOL    HW126177   3.236   3.224   2.666
 8426SOL    HW226178   3.345   3.260   2.782
 8427SOL     OW26179   3.307   4.039   3.857
 8427SOL    HW126180   3.347   4.121   3.816
 8427SOL    HW226181   3.256   3.988   3.788
 8428SOL     OW26182   0.182   6.286   1.459
 8428SOL    HW126183   0.192   6.210   1.523
 8428SOL    HW226184   0.095   6.334   1.477
 8429SOL     OW26185   1.407   5.375   5.593
 8429SOL    HW126186   1.363   5.288   5.571
 8429SOL    HW226187   1.461   5.364   5.676
 8430SOL     OW26188   3.788   4.958   3.812
 8430SOL    HW126189   3.756   4.976   3.719
 8430SOL    HW226190   3.852   4.881   3.812
 8431SOL     OW26191   4.414   3.838   6.924
 8431SOL    HW126192   4.427   3.924   6.974
 8431SOL    HW226193   4.342   3.785   6.969
 8432SOL     OW26194   6.232   5.605   5.560
 8432SOL    HW126195   6.264   5.510   5.556
 8432SOL    HW226196   6.164   5.614   5.632
 8433SOL     OW26197   4.189   3.200   0.453
 8433SOL    HW126198   4.111   3.148   0.420
 8433SOL    HW226199   4.159   3.291   0.482
 8434SOL     OW26200   2.504   0.186   4.399
 8434SOL    HW126201   2.574   0.237   4.349
 8434SOL    HW226202   2.419   0.238   4.400
 8435SOL     OW26203   5.570   0.395   2.479
 8435SOL    HW126204   5.573   0.424   2.383
 8435SOL    HW226205   5.597   0.299   2.486
 8436SOL     OW26206   3.142   6.662   3.723
 8436SOL    HW126207   3.157   6.647   3.625
 8436SOL    HW226208   3.067   6.726   3.736
 8437SOL     OW26209   2.437   2.370   2.907
 8437SOL    HW126210   2.537   2.369   2.903
 8437SOL    HW226211   2.405   2.288   2.956
 8438SOL     OW26212   2.316   4.655   3.165
 8438SOL    HW126213   2.330   4.691   3.257
 8438SOL    HW226214   2.344   4.724   3.098
 8439SOL     OW26215   6.169   4.542   2.429
 8439SOL    HW126216   6.119   4.528   2.514
 8439SOL    HW226217   6.105   4.545   2.352
 8440SOL     OW26218   3.122   2.042   3.288
 8440SOL    HW126219   3.093   2.084   3.202
 8440SOL    HW226220   3.111   1.943   3.281
 8441SOL     OW26221   5.815   6.414   6.891
 8441SOL    HW126222   5.728   6.367   6.882
 8441SOL    HW226223   5.889   6.354   6.862
 8442SOL     OW26224   3.842   1.590   5.353
 8442SOL    HW126225   3.768   1.612   5.289
 8442SOL    HW226226   3.853   1.490   5.357
 8443SOL     OW26227   2.348   5.159   3.475
 8443SOL    HW126228   2.341   5.171   3.376
 8443SOL    HW226229   2.441   5.184   3.504
 8444SOL     OW26230   3.397   6.578   3.810
 8444SOL    HW126231   3.302   6.596   3.784
 8444SOL    HW226232   3.434   6.656   3.859
 8445SOL     OW26233   2.583   0.119   0.745
 8445SOL    HW126234   2.558   0.152   0.654
 8445SOL    HW226235   2.650   0.181   0.786
 8446SOL     OW26236   6.462   5.063   5.711
 8446SOL    HW126237   6.515   5.073   5.626
 8446SOL    HW226238   6.521   5.029   5.783
 8447SOL     OW26239   4.281   1.228   1.795
 8447SOL    HW126240   4.216   1.175   1.740
 8447SOL    HW226241   4.279   1.323   1.765
 8448SOL     OW26242   4.509   6.207   3.277
 8448SOL    HW126243   4.496   6.218   3.375
 8448SOL    HW226244   4.572   6.277   3.243
 8449SOL     OW26245   0.073   3.361   3.275
 8449SOL    HW126246   0.133   3.314   3.339
 8449SOL    HW226247   7.017   3.307   3.259
 8450SOL     OW26248   0.963   0.740   1.466
 8450SOL    HW126249   1.040   0.699   1.514
 8450SOL    HW226250   0.966   0.713   1.370
 8451SOL     OW26251   3.584   1.039   0.081
 8451SOL    HW126252   3.575   1.098   0.162
 8451SOL    HW226253   3.497   1.038   0.032
 8452SOL     OW26254   6.104   3.089   3.979
 8452SOL    HW126255   6.105   3.012   3.916
 8452SOL    HW226256   6.198   3.114   4.002
 8453SOL     OW26257   0.328   5.482   0.639
 8453SOL    HW126258   0.262   5.518   0.704
 8453SOL    HW226259   0.405   5.546   0.630
 8454SOL     OW26260   0.291   5.207   0.617
 8454SOL    HW126261   0.311   5.305   0.624
 8454SOL    HW226262   0.273   5.170   0.708
 8455SOL     OW26263   0.527   1.633   2.766
 8455SOL    HW126264   0.506   1.731   2.764
 8455SOL    HW226265   0.626   1.620   2.778
 8456SOL     OW26266   4.563   6.847   3.388
 8456SOL    HW126267   4.635   6.846   3.319
 8456SOL    HW226268   4.580   6.921   3.453
 8457SOL     OW26269   6.630   6.018   4.109
 8457SOL    HW126270   6.603   6.061   4.022
 8457SOL    HW226271   6.563   6.042   4.179
 8458SOL     OW26272   2.453   0.579   0.115
 8458SOL    HW126273   2.380   0.511   0.115
 8458SOL    HW226274   2.531   0.544   0.063
 8459SOL     OW26275   2.491   5.720   2.347
 8459SOL    HW126276   2.574   5.685   2.304
 8459SOL    HW226277   2.510   5.810   2.388
 8460SOL     OW26278   4.783   4.308   5.178
 8460SOL    HW126279   4.705   4.333   5.121
 8460SOL    HW226280   4.862   4.287   5.120
 8461SOL     OW26281   0.792   2.642   4.346
 8461SOL    HW126282   0.781   2.741   4.359
 8461SOL    HW226283   0.846   2.626   4.264
 8462SOL     OW26284   2.643   2.174   6.755
 8462SOL    HW126285   2.587   2.249   6.720
 8462SOL    HW226286   2.644   2.100   6.688
 8463SOL     OW26287   6.965   7.005   1.494
 8463SOL    HW126288   6.888   6.947   1.519
 8463SOL    HW226289   6.998   0.027   1.575
 8464SOL     OW26290   5.140   4.388   4.390
 8464SOL    HW126291   5.110   4.468   4.339
 8464SOL    HW226292   5.226   4.409   4.437
 8465SOL     OW26293   1.147   2.561   0.550
 8465SOL    HW126294   1.140   2.616   0.466
 8465SOL    HW226295   1.096   2.476   0.538
 8466SOL     OW26296   0.299   6.471   3.900
 8466SOL    HW126297   0.351   6.422   3.829
 8466SOL    HW226298   0.235   6.534   3.856
 8467SOL     OW26299   2.947   5.792   0.536
 8467SOL    HW126300   2.920   5.877   0.580
 8467SOL    HW226301   3.027   5.807   0.479
 8468SOL     OW26302   3.191   1.539   0.117
 8468SOL    HW126303   3.234   1.615   0.166
 8468SOL    HW226304   3.250   1.458   0.122
 8469SOL     OW26305   3.384   2.762   0.030
 8469SOL    HW126306   3.393   2.839   6.993
 8469SOL    HW226307   3.299   2.771   0.081
 8470SOL     OW26308   2.259   3.591   0.627
 8470SOL    HW126309   2.340   3.531   0.631
 8470SOL    HW226310   2.286   3.684   0.651
 8471SOL     OW26311   3.129   1.212   2.717
 8471SOL    HW126312   3.203   1.259   2.764
 8471SOL    HW226313   3.162   1.125   2.680
 8472SOL     OW26314   0.093   0.249   3.793
 8472SOL    HW126315   0.115   0.241   3.696
 8472SOL    HW226316   0.084   0.345   3.818
 8473SOL     OW26317   0.124   5.599   6.842
 8473SOL    HW126318   0.093   5.599   6.937
 8473SOL    HW226319   0.199   5.665   6.832
 8474SOL     OW26320   3.426   2.886   2.025
 8474SOL    HW126321   3.363   2.809   2.020
 8474SOL    HW226322   3.376   2.972   2.018
 8475SOL     OW26323   0.211   1.083   3.332
 8475SOL    HW126324   0.306   1.052   3.330
 8475SOL    HW226325   0.208   1.182   3.320
 8476SOL     OW26326   6.209   0.896   1.237
 8476SOL    HW126327   6.241   0.858   1.151
 8476SOL    HW226328   6.287   0.912   1.298
 8477SOL     OW26329   3.744   6.016   1.424
 8477SOL    HW126330   3.823   6.002   1.484
 8477SOL    HW226331   3.717   6.112   1.427
 8478SOL     OW26332   1.530   0.232   6.168
 8478SOL    HW126333   1.624   0.224   6.201
 8478SOL    HW226334   1.485   0.309   6.212
 8479SOL     OW26335   6.509   2.295   0.610
 8479SOL    HW126336   6.558   2.274   0.695
 8479SOL    HW226337   6.418   2.332   0.632
 8480SOL     OW26338   3.280   0.992   0.847
 8480SOL    HW126339   3.223   1.071   0.827
 8480SOL    HW226340   3.239   0.910   0.808
 8481SOL     OW26341   4.475   1.538   3.781
 8481SOL    HW126342   4.556   1.549   3.838
 8481SOL    HW226343   4.469   1.614   3.716
 8482SOL     OW26344   2.939   0.047   2.317
 8482SOL    HW126345   3.010   7.005   2.303
 8482SOL    HW226346   2.919   0.092   2.230
 8483SOL     OW26347   4.008   5.746   1.761
 8483SOL    HW126348   4.023   5.659   1.714
 8483SOL    HW226349   4.057   5.746   1.848
 8484SOL     OW26350   6.564   5.044   3.160
 8484SOL    HW126351   6.596   4.987   3.236
 8484SOL    HW226352   6.636   5.051   3.091
 8485SOL     OW26353   2.880   3.315   6.487
 8485SOL    HW126354   2.846   3.239   6.543
 8485SOL    HW226355   2.803   3.375   6.464
 8486SOL     OW26356   5.089   1.423   3.001
 8486SOL    HW126357   4.992   1.449   3.005
 8486SOL    HW226358   5.145   1.497   3.038
 8487SOL     OW26359   5.738   0.356   0.862
 8487SOL    HW126360   5.838   0.354   0.854
 8487SOL    HW226361   5.707   0.451   0.868
 8488SOL     OW26362   5.642   5.127   5.066
 8488SOL    HW126363   5.586   5.209   5.058
 8488SOL    HW226364   5.704   5.121   4.988
 8489SOL     OW26365   6.389   0.612   1.423
 8489SOL    HW126366   6.311   0.640   1.478
 8489SOL    HW226367   6.464   0.677   1.435
 8490SOL     OW26368   4.395   6.062   3.842
 8490SOL    HW126369   4.364   5.988   3.782
 8490SOL    HW226370   4.336   6.067   3.922
 8491SOL     OW26371   1.970   0.465   1.727
 8491SOL    HW126372   1.949   0.462   1.825
 8491SOL    HW226373   1.896   0.512   1.679
 8492SOL     OW26374   4.495   4.078   6.183
 8492SOL    HW126375   4.553   4.049   6.259
 8492SOL    HW226376   4.537   4.158   6.139
 8493SOL     OW26377   3.275   1.832   6.421
 8493SOL    HW126378   3.280   1.915   6.477
 8493SOL    HW226379   3.182   1.821   6.386
 8494SOL     OW26380   2.191   4.746   7.009
 8494SOL    HW126381   2.238   4.668   0.025
 8494SOL    HW226382   2.110   4.713   6.960
 8495SOL     OW26383   7.021   3.625   0.069
 8495SOL    HW126384   0.044   3.695   0.018
 8495SOL    HW226385   7.016   3.542   0.014
 8496SOL     OW26386   0.623   1.958   1.980
 8496SOL    HW126387   0.639   1.908   1.895
 8496SOL    HW226388   0.679   2.040   1.982
 8497SOL     OW26389   6.330   0.102   4.525
 8497SOL    HW126390   6.320   0.140   4.433
 8497SOL    HW226391   6.258   0.140   4.584
 8498SOL     OW26392   0.448   6.230   2.775
 8498SOL    HW126393   0.527   6.169   2.775
 8498SOL    HW226394   0.479   6.325   2.764
 8499SOL     OW26395   2.370   5.515   6.526
 8499SOL    HW126396   2.320   5.601   6.518
 8499SOL    HW226397   2.368   5.467   6.438
 8500SOL     OW26398   1.735   1.203   5.592
 8500SOL    HW126399   1.826   1.163   5.597
 8500SOL    HW226400   1.738   1.296   5.630
 8501SOL     OW26401   1.628   2.637   0.472
 8501SOL    HW126402   1.656   2.570   0.540
 8501SOL    HW226403   1.565   2.595   0.407
 8502SOL     OW26404   1.864   4.792   1.213
 8502SOL    HW126405   1.788   4.815   1.152
 8502SOL    HW226406   1.939   4.755   1.159
 8503SOL     OW26407   1.253   5.863   2.833
 8503SOL    HW126408   1.232   5.951   2.875
 8503SOL    HW226409   1.224   5.865   2.737
 8504SOL     OW26410   1.886   6.608   3.717
 8504SOL    HW126411   1.860   6.540   3.786
 8504SOL    HW226412   1.839   6.695   3.736
 8505SOL     OW26413   5.169   3.915   3.727
 8505SOL    HW126414   5.193   3.850   3.655
 8505SOL    HW226415   5.201   3.880   3.815
 8506SOL     OW26416   0.584   0.302   0.858
 8506SOL    HW126417   0.576   0.260   0.948
 8506SOL    HW226418   0.545   0.394   0.861
 8507SOL     OW26419   3.310   0.619   5.533
 8507SOL    HW126420   3.268   0.557   5.466
 8507SOL    HW226421   3.273   0.711   5.520
 8508SOL     OW26422   0.279   2.418   4.507
 8508SOL    HW126423   0.302   2.346   4.441
 8508SOL    HW226424   0.333   2.500   4.486
 8509SOL     OW26425   5.450   1.184   3.891
 8509SOL    HW126426   5.456   1.238   3.975
 8509SOL    HW226427   5.540   1.144   3.870
 8510SOL     OW26428   5.468   4.509   3.036
 8510SOL    HW126429   5.540   4.481   2.973
 8510SOL    HW226430   5.387   4.536   2.985
 8511SOL     OW26431   5.636   3.589   1.489
 8511SOL    HW126432   5.653   3.529   1.411
 8511SOL    HW226433   5.583   3.668   1.459
 8512SOL     OW26434   3.159   2.314   0.043
 8512SOL    HW126435   3.236   2.373   0.018
 8512SOL    HW226436   3.183   2.260   0.124
 8513SOL     OW26437   4.554   3.942   1.204
 8513SOL    HW126438   4.468   3.897   1.230
 8513SOL    HW226439   4.631   3.882   1.227
 8514SOL     OW26440   2.694   2.308   3.440
 8514SOL    HW126441   2.631   2.297   3.518
 8514SOL    HW226442   2.785   2.277   3.467
 8515SOL     OW26443   6.319   0.732   6.970
 8515SOL    HW126444   6.295   0.811   6.913
 8515SOL    HW226445   6.326   0.760   0.039
 8516SOL     OW26446   6.593   2.550   1.912
 8516SOL    HW126447   6.547   2.511   1.833
 8516SOL    HW226448   6.550   2.637   1.936
 8517SOL     OW26449   2.119   2.317   5.856
 8517SOL    HW126450   2.181   2.350   5.927
 8517SOL    HW226451   2.045   2.383   5.842
 8518SOL     OW26452   5.077   4.384   5.982
 8518SOL    HW126453   4.987   4.348   6.007
 8518SOL    HW226454   5.122   4.420   6.064
 8519SOL     OW26455   1.077   5.281   1.109
 8519SOL    HW126456   1.029   5.223   1.174
 8519SOL    HW226457   1.088   5.373   1.147
 8520SOL     OW26458   2.775   2.661   6.786
 8520SOL    HW126459   2.723   2.648   6.701
 8520SOL    HW226460   2.873   2.665   6.765
 8521SOL     OW26461   2.234   4.942   5.792
 8521SOL    HW126462   2.219   4.859   5.739
 8521SOL    HW226463   2.321   4.935   5.841
 8522SOL     OW26464   0.901   6.739   1.273
 8522SOL    HW126465   0.995   6.730   1.307
 8522SOL    HW226466   0.843   6.671   1.317
 8523SOL     OW26467   2.268   5.996   0.004
 8523SOL    HW126468   2.284   6.093   0.018
 8523SOL    HW226469   2.190   5.967   0.060
 8524SOL     OW26470   0.681   3.205   5.142
 8524SOL    HW126471   0.670   3.266   5.063
 8524SOL    HW226472   0.612   3.132   5.138
 8525SOL     OW26473   5.967   4.725   1.910
 8525SOL    HW126474   5.925   4.807   1.871
 8525SOL    HW226475   6.039   4.692   1.848
 8526SOL     OW26476   3.535   6.205   0.787
 8526SOL    HW126477   3.577   6.296   0.787
 8526SOL    HW226478   3.499   6.184   0.696
 8527SOL     OW26479   3.115   0.832   0.159
 8527SOL    HW126480   3.111   0.771   0.080
 8527SOL    HW226481   3.027   0.831   0.206
 8528SOL     OW26482   3.998   1.194   0.482
 8528SOL    HW126483   4.024   1.187   0.578
 8528SOL    HW226484   3.924   1.130   0.462
 8529SOL     OW26485   1.143   0.469   0.552
 8529SOL    HW126486   1.093   0.552   0.579
 8529SOL    HW226487   1.111   0.392   0.606
 8530SOL     OW26488   4.182   3.716   5.113
 8530SOL    HW126489   4.199   3.697   5.016
 8530SOL    HW226490   4.228   3.647   5.169
 8531SOL     OW26491   6.835   5.125   2.738
 8531SOL    HW126492   6.879   5.036   2.720
 8531SOL    HW226493   6.894   5.198   2.705
 8532SOL     OW26494   3.943   5.873   4.856
 8532SOL    HW126495   3.859   5.826   4.829
 8532SOL    HW226496   3.959   5.858   4.953
 8533SOL     OW26497   2.119   5.720   0.272
 8533SOL    HW126498   2.175   5.678   0.201
 8533SOL    HW226499   2.022   5.709   0.249
 8534SOL     OW26500   5.162   2.471   4.324
 8534SOL    HW126501   5.074   2.424   4.325
 8534SOL    HW226502   5.236   2.404   4.318
 8535SOL     OW26503   5.811   1.324   3.511
 8535SOL    HW126504   5.831   1.371   3.425
 8535SOL    HW226505   5.878   1.251   3.525
 8536SOL     OW26506   0.167   1.538   4.880
 8536SOL    HW126507   0.174   1.602   4.956
 8536SOL    HW226508   0.167   1.588   4.794
 8537SOL     OW26509   5.507   0.644   3.423
 8537SOL    HW126510   5.478   0.734   3.389
 8537SOL    HW226511   5.607   0.641   3.428
 8538SOL     OW26512   1.824   0.980   0.166
 8538SOL    HW126513   1.857   0.969   0.260
 8538SOL    HW226514   1.802   0.890   0.129
 8539SOL     OW26515   6.597   1.247   3.113
 8539SOL    HW126516   6.679   1.279   3.064
 8539SOL    HW226517   6.529   1.217   3.047
 8540SOL     OW26518   5.850   0.585   6.614
 8540SOL    HW126519   5.930   0.579   6.555
 8540SOL    HW226520   5.789   0.508   6.596
 8541SOL     OW26521   3.478   1.996   3.738
 8541SOL    HW126522   3.443   2.018   3.647
 8541SOL    HW226523   3.435   2.057   3.805
 8542SOL     OW26524   3.804   5.423   6.120
 8542SOL    HW126525   3.886   5.375   6.089
 8542SOL    HW226526   3.742   5.438   6.044
 8543SOL     OW26527   2.386   1.852   1.452
 8543SOL    HW126528   2.330   1.920   1.405
 8543SOL    HW226529   2.405   1.776   1.390
 8544SOL     OW26530   5.545   3.496   4.459
 8544SOL    HW126531   5.455   3.535   4.442
 8544SOL    HW226532   5.578   3.526   4.548
 8545SOL     OW26533   4.119   0.376   5.599
 8545SOL    HW126534   4.175   0.441   5.651
 8545SOL    HW226535   4.168   0.349   5.516
 8546SOL     OW26536   5.715   2.044   4.657
 8546SOL    HW126537   5.715   1.965   4.718
 8546SOL    HW226538   5.809   2.065   4.630
 8547SOL     OW26539   0.252   6.557   5.759
 8547SOL    HW126540   0.191   6.559   5.838
 8547SOL    HW226541   0.316   6.634   5.764
 8548SOL     OW26542   6.292   2.717   5.240
 8548SOL    HW126543   6.324   2.625   5.263
 8548SOL    HW226544   6.241   2.755   5.317
 8549SOL     OW26545   0.710   3.364   3.967
 8549SOL    HW126546   0.789   3.309   3.939
 8549SOL    HW226547   0.734   3.461   3.962
 8550SOL     OW26548   1.769   4.707   7.019
 8550SOL    HW126549   1.858   4.677   6.986
 8550SOL    HW226550   1.716   4.628   0.022
 8551SOL     OW26551   3.803   3.678   5.915
 8551SOL    HW126552   3.819   3.594   5.968
 8551SOL    HW226553   3.732   3.661   5.846
 8552SOL     OW26554   2.838   6.587   3.744
 8552SOL    HW126555   2.755   6.644   3.743
 8552SOL    HW226556   2.902   6.623   3.811
 8553SOL     OW26557   4.878   5.119   6.026
 8553SOL    HW126558   4.794   5.170   6.003
 8553SOL    HW226559   4.921   5.161   6.106
 8554SOL     OW26560   0.849   5.131   0.130
 8554SOL    HW126561   0.890   5.096   0.214
 8554SOL    HW226562   0.919   5.137   0.059
 8555SOL     OW26563   0.750   0.045   3.032
 8555SOL    HW126564   0.841   0.052   3.072
 8555SOL    HW226565   0.712   6.981   3.049
 8556SOL     OW26566   0.930   6.671   4.107
 8556SOL    HW126567   0.982   6.595   4.070
 8556SOL    HW226568   0.912   6.738   4.035
 8557SOL     OW26569   6.537   1.135   2.480
 8557SOL    HW126570   6.557   1.172   2.571
 8557SOL    HW226571   6.550   1.206   2.411
 8558SOL     OW26572   2.668   6.073   3.210
 8558SOL    HW126573   2.713   6.006   3.269
 8558SOL    HW226574   2.585   6.106   3.255
 8559SOL     OW26575   6.290   0.536   2.225
 8559SOL    HW126576   6.250   0.462   2.278
 8559SOL    HW226577   6.249   0.623   2.253
 8560SOL     OW26578   0.061   0.115   1.774
 8560SOL    HW126579   0.043   0.063   1.858
 8560SOL    HW226580   0.153   0.094   1.741
 8561SOL     OW26581   3.455   5.985   1.820
 8561SOL    HW126582   3.478   6.053   1.750
 8561SOL    HW226583   3.520   5.992   1.896
 8562SOL     OW26584   5.100   6.281   4.917
 8562SOL    HW126585   5.091   6.251   5.012
 8562SOL    HW226586   5.134   6.205   4.862
 8563SOL     OW26587   2.776   3.934   6.954
 8563SOL    HW126588   2.695   3.940   6.896
 8563SOL    HW226589   2.845   3.876   6.910
 8564SOL     OW26590   2.523   1.266   3.081
 8564SOL    HW126591   2.435   1.306   3.055
 8564SOL    HW226592   2.515   1.167   3.083
 8565SOL     OW26593   4.773   6.674   1.793
 8565SOL    HW126594   4.786   6.684   1.892
 8565SOL    HW226595   4.748   6.763   1.754
 8566SOL     OW26596   1.134   0.625   1.638
 8566SOL    HW126597   1.219   0.587   1.603
 8566SOL    HW226598   1.152   0.675   1.723
 8567SOL     OW26599   6.937   1.894   2.408
 8567SOL    HW126600   6.891   1.967   2.459
 8567SOL    HW226601   6.967   1.823   2.471
 8568SOL     OW26602   4.781   1.184   5.792
 8568SOL    HW126603   4.857   1.125   5.763
 8568SOL    HW226604   4.750   1.157   5.882
 8569SOL     OW26605   5.002   1.669   5.431
 8569SOL    HW126606   5.029   1.704   5.341
 8569SOL    HW226607   4.974   1.574   5.423
 8570SOL     OW26608   0.809   2.497   5.434
 8570SOL    HW126609   0.839   2.488   5.339
 8570SOL    HW226610   0.837   2.417   5.486
 8571SOL     OW26611   0.544   5.070   6.451
 8571SOL    HW126612   0.456   5.050   6.408
 8571SOL    HW226613   0.609   4.999   6.426
 8572SOL     OW26614   3.189   5.122   6.634
 8572SOL    HW126615   3.222   5.206   6.592
 8572SOL    HW226616   3.091   5.130   6.655
 8573SOL     OW26617   3.200   0.010   6.524
 8573SOL    HW126618   3.164   0.012   6.618
 8573SOL    HW226619   3.128   7.007   6.461
 8574SOL     OW26620   0.263   5.351   5.968
 8574SOL    HW126621   0.222   5.312   5.886
 8574SOL    HW226622   0.359   5.324   5.974
 8575SOL     OW26623   3.364   2.484   6.240
 8575SOL    HW126624   3.307   2.461   6.161
 8575SOL    HW226625   3.329   2.567   6.283
 8576SOL     OW26626   0.997   6.369   0.328
 8576SOL    HW126627   1.041   6.439   0.383
 8576SOL    HW226628   1.061   6.335   0.259
 8577SOL     OW26629   6.714   5.235   4.014
 8577SOL    HW126630   6.755   5.313   3.967
 8577SOL    HW226631   6.773   5.206   4.089
 8578SOL     OW26632   4.576   0.488   4.520
 8578SOL    HW126633   4.595   0.586   4.527
 8578SOL    HW226634   4.595   0.444   4.608
 8579SOL     OW26635   1.616   6.497   3.941
 8579SOL    HW126636   1.629   6.595   3.926
 8579SOL    HW226637   1.555   6.460   3.871
 8580SOL     OW26638   2.224   6.961   1.981
 8580SOL    HW126639   2.287   6.917   2.046
 8580SOL    HW226640   2.235   0.033   1.986
 8581SOL     OW26641   3.552   3.109   1.639
 8581SOL    HW126642   3.607   3.035   1.599
 8581SOL    HW226643   3.609   3.161   1.703
 8582SOL     OW26644   4.252   4.615   2.213
 8582SOL    HW126645   4.205   4.532   2.242
 8582SOL    HW226646   4.201   4.695   2.246
 8583SOL     OW26647   5.851   1.159   5.893
 8583SOL    HW126648   5.860   1.229   5.823
 8583SOL    HW226649   5.812   1.199   5.976
 8584SOL     OW26650   0.534   3.711   6.106
 8584SOL    HW126651   0.574   3.784   6.050
 8584SOL    HW226652   0.435   3.726   6.114
 8585SOL     OW26653   0.107   6.893   6.250
 8585SOL    HW126654   0.189   6.950   6.243
 8585SOL    HW226655   0.044   6.916   6.176
 8586SOL     OW26656   2.630   6.758   3.766
 8586SOL    HW126657   2.647   6.853   3.792
 8586SOL    HW226658   2.587   6.755   3.676
 8587SOL     OW26659   1.540   0.551   2.507
 8587SOL    HW126660   1.452   0.557   2.555
 8587SOL    HW226661   1.551   0.459   2.470
 8588SOL     OW26662   2.497   0.701   6.771
 8588SOL    HW126663   2.495   0.737   6.864
 8588SOL    HW226664   2.588   0.664   6.752
 8589SOL     OW26665   4.754   2.862   4.754
 8589SOL    HW126666   4.666   2.832   4.717
 8589SOL    HW226667   4.764   2.828   4.848
 8590SOL     OW26668   6.570   5.997   4.419
 8590SOL    HW126669   6.670   6.004   4.416
 8590SOL    HW226670   6.542   5.962   4.508
 8591SOL     OW26671   1.501   5.403   6.395
 8591SOL    HW126672   1.447   5.390   6.312
 8591SOL    HW226673   1.487   5.325   6.457
 8592SOL     OW26674   6.971   4.292   0.279
 8592SOL    HW126675   6.898   4.248   0.227
 8592SOL    HW226676   0.021   4.229   0.289
 8593SOL     OW26677   0.856   0.213   2.571
 8593SOL    HW126678   0.760   0.188   2.587
 8593SOL    HW226679   0.870   0.309   2.593
 8594SOL     OW26680   3.688   3.302   5.083
 8594SOL    HW126681   3.632   3.362   5.027
 8594SOL    HW226682   3.687   3.334   5.178
 8595SOL     OW26683   2.149   1.668   2.661
 8595SOL    HW126684   2.220   1.700   2.724
 8595SOL    HW226685   2.187   1.661   2.569
 8596SOL     OW26686   5.936   6.112   2.762
 8596SOL    HW126687   6.015   6.052   2.754
 8596SOL    HW226688   5.966   6.207   2.765
 8597SOL     OW26689   4.393   2.020   1.044
 8597SOL    HW126690   4.383   2.101   0.986
 8597SOL    HW226691   4.387   1.937   0.988
 8598SOL     OW26692   0.166   5.608   1.345
 8598SOL    HW126693   0.113   5.692   1.355
 8598SOL    HW226694   0.123   5.534   1.397
 8599SOL     OW26695   1.120   3.161   4.110
 8599SOL    HW126696   1.107   3.110   4.195
 8599SOL    HW226697   1.217   3.156   4.084
 8600SOL     OW26698   5.447   5.196   6.574
 8600SOL    HW126699   5.354   5.217   6.542
 8600SOL    HW226700   5.508   5.270   6.547
 8601SOL     OW26701   1.096   0.679   5.162
 8601SOL    HW126702   1.117   0.584   5.138
 8601SOL    HW226703   0.999   0.696   5.148
 8602SOL     OW26704   2.589   6.237   2.701
 8602SOL    HW126705   2.548   6.327   2.717
 8602SOL    HW226706   2.653   6.216   2.774
 8603SOL     OW26707   3.271   4.522   0.304
 8603SOL    HW126708   3.193   4.583   0.293
 8603SOL    HW226709   3.258   4.439   0.250
 8604SOL     OW26710   6.923   2.542   3.256
 8604SOL    HW126711   6.902   2.629   3.213
 8604SOL    HW226712   6.993   2.555   3.326
 8605SOL     OW26713   3.243   4.903   4.037
 8605SOL    HW126714   3.198   4.866   4.118
 8605SOL    HW226715   3.327   4.851   4.019
 8606SOL     OW26716   2.386   4.465   5.526
 8606SOL    HW126717   2.480   4.495   5.512
 8606SOL    HW226718   2.384   4.367   5.548
 8607SOL     OW26719   3.456   5.077   0.641
 8607SOL    HW126720   3.443   5.174   0.664
 8607SOL    HW226721   3.371   5.027   0.656
 8608SOL     OW26722   4.407   5.014   3.203
 8608SOL    HW126723   4.379   4.947   3.272
 8608SOL    HW226724   4.451   4.967   3.127
 8609SOL     OW26725   4.438   0.523   3.847
 8609SOL    HW126726   4.343   0.534   3.873
 8609SOL    HW226727   4.495   0.587   3.899
 8610SOL     OW26728   1.467   1.047   2.843
 8610SOL    HW126729   1.419   1.094   2.769
 8610SOL    HW226730   1.566   1.056   2.828
 8611SOL     OW26731   2.130   2.605   3.611
 8611SOL    HW126732   2.163   2.684   3.559
 8611SOL    HW226733   2.207   2.545   3.633
 8612SOL     OW26734   3.246   3.248   0.079
 8612SOL    HW126735   3.174   3.315   0.067
 8612SOL    HW226736   3.217   3.178   0.145
 8613SOL     OW26737   2.699   2.472   1.798
 8613SOL    HW126738   2.796   2.463   1.820
 8613SOL    HW226739   2.644   2.436   1.873
 8614SOL     OW26740   0.638   2.954   2.675
 8614SOL    HW126741   0.591   2.961   2.587
 8614SOL    HW226742   0.737   2.949   2.660
 8615SOL     OW26743   4.838   1.671   5.191
 8615SOL    HW126744   4.743   1.649   5.211
 8615SOL    HW226745   4.882   1.592   5.149
 8616SOL     OW26746   1.667   5.273   1.219
 8616SOL    HW126747   1.708   5.323   1.295
 8616SOL    HW226748   1.619   5.193   1.254
 8617SOL     OW26749   6.336   1.212   7.009
 8617SOL    HW126750   6.383   1.181   0.065
 8617SOL    HW226751   6.309   1.307   7.020
 8618SOL     OW26752   5.595   6.837   1.043
 8618SOL    HW126753   5.507   6.852   1.088
 8618SOL    HW226754   5.640   6.925   1.028
 8619SOL     OW26755   3.505   5.004   1.505
 8619SOL    HW126756   3.566   5.079   1.529
 8619SOL    HW226757   3.470   4.962   1.589
 8620SOL     OW26758   6.292   0.027   3.116
 8620SOL    HW126759   6.359   0.088   3.160
 8620SOL    HW226760   6.309   0.024   3.018
 8621SOL     OW26761   5.945   2.127   3.388
 8621SOL    HW126762   5.876   2.085   3.447
 8621SOL    HW226763   5.996   2.196   3.439
 8622SOL     OW26764   4.825   4.476   0.447
 8622SOL    HW126765   4.806   4.564   0.402
 8622SOL    HW226766   4.924   4.467   0.461
 8623SOL     OW26767   0.522   4.432   3.158
 8623SOL    HW126768   0.531   4.351   3.216
 8623SOL    HW226769   0.483   4.406   3.070
 8624SOL     OW26770   0.433   4.007   3.444
 8624SOL    HW126771   0.492   3.928   3.462
 8624SOL    HW226772   0.338   3.984   3.467
 8625SOL     OW26773   4.761   7.017   4.945
 8625SOL    HW126774   4.759   0.056   5.020
 8625SOL    HW226775   4.855   7.004   4.915
 8626SOL     OW26776   3.704   2.922   4.791
 8626SOL    HW126777   3.677   2.888   4.701
 8626SOL    HW226778   3.789   2.974   4.783
 8627SOL     OW26779   0.458   0.547   3.547
 8627SOL    HW126780   0.479   0.645   3.541
 8627SOL    HW226781   0.537   0.494   3.517
 8628SOL     OW26782   6.251   6.682   1.533
 8628SOL    HW126783   6.279   6.592   1.567
 8628SOL    HW226784   6.183   6.722   1.594
 8629SOL     OW26785   1.734   5.644   4.900
 8629SOL    HW126786   1.679   5.578   4.950
 8629SOL    HW226787   1.721   5.735   4.939
 8630SOL     OW26788   5.938   4.024   4.877
 8630SOL    HW126789   6.020   4.069   4.841
 8630SOL    HW226790   5.966   3.949   4.937
 8631SOL     OW26791   3.337   5.369   6.577
 8631SOL    HW126792   3.425   5.416   6.566
 8631SOL    HW226793   3.270   5.432   6.616
 8632SOL     OW26794   3.522   6.415   3.613
 8632SOL    HW126795   3.592   6.370   3.669
 8632SOL    HW226796   3.466   6.474   3.671
 8633SOL     OW26797   4.874   1.396   4.609
 8633SOL    HW126798   4.889   1.487   4.571
 8633SOL    HW226799   4.794   1.397   4.668
 8634SOL     OW26800   5.828   2.950   0.804
 8634SOL    HW126801   5.730   2.967   0.788
 8634SOL    HW226802   5.878   3.036   0.802
 8635SOL     OW26803   6.152   4.435   6.281
 8635SOL    HW126804   6.146   4.336   6.278
 8635SOL    HW226805   6.139   4.472   6.189
 8636SOL     OW26806   5.277   5.588   0.256
 8636SOL    HW126807   5.237   5.676   0.232
 8636SOL    HW226808   5.317   5.592   0.347
 8637SOL     OW26809   2.207   1.151   0.068
 8637SOL    HW126810   2.149   1.229   0.092
 8637SOL    HW226811   2.237   1.105   0.152
 8638SOL     OW26812   2.046   3.327   6.812
 8638SOL    HW126813   1.972   3.307   6.877
 8638SOL    HW226814   2.095   3.409   6.842
 8639SOL     OW26815   5.989   2.351   1.827
 8639SOL    HW126816   5.913   2.391   1.775
 8639SOL    HW226817   6.072   2.353   1.773
 8640SOL     OW26818   4.538   3.937   0.474
 8640SOL    HW126819   4.622   3.920   0.422
 8640SOL    HW226820   4.473   3.988   0.418
 8641SOL     OW26821   6.669   4.726   4.139
 8641SOL    HW126822   6.583   4.776   4.148
 8641SOL    HW226823   6.680   4.695   4.044
 8642SOL     OW26824   4.134   0.819   2.782
 8642SOL    HW126825   4.034   0.809   2.783
 8642SOL    HW226826   4.157   0.914   2.806
 8643SOL     OW26827   4.305   0.281   0.017
 8643SOL    HW126828   4.287   0.261   6.947
 8643SOL    HW226829   4.320   0.195   0.066
 8644SOL     OW26830   4.487   2.452   5.879
 8644SOL    HW126831   4.500   2.360   5.842
 8644SOL    HW226832   4.576   2.498   5.885
 8645SOL     OW26833   5.316   4.772   1.388
 8645SOL    HW126834   5.288   4.730   1.301
 8645SOL    HW226835   5.241   4.765   1.454
 8646SOL     OW26836   6.819   1.509   1.052
 8646SOL    HW126837   6.741   1.550   1.100
 8646SOL    HW226838   6.897   1.571   1.056
 8647SOL     OW26839   2.985   4.945   6.186
 8647SOL    HW126840   2.943   4.880   6.250
 8647SOL    HW226841   3.047   5.005   6.236
 8648SOL     OW26842   5.911   1.037   4.481
 8648SOL    HW126843   5.927   1.105   4.552
 8648SOL    HW226844   5.816   1.004   4.486
 8649SOL     OW26845   5.882   5.171   6.607
 8649SOL    HW126846   5.805   5.184   6.669
 8649SOL    HW226847   5.920   5.260   6.582
 8650SOL     OW26848   1.597   4.654   5.120
 8650SOL    HW126849   1.594   4.556   5.100
 8650SOL    HW226850   1.606   4.706   5.035
 8651SOL     OW26851   3.506   0.701   0.682
 8651SOL    HW126852   3.561   0.775   0.721
 8651SOL    HW226853   3.567   0.632   0.642
 8652SOL     OW26854   1.105   4.037   3.057
 8652SOL    HW126855   1.106   4.109   2.987
 8652SOL    HW226856   1.019   3.987   3.052
 8653SOL     OW26857   5.517   1.414   5.883
 8653SOL    HW126858   5.442   1.348   5.874
 8653SOL    HW226859   5.604   1.365   5.884
 8654SOL     OW26860   1.515   5.650   1.889
 8654SOL    HW126861   1.499   5.714   1.815
 8654SOL    HW226862   1.569   5.572   1.855
 8655SOL     OW26863   5.918   0.752   4.222
 8655SOL    HW126864   5.969   0.770   4.306
 8655SOL    HW226865   5.829   0.798   4.226
 8656SOL     OW26866   6.866   1.056   0.530
 8656SOL    HW126867   6.859   1.094   0.622
 8656SOL    HW226868   6.893   0.960   0.535
 8657SOL     OW26869   4.429   4.799   6.499
 8657SOL    HW126870   4.376   4.827   6.579
 8657SOL    HW226871   4.526   4.817   6.516
 8658SOL     OW26872   4.758   6.238   6.882
 8658SOL    HW126873   4.838   6.288   6.915
 8658SOL    HW226874   4.745   6.156   6.938
 8659SOL     OW26875   4.187   1.311   3.027
 8659SOL    HW126876   4.100   1.358   3.042
 8659SOL    HW226877   4.246   1.323   3.108
 8660SOL     OW26878   5.652   3.581   0.606
 8660SOL    HW126879   5.706   3.657   0.642
 8660SOL    HW226880   5.692   3.494   0.635
 8661SOL     OW26881   5.661   4.110   0.838
 8661SOL    HW126882   5.670   4.043   0.766
 8661SOL    HW226883   5.640   4.064   0.925
 8662SOL     OW26884   5.042   5.916   1.495
 8662SOL    HW126885   5.103   5.846   1.457
 8662SOL    HW226886   4.993   5.960   1.420
 8663SOL     OW26887   2.682   6.146   0.982
 8663SOL    HW126888   2.739   6.114   0.906
 8663SOL    HW226889   2.587   6.149   0.954
 8664SOL     OW26890   3.481   6.076   1.023
 8664SOL    HW126891   3.500   6.140   0.949
 8664SOL    HW226892   3.566   6.037   1.056
 8665SOL     OW26893   5.485   5.758   5.637
 8665SOL    HW126894   5.401   5.813   5.643
 8665SOL    HW226895   5.508   5.721   5.727
 8666SOL     OW26896   5.095   1.801   4.671
 8666SOL    HW126897   5.159   1.869   4.635
 8666SOL    HW226898   5.121   1.710   4.639
 8667SOL     OW26899   4.446   2.382   3.123
 8667SOL    HW126900   4.474   2.296   3.165
 8667SOL    HW226901   4.423   2.366   3.027
 8668SOL     OW26902   5.785   3.293   2.936
 8668SOL    HW126903   5.744   3.232   2.868
 8668SOL    HW226904   5.843   3.360   2.890
 8669SOL     OW26905   2.468   6.674   6.467
 8669SOL    HW126906   2.505   6.707   6.380
 8669SOL    HW226907   2.488   6.576   6.477
 8670SOL     OW26908   3.578   4.326   5.829
 8670SOL    HW126909   3.587   4.228   5.847
 8670SOL    HW226910   3.554   4.374   5.914
 8671SOL     OW26911   5.564   2.130   3.187
 8671SOL    HW126912   5.643   2.181   3.152
 8671SOL    HW226913   5.518   2.185   3.257
 8672SOL     OW26914   2.440   5.307   3.157
 8672SOL    HW126915   2.448   5.208   3.152
 8672SOL    HW226916   2.502   5.350   3.091
 8673SOL     OW26917   6.680   1.664   6.663
 8673SOL    HW126918   6.623   1.745   6.672
 8673SOL    HW226919   6.772   1.683   6.698
 8674SOL     OW26920   6.344   5.484   1.881
 8674SOL    HW126921   6.357   5.583   1.871
 8674SOL    HW226922   6.420   5.436   1.838
 8675SOL     OW26923   3.884   1.851   4.810
 8675SOL    HW126924   3.886   1.936   4.758
 8675SOL    HW226925   3.832   1.782   4.759
 8676SOL     OW26926   4.124   6.882   3.202
 8676SOL    HW126927   4.183   6.860   3.279
 8676SOL    HW226928   4.147   6.824   3.124
 8677SOL     OW26929   2.441   6.591   5.350
 8677SOL    HW126930   2.539   6.592   5.371
 8677SOL    HW226931   2.390   6.628   5.428
 8678SOL     OW26932   0.428   0.519   1.222
 8678SOL    HW126933   0.375   0.596   1.255
 8678SOL    HW226934   0.508   0.505   1.281
 8679SOL     OW26935   6.611   3.230   4.488
 8679SOL    HW126936   6.566   3.141   4.486
 8679SOL    HW226937   6.556   3.294   4.541
 8680SOL     OW26938   0.441   3.938   1.811
 8680SOL    HW126939   0.522   3.959   1.865
 8680SOL    HW226940   0.466   3.880   1.734
 8681SOL     OW26941   4.347   5.036   6.974
 8681SOL    HW126942   4.287   5.115   6.962
 8681SOL    HW226943   4.331   4.995   0.037
 8682SOL     OW26944   4.365   6.754   1.682
 8682SOL    HW126945   4.321   6.745   1.593
 8682SOL    HW226946   4.373   6.664   1.725
 8683SOL     OW26947   1.689   2.534   2.484
 8683SOL    HW126948   1.678   2.595   2.563
 8683SOL    HW226949   1.786   2.527   2.462
 8684SOL     OW26950   0.613   2.665   4.774
 8684SOL    HW126951   0.697   2.676   4.721
 8684SOL    HW226952   0.562   2.751   4.772
 8685SOL     OW26953   1.291   2.828   5.552
 8685SOL    HW126954   1.338   2.877   5.624
 8685SOL    HW226955   1.204   2.793   5.586
 8686SOL     OW26956   0.367   1.694   1.673
 8686SOL    HW126957   0.371   1.671   1.770
 8686SOL    HW226958   0.278   1.736   1.652
 8687SOL     OW26959   3.301   5.613   2.838
 8687SOL    HW126960   3.289   5.630   2.936
 8687SOL    HW226961   3.224   5.653   2.788
 8688SOL     OW26962   3.087   6.617   0.011
 8688SOL    HW126963   3.151   6.675   6.986
 8688SOL    HW226964   3.000   6.665   0.022
 8689SOL     OW26965   3.685   4.911   0.662
 8689SOL    HW126966   3.656   4.817   0.646
 8689SOL    HW226967   3.616   4.974   0.626
 8690SOL     OW26968   2.278   2.860   3.157
 8690SOL    HW126969   2.344   2.799   3.113
 8690SOL    HW226970   2.264   2.941   3.101
 8691SOL     OW26971   3.518   2.461   6.642
 8691SOL    HW126972   3.615   2.440   6.654
 8691SOL    HW226973   3.483   2.413   6.561
 8692SOL     OW26974   3.827   2.063   2.711
 8692SOL    HW126975   3.847   2.096   2.804
 8692SOL    HW226976   3.899   2.094   2.649
 8693SOL     OW26977   6.154   1.277   0.755
 8693SOL    HW126978   6.245   1.308   0.784
 8693SOL    HW226979   6.093   1.356   0.748
 8694SOL     OW26980   3.859   1.317   5.341
 8694SOL    HW126981   3.824   1.267   5.262
 8694SOL    HW226982   3.904   1.254   5.404
 8695SOL     OW26983   4.547   3.210   6.265
 8695SOL    HW126984   4.583   3.263   6.187
 8695SOL    HW226985   4.517   3.273   6.336
 8696SOL     OW26986   2.773   5.402   0.759
 8696SOL    HW126987   2.704   5.378   0.690
 8696SOL    HW226988   2.859   5.426   0.714
 8697SOL     OW26989   6.470   3.618   0.020
 8697SOL    HW126990   6.458   3.524   0.053
 8697SOL    HW226991   6.440   3.682   0.091
 8698SOL     OW26992   6.267   5.998   4.485
 8698SOL    HW126993   6.364   6.007   4.464
 8698SOL    HW226994   6.217   6.078   4.450
 8699SOL     OW26995   1.673   2.736   5.838
 8699SOL    HW126996   1.698   2.778   5.925
 8699SOL    HW226997   1.624   2.650   5.855
 8700SOL     OW26998   1.331   0.759   4.574
 8700SOL    HW126999   1.255   0.820   4.557
 8700SOL    HW227000   1.326   0.680   4.512
 8701SOL     OW27001   1.542   0.009   6.515
 8701SOL    HW127002   1.539   0.109   6.513
 8701SOL    HW227003   1.626   7.003   6.472
 8702SOL     OW27004   5.304   4.572   0.366
 8702SOL    HW127005   5.331   4.565   0.462
 8702SOL    HW227006   5.355   4.646   0.322
 8703SOL     OW27007   2.621   5.488   1.163
 8703SOL    HW127008   2.674   5.564   1.126
 8703SOL    HW227009   2.629   5.408   1.103
 8704SOL     OW27010   6.316   3.711   3.011
 8704SOL    HW127011   6.381   3.659   3.067
 8704SOL    HW227012   6.333   3.693   2.915
 8705SOL     OW27013   5.281   0.598   0.620
 8705SOL    HW127014   5.380   0.613   0.627
 8705SOL    HW227015   5.252   0.531   0.689
 8706SOL     OW27016   4.837   1.888   6.478
 8706SOL    HW127017   4.788   1.904   6.393
 8706SOL    HW227018   4.803   1.804   6.521
 8707SOL     OW27019   5.859   1.865   0.012
 8707SOL    HW127020   5.956   1.874   7.015
 8707SOL    HW227021   5.827   1.775   7.008
 8708SOL     OW27022   4.115   2.179   2.177
 8708SOL    HW127023   4.174   2.260   2.174
 8708SOL    HW227024   4.171   2.098   2.194
 8709SOL     OW27025   6.932   6.171   6.535
 8709SOL    HW127026   6.978   6.200   6.451
 8709SOL    HW227027   6.849   6.119   6.511
 8710SOL     OW27028   2.122   3.415   3.272
 8710SOL    HW127029   2.173   3.478   3.213
 8710SOL    HW227030   2.141   3.320   3.244
 8711SOL     OW27031   0.297   5.386   2.910
 8711SOL    HW127032   0.394   5.409   2.923
 8711SOL    HW227033   0.241   5.438   2.975
 8712SOL     OW27034   3.964   1.963   4.425
 8712SOL    HW127035   3.998   1.932   4.336
 8712SOL    HW227036   4.010   2.048   4.450
 8713SOL     OW27037   6.996   4.300   3.670
 8713SOL    HW127038   7.010   4.205   3.699
 8713SOL    HW227039   0.027   4.320   3.592
 8714SOL     OW27040   0.183   1.352   6.147
 8714SOL    HW127041   0.246   1.368   6.223
 8714SOL    HW227042   0.098   1.403   6.164
 8715SOL     OW27043   5.328   7.013   0.802
 8715SOL    HW127044   5.345   6.925   0.759
 8715SOL    HW227045   5.415   0.034   0.817
 8716SOL     OW27046   0.803   0.063   1.120
 8716SOL    HW127047   0.740   7.016   1.098
 8716SOL    HW227048   0.768   0.114   1.199
 8717SOL     OW27049   3.619   3.229   3.032
 8717SOL    HW127050   3.635   3.306   3.094
 8717SOL    HW227051   3.640   3.143   3.079
 8718SOL     OW27052   0.260   3.593   5.185
 8718SOL    HW127053   0.211   3.632   5.263
 8718SOL    HW227054   0.238   3.645   5.103
 8719SOL     OW27055   1.858   6.730   6.200
 8719SOL    HW127056   1.947   6.726   6.245
 8719SOL    HW227057   1.871   6.746   6.102
 8720SOL     OW27058   6.798   4.690   5.208
 8720SOL    HW127059   6.895   4.689   5.230
 8720SOL    HW227060   6.751   4.617   5.258
 8721SOL     OW27061   5.933   2.486   3.740
 8721SOL    HW127062   5.884   2.416   3.791
 8721SOL    HW227063   5.987   2.543   3.802
 8722SOL     OW27064   4.203   0.905   0.527
 8722SOL    HW127065   4.182   0.807   0.531
 8722SOL    HW227066   4.139   0.955   0.586
 8723SOL     OW27067   5.120   5.396   0.857
 8723SOL    HW127068   5.147   5.301   0.841
 8723SOL    HW227069   5.078   5.403   0.947
 8724SOL     OW27070   5.669   6.490   5.759
 8724SOL    HW127071   5.742   6.421   5.767
 8724SOL    HW227072   5.635   6.512   5.850
 8725SOL     OW27073   2.045   0.256   6.362
 8725SOL    HW127074   2.017   0.252   6.458
 8725SOL    HW227075   2.105   0.335   6.348
 8726SOL     OW27076   6.437   0.820   1.659
 8726SOL    HW127077   6.391   0.864   1.736
 8726SOL    HW227078   6.433   0.721   1.670
 8727SOL     OW27079   0.123   6.077   1.615
 8727SOL    HW127080   0.066   6.039   1.542
 8727SOL    HW227081   0.067   6.093   1.696
 8728SOL     OW27082   4.152   0.401   4.434
 8728SOL    HW127083   4.091   0.447   4.498
 8728SOL    HW227084   4.109   0.400   4.343
 8729SOL     OW27085   4.633   5.906   3.572
 8729SOL    HW127086   4.673   5.875   3.486
 8729SOL    HW227087   4.612   6.004   3.566
 8730SOL     OW27088   6.738   4.372   2.169
 8730SOL    HW127089   6.728   4.276   2.192
 8730SOL    HW227090   6.740   4.427   2.252
 8731SOL     OW27091   2.358   2.034   2.432
 8731SOL    HW127092   2.308   1.976   2.496
 8731SOL    HW227093   2.446   2.059   2.473
 8732SOL     OW27094   5.523   4.038   1.374
 8732SOL    HW127095   5.490   3.945   1.392
 8732SOL    HW227096   5.457   4.086   1.316
 8733SOL     OW27097   1.622   5.710   2.437
 8733SOL    HW127098   1.539   5.670   2.476
 8733SOL    HW227099   1.645   5.663   2.352
 8734SOL     OW27100   1.202   4.747   1.873
 8734SOL    HW127101   1.200   4.659   1.826
 8734SOL    HW227102   1.116   4.760   1.923
 8735SOL     OW27103   0.897   1.695   6.969
 8735SOL    HW127104   0.807   1.661   6.997
 8735SOL    HW227105   0.933   1.638   6.896
 8736SOL     OW27106   0.356   6.663   6.146
 8736SOL    HW127107   0.296   6.727   6.097
 8736SOL    HW227108   0.451   6.688   6.131
 8737SOL     OW27109   2.442   0.156   5.706
 8737SOL    HW127110   2.487   0.067   5.696
 8737SOL    HW227111   2.472   0.199   5.791
 8738SOL     OW27112   2.422   4.741   3.989
 8738SOL    HW127113   2.377   4.750   3.900
 8738SOL    HW227114   2.478   4.659   3.990
 8739SOL     OW27115   6.456   5.484   6.399
 8739SOL    HW127116   6.527   5.415   6.414
 8739SOL    HW227117   6.468   5.527   6.310
 8740SOL     OW27118   4.979   0.882   5.063
 8740SOL    HW127119   5.031   0.878   5.149
 8740SOL    HW227120   5.030   0.935   4.995
 8741SOL     OW27121   2.420   0.582   2.191
 8741SOL    HW127122   2.421   0.678   2.221
 8741SOL    HW227123   2.484   0.570   2.115
 8742SOL     OW27124   5.811   6.274   1.426
 8742SOL    HW127125   5.817   6.344   1.496
 8742SOL    HW227126   5.748   6.304   1.354
 8743SOL     OW27127   1.659   0.290   2.347
 8743SOL    HW127128   1.708   0.242   2.274
 8743SOL    HW227129   1.643   0.227   2.423
 8744SOL     OW27130   3.750   2.228   5.942
 8744SOL    HW127131   3.716   2.277   6.023
 8744SOL    HW227132   3.701   2.260   5.861
 8745SOL     OW27133   6.121   2.445   5.754
 8745SOL    HW127134   6.086   2.375   5.816
 8745SOL    HW227135   6.123   2.533   5.802
 8746SOL     OW27136   4.798   3.919   5.123
 8746SOL    HW127137   4.822   3.824   5.102
 8746SOL    HW227138   4.834   3.979   5.050
 8747SOL     OW27139   0.275   2.715   2.820
 8747SOL    HW127140   0.322   2.631   2.850
 8747SOL    HW227141   0.337   2.793   2.830
 8748SOL     OW27142   0.049   1.585   5.938
 8748SOL    HW127143   6.985   1.547   5.922
 8748SOL    HW227144   0.119   1.521   5.903
 8749SOL     OW27145   2.815   0.253   6.273
 8749SOL    HW127146   2.891   0.297   6.321
 8749SOL    HW227147   2.831   0.257   6.174
 8750SOL     OW27148   3.422   3.215   5.401
 8750SOL    HW127149   3.506   3.216   5.455
 8750SOL    HW227150   3.440   3.172   5.312
 8751SOL     OW27151   6.180   0.339   3.053
 8751SOL    HW127152   6.257   0.287   3.090
 8751SOL    HW227153   6.145   0.401   3.124
 8752SOL     OW27154   2.939   4.896   6.779
 8752SOL    HW127155   2.867   4.849   6.829
 8752SOL    HW227156   2.965   4.980   6.827
 8753SOL     OW27157   4.566   1.639   5.169
 8753SOL    HW127158   4.504   1.670   5.241
 8753SOL    HW227159   4.543   1.684   5.083
 8754SOL     OW27160   0.935   2.201   5.277
 8754SOL    HW127161   0.996   2.262   5.226
 8754SOL    HW227162   0.974   2.108   5.278
 8755SOL     OW27163   2.440   1.102   6.180
 8755SOL    HW127164   2.367   1.051   6.226
 8755SOL    HW227165   2.444   1.195   6.217
 8756SOL     OW27166   2.123   3.626   3.091
 8756SOL    HW127167   2.133   3.677   3.006
 8756SOL    HW227168   2.139   3.688   3.168
 8757SOL     OW27169   5.429   6.757   5.702
 8757SOL    HW127170   5.501   6.712   5.649
 8757SOL    HW227171   5.382   6.824   5.644
 8758SOL     OW27172   4.619   6.042   1.885
 8758SOL    HW127173   4.686   5.979   1.924
 8758SOL    HW227174   4.665   6.105   1.823
 8759SOL     OW27175   4.054   2.398   6.932
 8759SOL    HW127176   4.117   2.349   6.992
 8759SOL    HW227177   3.964   2.404   6.974
 8760SOL     OW27178   1.794   1.805   4.874
 8760SOL    HW127179   1.782   1.738   4.801
 8760SOL    HW227180   1.716   1.867   4.876
 8761SOL     OW27181   4.686   1.077   1.677
 8761SOL    HW127182   4.672   1.008   1.605
 8761SOL    HW227183   4.719   1.032   1.760
 8762SOL     OW27184   0.437   3.786   2.506
 8762SOL    HW127185   0.358   3.839   2.535
 8762SOL    HW227186   0.513   3.802   2.570
 8763SOL     OW27187   6.326   5.661   5.965
 8763SOL    HW127188   6.382   5.593   6.014
 8763SOL    HW227189   6.235   5.665   6.006
 8764SOL     OW27190   4.594   0.846   4.573
 8764SOL    HW127191   4.522   0.859   4.504
 8764SOL    HW227192   4.682   0.875   4.535
 8765SOL     OW27193   5.949   6.695   5.341
 8765SOL    HW127194   5.907   6.627   5.281
 8765SOL    HW227195   6.045   6.707   5.317
 8766SOL     OW27196   4.215   5.621   2.873
 8766SOL    HW127197   4.285   5.688   2.848
 8766SOL    HW227198   4.125   5.658   2.851
 8767SOL     OW27199   3.709   0.212   3.084
 8767SOL    HW127200   3.713   0.115   3.060
 8767SOL    HW227201   3.614   0.238   3.102
 8768SOL     OW27202   1.008   3.264   0.529
 8768SOL    HW127203   1.081   3.333   0.533
 8768SOL    HW227204   1.035   3.184   0.581
 8769SOL     OW27205   1.348   6.704   3.952
 8769SOL    HW127206   1.307   6.623   3.993
 8769SOL    HW227207   1.311   6.717   3.860
 8770SOL     OW27208   4.877   4.073   2.036
 8770SOL    HW127209   4.969   4.110   2.047
 8770SOL    HW227210   4.883   3.979   2.002
 8771SOL     OW27211   1.125   0.184   6.044
 8771SOL    HW127212   1.179   0.168   6.127
 8771SOL    HW227213   1.030   0.158   6.060
 8772SOL     OW27214   5.501   6.613   0.144
 8772SOL    HW127215   5.439   6.535   0.133
 8772SOL    HW227216   5.595   6.583   0.125
 8773SOL     OW27217   4.674   2.136   3.751
 8773SOL    HW127218   4.634   2.091   3.830
 8773SOL    HW227219   4.653   2.083   3.668
 8774SOL     OW27220   2.700   1.760   0.624
 8774SOL    HW127221   2.667   1.789   0.535
 8774SOL    HW227222   2.669   1.825   0.694
 8775SOL     OW27223   6.289   0.564   5.332
 8775SOL    HW127224   6.318   0.651   5.292
 8775SOL    HW227225   6.369   0.516   5.370
 8776SOL     OW27226   2.953   3.650   4.593
 8776SOL    HW127227   2.972   3.653   4.692
 8776SOL    HW227228   2.924   3.740   4.562
 8777SOL     OW27229   0.067   4.064   1.155
 8777SOL    HW127230   0.144   4.000   1.159
 8777SOL    HW227231   0.023   4.069   1.244
 8778SOL     OW27232   6.092   2.344   4.365
 8778SOL    HW127233   6.139   2.287   4.297
 8778SOL    HW227234   6.139   2.432   4.372
 8779SOL     OW27235   2.650   5.428   1.963
 8779SOL    HW127236   2.586   5.504   1.959
 8779SOL    HW227237   2.744   5.462   1.958
 8780SOL     OW27238   0.933   5.298   3.903
 8780SOL    HW127239   0.930   5.299   4.003
 8780SOL    HW227240   0.901   5.386   3.867
 8781SOL     OW27241   6.366   1.506   3.703
 8781SOL    HW127242   6.284   1.562   3.707
 8781SOL    HW227243   6.341   1.412   3.678
 8782SOL     OW27244   5.695   0.597   2.122
 8782SOL    HW127245   5.728   0.671   2.181
 8782SOL    HW227246   5.771   0.561   2.067
 8783SOL     OW27247   6.334   3.818   3.632
 8783SOL    HW127248   6.315   3.836   3.536
 8783SOL    HW227249   6.276   3.876   3.689
 8784SOL     OW27250   5.183   3.994   5.499
 8784SOL    HW127251   5.282   3.992   5.492
 8784SOL    HW227252   5.156   4.046   5.581
 8785SOL     OW27253   6.403   3.627   6.775
 8785SOL    HW127254   6.320   3.680   6.791
 8785SOL    HW227255   6.430   3.581   6.859
 8786SOL     OW27256   2.773   6.432   0.258
 8786SOL    HW127257   2.681   6.413   0.292
 8786SOL    HW227258   2.789   6.379   0.175
 8787SOL     OW27259   1.737   2.809   2.172
 8787SOL    HW127260   1.685   2.883   2.213
 8787SOL    HW227261   1.783   2.756   2.243
 8788SOL     OW27262   0.147   2.390   5.687
 8788SOL    HW127263   0.144   2.447   5.605
 8788SOL    HW227264   0.153   2.449   5.768
 8789SOL     OW27265   5.904   6.664   6.112
 8789SOL    HW127266   5.928   6.714   6.029
 8789SOL    HW227267   5.892   6.728   6.188
 8790SOL     OW27268   0.237   1.367   0.171
 8790SOL    HW127269   0.319   1.415   0.200
 8790SOL    HW227270   0.205   1.404   0.083
 8791SOL     OW27271   5.399   6.954   4.752
 8791SOL    HW127272   5.422   6.867   4.709
 8791SOL    HW227273   5.465   6.975   4.824
 8792SOL     OW27274   3.741   6.096   3.613
 8792SOL    HW127275   3.803   6.046   3.552
 8792SOL    HW227276   3.647   6.089   3.579
 8793SOL     OW27277   1.852   5.361   3.877
 8793SOL    HW127278   1.797   5.443   3.895
 8793SOL    HW227279   1.938   5.366   3.927
 8794SOL     OW27280   3.982   6.627   1.927
 8794SOL    HW127281   4.054   6.691   1.954
 8794SOL    HW227282   3.906   6.678   1.886
 8795SOL     OW27283   1.399   6.698   4.874
 8795SOL    HW127284   1.466   6.630   4.902
 8795SOL    HW227285   1.307   6.666   4.896
 8796SOL     OW27286   3.842   0.343   5.186
 8796SOL    HW127287   3.910   0.416   5.193
 8796SOL    HW227288   3.752   0.383   5.172
 8797SOL     OW27289   1.239   7.016   5.333
 8797SOL    HW127290   1.338   7.023   5.329
 8797SOL    HW227291   1.211   6.925   5.303
 8798SOL     OW27292   4.819   5.239   4.984
 8798SOL    HW127293   4.771   5.174   5.043
 8798SOL    HW227294   4.906   5.199   4.955
 8799SOL     OW27295   1.612   4.398   3.469
 8799SOL    HW127296   1.696   4.413   3.416
 8799SOL    HW227297   1.630   4.330   3.540
 8800SOL     OW27298   5.867   3.845   5.288
 8800SOL    HW127299   5.886   3.751   5.261
 8800SOL    HW227300   5.875   3.853   5.387
 8801SOL     OW27301   0.983   1.358   4.485
 8801SOL    HW127302   0.964   1.275   4.433
 8801SOL    HW227303   1.081   1.372   4.493
 8802SOL     OW27304   1.488   0.612   0.331
 8802SOL    HW127305   1.499   0.515   0.312
 8802SOL    HW227306   1.578   0.655   0.340
 8803SOL     OW27307   0.743   5.270   5.684
 8803SOL    HW127308   0.720   5.320   5.768
 8803SOL    HW227309   0.798   5.190   5.707
 8804SOL     OW27310   3.125   0.322   1.757
 8804SOL    HW127311   3.030   0.344   1.739
 8804SOL    HW227312   3.135   0.293   1.852
 8805SOL     OW27313   2.712   0.575   4.446
 8805SOL    HW127314   2.767   0.609   4.522
 8805SOL    HW227315   2.660   0.651   4.405
 8806SOL     OW27316   1.787   5.016   1.875
 8806SOL    HW127317   1.706   4.995   1.928
 8806SOL    HW227318   1.803   4.943   1.808
 8807SOL     OW27319   6.432   6.716   6.125
 8807SOL    HW127320   6.338   6.691   6.103
 8807SOL    HW227321   6.494   6.667   6.064
 8808SOL     OW27322   5.335   1.950   1.093
 8808SOL    HW127323   5.354   1.961   1.190
 8808SOL    HW227324   5.268   2.019   1.064
 8809SOL     OW27325   5.192   4.558   2.970
 8809SOL    HW127326   5.204   4.656   2.958
 8809SOL    HW227327   5.176   4.538   3.067
 8810SOL     OW27328   5.825   1.470   6.315
 8810SOL    HW127329   5.742   1.484   6.261
 8810SOL    HW227330   5.807   1.499   6.410
 8811SOL     OW27331   3.270   1.698   3.545
 8811SOL    HW127332   3.313   1.669   3.459
 8811SOL    HW227333   3.182   1.652   3.555
 8812SOL     OW27334   1.739   0.465   1.144
 8812SOL    HW127335   1.658   0.469   1.086
 8812SOL    HW227336   1.821   0.462   1.087
 8813SOL     OW27337   1.093   4.524   1.741
 8813SOL    HW127338   1.111   4.541   1.645
 8813SOL    HW227339   0.997   4.498   1.753
 8814SOL     OW27340   6.339   0.730   1.027
 8814SOL    HW127341   6.334   0.639   0.986
 8814SOL    HW227342   6.426   0.740   1.075
 8815SOL     OW27343   6.377   6.391   0.628
 8815SOL    HW127344   6.313   6.318   0.604
 8815SOL    HW227345   6.330   6.462   0.679
 8816SOL     OW27346   2.071   0.734   0.268
 8816SOL    HW127347   2.056   0.828   0.300
 8816SOL    HW227348   2.080   0.734   0.168
 8817SOL     OW27349   0.597   6.116   5.527
 8817SOL    HW127350   0.577   6.198   5.580
 8817SOL    HW227351   0.681   6.129   5.475
 8818SOL     OW27352   0.221   3.117   4.125
 8818SOL    HW127353   0.165   3.192   4.163
 8818SOL    HW227354   0.317   3.132   4.149
 8819SOL     OW27355   4.343   5.562   4.467
 8819SOL    HW127356   4.352   5.503   4.546
 8819SOL    HW227357   4.399   5.644   4.479
 8820SOL     OW27358   2.352   1.606   4.196
 8820SOL    HW127359   2.414   1.684   4.185
 8820SOL    HW227360   2.403   1.529   4.234
 8821SOL     OW27361   2.769   5.956   0.316
 8821SOL    HW127362   2.794   5.870   0.272
 8821SOL    HW227363   2.690   5.995   0.270
 8822SOL     OW27364   0.837   0.248   3.730
 8822SOL    HW127365   0.850   0.311   3.653
 8822SOL    HW227366   0.926   0.222   3.767
 8823SOL     OW27367   2.193   1.017   0.586
 8823SOL    HW127368   2.246   1.073   0.650
 8823SOL    HW227369   2.131   0.958   0.636
 8824SOL     OW27370   1.425   3.538   1.203
 8824SOL    HW127371   1.348   3.474   1.207
 8824SOL    HW227372   1.467   3.546   1.294
 8825SOL     OW27373   1.743   0.190   3.485
 8825SOL    HW127374   1.674   0.259   3.505
 8825SOL    HW227375   1.775   0.149   3.570
 8826SOL     OW27376   6.377   2.620   0.178
 8826SOL    HW127377   6.320   2.662   0.108
 8826SOL    HW227378   6.324   2.611   0.263
 8827SOL     OW27379   3.655   1.359   2.991
 8827SOL    HW127380   3.562   1.334   3.018
 8827SOL    HW227381   3.660   1.459   2.980
 8828SOL     OW27382   4.556   5.744   4.837
 8828SOL    HW127383   4.656   5.739   4.839
 8828SOL    HW227384   4.519   5.653   4.817
 8829SOL     OW27385   7.001   2.324   0.113
 8829SOL    HW127386   0.051   2.372   0.071
 8829SOL    HW227387   7.010   2.226   0.095
 8830SOL     OW27388   0.593   1.182   1.078
 8830SOL    HW127389   0.682   1.214   1.113
 8830SOL    HW227390   0.556   1.249   1.014
 8831SOL     OW27391   5.400   0.860   3.669
 8831SOL    HW127392   5.455   0.786   3.708
 8831SOL    HW227393   5.339   0.897   3.738
 8832SOL     OW27394   6.222   6.241   2.482
 8832SOL    HW127395   6.322   6.240   2.475
 8832SOL    HW227396   6.187   6.329   2.450
 8833SOL     OW27397   2.419   6.610   5.656
 8833SOL    HW127398   2.400   6.513   5.670
 8833SOL    HW227399   2.511   6.631   5.689
 8834SOL     OW27400   5.167   3.374   4.490
 8834SOL    HW127401   5.127   3.460   4.460
 8834SOL    HW227402   5.100   3.323   4.544
 8835SOL     OW27403   6.158   1.240   5.976
 8835SOL    HW127404   6.086   1.211   6.039
 8835SOL    HW227405   6.120   1.303   5.908
 8836SOL     OW27406   4.445   1.365   6.771
 8836SOL    HW127407   4.426   1.328   6.862
 8836SOL    HW227408   4.360   1.394   6.728
 8837SOL     OW27409   0.227   6.221   2.605
 8837SOL    HW127410   0.147   6.176   2.644
 8837SOL    HW227411   0.308   6.196   2.657
 8838SOL     OW27412   3.145   4.943   2.921
 8838SOL    HW127413   3.062   4.914   2.968
 8838SOL    HW227414   3.136   4.926   2.823
 8839SOL     OW27415   5.130   5.482   1.946
 8839SOL    HW127416   5.127   5.386   1.973
 8839SOL    HW227417   5.210   5.499   1.889
 8840SOL     OW27418   6.594   1.737   1.958
 8840SOL    HW127419   6.581   1.760   1.862
 8840SOL    HW227420   6.636   1.646   1.966
 8841SOL     OW27421   1.467   0.479   4.701
 8841SOL    HW127422   1.505   0.550   4.641
 8841SOL    HW227423   1.368   0.490   4.708
 8842SOL     OW27424   3.015   3.198   1.718
 8842SOL    HW127425   3.009   3.275   1.781
 8842SOL    HW227426   3.109   3.187   1.687
 8843SOL     OW27427   1.925   3.094   4.970
 8843SOL    HW127428   2.016   3.056   4.954
 8843SOL    HW227429   1.910   3.107   5.068
 8844SOL     OW27430   5.847   1.756   0.303
 8844SOL    HW127431   5.844   1.833   0.240
 8844SOL    HW227432   5.758   1.746   0.347
 8845SOL     OW27433   4.633   4.090   6.641
 8845SOL    HW127434   4.579   4.174   6.643
 8845SOL    HW227435   4.574   4.012   6.663
 8846SOL     OW27436   2.560   5.478   3.337
 8846SOL    HW127437   2.512   5.407   3.284
 8846SOL    HW227438   2.496   5.521   3.399
 8847SOL     OW27439   2.891   0.818   2.808
 8847SOL    HW127440   2.841   0.859   2.884
 8847SOL    HW227441   2.881   0.875   2.726
 8848SOL     OW27442   2.563   0.026   1.839
 8848SOL    HW127443   2.509   6.970   1.820
 8848SOL    HW227444   2.642   0.001   1.895
 8849SOL     OW27445   3.010   6.263   2.680
 8849SOL    HW127446   3.077   6.274   2.607
 8849SOL    HW227447   2.940   6.335   2.671
 8850SOL     OW27448   1.646   2.071   0.134
 8850SOL    HW127449   1.571   2.006   0.139
 8850SOL    HW227450   1.727   2.027   0.095
 8851SOL     OW27451   1.759   4.471   2.440
 8851SOL    HW127452   1.686   4.474   2.373
 8851SOL    HW227453   1.829   4.405   2.410
 8852SOL     OW27454   0.935   1.860   4.697
 8852SOL    HW127455   0.929   1.847   4.796
 8852SOL    HW227456   0.843   1.870   4.660
 8853SOL     OW27457   2.669   0.749   1.581
 8853SOL    HW127458   2.650   0.746   1.679
 8853SOL    HW227459   2.592   0.790   1.532
 8854SOL     OW27460   2.059   3.455   4.923
 8854SOL    HW127461   2.069   3.371   4.870
 8854SOL    HW227462   2.055   3.533   4.861
 8855SOL     OW27463   6.644   5.371   1.346
 8855SOL    HW127464   6.712   5.445   1.348
 8855SOL    HW227465   6.659   5.315   1.265
 8856SOL     OW27466   0.625   6.188   6.657
 8856SOL    HW127467   0.600   6.092   6.673
 8856SOL    HW227468   0.722   6.201   6.676
 8857SOL     OW27469   6.686   1.664   4.677
 8857SOL    HW127470   6.697   1.577   4.628
 8857SOL    HW227471   6.762   1.675   4.742
 8858SOL     OW27472   6.849   4.488   4.178
 8858SOL    HW127473   6.903   4.485   4.094
 8858SOL    HW227474   6.772   4.550   4.166
 8859SOL     OW27475   1.051   0.852   3.933
 8859SOL    HW127476   1.149   0.833   3.936
 8859SOL    HW227477   1.027   0.889   3.844
 8860SOL     OW27478   6.722   2.331   1.611
 8860SOL    HW127479   6.771   2.245   1.593
 8860SOL    HW227480   6.730   2.390   1.531
 8861SOL     OW27481   4.128   1.059   6.928
 8861SOL    HW127482   4.074   1.000   6.988
 8861SOL    HW227483   4.129   1.152   6.965
 8862SOL     OW27484   5.583   6.487   3.818
 8862SOL    HW127485   5.680   6.507   3.832
 8862SOL    HW227486   5.573   6.402   3.767
 8863SOL     OW27487   2.041   5.145   3.058
 8863SOL    HW127488   2.113   5.167   3.124
 8863SOL    HW227489   2.079   5.146   2.965
 8864SOL     OW27490   4.084   4.268   6.681
 8864SOL    HW127491   4.019   4.275   6.605
 8864SOL    HW227492   4.130   4.180   6.677
 8865SOL     OW27493   3.413   1.075   5.031
 8865SOL    HW127494   3.429   0.989   4.983
 8865SOL    HW227495   3.364   1.056   5.117
 8866SOL     OW27496   5.393   6.543   2.768
 8866SOL    HW127497   5.354   6.551   2.860
 8866SOL    HW227498   5.329   6.494   2.709
 8867SOL     OW27499   5.883   4.016   3.801
 8867SOL    HW127500   5.844   4.045   3.713
 8867SOL    HW227501   5.980   4.040   3.804
 8868SOL     OW27502   6.843   3.390   2.338
 8868SOL    HW127503   6.920   3.328   2.354
 8868SOL    HW227504   6.853   3.471   2.396
 8869SOL     OW27505   4.189   5.638   5.448
 8869SOL    HW127506   4.270   5.608   5.397
 8869SOL    HW227507   4.110   5.583   5.420
 8870SOL     OW27508   1.642   6.380   1.426
 8870SOL    HW127509   1.671   6.299   1.476
 8870SOL    HW227510   1.657   6.461   1.482
 8871SOL     OW27511   1.933   0.593   3.352
 8871SOL    HW127512   2.018   0.607   3.301
 8871SOL    HW227513   1.855   0.609   3.292
 8872SOL     OW27514   1.023   4.926   5.992
 8872SOL    HW127515   0.991   4.832   5.988
 8872SOL    HW227516   0.992   4.968   6.077
 8873SOL     OW27517   1.534   6.594   1.685
 8873SOL    HW127518   1.484   6.667   1.731
 8873SOL    HW227519   1.628   6.624   1.667
 8874SOL     OW27520   1.230   5.718   2.302
 8874SOL    HW127521   1.260   5.676   2.215
 8874SOL    HW227522   1.132   5.733   2.299
 8875SOL     OW27523   0.072   3.014   4.520
 8875SOL    HW127524   0.131   3.035   4.599
 8875SOL    HW227525   7.003   3.026   4.546
 8876SOL     OW27526   2.684   0.793   6.503
 8876SOL    HW127527   2.600   0.835   6.467
 8876SOL    HW227528   2.660   0.707   6.550
 8877SOL     OW27529   1.776   3.682   3.175
 8877SOL    HW127530   1.809   3.651   3.263
 8877SOL    HW227531   1.787   3.610   3.107
 8878SOL     OW27532   3.690   5.074   0.892
 8878SOL    HW127533   3.674   5.011   0.817
 8878SOL    HW227534   3.789   5.081   0.910
 8879SOL     OW27535   5.791   4.804   2.498
 8879SOL    HW127536   5.765   4.712   2.529
 8879SOL    HW227537   5.708   4.857   2.481
 8880SOL     OW27538   4.142   6.013   4.749
 8880SOL    HW127539   4.119   6.109   4.736
 8880SOL    HW227540   4.064   5.965   4.787
 8881SOL     OW27541   5.456   5.115   4.370
 8881SOL    HW127542   5.439   5.127   4.468
 8881SOL    HW227543   5.555   5.112   4.354
 8882SOL     OW27544   3.774   1.198   0.807
 8882SOL    HW127545   3.736   1.290   0.812
 8882SOL    HW227546   3.712   1.139   0.755
 8883SOL     OW27547   1.217   6.360   5.816
 8883SOL    HW127548   1.144   6.340   5.750
 8883SOL    HW227549   1.223   6.459   5.829
 8884SOL     OW27550   6.124   3.590   5.202
 8884SOL    HW127551   6.128   3.686   5.173
 8884SOL    HW227552   6.031   3.569   5.234
 8885SOL     OW27553   5.250   4.777   0.742
 8885SOL    HW127554   5.318   4.790   0.813
 8885SOL    HW227555   5.292   4.792   0.652
 8886SOL     OW27556   3.659   5.848   6.361
 8886SOL    HW127557   3.687   5.762   6.318
 8886SOL    HW227558   3.615   5.907   6.293
 8887SOL     OW27559   3.686   1.442   0.776
 8887SOL    HW127560   3.595   1.408   0.803
 8887SOL    HW227561   3.678   1.535   0.742
 8888SOL     OW27562   2.176   2.726   4.618
 8888SOL    HW127563   2.200   2.679   4.534
 8888SOL    HW227564   2.228   2.811   4.626
 8889SOL     OW27565   0.055   6.549   6.638
 8889SOL    HW127566   7.003   6.488   6.647
 8889SOL    HW227567   0.080   6.558   6.542
 8890SOL     OW27568   0.612   6.353   6.418
 8890SOL    HW127569   0.671   6.279   6.386
 8890SOL    HW227570   0.582   6.333   6.511
 8891SOL     OW27571   4.391   4.527   0.376
 8891SOL    HW127572   4.314   4.466   0.355
 8891SOL    HW227573   4.411   4.584   0.296
 8892SOL     OW27574   3.725   4.998   3.539
 8892SOL    HW127575   3.753   4.941   3.462
 8892SOL    HW227576   3.632   5.031   3.525
 8893SOL     OW27577   1.632   5.636   5.234
 8893SOL    HW127578   1.626   5.729   5.269
 8893SOL    HW227579   1.728   5.612   5.218
 8894SOL     OW27580   3.758   1.738   6.886
 8894SOL    HW127581   3.736   1.811   6.950
 8894SOL    HW227582   3.847   1.699   6.909
 8895SOL     OW27583   0.434   2.290   0.799
 8895SOL    HW127584   0.499   2.233   0.749
 8895SOL    HW227585   0.458   2.386   0.787
 8896SOL     OW27586   1.678   2.962   4.884
 8896SOL    HW127587   1.756   3.023   4.891
 8896SOL    HW227588   1.709   2.870   4.859
 8897SOL     OW27589   1.984   3.602   3.425
 8897SOL    HW127590   2.050   3.539   3.385
 8897SOL    HW227591   2.010   3.696   3.404
 8898SOL     OW27592   5.864   3.535   1.927
 8898SOL    HW127593   5.824   3.483   1.852
 8898SOL    HW227594   5.864   3.632   1.903
 8899SOL     OW27595   0.860   4.807   0.226
 8899SOL    HW127596   0.941   4.756   0.197
 8899SOL    HW227597   0.782   4.781   0.170
 8900SOL     OW27598   5.594   2.524   2.997
 8900SOL    HW127599   5.517   2.559   3.051
 8900SOL    HW227600   5.632   2.443   3.043
 8901SOL     OW27601   0.886   1.316   3.982
 8901SOL    HW127602   0.794   1.332   4.019
 8901SOL    HW227603   0.881   1.249   3.908
 8902SOL     OW27604   1.757   5.773   6.920
 8902SOL    HW127605   1.767   5.773   6.820
 8902SOL    HW227606   1.816   5.703   6.959
 8903SOL     OW27607   1.007   2.321   4.576
 8903SOL    HW127608   1.100   2.327   4.612
 8903SOL    HW227609   0.942   2.346   4.649
 8904SOL     OW27610   1.139   1.358   3.850
 8904SOL    HW127611   1.052   1.362   3.900
 8904SOL    HW227612   1.121   1.349   3.753
 8905SOL     OW27613   1.799   3.475   2.482
 8905SOL    HW127614   1.817   3.384   2.519
 8905SOL    HW227615   1.877   3.504   2.426
 8906SOL     OW27616   1.410   6.242   0.844
 8906SOL    HW127617   1.378   6.177   0.912
 8906SOL    HW227618   1.431   6.329   0.888
 8907SOL     OW27619   2.911   2.648   5.323
 8907SOL    HW127620   2.947   2.738   5.302
 8907SOL    HW227621   2.976   2.578   5.296
 8908SOL     OW27622   2.063   5.197   6.998
 8908SOL    HW127623   1.989   5.133   7.020
 8908SOL    HW227624   2.150   5.160   0.004
 8909SOL     OW27625   2.611   1.138   6.623
 8909SOL    HW127626   2.634   1.172   6.532
 8909SOL    HW227627   2.511   1.135   6.633
 8910SOL     OW27628   0.442   3.023   5.201
 8910SOL    HW127629   0.500   3.000   5.279
 8910SOL    HW227630   0.472   2.972   5.121
 8911SOL     OW27631   5.713   3.216   4.662
 8911SOL    HW127632   5.789   3.251   4.607
 8911SOL    HW227633   5.643   3.177   4.601
 8912SOL     OW27634   3.057   3.139   5.999
 8912SOL    HW127635   3.109   3.055   6.018
 8912SOL    HW227636   3.066   3.162   5.902
 8913SOL     OW27637   4.579   5.306   6.715
 8913SOL    HW127638   4.549   5.350   6.800
 8913SOL    HW227639   4.651   5.362   6.673
 8914SOL     OW27640   5.082   6.566   4.332
 8914SOL    HW127641   5.157   6.582   4.268
 8914SOL    HW227642   5.104   6.489   4.391
 8915SOL     OW27643   1.259   2.142   4.198
 8915SOL    HW127644   1.295   2.075   4.263
 8915SOL    HW227645   1.190   2.198   4.243
 8916SOL     OW27646   6.572   2.544   6.638
 8916SOL    HW127647   6.596   2.527   6.542
 8916SOL    HW227648   6.513   2.470   6.671
 8917SOL     OW27649   5.643   2.716   1.022
 8917SOL    HW127650   5.584   2.792   1.046
 8917SOL    HW227651   5.666   2.663   1.104
 8918SOL     OW27652   1.210   5.568   0.577
 8918SOL    HW127653   1.138   5.637   0.563
 8918SOL    HW227654   1.298   5.614   0.587
 8919SOL     OW27655   5.235   4.637   6.413
 8919SOL    HW127656   5.218   4.668   6.319
 8919SOL    HW227657   5.302   4.698   6.456
 8920SOL     OW27658   0.320   2.366   0.102
 8920SOL    HW127659   0.311   2.436   0.032
 8920SOL    HW227660   0.357   2.406   0.186
 8921SOL     OW27661   1.718   3.067   1.791
 8921SOL    HW127662   1.696   3.048   1.696
 8921SOL    HW227663   1.795   3.009   1.820
 8922SOL     OW27664   4.471   5.709   1.964
 8922SOL    HW127665   4.497   5.729   1.869
 8922SOL    HW227666   4.473   5.793   2.018
 8923SOL     OW27667   1.418   0.999   5.744
 8923SOL    HW127668   1.453   0.948   5.665
 8923SOL    HW227669   1.359   0.939   5.798
 8924SOL     OW27670   4.712   5.380   5.358
 8924SOL    HW127671   4.764   5.294   5.362
 8924SOL    HW227672   4.617   5.363   5.382
 8925SOL     OW27673   6.867   0.613   2.644
 8925SOL    HW127674   6.889   0.590   2.549
 8925SOL    HW227675   6.780   0.663   2.646
 8926SOL     OW27676   6.422   3.336   4.672
 8926SOL    HW127677   6.379   3.422   4.644
 8926SOL    HW227678   6.384   3.260   4.620
 8927SOL     OW27679   6.253   1.744   4.714
 8927SOL    HW127680   6.238   1.753   4.812
 8927SOL    HW227681   6.348   1.766   4.692
 8928SOL     OW27682   1.492   0.138   5.917
 8928SOL    HW127683   1.487   0.039   5.911
 8928SOL    HW227684   1.510   0.166   6.011
 8929SOL     OW27685   6.415   1.900   5.167
 8929SOL    HW127686   6.421   1.981   5.109
 8929SOL    HW227687   6.349   1.916   5.240
 8930SOL     OW27688   0.869   2.990   3.354
 8930SOL    HW127689   0.837   2.898   3.377
 8930SOL    HW227690   0.963   2.985   3.320
 8931SOL     OW27691   3.106   3.642   1.732
 8931SOL    HW127692   3.152   3.565   1.688
 8931SOL    HW227693   3.170   3.717   1.744
 8932SOL     OW27694   6.718   2.213   2.901
 8932SOL    HW127695   6.715   2.126   2.949
 8932SOL    HW227696   6.715   2.288   2.967
 8933SOL     OW27697   2.962   2.334   6.292
 8933SOL    HW127698   2.962   2.397   6.370
 8933SOL    HW227699   2.986   2.242   6.323
 8934SOL     OW27700   3.648   4.763   5.323
 8934SOL    HW127701   3.661   4.665   5.341
 8934SOL    HW227702   3.567   4.776   5.266
 8935SOL     OW27703   0.379   4.067   0.286
 8935SOL    HW127704   0.303   4.056   0.351
 8935SOL    HW227705   0.379   3.992   0.221
 8936SOL     OW27706   1.561   4.001   0.755
 8936SOL    HW127707   1.618   3.993   0.673
 8936SOL    HW227708   1.474   3.953   0.740
 8937SOL     OW27709   0.416   0.641   5.200
 8937SOL    HW127710   0.348   0.582   5.156
 8937SOL    HW227711   0.507   0.617   5.166
 8938SOL     OW27712   0.745   5.507   0.687
 8938SOL    HW127713   0.657   5.463   0.703
 8938SOL    HW227714   0.742   5.600   0.725
 8939SOL     OW27715   4.613   2.677   4.337
 8939SOL    HW127716   4.594   2.608   4.407
 8939SOL    HW227717   4.621   2.767   4.381
 8940SOL     OW27718   6.990   1.009   3.450
 8940SOL    HW127719   0.061   1.006   3.429
 8940SOL    HW227720   6.955   1.101   3.432
 8941SOL     OW27721   6.071   2.539   5.012
 8941SOL    HW127722   6.158   2.499   4.984
 8941SOL    HW227723   6.068   2.636   4.986
 8942SOL     OW27724   0.369   4.553   4.874
 8942SOL    HW127725   0.279   4.596   4.861
 8942SOL    HW227726   0.356   4.463   4.915
 8943SOL     OW27727   3.663   4.248   0.131
 8943SOL    HW127728   3.673   4.271   0.228
 8943SOL    HW227729   3.575   4.283   0.097
 8944SOL     OW27730   4.984   4.703   4.988
 8944SOL    HW127731   5.044   4.683   5.066
 8944SOL    HW227732   4.889   4.694   5.016
 8945SOL     OW27733   1.876   0.760   3.566
 8945SOL    HW127734   1.943   0.834   3.560
 8945SOL    HW227735   1.898   0.690   3.498
 8946SOL     OW27736   2.824   1.504   4.885
 8946SOL    HW127737   2.899   1.527   4.948
 8946SOL    HW227738   2.803   1.584   4.828
 8947SOL     OW27739   1.713   3.738   4.972
 8947SOL    HW127740   1.796   3.701   5.015
 8947SOL    HW227741   1.673   3.808   5.031
 8948SOL     OW27742   6.462   6.214   4.328
 8948SOL    HW127743   6.506   6.126   4.348
 8948SOL    HW227744   6.505   6.286   4.383
 8949SOL     OW27745   2.225   0.169   0.585
 8949SOL    HW127746   2.289   0.119   0.526
 8949SOL    HW227747   2.224   0.126   0.675
 8950SOL     OW27748   4.967   3.384   5.753
 8950SOL    HW127749   4.992   3.296   5.711
 8950SOL    HW227750   4.884   3.373   5.807
 8951SOL     OW27751   0.524   1.950   4.501
 8951SOL    HW127752   0.597   2.018   4.500
 8951SOL    HW227753   0.438   1.994   4.528
 8952SOL     OW27754   1.180   0.176   2.190
 8952SOL    HW127755   1.145   0.157   2.281
 8952SOL    HW227756   1.171   0.274   2.170
 8953SOL     OW27757   1.089   3.707   6.503
 8953SOL    HW127758   1.087   3.796   6.458
 8953SOL    HW227759   1.138   3.642   6.445
 8954SOL     OW27760   1.068   6.461   6.342
 8954SOL    HW127761   1.099   6.485   6.250
 8954SOL    HW227762   1.074   6.540   6.402
 8955SOL     OW27763   0.412   4.451   2.345
 8955SOL    HW127764   0.508   4.463   2.370
 8955SOL    HW227765   0.396   4.357   2.316
 8956SOL     OW27766   0.384   1.772   6.983
 8956SOL    HW127767   0.293   1.741   7.012
 8956SOL    HW227768   0.397   1.750   6.886
 8957SOL     OW27769   3.083   4.332   1.625
 8957SOL    HW127770   3.046   4.384   1.701
 8957SOL    HW227771   3.014   4.268   1.592
 8958SOL     OW27772   0.862   6.991   4.476
 8958SOL    HW127773   0.767   7.023   4.483
 8958SOL    HW227774   0.895   6.962   4.566
 8959SOL     OW27775   1.286   4.836   1.457
 8959SOL    HW127776   1.347   4.763   1.490
 8959SOL    HW227777   1.318   4.924   1.490
 8960SOL     OW27778   4.716   5.652   2.692
 8960SOL    HW127779   4.755   5.666   2.601
 8960SOL    HW227780   4.663   5.567   2.692
 8961SOL     OW27781   2.385   2.528   4.694
 8961SOL    HW127782   2.321   2.562   4.762
 8961SOL    HW227783   2.393   2.594   4.619
 8962SOL     OW27784   6.510   6.554   2.894
 8962SOL    HW127785   6.596   6.581   2.851
 8962SOL    HW227786   6.436   6.556   2.827
 8963SOL     OW27787   5.243   6.389   3.931
 8963SOL    HW127788   5.180   6.365   3.856
 8963SOL    HW227789   5.293   6.472   3.907
 8964SOL     OW27790   5.611   3.857   3.337
 8964SOL    HW127791   5.660   3.922   3.278
 8964SOL    HW227792   5.675   3.814   3.400
 8965SOL     OW27793   2.272   4.640   0.446
 8965SOL    HW127794   2.346   4.652   0.512
 8965SOL    HW227795   2.307   4.658   0.354
 8966SOL     OW27796   1.047   4.172   5.558
 8966SOL    HW127797   1.095   4.260   5.553
 8966SOL    HW227798   1.054   4.125   5.470
 8967SOL     OW27799   3.890   6.280   2.102
 8967SOL    HW127800   3.897   6.379   2.116
 8967SOL    HW227801   3.804   6.260   2.054
 8968SOL     OW27802   5.241   4.643   2.621
 8968SOL    HW127803   5.257   4.693   2.536
 8968SOL    HW227804   5.232   4.709   2.696
 8969SOL     OW27805   6.513   0.282   4.335
 8969SOL    HW127806   6.462   0.358   4.294
 8969SOL    HW227807   6.590   0.318   4.387
 8970SOL     OW27808   3.008   2.876   0.512
 8970SOL    HW127809   3.093   2.835   0.479
 8970SOL    HW227810   3.019   2.975   0.518
 8971SOL     OW27811   4.698   5.473   1.777
 8971SOL    HW127812   4.738   5.544   1.719
 8971SOL    HW227813   4.714   5.494   1.873
 8972SOL     OW27814   4.785   5.001   6.400
 8972SOL    HW127815   4.739   5.059   6.467
 8972SOL    HW227816   4.723   4.929   6.370
 8973SOL     OW27817   0.917   3.084   1.857
 8973SOL    HW127818   0.933   3.113   1.951
 8973SOL    HW227819   0.916   2.984   1.852
 8974SOL     OW27820   1.586   4.302   5.703
 8974SOL    HW127821   1.616   4.321   5.610
 8974SOL    HW227822   1.521   4.226   5.702
 8975SOL     OW27823   2.304   6.905   6.409
 8975SOL    HW127824   2.364   6.852   6.468
 8975SOL    HW227825   2.329   7.002   6.414
 8976SOL     OW27826   0.344   5.016   5.062
 8976SOL    HW127827   0.388   5.103   5.085
 8976SOL    HW227828   0.245   5.025   5.071
 8977SOL     OW27829   5.685   1.557   0.127
 8977SOL    HW127830   5.780   1.554   0.095
 8977SOL    HW227831   5.628   1.498   0.070
 8978SOL     OW27832   5.375   0.133   6.440
 8978SOL    HW127833   5.370   0.230   6.415
 8978SOL    HW227834   5.283   0.092   6.433
 8979SOL     OW27835   1.342   3.228   4.699
 8979SOL    HW127836   1.269   3.192   4.641
 8979SOL    HW227837   1.311   3.228   4.794
 8980SOL     OW27838   2.429   3.064   5.458
 8980SOL    HW127839   2.338   3.024   5.450
 8980SOL    HW227840   2.477   3.057   5.371
 8981SOL     OW27841   3.821   1.541   4.962
 8981SOL    HW127842   3.788   1.520   4.870
 8981SOL    HW227843   3.863   1.460   5.002
 8982SOL     OW27844   1.835   2.143   0.531
 8982SOL    HW127845   1.921   2.096   0.513
 8982SOL    HW227846   1.804   2.190   0.449
 8983SOL     OW27847   1.990   6.099   6.592
 8983SOL    HW127848   2.031   6.043   6.520
 8983SOL    HW227849   1.995   6.051   6.679
 8984SOL     OW27850   0.629   6.816   4.142
 8984SOL    HW127851   0.633   6.877   4.063
 8984SOL    HW227852   0.697   6.743   4.131
 8985SOL     OW27853   3.174   3.135   0.528
 8985SOL    HW127854   3.213   3.069   0.464
 8985SOL    HW227855   3.120   3.203   0.478
 8986SOL     OW27856   4.272   5.458   2.529
 8986SOL    HW127857   4.299   5.554   2.524
 8986SOL    HW227858   4.190   5.449   2.587
 8987SOL     OW27859   4.391   6.939   1.883
 8987SOL    HW127860   4.373   6.857   1.828
 8987SOL    HW227861   4.394   6.914   1.980
 8988SOL     OW27862   1.493   4.547   4.730
 8988SOL    HW127863   1.556   4.470   4.719
 8988SOL    HW227864   1.541   4.633   4.712
 8989SOL     OW27865   5.220   3.371   0.267
 8989SOL    HW127866   5.210   3.366   0.366
 8989SOL    HW227867   5.171   3.451   0.232
 8990SOL     OW27868   1.655   5.502   4.524
 8990SOL    HW127869   1.624   5.485   4.431
 8990SOL    HW227870   1.579   5.533   4.580
 8991SOL     OW27871   1.368   2.444   5.062
 8991SOL    HW127872   1.427   2.433   5.141
 8991SOL    HW227873   1.414   2.409   4.980
 8992SOL     OW27874   4.514   1.326   0.312
 8992SOL    HW127875   4.541   1.372   0.397
 8992SOL    HW227876   4.541   1.230   0.316
 8993SOL     OW27877   4.957   2.556   1.447
 8993SOL    HW127878   5.000   2.625   1.388
 8993SOL    HW227879   4.885   2.599   1.501
 8994SOL     OW27880   0.987   3.725   5.002
 8994SOL    HW127881   0.964   3.672   4.921
 8994SOL    HW227882   0.924   3.802   5.011
 8995SOL     OW27883   1.251   2.823   6.805
 8995SOL    HW127884   1.287   2.869   6.886
 8995SOL    HW227885   1.327   2.787   6.751
 8996SOL     OW27886   5.124   4.476   6.775
 8996SOL    HW127887   5.170   4.454   6.689
 8996SOL    HW227888   5.178   4.442   6.852
 8997SOL     OW27889   5.319   1.826   6.271
 8997SOL    HW127890   5.316   1.907   6.213
 8997SOL    HW227891   5.323   1.744   6.214
 8998SOL     OW27892   6.494   3.688   3.949
 8998SOL    HW127893   6.426   3.650   3.886
 8998SOL    HW227894   6.517   3.619   4.018
 8999SOL     OW27895   4.919   6.690   6.508
 8999SOL    HW127896   4.949   6.709   6.414
 8999SOL    HW227897   4.858   6.611   6.508
 9000SOL     OW27898   1.850   3.238   1.494
 9000SOL    HW127899   1.931   3.203   1.540
 9000SOL    HW227900   1.806   3.163   1.443
 9001SOL     OW27901   0.890   5.070   2.239
 9001SOL    HW127902   0.884   5.140   2.309
 9001SOL    HW227903   0.982   5.068   2.201
 9002SOL     OW27904   1.405   5.280   5.119
 9002SOL    HW127905   1.356   5.193   5.127
 9002SOL    HW227906   1.384   5.337   5.198
 9003SOL     OW27907   6.006   3.667   1.539
 9003SOL    HW127908   5.986   3.687   1.443
 9003SOL    HW227909   5.986   3.747   1.595
 9004SOL     OW27910   4.252   5.901   0.768
 9004SOL    HW127911   4.276   5.866   0.858
 9004SOL    HW227912   4.223   5.996   0.775
 9005SOL     OW27913   6.421   2.682   4.580
 9005SOL    HW127914   6.462   2.679   4.489
 9005SOL    HW227915   6.422   2.590   4.620
 9006SOL     OW27916   2.322   5.443   0.913
 9006SOL    HW127917   2.313   5.410   1.007
 9006SOL    HW227918   2.399   5.506   0.907
 9007SOL     OW27919   3.101   0.826   3.294
 9007SOL    HW127920   3.051   0.912   3.284
 9007SOL    HW227921   3.117   0.807   3.391
 9008SOL     OW27922   1.292   5.486   3.695
 9008SOL    HW127923   1.301   5.397   3.741
 9008SOL    HW227924   1.254   5.472   3.604
 9009SOL     OW27925   2.810   6.028   0.583
 9009SOL    HW127926   2.782   5.995   0.493
 9009SOL    HW227927   2.897   6.077   0.575
 9010SOL     OW27928   1.102   6.161   4.077
 9010SOL    HW127929   1.012   6.145   4.118
 9010SOL    HW227930   1.107   6.114   3.988
 9011SOL     OW27931   4.984   1.442   1.424
 9011SOL    HW127932   4.912   1.374   1.414
 9011SOL    HW227933   4.959   1.508   1.495
 9012SOL     OW27934   1.853   4.447   0.162
 9012SOL    HW127935   1.848   4.490   0.252
 9012SOL    HW227936   1.926   4.491   0.108
 9013SOL     OW27937   0.246   6.867   5.981
 9013SOL    HW127938   0.185   6.943   5.961
 9013SOL    HW227939   0.304   6.848   5.901
 9014SOL     OW27940   0.119   2.293   1.076
 9014SOL    HW127941   0.215   2.318   1.065
 9014SOL    HW227942   0.074   2.357   1.138
 9015SOL     OW27943   4.759   1.961   1.864
 9015SOL    HW127944   4.733   1.958   1.767
 9015SOL    HW227945   4.780   2.055   1.890
 9016SOL     OW27946   6.800   6.653   6.351
 9016SOL    HW127947   6.896   6.648   6.379
 9016SOL    HW227948   6.791   6.719   6.276
 9017SOL     OW27949   4.765   1.544   3.913
 9017SOL    HW127950   4.809   1.522   3.825
 9017SOL    HW227951   4.719   1.632   3.905
 9018SOL     OW27952   3.205   2.884   6.768
 9018SOL    HW127953   3.193   2.960   6.704
 9018SOL    HW227954   3.267   2.817   6.728
 9019SOL     OW27955   1.294   5.040   2.349
 9019SOL    HW127956   1.259   5.034   2.256
 9019SOL    HW227957   1.251   4.969   2.406
 9020SOL     OW27958   0.055   4.079   0.801
 9020SOL    HW127959   0.129   4.023   0.838
 9020SOL    HW227960   7.018   4.103   0.874
 9021SOL     OW27961   6.790   0.580   3.884
 9021SOL    HW127962   6.882   0.553   3.856
 9021SOL    HW227963   6.772   0.546   3.976
 9022SOL     OW27964   3.111   1.128   6.838
 9022SOL    HW127965   3.186   1.178   6.794
 9022SOL    HW227966   3.053   1.193   6.889
 9023SOL     OW27967   3.327   2.897   2.369
 9023SOL    HW127968   3.301   2.924   2.461
 9023SOL    HW227969   3.291   2.964   2.304
 9024SOL     OW27970   1.124   4.108   5.222
 9024SOL    HW127971   1.129   4.012   5.194
 9024SOL    HW227972   1.036   4.146   5.195
 9025SOL     OW27973   0.923   5.303   0.876
 9025SOL    HW127974   0.985   5.283   0.952
 9025SOL    HW227975   0.885   5.394   0.887
 9026SOL     OW27976   3.609   3.019   0.885
 9026SOL    HW127977   3.565   3.105   0.862
 9026SOL    HW227978   3.703   3.035   0.913
 9027SOL     OW27979   1.060   3.093   2.929
 9027SOL    HW127980   1.091   3.188   2.940
 9027SOL    HW227981   0.996   3.070   3.002
 9028SOL     OW27982   3.054   2.884   5.289
 9028SOL    HW127983   3.119   2.892   5.213
 9028SOL    HW227984   3.088   2.935   5.368
 9029SOL     OW27985   3.877   6.686   4.510
 9029SOL    HW127986   3.792   6.701   4.461
 9029SOL    HW227987   3.884   6.751   4.586
 9030SOL     OW27988   2.750   1.887   3.165
 9030SOL    HW127989   2.830   1.827   3.165
 9030SOL    HW227990   2.711   1.891   3.073
 9031SOL     OW27991   3.822   6.056   4.630
 9031SOL    HW127992   3.853   5.961   4.627
 9031SOL    HW227993   3.768   6.070   4.714
 9032SOL     OW27994   4.042   3.971   0.910
 9032SOL    HW127995   3.993   4.043   0.959
 9032SOL    HW227996   4.139   3.995   0.904
 9033SOL     OW27997   6.950   4.205   2.774
 9033SOL    HW127998   6.856   4.175   2.758
 9033SOL    HW227999   6.972   4.281   2.714
 9034SOL     OW28000   3.240   6.261   4.379
 9034SOL    HW128001   3.235   6.358   4.354
 9034SOL    HW228002   3.218   6.250   4.476
 9035SOL     OW28003   2.558   4.036   0.221
 9035SOL    HW128004   2.508   4.060   0.138
 9035SOL    HW228005   2.574   4.118   0.275
 9036SOL     OW28006   1.865   2.992   5.605
 9036SOL    HW128007   1.776   2.947   5.596
 9036SOL    HW228008   1.914   2.953   5.684
 9037SOL     OW28009   1.191   3.816   4.503
 9037SOL    HW128010   1.163   3.809   4.598
 9037SOL    HW228011   1.267   3.881   4.495
 9038SOL     OW28012   4.499   0.830   6.519
 9038SOL    HW128013   4.447   0.887   6.583
 9038SOL    HW228014   4.446   0.815   6.436
 9039SOL     OW28015   2.598   5.195   5.915
 9039SOL    HW128016   2.657   5.115   5.926
 9039SOL    HW228017   2.510   5.177   5.958
 9040SOL     OW28018   3.085   2.215   2.516
 9040SOL    HW128019   2.991   2.232   2.484
 9040SOL    HW228020   3.145   2.202   2.438
 9041SOL     OW28021   1.242   1.760   1.663
 9041SOL    HW128022   1.312   1.690   1.651
 9041SOL    HW228023   1.156   1.727   1.624
 9042SOL     OW28024   4.038   6.491   4.639
 9042SOL    HW128025   3.961   6.553   4.627
 9042SOL    HW228026   4.110   6.536   4.691
 9043SOL     OW28027   1.876   0.999   6.510
 9043SOL    HW128028   1.852   0.968   6.601
 9043SOL    HW228029   1.801   0.979   6.446
 9044SOL     OW28030   6.742   0.135   0.953
 9044SOL    HW128031   6.744   0.140   1.053
 9044SOL    HW228032   6.705   0.220   0.916
 9045SOL     OW28033   3.211   1.639   2.540
 9045SOL    HW128034   3.245   1.668   2.451
 9045SOL    HW228035   3.278   1.580   2.584
 9046SOL     OW28036   3.324   4.096   2.866
 9046SOL    HW128037   3.245   4.130   2.917
 9046SOL    HW228038   3.407   4.112   2.918
 9047SOL     OW28039   2.010   3.763   5.319
 9047SOL    HW128040   2.006   3.725   5.412
 9047SOL    HW228041   1.992   3.862   5.323
 9048SOL     OW28042   5.955   2.856   5.794
 9048SOL    HW128043   6.007   2.800   5.858
 9048SOL    HW228044   5.899   2.798   5.735
 9049SOL     OW28045   3.877   6.601   6.076
 9049SOL    HW128046   3.883   6.687   6.126
 9049SOL    HW228047   3.966   6.578   6.037
 9050SOL     OW28048   0.806   3.387   0.866
 9050SOL    HW128049   0.748   3.467   0.874
 9050SOL    HW228050   0.754   3.305   0.891
 9051SOL     OW28051   3.361   0.032   1.481
 9051SOL    HW128052   3.343   0.022   1.579
 9051SOL    HW228053   3.404   0.120   1.465
 9052SOL     OW28054   2.408   2.060   3.507
 9052SOL    HW128055   2.420   2.120   3.586
 9052SOL    HW228056   2.375   1.971   3.537
 9053SOL     OW28057   1.722   1.368   2.480
 9053SOL    HW128058   1.716   1.310   2.399
 9053SOL    HW228059   1.756   1.313   2.557
 9054SOL     OW28060   3.045   5.850   3.360
 9054SOL    HW128061   3.091   5.787   3.423
 9054SOL    HW228062   3.065   5.944   3.387
 9055SOL     OW28063   5.926   2.702   4.649
 9055SOL    HW128064   5.906   2.696   4.747
 9055SOL    HW228065   5.840   2.701   4.597
 9056SOL     OW28066   1.326   2.432   1.659
 9056SOL    HW128067   1.262   2.478   1.597
 9056SOL    HW228068   1.372   2.501   1.716
 9057SOL     OW28069   4.934   2.918   5.630
 9057SOL    HW128070   4.995   2.845   5.597
 9057SOL    HW228071   4.840   2.899   5.600
 9058SOL     OW28072   1.897   0.809   1.884
 9058SOL    HW128073   1.976   0.870   1.880
 9058SOL    HW228074   1.917   0.731   1.943
 9059SOL     OW28075   1.587   1.977   3.121
 9059SOL    HW128076   1.559   1.898   3.066
 9059SOL    HW228077   1.511   2.004   3.180
 9060SOL     OW28078   6.349   3.156   4.259
 9060SOL    HW128079   6.414   3.099   4.209
 9060SOL    HW228080   6.337   3.243   4.211
 9061SOL     OW28081   2.286   5.590   2.154
 9061SOL    HW128082   2.353   5.628   2.218
 9061SOL    HW228083   2.239   5.664   2.106
 9062SOL     OW28084   1.147   6.689   2.568
 9062SOL    HW128085   1.054   6.720   2.586
 9062SOL    HW228086   1.149   6.589   2.564
 9063SOL     OW28087   3.511   0.495   4.026
 9063SOL    HW128088   3.461   0.519   3.942
 9063SOL    HW228089   3.460   0.530   4.105
 9064SOL     OW28090   6.017   2.270   5.937
 9064SOL    HW128091   6.050   2.211   6.011
 9064SOL    HW228092   5.941   2.326   5.971
 9065SOL     OW28093   3.965   0.852   7.012
 9065SOL    HW128094   3.992   0.761   0.017
 9065SOL    HW228095   3.934   0.845   6.917
 9066SOL     OW28096   5.579   6.119   0.659
 9066SOL    HW128097   5.673   6.150   0.676
 9066SOL    HW228098   5.523   6.198   0.632
 9067SOL     OW28099   1.193   0.722   4.167
 9067SOL    HW128100   1.262   0.737   4.096
 9067SOL    HW228101   1.103   0.710   4.125
 9068SOL     OW28102   1.612   6.503   4.245
 9068SOL    HW128103   1.649   6.459   4.163
 9068SOL    HW228104   1.666   6.475   4.325
 9069SOL     OW28105   1.665   2.942   1.554
 9069SOL    HW128106   1.722   2.863   1.573
 9069SOL    HW228107   1.681   2.974   1.460
 9070SOL     OW28108   1.702   3.399   5.209
 9070SOL    HW128109   1.701   3.372   5.305
 9070SOL    HW228110   1.785   3.450   5.189
 9071SOL     OW28111   6.409   6.548   1.813
 9071SOL    HW128112   6.404   6.487   1.734
 9071SOL    HW228113   6.436   6.495   1.894
 9072SOL     OW28114   0.749   2.006   0.872
 9072SOL    HW128115   0.743   2.052   0.960
 9072SOL    HW228116   0.820   1.935   0.875
 9073SOL     OW28117   2.692   6.809   2.617
 9073SOL    HW128118   2.739   6.757   2.546
 9073SOL    HW228119   2.598   6.826   2.589
 9074SOL     OW28120   1.284   0.533   2.576
 9074SOL    HW128121   1.187   0.536   2.599
 9074SOL    HW228122   1.296   0.482   2.491
 9075SOL     OW28123   6.954   1.447   2.285
 9075SOL    HW128124   0.002   1.500   2.326
 9075SOL    HW228125   6.974   1.349   2.295
 9076SOL     OW28126   6.911   1.422   6.402
 9076SOL    HW128127   6.874   1.483   6.333
 9076SOL    HW228128   6.836   1.373   6.447
 9077SOL     OW28129   4.742   0.400   1.368
 9077SOL    HW128130   4.781   0.328   1.310
 9077SOL    HW228131   4.807   0.475   1.375
 9078SOL     OW28132   3.532   3.612   5.156
 9078SOL    HW128133   3.615   3.605   5.101
 9078SOL    HW228134   3.473   3.534   5.137
 9079SOL     OW28135   2.566   0.820   4.699
 9079SOL    HW128136   2.535   0.912   4.721
 9079SOL    HW228137   2.487   0.759   4.688
 9080SOL     OW28138   4.787   2.443   0.007
 9080SOL    HW128139   4.881   2.452   7.003
 9080SOL    HW228140   4.773   2.351   0.045
 9081SOL     OW28141   4.488   6.856   2.404
 9081SOL    HW128142   4.512   6.938   2.457
 9081SOL    HW228143   4.466   6.781   2.466
 9082SOL     OW28144   2.297   0.522   5.142
 9082SOL    HW128145   2.244   0.448   5.183
 9082SOL    HW228146   2.394   0.507   5.161
 9083SOL     OW28147   3.536   5.000   5.985
 9083SOL    HW128148   3.552   5.014   6.083
 9083SOL    HW228149   3.592   4.924   5.952
 9084SOL     OW28150   3.205   3.905   3.318
 9084SOL    HW128151   3.283   3.844   3.304
 9084SOL    HW228152   3.205   3.975   3.247
 9085SOL     OW28153   2.255   0.107   0.867
 9085SOL    HW128154   2.330   0.052   0.904
 9085SOL    HW228155   2.250   0.194   0.916
 9086SOL     OW28156   0.618   4.162   0.392
 9086SOL    HW128157   0.526   4.125   0.403
 9086SOL    HW228158   0.659   4.125   0.309
 9087SOL     OW28159   4.768   2.341   1.465
 9087SOL    HW128160   4.777   2.274   1.392
 9087SOL    HW228161   4.839   2.411   1.455
 9088SOL     OW28162   6.769   6.767   1.282
 9088SOL    HW128163   6.787   6.747   1.186
 9088SOL    HW228164   6.755   6.681   1.332
 9089SOL     OW28165   5.183   6.595   5.697
 9089SOL    HW128166   5.262   6.589   5.636
 9089SOL    HW228167   5.166   6.691   5.720
 9090SOL     OW28168   5.542   1.187   5.591
 9090SOL    HW128169   5.501   1.133   5.518
 9090SOL    HW228170   5.555   1.129   5.672
 9091SOL     OW28171   2.976   3.515   6.843
 9091SOL    HW128172   3.019   3.605   6.844
 9091SOL    HW228173   2.887   3.521   6.798
 9092SOL     OW28174   6.772   0.813   0.118
 9092SOL    HW128175   6.706   0.761   0.173
 9092SOL    HW228176   6.861   0.811   0.163
 9093SOL     OW28177   1.664   6.312   5.298
 9093SOL    HW128178   1.685   6.298   5.395
 9093SOL    HW228179   1.737   6.271   5.243
 9094SOL     OW28180   6.308   4.339   2.704
 9094SOL    HW128181   6.313   4.242   2.678
 9094SOL    HW228182   6.299   4.347   2.803
 9095SOL     OW28183   4.509   4.555   6.133
 9095SOL    HW128184   4.436   4.568   6.200
 9095SOL    HW228185   4.492   4.472   6.081
 9096SOL     OW28186   6.234   5.573   3.097
 9096SOL    HW128187   6.221   5.493   3.157
 9096SOL    HW228188   6.313   5.558   3.038
 9097SOL     OW28189   2.418   1.946   0.256
 9097SOL    HW128190   2.378   1.977   0.169
 9097SOL    HW228191   2.453   2.025   0.307
 9098SOL     OW28192   2.756   1.812   5.469
 9098SOL    HW128193   2.794   1.904   5.459
 9098SOL    HW228194   2.811   1.747   5.416
 9099SOL     OW28195   2.777   2.936   6.840
 9099SOL    HW128196   2.862   2.891   6.867
 9099SOL    HW228197   2.708   2.866   6.818
 9100SOL     OW28198   0.910   3.557   2.989
 9100SOL    HW128199   0.898   3.489   2.917
 9100SOL    HW228200   1.007   3.565   3.012
 9101SOL     OW28201   2.643   1.494   2.350
 9101SOL    HW128202   2.639   1.579   2.298
 9101SOL    HW228203   2.581   1.500   2.428
 9102SOL     OW28204   3.395   6.321   2.036
 9102SOL    HW128205   3.390   6.420   2.018
 9102SOL    HW228206   3.310   6.278   2.007
 9103SOL     OW28207   5.267   1.421   0.167
 9103SOL    HW128208   5.198   1.456   0.230
 9103SOL    HW228209   5.338   1.373   0.218
 9104SOL     OW28210   0.025   6.441   1.797
 9104SOL    HW128211   0.021   6.538   1.771
 9104SOL    HW228212   6.967   6.396   1.769
 9105SOL     OW28213   1.420   0.349   5.202
 9105SOL    HW128214   1.381   0.285   5.136
 9105SOL    HW228215   1.473   0.418   5.152
 9106SOL     OW28216   0.253   3.367   0.441
 9106SOL    HW128217   0.191   3.433   0.398
 9106SOL    HW228218   0.314   3.416   0.504
 9107SOL     OW28219   1.797   0.920   6.742
 9107SOL    HW128220   1.841   0.884   6.823
 9107SOL    HW228221   1.705   0.953   6.766
 9108SOL     OW28222   4.316   4.095   5.705
 9108SOL    HW128223   4.361   4.053   5.785
 9108SOL    HW228224   4.224   4.057   5.696
 9109SOL     OW28225   4.936   3.034   3.248
 9109SOL    HW128226   4.943   2.984   3.161
 9109SOL    HW228227   4.931   3.132   3.230
 9110SOL     OW28228   1.359   5.539   4.279
 9110SOL    HW128229   1.446   5.493   4.261
 9110SOL    HW228230   1.294   5.474   4.318
 9111SOL     OW28231   4.538   2.808   6.786
 9111SOL    HW128232   4.469   2.762   6.730
 9111SOL    HW228233   4.593   2.869   6.729
 9112SOL     OW28234   1.282   5.054   2.636
 9112SOL    HW128235   1.340   5.121   2.588
 9112SOL    HW228236   1.259   4.979   2.574
 9113SOL     OW28237   5.262   2.470   3.673
 9113SOL    HW128238   5.214   2.390   3.637
 9113SOL    HW228239   5.260   2.544   3.605
 9114SOL     OW28240   0.886   5.927   3.857
 9114SOL    HW128241   0.871   5.911   3.954
 9114SOL    HW228242   0.806   5.974   3.819
 9115SOL     OW28243   6.267   5.377   4.570
 9115SOL    HW128244   6.206   5.453   4.546
 9115SOL    HW228245   6.288   5.381   4.668
 9116SOL     OW28246   6.718   0.147   3.184
 9116SOL    HW128247   6.732   0.159   3.086
 9116SOL    HW228248   6.757   0.225   3.233
 9117SOL     OW28249   4.137   1.598   6.538
 9117SOL    HW128250   4.198   1.678   6.538
 9117SOL    HW228251   4.146   1.550   6.451
 9118SOL     OW28252   6.417   3.871   0.197
 9118SOL    HW128253   6.511   3.836   0.196
 9118SOL    HW228254   6.417   3.965   0.232
 9119SOL     OW28255   4.147   0.008   1.564
 9119SOL    HW128256   4.179   6.941   1.551
 9119SOL    HW228257   4.167   0.061   1.481
 9120SOL     OW28258   6.276   3.253   5.771
 9120SOL    HW128259   6.196   3.196   5.788
 9120SOL    HW228260   6.308   3.240   5.677
 9121SOL     OW28261   4.100   6.900   5.820
 9121SOL    HW128262   4.115   6.963   5.896
 9121SOL    HW228263   4.012   6.918   5.778
 9122SOL     OW28264   2.194   3.911   2.124
 9122SOL    HW128265   2.250   3.957   2.055
 9122SOL    HW228266   2.161   3.824   2.087
 9123SOL     OW28267   1.412   0.760   3.668
 9123SOL    HW128268   1.393   0.740   3.572
 9123SOL    HW228269   1.508   0.742   3.688
 9124SOL     OW28270   3.940   5.508   1.940
 9124SOL    HW128271   3.865   5.500   2.006
 9124SOL    HW228272   4.007   5.435   1.957
 9125SOL     OW28273   4.141   4.836   1.002
 9125SOL    HW128274   4.061   4.831   0.943
 9125SOL    HW228275   4.117   4.884   1.087
 9126SOL     OW28276   4.959   4.185   0.515
 9126SOL    HW128277   5.015   4.268   0.520
 9126SOL    HW228278   4.977   4.128   0.594
 9127SOL     OW28279   6.782   2.876   4.663
 9127SOL    HW128280   6.844   2.806   4.698
 9127SOL    HW228281   6.804   2.964   4.705
 9128SOL     OW28282   6.411   2.878   4.778
 9128SOL    HW128283   6.453   2.858   4.866
 9128SOL    HW228284   6.403   2.794   4.725
 9129SOL     OW28285   1.714   2.452   0.682
 9129SOL    HW128286   1.644   2.441   0.753
 9129SOL    HW228287   1.796   2.402   0.708
 9130SOL     OW28288   0.954   4.238   5.921
 9130SOL    HW128289   0.984   4.152   5.881
 9130SOL    HW228290   0.880   4.222   5.986
 9131SOL     OW28291   5.611   2.918   0.005
 9131SOL    HW128292   5.523   2.914   0.052
 9131SOL    HW228293   5.671   2.845   0.038
 9132SOL     OW28294   0.799   4.442   4.276
 9132SOL    HW128295   0.829   4.513   4.339
 9132SOL    HW228296   0.864   4.366   4.279
 9133SOL     OW28297   2.869   0.507   1.336
 9133SOL    HW128298   2.929   0.587   1.327
 9133SOL    HW228299   2.892   0.440   1.265
 9134SOL     OW28300   4.204   5.466   0.582
 9134SOL    HW128301   4.279   5.402   0.562
 9134SOL    HW228302   4.241   5.557   0.597
 9135SOL     OW28303   1.153   6.392   1.494
 9135SOL    HW128304   1.157   6.488   1.521
 9135SOL    HW228305   1.238   6.346   1.518
 9136SOL     OW28306   4.472   5.135   5.833
 9136SOL    HW128307   4.378   5.153   5.804
 9136SOL    HW228308   4.536   5.188   5.778
 9137SOL     OW28309   4.837   6.614   5.798
 9137SOL    HW128310   4.878   6.564   5.874
 9137SOL    HW228311   4.781   6.552   5.743
 9138SOL     OW28312   2.192   3.082   0.715
 9138SOL    HW128313   2.188   3.176   0.682
 9138SOL    HW228314   2.113   3.031   0.682
 9139SOL     OW28315   0.686   1.184   1.392
 9139SOL    HW128316   0.708   1.191   1.295
 9139SOL    HW228317   0.760   1.223   1.446
 9140SOL     OW28318   0.305   4.403   1.630
 9140SOL    HW128319   0.312   4.487   1.684
 9140SOL    HW228320   0.365   4.410   1.551
 9141SOL     OW28321   0.018   5.524   6.599
 9141SOL    HW128322   0.073   5.594   6.552
 9141SOL    HW228323   0.027   5.536   6.698
 9142SOL     OW28324   0.506   2.939   2.427
 9142SOL    HW128325   0.546   2.850   2.449
 9142SOL    HW228326   0.438   2.928   2.354
 9143SOL     OW28327   0.131   3.370   1.442
 9143SOL    HW128328   0.037   3.344   1.419
 9143SOL    HW228329   0.190   3.356   1.362
 9144SOL     OW28330   2.931   4.849   4.798
 9144SOL    HW128331   2.911   4.760   4.839
 9144SOL    HW228332   2.850   4.881   4.748
 9145SOL     OW28333   1.432   6.980   6.187
 9145SOL    HW128334   1.517   0.005   6.198
 9145SOL    HW228335   1.388   6.968   6.276
 9146SOL     OW28336   6.169   3.193   3.476
 9146SOL    HW128337   6.173   3.130   3.399
 9146SOL    HW228338   6.113   3.273   3.451
 9147SOL     OW28339   5.771   0.298   4.785
 9147SOL    HW128340   5.865   0.279   4.757
 9147SOL    HW228341   5.757   0.396   4.794
 9148SOL     OW28342   6.325   0.340   1.894
 9148SOL    HW128343   6.235   0.381   1.910
 9148SOL    HW228344   6.320   0.277   1.816
 9149SOL     OW28345   5.476   2.841   1.568
 9149SOL    HW128346   5.392   2.837   1.623
 9149SOL    HW228347   5.486   2.933   1.529
 9150SOL     OW28348   2.982   4.486   0.142
 9150SOL    HW128349   3.030   4.445   0.065
 9150SOL    HW228350   2.918   4.420   0.180
 9151SOL     OW28351   1.940   4.029   3.815
 9151SOL    HW128352   1.913   3.935   3.796
 9151SOL    HW228353   2.007   4.030   3.889
 9152SOL     OW28354   1.864   3.780   4.050
 9152SOL    HW128355   1.956   3.751   4.022
 9152SOL    HW228356   1.832   3.720   4.123
 9153SOL     OW28357   0.543   2.814   6.259
 9153SOL    HW128358   0.480   2.791   6.333
 9153SOL    HW228359   0.594   2.732   6.231
 9154SOL     OW28360   5.930   5.371   3.105
 9154SOL    HW128361   5.931   5.427   3.022
 9154SOL    HW228362   5.906   5.428   3.183
 9155SOL     OW28363   1.922   5.017   2.145
 9155SOL    HW128364   1.857   5.088   2.171
 9155SOL    HW228365   1.880   4.956   2.078
 9156SOL     OW28366   6.781   2.989   0.968
 9156SOL    HW128367   6.761   3.085   0.949
 9156SOL    HW228368   6.703   2.933   0.941
 9157SOL     OW28369   3.452   4.004   6.668
 9157SOL    HW128370   3.433   3.928   6.730
 9157SOL    HW228371   3.524   4.061   6.706
 9158SOL     OW28372   6.305   4.134   3.938
 9158SOL    HW128373   6.325   4.058   3.999
 9158SOL    HW228374   6.386   4.153   3.882
 9159SOL     OW28375   2.690   0.339   3.086
 9159SOL    HW128376   2.751   0.349   3.164
 9159SOL    HW228377   2.709   0.254   3.038
 9160SOL     OW28378   0.418   4.771   7.005
 9160SOL    HW128379   0.450   4.866   7.011
 9160SOL    HW228380   0.474   4.721   6.939
 9161SOL     OW28381   5.817   4.132   1.976
 9161SOL    HW128382   5.779   4.187   2.050
 9161SOL    HW228383   5.915   4.121   1.990
 9162SOL     OW28384   4.151   1.593   2.468
 9162SOL    HW128385   4.142   1.560   2.562
 9162SOL    HW228386   4.227   1.546   2.424
 9163SOL     OW28387   0.226   2.062   1.872
 9163SOL    HW128388   0.144   2.107   1.908
 9163SOL    HW228389   0.307   2.100   1.917
 9164SOL     OW28390   2.549   0.213   6.780
 9164SOL    HW128391   2.515   0.179   6.868
 9164SOL    HW228392   2.502   0.299   6.758
 9165SOL     OW28393   4.520   2.168   5.844
 9165SOL    HW128394   4.427   2.151   5.811
 9165SOL    HW228395   4.586   2.128   5.781
 9166SOL     OW28396   4.180   5.842   1.436
 9166SOL    HW128397   4.226   5.780   1.499
 9166SOL    HW228398   4.233   5.927   1.428
 9167SOL     OW28399   0.733   1.993   6.168
 9167SOL    HW128400   0.795   1.987   6.246
 9167SOL    HW228401   0.739   1.908   6.115
 9168SOL     OW28402   6.188   5.066   5.630
 9168SOL    HW128403   6.263   5.044   5.694
 9168SOL    HW228404   6.127   5.132   5.672
 9169SOL     OW28405   6.348   6.410   6.401
 9169SOL    HW128406   6.285   6.449   6.468
 9169SOL    HW228407   6.442   6.423   6.432
 9170SOL     OW28408   1.267   1.694   5.709
 9170SOL    HW128409   1.317   1.780   5.723
 9170SOL    HW228410   1.296   1.627   5.777
 9171SOL     OW28411   3.011   4.778   0.787
 9171SOL    HW128412   3.017   4.791   0.886
 9171SOL    HW228413   2.982   4.685   0.767
 9172SOL     OW28414   4.632   1.424   4.747
 9172SOL    HW128415   4.565   1.392   4.679
 9172SOL    HW228416   4.594   1.502   4.797
 9173SOL     OW28417   6.621   2.628   3.899
 9173SOL    HW128418   6.646   2.533   3.914
 9173SOL    HW228419   6.656   2.658   3.811
 9174SOL     OW28420   0.919   6.118   0.411
 9174SOL    HW128421   0.970   6.085   0.491
 9174SOL    HW228422   0.941   6.214   0.394
 9175SOL     OW28423   1.529   6.995   0.105
 9175SOL    HW128424   1.530   0.041   0.037
 9175SOL    HW228425   1.621   6.984   0.143
 9176SOL     OW28426   2.077   1.139   2.996
 9176SOL    HW128427   2.078   1.069   3.067
 9176SOL    HW228428   2.128   1.106   2.916
 9177SOL     OW28429   0.909   3.681   3.715
 9177SOL    HW128430   0.917   3.590   3.674
 9177SOL    HW228431   0.937   3.750   3.648
 9178SOL     OW28432   2.367   6.454   6.769
 9178SOL    HW128433   2.289   6.451   6.832
 9178SOL    HW228434   2.392   6.361   6.742
 9179SOL     OW28435   3.398   6.004   5.574
 9179SOL    HW128436   3.485   5.980   5.532
 9179SOL    HW228437   3.369   6.094   5.542
 9180SOL     OW28438   6.825   2.058   4.150
 9180SOL    HW128439   6.804   2.009   4.065
 9180SOL    HW228440   6.740   2.090   4.192
 9181SOL     OW28441   4.358   2.093   3.560
 9181SOL    HW128442   4.318   2.061   3.474
 9181SOL    HW228443   4.379   2.191   3.552
 9182SOL     OW28444   1.719   0.842   3.189
 9182SOL    HW128445   1.698   0.878   3.280
 9182SOL    HW228446   1.648   0.870   3.125
 9183SOL     OW28447   5.058   2.499   7.024
 9183SOL    HW128448   5.071   2.447   0.081
 9183SOL    HW228449   5.094   2.592   0.010
 9184SOL     OW28450   3.610   2.822   0.692
 9184SOL    HW128451   3.601   2.903   0.749
 9184SOL    HW228452   3.578   2.742   0.743
 9185SOL     OW28453   0.372   0.394   6.682
 9185SOL    HW128454   0.324   0.428   6.763
 9185SOL    HW228455   0.372   0.294   6.684
 9186SOL     OW28456   4.758   0.361   6.076
 9186SOL    HW128457   4.824   0.345   6.150
 9186SOL    HW228458   4.699   0.282   6.066
 9187SOL     OW28459   4.983   1.870   6.832
 9187SOL    HW128460   4.906   1.927   6.863
 9187SOL    HW228461   4.958   1.823   6.747
 9188SOL     OW28462   1.502   0.411   1.004
 9188SOL    HW128463   1.423   0.439   1.059
 9188SOL    HW228464   1.478   0.331   0.950
 9189SOL     OW28465   2.775   1.419   2.778
 9189SOL    HW128466   2.701   1.413   2.711
 9189SOL    HW228467   2.856   1.458   2.735
 9190SOL     OW28468   5.865   3.559   5.261
 9190SOL    HW128469   5.792   3.516   5.208
 9190SOL    HW228470   5.844   3.553   5.359
 9191SOL     OW28471   5.381   6.385   0.048
 9191SOL    HW128472   5.442   6.307   0.054
 9191SOL    HW228473   5.411   6.445   7.000
 9192SOL     OW28474   6.721   4.185   5.642
 9192SOL    HW128475   6.688   4.170   5.736
 9192SOL    HW228476   6.773   4.105   5.613
 9193SOL     OW28477   3.319   3.244   4.315
 9193SOL    HW128478   3.305   3.292   4.228
 9193SOL    HW228479   3.241   3.184   4.333
 9194SOL     OW28480   3.232   5.941   2.513
 9194SOL    HW128481   3.215   5.936   2.415
 9194SOL    HW228482   3.331   5.941   2.530
 9195SOL     OW28483   0.587   3.080   3.319
 9195SOL    HW128484   0.561   3.175   3.338
 9195SOL    HW228485   0.684   3.068   3.340
 9196SOL     OW28486   3.098   0.637   4.006
 9196SOL    HW128487   3.190   0.660   4.038
 9196SOL    HW228488   3.035   0.638   4.083
 9197SOL     OW28489   2.652   3.477   0.066
 9197SOL    HW128490   2.623   3.428   7.011
 9197SOL    HW228491   2.638   3.575   0.053
 9198SOL     OW28492   5.532   4.431   5.687
 9198SOL    HW128493   5.556   4.373   5.764
 9198SOL    HW228494   5.462   4.386   5.631
 9199SOL     OW28495   1.397   4.124   5.675
 9199SOL    HW128496   1.352   4.035   5.669
 9199SOL    HW228497   1.349   4.181   5.742
 9200SOL     OW28498   0.374   6.307   0.615
 9200SOL    HW128499   0.390   6.228   0.556
 9200SOL    HW228500   0.366   6.390   0.559
 9201SOL     OW28501   0.099   4.023   1.764
 9201SOL    HW128502   0.063   4.091   1.828
 9201SOL    HW228503   0.031   3.952   1.748
 9202SOL     OW28504   2.199   4.855   4.110
 9202SOL    HW128505   2.285   4.840   4.062
 9202SOL    HW228506   2.162   4.945   4.086
 9203SOL     OW28507   5.243   1.519   6.510
 9203SOL    HW128508   5.177   1.584   6.473
 9203SOL    HW228509   5.316   1.504   6.442
 9204SOL     OW28510   5.547   4.021   3.050
 9204SOL    HW128511   5.498   4.103   3.082
 9204SOL    HW228512   5.640   4.021   3.088
 9205SOL     OW28513   5.487   3.241   2.630
 9205SOL    HW128514   5.414   3.272   2.568
 9205SOL    HW228515   5.465   3.269   2.723
 9206SOL     OW28516   2.295   6.566   4.096
 9206SOL    HW128517   2.258   6.520   4.016
 9206SOL    HW228518   2.368   6.511   4.136
 9207SOL     OW28519   4.264   6.481   6.274
 9207SOL    HW128520   4.355   6.518   6.252
 9207SOL    HW228521   4.223   6.534   6.348
 9208SOL     OW28522   4.967   3.325   2.203
 9208SOL    HW128523   4.918   3.251   2.249
 9208SOL    HW228524   5.023   3.288   2.129
 9209SOL     OW28525   4.131   1.465   2.721
 9209SOL    HW128526   4.175   1.388   2.674
 9209SOL    HW228527   4.162   1.469   2.816
 9210SOL     OW28528   2.311   6.524   1.353
 9210SOL    HW128529   2.223   6.568   1.336
 9210SOL    HW228530   2.312   6.486   1.445
 9211SOL     OW28531   5.287   1.613   6.108
 9211SOL    HW128532   5.290   1.528   6.159
 9211SOL    HW228533   5.279   1.593   6.010
 9212SOL     OW28534   4.706   4.479   4.425
 9212SOL    HW128535   4.713   4.550   4.355
 9212SOL    HW228536   4.645   4.510   4.497
 9213SOL     OW28537   5.572   0.232   4.588
 9213SOL    HW128538   5.623   0.218   4.673
 9213SOL    HW228539   5.601   0.318   4.546
 9214SOL     OW28540   1.944   2.682   4.408
 9214SOL    HW128541   1.929   2.651   4.502
 9214SOL    HW228542   1.897   2.621   4.345
 9215SOL     OW28543   0.490   3.521   2.469
 9215SOL    HW128544   0.412   3.458   2.470
 9215SOL    HW228545   0.458   3.615   2.472
 9216SOL     OW28546   2.678   6.024   4.781
 9216SOL    HW128547   2.600   6.084   4.796
 9216SOL    HW228548   2.732   6.057   4.704
 9217SOL     OW28549   5.302   1.379   6.220
 9217SOL    HW128550   5.346   1.308   6.275
 9217SOL    HW228551   5.212   1.346   6.188
 9218SOL     OW28552   5.413   6.896   6.992
 9218SOL    HW128553   5.408   6.994   7.014
 9218SOL    HW228554   5.431   6.844   0.048
 9219SOL     OW28555   3.827   3.006   5.613
 9219SOL    HW128556   3.889   2.990   5.690
 9219SOL    HW228557   3.880   3.009   5.528
 9220SOL     OW28558   1.992   6.168   3.092
 9220SOL    HW128559   1.921   6.149   3.024
 9220SOL    HW228560   1.952   6.219   3.168
 9221SOL     OW28561   2.740   0.442   5.949
 9221SOL    HW128562   2.815   0.386   5.984
 9221SOL    HW228563   2.743   0.533   5.992
 9222SOL     OW28564   2.042   4.253   3.688
 9222SOL    HW128565   2.014   4.328   3.748
 9222SOL    HW228566   2.021   4.166   3.733
 9223SOL     OW28567   1.426   3.956   4.497
 9223SOL    HW128568   1.486   4.006   4.434
 9223SOL    HW228569   1.480   3.913   4.569
 9224SOL     OW28570   1.357   4.534   3.865
 9224SOL    HW128571   1.330   4.588   3.945
 9224SOL    HW228572   1.291   4.461   3.850
 9225SOL     OW28573   3.882   6.821   6.245
 9225SOL    HW128574   3.944   6.898   6.228
 9225SOL    HW228575   3.789   6.855   6.259
 9226SOL     OW28576   1.429   6.806   0.769
 9226SOL    HW128577   1.430   6.868   0.692
 9226SOL    HW228578   1.339   6.763   0.777
 9227SOL     OW28579   2.014   5.387   0.852
 9227SOL    HW128580   2.091   5.451   0.858
 9227SOL    HW228581   1.984   5.362   0.944
 9228SOL     OW28582   1.958   2.540   5.774
 9228SOL    HW128583   1.945   2.516   5.678
 9228SOL    HW228584   2.036   2.603   5.782
 9229SOL     OW28585   0.796   4.460   0.359
 9229SOL    HW128586   0.737   4.541   0.359
 9229SOL    HW228587   0.755   4.389   0.302
 9230SOL     OW28588   5.405   2.701   4.528
 9230SOL    HW128589   5.314   2.725   4.495
 9230SOL    HW228590   5.444   2.779   4.576
 9231SOL     OW28591   0.566   5.183   5.496
 9231SOL    HW128592   0.632   5.207   5.567
 9231SOL    HW228593   0.580   5.242   5.416
 9232SOL     OW28594   1.980   5.243   1.857
 9232SOL    HW128595   2.000   5.310   1.928
 9232SOL    HW228596   1.896   5.194   1.880
 9233SOL     OW28597   0.751   6.286   0.614
 9233SOL    HW128598   0.722   6.365   0.558
 9233SOL    HW228599   0.678   6.263   0.678
 9234SOL     OW28600   2.147   5.067   1.210
 9234SOL    HW128601   2.075   5.080   1.278
 9234SOL    HW228602   2.109   5.076   1.118
 9235SOL     OW28603   2.318   2.514   3.392
 9235SOL    HW128604   2.243   2.471   3.342
 9235SOL    HW228605   2.403   2.503   3.339
 9236SOL     OW28606   1.831   3.502   6.779
 9236SOL    HW128607   1.871   3.588   6.748
 9236SOL    HW228608   1.896   3.428   6.765
 9237SOL     OW28609   6.345   5.669   3.342
 9237SOL    HW128610   6.323   5.678   3.245
 9237SOL    HW228611   6.334   5.757   3.387
 9238SOL     OW28612   1.749   3.108   5.193
 9238SOL    HW128613   1.735   3.204   5.171
 9238SOL    HW228614   1.685   3.080   5.264
 9239SOL     OW28615   6.902   4.747   0.020
 9239SOL    HW128616   6.963   4.677   0.056
 9239SOL    HW228617   6.848   4.787   0.095
 9240SOL     OW28618   5.046   3.335   3.210
 9240SOL    HW128619   5.118   3.284   3.163
 9240SOL    HW228620   5.017   3.413   3.154
 9241SOL     OW28621   0.328   5.898   0.292
 9241SOL    HW128622   0.286   5.894   0.201
 9241SOL    HW228623   0.319   5.991   0.329
 9242SOL     OW28624   1.882   2.207   2.200
 9242SOL    HW128625   1.863   2.303   2.178
 9242SOL    HW228626   1.970   2.201   2.247
 9243SOL     OW28627   0.878   6.822   1.744
 9243SOL    HW128628   0.907   6.829   1.839
 9243SOL    HW228629   0.911   6.901   1.693
 9244SOL     OW28630   3.439   6.354   5.096
 9244SOL    HW128631   3.511   6.405   5.049
 9244SOL    HW228632   3.444   6.258   5.071
 9245SOL     OW28633   0.819   4.059   3.190
 9245SOL    HW128634   0.812   3.972   3.141
 9245SOL    HW228635   0.799   4.134   3.128
 9246SOL     OW28636   6.044   0.168   4.670
 9246SOL    HW128637   6.005   0.082   4.636
 9246SOL    HW228638   6.023   0.177   4.768
 9247SOL     OW28639   3.579   5.595   2.829
 9247SOL    HW128640   3.482   5.620   2.832
 9247SOL    HW228641   3.634   5.678   2.822
 9248SOL     OW28642   2.805   1.715   4.637
 9248SOL    HW128643   2.708   1.719   4.615
 9248SOL    HW228644   2.822   1.767   4.721
 9249SOL     OW28645   3.659   4.725   1.578
 9249SOL    HW128646   3.650   4.730   1.678
 9249SOL    HW228647   3.584   4.669   1.541
 9250SOL     OW28648   6.830   4.684   4.650
 9250SOL    HW128649   6.735   4.700   4.622
 9250SOL    HW228650   6.883   4.651   4.571
 9251SOL     OW28651   4.131   2.884   1.262
 9251SOL    HW128652   4.173   2.972   1.243
 9251SOL    HW228653   4.115   2.835   1.177
 9252SOL     OW28654   4.234   0.291   4.998
 9252SOL    HW128655   4.197   0.370   5.046
 9252SOL    HW228656   4.243   0.214   5.062
 9253SOL     OW28657   6.632   4.663   5.528
 9253SOL    HW128658   6.650   4.761   5.535
 9253SOL    HW228659   6.699   4.613   5.584
 9254SOL     OW28660   5.724   4.514   2.506
 9254SOL    HW128661   5.626   4.522   2.524
 9254SOL    HW228662   5.760   4.434   2.553
 9255SOL     OW28663   6.642   3.775   6.651
 9255SOL    HW128664   6.599   3.778   6.560
 9255SOL    HW228665   6.576   3.739   6.717
 9256SOL     OW28666   1.746   6.742   1.624
 9256SOL    HW128667   1.774   6.809   1.556
 9256SOL    HW228668   1.721   6.788   1.709
 9257SOL     OW28669   6.454   5.724   3.691
 9257SOL    HW128670   6.368   5.765   3.721
 9257SOL    HW228671   6.452   5.709   3.592
 9258SOL     OW28672   3.440   3.401   0.303
 9258SOL    HW128673   3.420   3.489   0.345
 9258SOL    HW228674   3.453   3.332   0.375
 9259SOL     OW28675   1.887   1.426   6.117
 9259SOL    HW128676   1.983   1.402   6.107
 9259SOL    HW228677   1.877   1.492   6.192
 9260SOL     OW28678   6.018   3.128   5.838
 9260SOL    HW128679   5.986   3.033   5.835
 9260SOL    HW228680   5.999   3.172   5.750
 9261SOL     OW28681   4.216   1.150   0.958
 9261SOL    HW128682   4.197   1.180   1.051
 9261SOL    HW228683   4.298   1.093   0.957
 9262SOL     OW28684   0.132   6.773   4.871
 9262SOL    HW128685   0.062   6.747   4.804
 9262SOL    HW228686   0.089   6.826   4.944
 9263SOL     OW28687   3.235   5.226   2.533
 9263SOL    HW128688   3.179   5.151   2.568
 9263SOL    HW228689   3.204   5.250   2.441
 9264SOL     OW28690   5.602   3.652   6.608
 9264SOL    HW128691   5.525   3.665   6.546
 9264SOL    HW228692   5.618   3.554   6.621
 9265SOL     OW28693   3.701   2.186   6.569
 9265SOL    HW128694   3.768   2.253   6.537
 9265SOL    HW228695   3.749   2.107   6.607
 9266SOL     OW28696   0.117   4.768   1.854
 9266SOL    HW128697   0.021   4.744   1.868
 9266SOL    HW228698   0.123   4.864   1.826
 9267SOL     OW28699   0.752   1.507   3.816
 9267SOL    HW128700   0.669   1.560   3.800
 9267SOL    HW228701   0.767   1.444   3.739
 9268SOL     OW28702   0.655   6.633   1.791
 9268SOL    HW128703   0.700   6.568   1.853
 9268SOL    HW228704   0.716   6.711   1.776
 9269SOL     OW28705   5.321   0.383   0.232
 9269SOL    HW128706   5.247   0.444   0.262
 9269SOL    HW228707   5.408   0.431   0.238
 9270SOL     OW28708   3.597   1.509   6.203
 9270SOL    HW128709   3.574   1.484   6.108
 9270SOL    HW228710   3.533   1.579   6.235
 9271SOL     OW28711   1.423   0.281   6.530
 9271SOL    HW128712   1.338   0.231   6.510
 9271SOL    HW228713   1.444   0.344   6.455
 9272SOL     OW28714   6.710   6.547   6.073
 9272SOL    HW128715   6.769   6.476   6.112
 9272SOL    HW228716   6.762   6.632   6.065
 9273SOL     OW28717   5.342   5.982   3.874
 9273SOL    HW128718   5.385   6.055   3.929
 9273SOL    HW228719   5.244   5.997   3.872
 9274SOL     OW28720   0.625   2.958   7.014
 9274SOL    HW128721   0.576   3.031   6.968
 9274SOL    HW228722   0.644   2.884   6.950
 9275SOL     OW28723   0.931   6.741   1.009
 9275SOL    HW128724   0.891   6.754   1.100
 9275SOL    HW228725   0.878   6.672   0.959
 9276SOL     OW28726   3.399   4.704   6.767
 9276SOL    HW128727   3.346   4.761   6.704
 9276SOL    HW228728   3.451   4.763   6.829
 9277SOL     OW28729   4.308   4.977   2.447
 9277SOL    HW128730   4.395   4.933   2.423
 9277SOL    HW228731   4.327   5.067   2.487
 9278SOL     OW28732   0.476   0.582   4.304
 9278SOL    HW128733   0.503   0.670   4.345
 9278SOL    HW228734   0.380   0.587   4.277
 9279SOL     OW28735   3.830   5.533   1.524
 9279SOL    HW128736   3.921   5.505   1.556
 9279SOL    HW228737   3.839   5.603   1.454
 9280SOL     OW28738   1.305   1.696   2.760
 9280SOL    HW128739   1.335   1.732   2.672
 9280SOL    HW228740   1.270   1.603   2.748
 9281SOL     OW28741   3.637   3.631   6.144
 9281SOL    HW128742   3.576   3.676   6.078
 9281SOL    HW228743   3.709   3.583   6.094
 9282SOL     OW28744   3.604   0.376   4.734
 9282SOL    HW128745   3.556   0.339   4.654
 9282SOL    HW228746   3.670   0.444   4.704
 9283SOL     OW28747   5.618   0.050   6.494
 9283SOL    HW128748   5.526   0.077   6.465
 9283SOL    HW228749   5.636   6.983   6.465
 9284SOL     OW28750   3.318   3.467   5.558
 9284SOL    HW128751   3.337   3.369   5.553
 9284SOL    HW228752   3.228   3.486   5.520
 9285SOL     OW28753   5.630   3.078   2.200
 9285SOL    HW128754   5.723   3.112   2.191
 9285SOL    HW228755   5.618   2.997   2.142
 9286SOL     OW28756   5.188   6.256   0.494
 9286SOL    HW128757   5.105   6.253   0.439
 9286SOL    HW228758   5.224   6.349   0.495
 9287SOL     OW28759   2.471   4.572   6.025
 9287SOL    HW128760   2.523   4.558   5.940
 9287SOL    HW228761   2.374   4.555   6.008
 9288SOL     OW28762   4.381   2.348   4.030
 9288SOL    HW128763   4.426   2.294   4.101
 9288SOL    HW228764   4.288   2.370   4.058
 9289SOL     OW28765   4.385   0.006   6.174
 9289SOL    HW128766   4.383   0.040   6.268
 9289SOL    HW228767   4.374   6.933   6.175
 9290SOL     OW28768   5.459   0.854   4.770
 9290SOL    HW128769   5.403   0.784   4.725
 9290SOL    HW228770   5.461   0.837   4.869
 9291SOL     OW28771   1.053   6.513   5.584
 9291SOL    HW128772   1.103   6.543   5.502
 9291SOL    HW228773   1.069   6.415   5.599
 9292SOL     OW28774   1.281   1.459   5.922
 9292SOL    HW128775   1.317   1.413   5.841
 9292SOL    HW228776   1.355   1.474   5.987
 9293SOL     OW28777   4.821   2.942   5.927
 9293SOL    HW128778   4.824   2.918   5.830
 9293SOL    HW228779   4.912   2.933   5.967
 9294SOL     OW28780   4.969   0.839   0.575
 9294SOL    HW128781   4.935   0.905   0.643
 9294SOL    HW228782   5.068   0.834   0.580
 9295SOL     OW28783   0.835   0.747   5.159
 9295SOL    HW128784   0.872   0.817   5.098
 9295SOL    HW228785   0.803   0.790   5.244
 9296SOL     OW28786   2.732   3.892   1.341
 9296SOL    HW128787   2.634   3.887   1.321
 9296SOL    HW228788   2.747   3.953   1.419
 9297SOL     OW28789   0.220   5.762   3.204
 9297SOL    HW128790   0.139   5.749   3.147
 9297SOL    HW228791   0.258   5.673   3.230
 9298SOL     OW28792   1.373   6.959   5.711
 9298SOL    HW128793   1.307   6.890   5.682
 9298SOL    HW228794   1.428   6.924   5.787
 9299SOL     OW28795   1.857   2.093   4.068
 9299SOL    HW128796   1.895   2.110   4.159
 9299SOL    HW228797   1.932   2.072   4.004
 9300SOL     OW28798   1.424   6.346   5.182
 9300SOL    HW128799   1.370   6.341   5.266
 9300SOL    HW228800   1.519   6.323   5.202
 9301SOL     OW28801   0.239   3.842   4.454
 9301SOL    HW128802   0.200   3.756   4.421
 9301SOL    HW228803   0.171   3.915   4.445
 9302SOL     OW28804   2.193   2.983   4.943
 9302SOL    HW128805   2.281   2.992   4.990
 9302SOL    HW228806   2.206   2.998   4.845
 9303SOL     OW28807   3.159   3.973   6.796
 9303SOL    HW128808   3.130   3.886   6.755
 9303SOL    HW228809   3.163   3.963   6.895
 9304SOL     OW28810   4.807   4.997   0.450
 9304SOL    HW128811   4.836   4.962   0.539
 9304SOL    HW228812   4.781   5.093   0.460
 9305SOL     OW28813   2.946   1.706   1.059
 9305SOL    HW128814   2.981   1.656   0.979
 9305SOL    HW228815   2.857   1.746   1.037
 9306SOL     OW28816   6.947   4.626   4.416
 9306SOL    HW128817   7.020   4.665   4.359
 9306SOL    HW228818   6.885   4.573   4.360
 9307SOL     OW28819   1.961   4.237   0.475
 9307SOL    HW128820   2.037   4.240   0.540
 9307SOL    HW228821   1.879   4.273   0.518
 9308SOL     OW28822   1.461   4.639   1.557
 9308SOL    HW128823   1.481   4.644   1.655
 9308SOL    HW228824   1.543   4.660   1.504
 9309SOL     OW28825   5.172   6.210   5.969
 9309SOL    HW128826   5.096   6.193   5.905
 9309SOL    HW228827   5.259   6.194   5.922
 9310SOL     OW28828   4.536   5.717   5.951
 9310SOL    HW128829   4.479   5.777   5.895
 9310SOL    HW228830   4.591   5.773   6.014
 9311SOL     OW28831   4.259   3.537   1.260
 9311SOL    HW128832   4.174   3.504   1.219
 9311SOL    HW228833   4.291   3.472   1.328
 9312SOL     OW28834   1.327   2.160   0.606
 9312SOL    HW128835   1.418   2.151   0.646
 9312SOL    HW228836   1.331   2.138   0.508
 9313SOL     OW28837   1.765   0.622   1.660
 9313SOL    HW128838   1.759   0.664   1.751
 9313SOL    HW228839   1.721   0.682   1.593
 9314SOL     OW28840   5.240   2.721   0.860
 9314SOL    HW128841   5.330   2.678   0.856
 9314SOL    HW228842   5.238   2.787   0.935
 9315SOL     OW28843   5.744   1.100   6.572
 9315SOL    HW128844   5.687   1.065   6.498
 9315SOL    HW228845   5.776   1.023   6.629
 9316SOL     OW28846   5.186   0.600   5.620
 9316SOL    HW128847   5.163   0.590   5.717
 9316SOL    HW228848   5.250   0.527   5.593
 9317SOL     OW28849   3.139   5.206   3.450
 9317SOL    HW128850   3.077   5.223   3.375
 9317SOL    HW228851   3.125   5.274   3.522
 9318SOL     OW28852   5.224   5.843   0.312
 9318SOL    HW128853   5.154   5.805   0.373
 9318SOL    HW228854   5.289   5.897   0.365
 9319SOL     OW28855   2.783   3.977   1.058
 9319SOL    HW128856   2.739   3.919   0.990
 9319SOL    HW228857   2.771   3.936   1.149
 9320SOL     OW28858   5.506   0.634   6.264
 9320SOL    HW128859   5.563   0.716   6.263
 9320SOL    HW228860   5.560   0.555   6.237
 9321SOL     OW28861   0.253   2.665   5.262
 9321SOL    HW128862   0.244   2.633   5.168
 9321SOL    HW228863   0.348   2.655   5.292
 9322SOL     OW28864   6.544   4.433   6.049
 9322SOL    HW128865   6.632   4.453   6.090
 9322SOL    HW228866   6.494   4.518   6.034
 9323SOL     OW28867   1.763   3.075   3.794
 9323SOL    HW128868   1.707   3.084   3.712
 9323SOL    HW228869   1.721   3.126   3.869
 9324SOL     OW28870   1.003   3.750   0.709
 9324SOL    HW128871   1.060   3.671   0.686
 9324SOL    HW228872   0.941   3.727   0.783
 9325SOL     OW28873   2.266   5.360   1.861
 9325SOL    HW128874   2.259   5.393   1.955
 9325SOL    HW228875   2.301   5.434   1.802
 9326SOL     OW28876   3.910   4.547   0.218
 9326SOL    HW128877   3.927   4.645   0.230
 9326SOL    HW228878   3.893   4.528   0.121
 9327SOL     OW28879   4.392   0.728   3.410
 9327SOL    HW128880   4.393   0.678   3.323
 9327SOL    HW228881   4.457   0.686   3.473
 9328SOL     OW28882   2.993   6.784   4.923
 9328SOL    HW128883   2.999   6.703   4.980
 9328SOL    HW228884   3.085   6.819   4.904
 9329SOL     OW28885   0.283   5.962   6.602
 9329SOL    HW128886   0.324   6.006   6.523
 9329SOL    HW228887   0.219   6.024   6.646
 9330SOL     OW28888   0.121   7.001   6.525
 9330SOL    HW128889   0.068   7.011   6.440
 9330SOL    HW228890   0.209   6.957   6.504
 9331SOL     OW28891   1.314   2.880   4.874
 9331SOL    HW128892   1.349   2.850   4.785
 9331SOL    HW228893   1.366   2.961   4.904
 9332SOL     OW28894   3.763   5.681   0.673
 9332SOL    HW128895   3.821   5.762   0.675
 9332SOL    HW228896   3.672   5.706   0.640
 9333SOL     OW28897   3.708   5.293   0.560
 9333SOL    HW128898   3.661   5.329   0.641
 9333SOL    HW228899   3.795   5.341   0.549
 9334SOL     OW28900   5.011   6.241   4.214
 9334SOL    HW128901   4.951   6.165   4.238
 9334SOL    HW228902   5.052   6.278   4.297
 9335SOL     OW28903   2.326   2.127   1.348
 9335SOL    HW128904   2.262   2.153   1.275
 9335SOL    HW228905   2.419   2.123   1.311
 9336SOL     OW28906   5.857   1.071   5.425
 9336SOL    HW128907   5.859   1.062   5.525
 9336SOL    HW228908   5.762   1.075   5.394
 9337SOL     OW28909   4.281   6.954   6.860
 9337SOL    HW128910   4.278   0.009   6.802
 9337SOL    HW228911   4.218   6.885   6.825
 9338SOL     OW28912   0.343   6.165   0.371
 9338SOL    HW128913   0.437   6.135   0.389
 9338SOL    HW228914   0.343   6.231   0.296
 9339SOL     OW28915   5.513   5.004   6.781
 9339SOL    HW128916   5.474   5.057   6.705
 9339SOL    HW228917   5.458   5.019   6.863
 9340SOL     OW28918   3.762   5.881   2.901
 9340SOL    HW128919   3.742   5.886   2.803
 9340SOL    HW228920   3.681   5.910   2.952
 9341SOL     OW28921   6.071   4.554   6.513
 9341SOL    HW128922   6.024   4.491   6.574
 9341SOL    HW228923   6.113   4.503   6.438
 9342SOL     OW28924   3.152   0.409   4.606
 9342SOL    HW128925   3.170   0.339   4.536
 9342SOL    HW228926   3.054   0.417   4.620
 9343SOL     OW28927   4.873   4.164   1.733
 9343SOL    HW128928   4.793   4.224   1.724
 9343SOL    HW228929   4.847   4.081   1.782
 9344SOL     OW28930   5.527   5.091   6.340
 9344SOL    HW128931   5.443   5.069   6.290
 9344SOL    HW228932   5.505   5.112   6.435
 9345SOL     OW28933   6.941   5.941   0.080
 9345SOL    HW128934   6.879   5.868   0.052
 9345SOL    HW228935   6.910   5.979   0.167
 9346SOL     OW28936   5.238   6.339   2.659
 9346SOL    HW128937   5.299   6.292   2.723
 9346SOL    HW228938   5.219   6.279   2.581
 9347SOL     OW28939   3.634   5.444   1.080
 9347SOL    HW128940   3.606   5.518   1.141
 9347SOL    HW228941   3.701   5.478   1.014
 9348SOL     OW28942   2.478   6.323   3.022
 9348SOL    HW128943   2.551   6.267   2.984
 9348SOL    HW228944   2.389   6.283   2.998
 9349SOL     OW28945   6.790   5.775   2.357
 9349SOL    HW128946   6.713   5.722   2.324
 9349SOL    HW228947   6.835   5.820   2.280
 9350SOL     OW28948   6.916   1.506   4.479
 9350SOL    HW128949   6.974   1.535   4.403
 9350SOL    HW228950   6.969   1.447   4.540
 9351SOL     OW28951   2.001   1.175   5.368
 9351SOL    HW128952   1.987   1.121   5.450
 9351SOL    HW228953   2.067   1.247   5.386
 9352SOL     OW28954   1.369   2.294   5.662
 9352SOL    HW128955   1.343   2.322   5.754
 9352SOL    HW228956   1.332   2.360   5.596
 9353SOL     OW28957   1.803   4.063   1.875
 9353SOL    HW128958   1.891   4.025   1.906
 9353SOL    HW228959   1.729   4.005   1.908
 9354SOL     OW28960   6.468   2.337   1.161
 9354SOL    HW128961   6.508   2.322   1.251
 9354SOL    HW228962   6.385   2.282   1.152
 9355SOL     OW28963   6.246   1.127   4.569
 9355SOL    HW128964   6.218   1.214   4.609
 9355SOL    HW228965   6.208   1.052   4.623
 9356SOL     OW28966   4.681   5.032   2.099
 9356SOL    HW128967   4.600   5.034   2.156
 9356SOL    HW228968   4.667   5.092   2.019
 9357SOL     OW28969   2.625   3.753   0.049
 9357SOL    HW128970   2.647   3.850   0.037
 9357SOL    HW228971   2.567   3.743   0.130
 9358SOL     OW28972   5.982   3.892   1.968
 9358SOL    HW128973   5.893   3.856   1.941
 9358SOL    HW228974   5.981   3.916   2.065
 9359SOL     OW28975   6.812   3.759   5.923
 9359SOL    HW128976   6.832   3.764   5.825
 9359SOL    HW228977   6.767   3.672   5.944
 9360SOL     OW28978   1.664   0.344   5.771
 9360SOL    HW128979   1.606   0.284   5.826
 9360SOL    HW228980   1.609   0.418   5.733
 9361SOL     OW28981   2.851   6.356   3.239
 9361SOL    HW128982   2.928   6.321   3.292
 9361SOL    HW228983   2.770   6.362   3.297
 9362SOL     OW28984   1.770   1.046   1.834
 9362SOL    HW128985   1.778   0.952   1.868
 9362SOL    HW228986   1.855   1.073   1.789
 9363SOL     OW28987   4.052   5.448   1.662
 9363SOL    HW128988   4.146   5.419   1.644
 9363SOL    HW228989   3.998   5.369   1.692
 9364SOL     OW28990   3.921   2.805   6.265
 9364SOL    HW128991   3.881   2.874   6.325
 9364SOL    HW228992   4.006   2.841   6.224
 9365SOL     OW28993   2.705   2.365   4.970
 9365SOL    HW128994   2.782   2.331   5.024
 9365SOL    HW228995   2.719   2.343   4.873
 9366SOL     OW28996   3.398   1.821   6.891
 9366SOL    HW128997   3.457   1.801   6.813
 9366SOL    HW228998   3.394   1.920   6.906
 9367SOL     OW28999   6.941   5.835   3.861
 9367SOL    HW129000   6.920   5.770   3.788
 9367SOL    HW229001   6.922   5.794   3.950
 9368SOL     OW29002   3.568   2.151   2.720
 9368SOL    HW129003   3.595   2.238   2.678
 9368SOL    HW229004   3.649   2.097   2.741
 9369SOL     OW29005   6.652   1.382   6.107
 9369SOL    HW129006   6.678   1.457   6.167
 9369SOL    HW229007   6.557   1.394   6.077
 9370SOL     OW29008   5.237   0.956   3.106
 9370SOL    HW129009   5.332   0.974   3.080
 9370SOL    HW229010   5.177   1.019   3.057
 9371SOL     OW29011   1.736   5.268   6.965
 9371SOL    HW129012   1.658   5.302   6.912
 9371SOL    HW229013   1.783   5.197   6.912
 9372SOL     OW29014   5.952   6.539   2.995
 9372SOL    HW129015   5.890   6.493   3.059
 9372SOL    HW229016   6.016   6.596   3.047
 9373SOL     OW29017   4.376   2.353   2.863
 9373SOL    HW129018   4.421   2.265   2.844
 9373SOL    HW229019   4.332   2.386   2.779
 9374SOL     OW29020   5.959   2.709   6.820
 9374SOL    HW129021   5.866   2.680   6.841
 9374SOL    HW229022   6.009   2.634   6.778
 9375SOL     OW29023   6.814   1.762   3.649
 9375SOL    HW129024   6.784   1.854   3.624
 9375SOL    HW229025   6.736   1.708   3.680
 9376SOL     OW29026   2.953   3.876   0.740
 9376SOL    HW129027   2.964   3.929   0.656
 9376SOL    HW229028   2.873   3.817   0.731
 9377SOL     OW29029   0.538   5.188   3.657
 9377SOL    HW129030   0.462   5.243   3.695
 9377SOL    HW229031   0.606   5.172   3.729
 9378SOL     OW29032   1.802   0.110   5.702
 9378SOL    HW129033   1.789   0.195   5.754
 9378SOL    HW229034   1.850   0.130   5.617
 9379SOL     OW29035   4.592   4.770   4.610
 9379SOL    HW129036   4.522   4.700   4.625
 9379SOL    HW229037   4.683   4.728   4.616
 9380SOL     OW29038   5.933   5.699   5.196
 9380SOL    HW129039   6.012   5.757   5.178
 9380SOL    HW229040   5.959   5.627   5.261
 9381SOL     OW29041   2.685   3.073   5.644
 9381SOL    HW129042   2.673   2.974   5.647
 9381SOL    HW229043   2.710   3.102   5.552
 9382SOL     OW29044   3.603   1.647   2.912
 9382SOL    HW129045   3.625   1.714   2.983
 9382SOL    HW229046   3.538   1.686   2.847
 9383SOL     OW29047   3.466   6.098   5.016
 9383SOL    HW129048   3.368   6.115   5.009
 9383SOL    HW229049   3.482   6.014   5.067
 9384SOL     OW29050   4.345   6.281   1.436
 9384SOL    HW129051   4.255   6.308   1.403
 9384SOL    HW229052   4.410   6.281   1.361
 9385SOL     OW29053   4.071   1.758   2.177
 9385SOL    HW129054   4.068   1.717   2.268
 9385SOL    HW229055   3.978   1.775   2.145
 9386SOL     OW29056   2.655   6.385   4.689
 9386SOL    HW129057   2.593   6.306   4.696
 9386SOL    HW229058   2.614   6.454   4.629
 9387SOL     OW29059   4.539   6.959   0.475
 9387SOL    HW129060   4.504   6.980   0.566
 9387SOL    HW229061   4.629   7.000   0.463
 9388SOL     OW29062   1.764   6.156   2.662
 9388SOL    HW129063   1.696   6.196   2.600
 9388SOL    HW229064   1.762   6.056   2.653
 9389SOL     OW29065   2.553   0.502   5.230
 9389SOL    HW129066   2.601   0.437   5.288
 9389SOL    HW229067   2.559   0.594   5.270
 9390SOL     OW29068   3.767   6.382   3.774
 9390SOL    HW129069   3.862   6.375   3.805
 9390SOL    HW229070   3.708   6.333   3.838
 9391SOL     OW29071   2.386   1.153   5.444
 9391SOL    HW129072   2.333   1.087   5.390
 9391SOL    HW229073   2.338   1.242   5.443
 9392SOL     OW29074   0.182   0.027   4.836
 9392SOL    HW129075   0.181   6.959   4.804
 9392SOL    HW229076   0.094   0.049   4.877
 9393SOL     OW29077   3.385   1.565   4.429
 9393SOL    HW129078   3.336   1.608   4.353
 9393SOL    HW229079   3.400   1.633   4.501
 9394SOL     OW29080   6.359   1.743   3.117
 9394SOL    HW129081   6.285   1.676   3.121
 9394SOL    HW229082   6.340   1.809   3.044
 9395SOL     OW29083   2.582   2.294   0.047
 9395SOL    HW129084   2.574   2.214   7.014
 9395SOL    HW229085   2.654   2.354   0.014
 9396SOL     OW29086   0.259   6.310   4.565
 9396SOL    HW129087   0.301   6.221   4.584
 9396SOL    HW229088   0.312   6.382   4.611
 9397SOL     OW29089   2.652   6.998   7.018
 9397SOL    HW129090   2.643   6.948   0.078
 9397SOL    HW229091   2.661   0.069   0.010
 9398SOL     OW29092   1.754   0.798   6.028
 9398SOL    HW129093   1.829   0.786   5.963
 9398SOL    HW229094   1.774   0.873   6.090
 9399SOL     OW29095   0.234   1.943   6.706
 9399SOL    HW129096   0.257   1.993   6.789
 9399SOL    HW229097   0.299   1.868   6.693
 9400SOL     OW29098   5.152   3.177   1.171
 9400SOL    HW129099   5.130   3.187   1.268
 9400SOL    HW229100   5.151   3.267   1.127
 9401SOL     OW29101   3.418   6.099   3.448
 9401SOL    HW129102   3.443   6.081   3.353
 9401SOL    HW229103   3.367   6.185   3.453
 9402SOL     OW29104   1.309   4.908   5.434
 9402SOL    HW129105   1.247   4.830   5.436
 9402SOL    HW229106   1.365   4.904   5.351
 9403SOL     OW29107   5.225   1.814   2.827
 9403SOL    HW129108   5.137   1.807   2.779
 9403SOL    HW229109   5.227   1.750   2.903
 9404SOL     OW29110   0.872   4.164   6.299
 9404SOL    HW129111   0.869   4.064   6.292
 9404SOL    HW229112   0.822   4.193   6.381
 9405SOL     OW29113   6.946   6.885   2.895
 9405SOL    HW129114   6.882   6.837   2.835
 9405SOL    HW229115   6.969   6.826   2.973
 9406SOL     OW29116   6.832   2.271   6.150
 9406SOL    HW129117   6.854   2.231   6.060
 9406SOL    HW229118   6.859   2.207   6.222
 9407SOL     OW29119   2.297   5.939   2.905
 9407SOL    HW129120   2.240   5.903   2.830
 9407SOL    HW229121   2.368   5.872   2.927
 9408SOL     OW29122   3.948   1.762   5.985
 9408SOL    HW129123   4.017   1.834   5.980
 9408SOL    HW229124   3.860   1.802   6.012
 9409SOL     OW29125   5.198   4.606   5.630
 9409SOL    HW129126   5.132   4.534   5.611
 9409SOL    HW229127   5.184   4.640   5.723
 9410SOL     OW29128   3.972   5.968   1.585
 9410SOL    HW129129   4.056   5.947   1.534
 9410SOL    HW229130   3.950   5.892   1.645
 9411SOL     OW29131   3.971   4.448   1.070
 9411SOL    HW129132   3.994   4.481   0.978
 9411SOL    HW229133   3.877   4.472   1.092
 9412SOL     OW29134   0.301   3.236   1.624
 9412SOL    HW129135   0.391   3.280   1.636
 9412SOL    HW229136   0.257   3.272   1.543
 9413SOL     OW29137   4.287   5.600   5.129
 9413SOL    HW129138   4.277   5.544   5.046
 9413SOL    HW229139   4.278   5.696   5.106
 9414SOL     OW29140   3.158   1.410   3.403
 9414SOL    HW129141   3.190   1.323   3.442
 9414SOL    HW229142   3.233   1.453   3.352
 9415SOL     OW29143   2.252   6.747   2.397
 9415SOL    HW129144   2.283   6.674   2.457
 9415SOL    HW229145   2.154   6.735   2.378
 9416SOL     OW29146   0.657   1.816   1.460
 9416SOL    HW129147   0.667   1.808   1.559
 9416SOL    HW229148   0.590   1.749   1.428
 9417SOL     OW29149   3.753   0.524   5.858
 9417SOL    HW129150   3.813   0.469   5.800
 9417SOL    HW229151   3.680   0.467   5.895
 9418SOL     OW29152   3.141   6.732   0.668
 9418SOL    HW129153   3.156   6.633   0.662
 9418SOL    HW229154   3.084   6.751   0.748
 9419SOL     OW29155   3.699   5.456   5.361
 9419SOL    HW129156   3.649   5.442   5.276
 9419SOL    HW229157   3.664   5.393   5.431
 9420SOL     OW29158   0.710   2.248   3.974
 9420SOL    HW129159   0.677   2.165   3.930
 9420SOL    HW229160   0.715   2.322   3.906
 9421SOL     OW29161   2.373   6.312   5.426
 9421SOL    HW129162   2.395   6.320   5.523
 9421SOL    HW229163   2.389   6.400   5.380
 9422SOL     OW29164   5.430   6.748   2.583
 9422SOL    HW129165   5.337   6.785   2.580
 9422SOL    HW229166   5.445   6.705   2.672
 9423SOL     OW29167   3.326   0.471   3.392
 9423SOL    HW129168   3.382   0.549   3.368
 9423SOL    HW229169   3.361   0.389   3.347
 9424SOL     OW29170   4.581   0.650   5.073
 9424SOL    HW129171   4.538   0.573   5.026
 9424SOL    HW229172   4.529   0.733   5.053
 9425SOL     OW29173   6.850   3.957   6.274
 9425SOL    HW129174   6.844   3.980   6.177
 9425SOL    HW229175   6.843   4.041   6.329
 9426SOL     OW29176   3.149   1.689   6.912
 9426SOL    HW129177   3.237   1.734   6.901
 9426SOL    HW229178   3.156   1.619   6.982
 9427SOL     OW29179   2.892   5.147   4.996
 9427SOL    HW129180   2.860   5.150   5.090
 9427SOL    HW229181   2.877   5.056   4.958
 9428SOL     OW29182   5.533   1.009   1.608
 9428SOL    HW129183   5.624   0.969   1.598
 9428SOL    HW229184   5.533   1.072   1.686
 9429SOL     OW29185   1.579   4.494   1.785
 9429SOL    HW129186   1.505   4.510   1.850
 9429SOL    HW229187   1.643   4.427   1.823
 9430SOL     OW29188   0.251   6.156   2.079
 9430SOL    HW129189   0.269   6.233   2.018
 9430SOL    HW229190   0.199   6.188   2.159
 9431SOL     OW29191   6.120   4.669   0.645
 9431SOL    HW129192   6.170   4.733   0.587
 9431SOL    HW229193   6.046   4.627   0.592
 9432SOL     OW29194   6.743   0.593   3.216
 9432SOL    HW129195   6.765   0.630   3.126
 9432SOL    HW229196   6.781   0.651   3.287
 9433SOL     OW29197   3.524   4.952   3.981
 9433SOL    HW129198   3.516   5.050   3.996
 9433SOL    HW229199   3.619   4.930   3.958
 9434SOL     OW29200   5.843   4.702   3.533
 9434SOL    HW129201   5.861   4.652   3.618
 9434SOL    HW229202   5.792   4.785   3.553
 9435SOL     OW29203   0.941   1.705   3.845
 9435SOL    HW129204   0.936   1.753   3.757
 9435SOL    HW229205   0.883   1.624   3.841
 9436SOL     OW29206   0.789   4.120   2.214
 9436SOL    HW129207   0.880   4.080   2.222
 9436SOL    HW229208   0.784   4.203   2.269
 9437SOL     OW29209   0.883   6.580   3.595
 9437SOL    HW129210   0.810   6.612   3.535
 9437SOL    HW229211   0.952   6.652   3.605
 9438SOL     OW29212   1.272   6.421   1.065
 9438SOL    HW129213   1.321   6.501   1.098
 9438SOL    HW229214   1.257   6.358   1.142
 9439SOL     OW29215   0.035   2.743   1.996
 9439SOL    HW129216   6.977   2.727   2.048
 9439SOL    HW229217   0.012   2.777   1.905
 9440SOL     OW29218   4.534   5.953   4.213
 9440SOL    HW129219   4.460   5.947   4.280
 9440SOL    HW229220   4.550   5.862   4.174
 9441SOL     OW29221   1.550   4.838   4.597
 9441SOL    HW129222   1.613   4.839   4.675
 9441SOL    HW229223   1.474   4.901   4.615
 9442SOL     OW29224   5.897   3.293   0.381
 9442SOL    HW129225   5.987   3.314   0.419
 9442SOL    HW229226   5.889   3.194   0.366
 9443SOL     OW29227   2.525   4.765   1.295
 9443SOL    HW129228   2.561   4.741   1.385
 9443SOL    HW229229   2.537   4.863   1.279
 9444SOL     OW29230   1.100   3.934   6.347
 9444SOL    HW129231   1.157   3.993   6.290
 9444SOL    HW229232   1.006   3.936   6.313
 9445SOL     OW29233   5.370   3.561   2.327
 9445SOL    HW129234   5.373   3.463   2.308
 9445SOL    HW229235   5.461   3.594   2.350
 9446SOL     OW29236   5.914   6.754   4.091
 9446SOL    HW129237   5.843   6.824   4.105
 9446SOL    HW229238   5.945   6.720   4.179
 9447SOL     OW29239   6.019   3.424   3.366
 9447SOL    HW129240   5.936   3.451   3.317
 9447SOL    HW229241   6.095   3.418   3.302
 9448SOL     OW29242   6.024   6.431   6.016
 9448SOL    HW129243   5.978   6.509   6.058
 9448SOL    HW229244   5.957   6.360   5.994
 9449SOL     OW29245   6.995   6.210   6.984
 9449SOL    HW129246   6.939   6.228   6.903
 9449SOL    HW229247   6.954   6.137   0.011
 9450SOL     OW29248   3.390   4.918   4.388
 9450SOL    HW129249   3.476   4.928   4.439
 9450SOL    HW229250   3.318   4.890   4.451
 9451SOL     OW29251   3.501   6.261   6.561
 9451SOL    HW129252   3.570   6.188   6.566
 9451SOL    HW229253   3.410   6.221   6.565
 9452SOL     OW29254   1.063   2.944   0.947
 9452SOL    HW129255   1.133   2.895   0.895
 9452SOL    HW229256   1.071   3.042   0.929
 9453SOL     OW29257   2.235   4.662   3.505
 9453SOL    HW129258   2.146   4.694   3.471
 9453SOL    HW229259   2.231   4.563   3.517
 9454SOL     OW29260   1.751   3.211   5.739
 9454SOL    HW129261   1.802   3.131   5.706
 9454SOL    HW229262   1.816   3.284   5.762
 9455SOL     OW29263   3.690   1.573   2.635
 9455SOL    HW129264   3.674   1.625   2.719
 9455SOL    HW229265   3.709   1.477   2.658
 9456SOL     OW29266   0.823   3.942   6.590
 9456SOL    HW129267   0.895   3.993   6.637
 9456SOL    HW229268   0.788   3.870   6.649
 9457SOL     OW29269   1.806   3.808   6.084
 9457SOL    HW129270   1.757   3.878   6.031
 9457SOL    HW229271   1.801   3.831   6.181
 9458SOL     OW29272   1.182   3.546   5.466
 9458SOL    HW129273   1.207   3.484   5.392
 9458SOL    HW229274   1.225   3.635   5.452
 9459SOL     OW29275   5.807   4.285   2.654
 9459SOL    HW129276   5.806   4.219   2.579
 9459SOL    HW229277   5.900   4.299   2.686
 9460SOL     OW29278   0.099   1.395   4.024
 9460SOL    HW129279   0.133   1.370   4.115
 9460SOL    HW229280   0.077   1.312   3.973
 9461SOL     OW29281   6.461   1.949   3.619
 9461SOL    HW129282   6.452   1.864   3.567
 9461SOL    HW229283   6.373   1.996   3.621
 9462SOL     OW29284   2.192   4.038   3.186
 9462SOL    HW129285   2.093   4.055   3.181
 9462SOL    HW229286   2.235   4.070   3.102
 9463SOL     OW29287   0.405   0.997   1.669
 9463SOL    HW129288   0.306   0.986   1.665
 9463SOL    HW229289   0.427   1.095   1.672
 9464SOL     OW29290   5.883   5.968   0.539
 9464SOL    HW129291   5.867   5.871   0.522
 9464SOL    HW229292   5.839   5.994   0.626
 9465SOL     OW29293   0.048   6.609   3.522
 9465SOL    HW129294   0.101   6.605   3.437
 9465SOL    HW229295   0.028   6.516   3.553
 9466SOL     OW29296   3.845   3.804   5.416
 9466SOL    HW129297   3.752   3.839   5.406
 9466SOL    HW229298   3.887   3.795   5.326
 9467SOL     OW29299   1.061   2.606   1.847
 9467SOL    HW129300   1.011   2.564   1.771
 9467SOL    HW229301   1.155   2.573   1.847
 9468SOL     OW29302   5.956   2.058   6.269
 9468SOL    HW129303   5.863   2.085   6.294
 9468SOL    HW229304   5.958   1.961   6.247
 9469SOL     OW29305   6.368   5.629   1.355
 9469SOL    HW129306   6.277   5.666   1.335
 9469SOL    HW229307   6.361   5.530   1.367
 9470SOL     OW29308   5.408   2.968   5.751
 9470SOL    HW129309   5.429   3.054   5.799
 9470SOL    HW229310   5.484   2.904   5.763
 9471SOL     OW29311   5.843   2.302   4.779
 9471SOL    HW129312   5.922   2.329   4.725
 9471SOL    HW229313   5.765   2.286   4.718
 9472SOL     OW29314   6.926   3.490   4.330
 9472SOL    HW129315   6.889   3.443   4.250
 9472SOL    HW229316   6.853   3.542   4.375
 9473SOL     OW29317   3.005   6.036   5.857
 9473SOL    HW129318   3.028   5.998   5.768
 9473SOL    HW229319   2.905   6.035   5.869
 9474SOL     OW29320   6.485   3.434   0.435
 9474SOL    HW129321   6.471   3.426   0.336
 9474SOL    HW229322   6.583   3.426   0.455
 9475SOL     OW29323   3.040   3.382   0.406
 9475SOL    HW129324   3.090   3.453   0.356
 9475SOL    HW229325   2.992   3.323   0.341
 9476SOL     OW29326   3.373   3.383   5.148
 9476SOL    HW129327   3.390   3.298   5.097
 9476SOL    HW229328   3.354   3.361   5.244
 9477SOL     OW29329   0.243   3.170   2.308
 9477SOL    HW129330   0.343   3.170   2.305
 9477SOL    HW229331   0.208   3.095   2.252
 9478SOL     OW29332   5.623   3.393   6.654
 9478SOL    HW129333   5.681   3.322   6.614
 9478SOL    HW229334   5.628   3.388   6.754
 9479SOL     OW29335   5.855   6.372   6.461
 9479SOL    HW129336   5.856   6.426   6.545
 9479SOL    HW229337   5.932   6.397   6.403
 9480SOL     OW29338   4.615   4.413   0.114
 9480SOL    HW129339   4.542   4.394   0.049
 9480SOL    HW229340   4.602   4.503   0.154
 9481SOL     OW29341   5.410   3.384   0.947
 9481SOL    HW129342   5.497   3.434   0.956
 9481SOL    HW229343   5.429   3.291   0.913
 9482SOL     OW29344   5.867   1.432   3.274
 9482SOL    HW129345   5.903   1.378   3.198
 9482SOL    HW229346   5.817   1.511   3.237
 9483SOL     OW29347   1.308   1.977   0.372
 9483SOL    HW129348   1.217   1.941   0.349
 9483SOL    HW229349   1.361   1.906   0.418
 9484SOL     OW29350   4.672   1.303   3.208
 9484SOL    HW129351   4.649   1.206   3.219
 9484SOL    HW229352   4.595   1.358   3.239
 9485SOL     OW29353   1.140   6.980   2.018
 9485SOL    HW129354   1.180   7.022   1.936
 9485SOL    HW229355   1.135   0.021   2.091
 9486SOL     OW29356   2.362   4.655   1.539
 9486SOL    HW129357   2.330   4.723   1.472
 9486SOL    HW229358   2.461   4.663   1.550
 9487SOL     OW29359   2.928   3.788   3.382
 9487SOL    HW129360   2.894   3.750   3.297
 9487SOL    HW229361   3.010   3.843   3.364
 9488SOL     OW29362   2.794   6.380   0.996
 9488SOL    HW129363   2.744   6.294   1.001
 9488SOL    HW229364   2.892   6.362   0.990
 9489SOL     OW29365   3.855   4.067   1.567
 9489SOL    HW129366   3.882   4.020   1.483
 9489SOL    HW229367   3.906   4.029   1.644
 9490SOL     OW29368   6.121   6.514   0.274
 9490SOL    HW129369   6.088   6.472   0.189
 9490SOL    HW229370   6.141   6.443   0.341
 9491SOL     OW29371   0.245   4.513   3.543
 9491SOL    HW129372   0.332   4.497   3.497
 9491SOL    HW229373   0.256   4.505   3.642
 9492SOL     OW29374   3.251   3.755   2.685
 9492SOL    HW129375   3.231   3.834   2.627
 9492SOL    HW229376   3.217   3.772   2.777
 9493SOL     OW29377   3.801   5.084   4.060
 9493SOL    HW129378   3.800   5.055   3.964
 9493SOL    HW229379   3.721   5.141   4.078
 9494SOL     OW29380   4.529   4.369   1.058
 9494SOL    HW129381   4.614   4.323   1.034
 9494SOL    HW229382   4.548   4.466   1.077
 9495SOL     OW29383   5.843   1.933   4.392
 9495SOL    HW129384   5.828   2.011   4.453
 9495SOL    HW229385   5.874   1.855   4.445
 9496SOL     OW29386   5.636   4.846   0.585
 9496SOL    HW129387   5.650   4.757   0.542
 9496SOL    HW229388   5.705   4.911   0.551
 9497SOL     OW29389   5.406   4.678   6.993
 9497SOL    HW129390   5.468   4.604   6.967
 9497SOL    HW229391   5.315   4.661   6.954
 9498SOL     OW29392   5.604   0.917   6.365
 9498SOL    HW129393   5.693   0.872   6.356
 9498SOL    HW229394   5.568   0.902   6.457
 9499SOL     OW29395   2.172   3.229   6.004
 9499SOL    HW129396   2.117   3.279   5.938
 9499SOL    HW229397   2.191   3.137   5.970
 9500SOL     OW29398   3.610   6.985   1.802
 9500SOL    HW129399   3.674   7.010   1.729
 9500SOL    HW229400   3.571   0.041   1.842
 9501SOL     OW29401   2.570   1.442   4.433
 9501SOL    HW129402   2.545   1.411   4.342
 9501SOL    HW229403   2.661   1.483   4.431
 9502SOL     OW29404   0.265   2.004   4.237
 9502SOL    HW129405   0.201   1.935   4.205
 9502SOL    HW229406   0.358   1.968   4.231
 9503SOL     OW29407   0.809   1.482   1.556
 9503SOL    HW129408   0.725   1.493   1.504
 9503SOL    HW229409   0.799   1.408   1.622
 9504SOL     OW29410   0.509   1.833   0.924
 9504SOL    HW129411   0.517   1.769   0.847
 9504SOL    HW229412   0.586   1.897   0.922
 9505SOL     OW29413   5.218   4.422   3.445
 9505SOL    HW129414   5.288   4.352   3.456
 9505SOL    HW229415   5.154   4.418   3.522
 9506SOL     OW29416   0.108   3.663   6.493
 9506SOL    HW129417   0.072   3.606   6.568
 9506SOL    HW229418   0.127   3.605   6.414
 9507SOL     OW29419   1.513   1.036   3.457
 9507SOL    HW129420   1.525   1.078   3.547
 9507SOL    HW229421   1.518   0.937   3.465
 9508SOL     OW29422   6.093   2.868   0.436
 9508SOL    HW129423   6.041   2.821   0.507
 9508SOL    HW229424   6.094   2.813   0.353
 9509SOL     OW29425   1.140   0.096   5.773
 9509SOL    HW129426   1.135   0.133   5.866
 9509SOL    HW229427   1.212   0.027   5.769
 9510SOL     OW29428   0.792   4.099   1.617
 9510SOL    HW129429   0.820   4.176   1.560
 9510SOL    HW229430   0.790   4.128   1.713
 9511SOL     OW29431   1.092   1.699   0.125
 9511SOL    HW129432   1.159   1.660   0.063
 9511SOL    HW229433   1.002   1.697   0.083
 9512SOL     OW29434   5.757   1.708   2.658
 9512SOL    HW129435   5.810   1.624   2.669
 9512SOL    HW229436   5.730   1.742   2.748
 9513SOL     OW29437   1.180   3.110   5.209
 9513SOL    HW129438   1.246   3.039   5.233
 9513SOL    HW229439   1.159   3.105   5.111
 9514SOL     OW29440   1.732   3.851   6.766
 9514SOL    HW129441   1.765   3.940   6.735
 9514SOL    HW229442   1.665   3.815   6.701
 9515SOL     OW29443   1.853   5.718   0.236
 9515SOL    HW129444   1.787   5.793   0.227
 9515SOL    HW229445   1.804   5.631   0.240
 9516SOL     OW29446   4.955   3.260   4.687
 9516SOL    HW129447   4.921   3.209   4.766
 9516SOL    HW229448   4.912   3.351   4.686
 9517SOL     OW29449   1.327   5.148   0.106
 9517SOL    HW129450   1.264   5.072   0.092
 9517SOL    HW229451   1.412   5.114   0.147
 9518SOL     OW29452   0.655   2.313   6.751
 9518SOL    HW129453   0.739   2.262   6.768
 9518SOL    HW229454   0.678   2.404   6.716
 9519SOL     OW29455   4.085   3.521   3.391
 9519SOL    HW129456   4.117   3.543   3.483
 9519SOL    HW229457   4.075   3.422   3.382
 9520SOL     OW29458   6.849   1.249   3.427
 9520SOL    HW129459   6.777   1.181   3.413
 9520SOL    HW229460   6.818   1.317   3.494
 9521SOL     OW29461   3.107   3.885   1.444
 9521SOL    HW129462   3.105   3.786   1.432
 9521SOL    HW229463   3.117   3.930   1.355
 9522SOL     OW29464   4.039   5.822   2.796
 9522SOL    HW129465   4.034   5.858   2.703
 9522SOL    HW229466   4.055   5.897   2.860
 9523SOL     OW29467   2.480   5.016   4.962
 9523SOL    HW129468   2.390   4.998   4.922
 9523SOL    HW229469   2.547   5.030   4.889
 9524SOL     OW29470   1.966   2.659   0.761
 9524SOL    HW129471   2.001   2.651   0.854
 9524SOL    HW229472   1.952   2.568   0.722
 9525SOL     OW29473   1.510   2.286   4.858
 9525SOL    HW129474   1.564   2.338   4.792
 9525SOL    HW229475   1.536   2.190   4.854
 9526SOL     OW29476   6.049   4.359   1.362
 9526SOL    HW129477   6.095   4.376   1.274
 9526SOL    HW229478   6.065   4.264   1.389
 9527SOL     OW29479   2.788   0.676   5.032
 9527SOL    HW129480   2.694   0.706   5.049
 9527SOL    HW229481   2.849   0.755   5.036
 9528SOL     OW29482   6.422   1.457   0.834
 9528SOL    HW129483   6.504   1.457   0.777
 9528SOL    HW229484   6.383   1.549   0.837
 9529SOL     OW29485   6.007   3.615   6.903
 9529SOL    HW129486   5.985   3.557   6.825
 9529SOL    HW229487   5.923   3.656   6.939
 9530SOL     OW29488   0.591   4.232   3.852
 9530SOL    HW129489   0.678   4.186   3.836
 9530SOL    HW229490   0.522   4.196   3.790
 9531SOL     OW29491   4.844   3.904   2.281
 9531SOL    HW129492   4.878   3.996   2.301
 9531SOL    HW229493   4.809   3.901   2.188
 9532SOL     OW29494   0.190   5.144   1.245
 9532SOL    HW129495   0.206   5.243   1.253
 9532SOL    HW229496   0.216   5.099   1.330
 9533SOL     OW29497   1.197   5.505   4.032
 9533SOL    HW129498   1.225   5.565   4.107
 9533SOL    HW229499   1.127   5.551   3.977
 9534SOL     OW29500   5.927   4.486   4.865
 9534SOL    HW129501   5.867   4.419   4.821
 9534SOL    HW229502   6.009   4.439   4.899
 9535SOL     OW29503   2.073   0.972   6.130
 9535SOL    HW129504   2.080   0.931   6.039
 9535SOL    HW229505   1.978   0.976   6.159
 9536SOL     OW29506   3.081   3.838   5.486
 9536SOL    HW129507   3.162   3.818   5.542
 9536SOL    HW229508   3.110   3.863   5.394
 9537SOL     OW29509   2.458   1.057   4.758
 9537SOL    HW129510   2.364   1.080   4.784
 9537SOL    HW229511   2.510   1.141   4.745
 9538SOL     OW29512   4.812   0.559   4.666
 9538SOL    HW129513   4.803   0.651   4.706
 9538SOL    HW229514   4.852   0.497   4.734
 9539SOL     OW29515   3.052   3.591   4.338
 9539SOL    HW129516   2.998   3.627   4.415
 9539SOL    HW229517   3.087   3.501   4.362
 9540SOL     OW29518   5.448   4.796   4.553
 9540SOL    HW129519   5.432   4.868   4.620
 9540SOL    HW229520   5.439   4.707   4.597
 9541SOL     OW29521   3.025   0.920   6.141
 9541SOL    HW129522   3.076   0.898   6.058
 9541SOL    HW229523   2.929   0.937   6.118
 9542SOL     OW29524   4.822   4.666   4.699
 9542SOL    HW129525   4.837   4.649   4.796
 9542SOL    HW229526   4.864   4.592   4.646
 9543SOL     OW29527   4.074   0.750   6.459
 9543SOL    HW129528   4.137   0.761   6.536
 9543SOL    HW229529   4.045   0.655   6.453
 9544SOL     OW29530   5.744   2.925   3.865
 9544SOL    HW129531   5.722   3.023   3.862
 9544SOL    HW229532   5.808   2.908   3.940
 9545SOL     OW29533   5.814   5.520   2.489
 9545SOL    HW129534   5.803   5.617   2.470
 9545SOL    HW229535   5.858   5.476   2.411
 9546SOL     OW29536   3.988   1.161   6.059
 9546SOL    HW129537   4.003   1.062   6.054
 9546SOL    HW229538   3.946   1.183   6.147
 9547SOL     OW29539   2.423   5.100   4.056
 9547SOL    HW129540   2.327   5.121   4.034
 9547SOL    HW229541   2.473   5.083   3.971
 9548SOL     OW29542   0.075   5.050   5.080
 9548SOL    HW129543   7.021   5.047   5.138
 9548SOL    HW229544   0.094   5.145   5.053
 9549SOL     OW29545   3.347   1.353   1.528
 9549SOL    HW129546   3.317   1.418   1.458
 9549SOL    HW229547   3.333   1.393   1.619
 9550SOL     OW29548   0.135   1.129   0.244
 9550SOL    HW129549   0.164   1.220   0.216
 9550SOL    HW229550   0.172   1.108   0.334
 9551SOL     OW29551   5.531   3.150   5.925
 9551SOL    HW129552   5.445   3.199   5.932
 9551SOL    HW229553   5.582   3.182   5.845
 9552SOL     OW29554   2.216   5.900   5.515
 9552SOL    HW129555   2.139   5.877   5.574
 9552SOL    HW229556   2.182   5.933   5.427
 9553SOL     OW29557   6.029   2.044   0.357
 9553SOL    HW129558   5.936   2.018   0.383
 9553SOL    HW229559   6.028   2.087   0.267
 9554SOL     OW29560   1.535   6.274   3.304
 9554SOL    HW129561   1.523   6.373   3.310
 9554SOL    HW229562   1.632   6.252   3.298
 9555SOL     OW29563   0.179   1.013   2.675
 9555SOL    HW129564   0.215   0.951   2.745
 9555SOL    HW229565   0.252   1.071   2.640
 9556SOL     OW29566   1.481   4.075   1.203
 9556SOL    HW129567   1.410   4.007   1.222
 9556SOL    HW229568   1.439   4.159   1.169
 9557SOL     OW29569   5.729   6.899   1.443
 9557SOL    HW129570   5.644   6.928   1.487
 9557SOL    HW229571   5.740   6.800   1.454
 9558SOL     OW29572   5.929   5.658   5.652
 9558SOL    HW129573   5.855   5.713   5.614
 9558SOL    HW229574   5.932   5.570   5.604
 9559SOL     OW29575   0.569   5.177   0.594
 9559SOL    HW129576   0.471   5.186   0.610
 9559SOL    HW229577   0.585   5.134   0.504
 9560SOL     OW29578   2.289   1.094   2.793
 9560SOL    HW129579   2.364   1.030   2.810
 9560SOL    HW229580   2.325   1.180   2.758
 9561SOL     OW29581   0.968   1.178   1.527
 9561SOL    HW129582   1.021   1.094   1.534
 9561SOL    HW229583   1.028   1.257   1.535
 9562SOL     OW29584   3.129   0.245   5.074
 9562SOL    HW129585   3.091   0.278   5.160
 9562SOL    HW229586   3.146   0.322   5.013
 9563SOL     OW29587   6.979   6.930   0.575
 9563SOL    HW129588   6.896   6.934   0.631
 9563SOL    HW229589   6.956   6.902   0.482
 9564SOL     OW29590   2.505   1.081   0.034
 9564SOL    HW129591   2.568   1.085   0.112
 9564SOL    HW229592   2.427   1.141   0.051
 9565SOL     OW29593   4.020   0.512   5.338
 9565SOL    HW129594   3.998   0.571   5.260
 9565SOL    HW229595   3.962   0.535   5.415
 9566SOL     OW29596   3.308   5.796   6.880
 9566SOL    HW129597   3.296   5.698   6.896
 9566SOL    HW229598   3.406   5.818   6.877
 9567SOL     OW29599   4.998   4.720   0.649
 9567SOL    HW129600   5.088   4.757   0.671
 9567SOL    HW229601   4.935   4.735   0.725
 9568SOL     OW29602   4.368   2.308   6.318
 9568SOL    HW129603   4.341   2.267   6.231
 9568SOL    HW229604   4.437   2.378   6.302
 9569SOL     OW29605   6.626   1.225   2.723
 9569SOL    HW129606   6.716   1.183   2.714
 9569SOL    HW229607   6.575   1.180   2.797
 9570SOL     OW29608   0.591   2.974   1.303
 9570SOL    HW129609   0.624   3.067   1.321
 9570SOL    HW229610   0.530   2.974   1.224
 9571SOL     OW29611   3.385   3.057   5.957
 9571SOL    HW129612   3.425   3.058   6.048
 9571SOL    HW229613   3.392   2.965   5.918
 9572SOL     OW29614   2.199   5.108   2.022
 9572SOL    HW129615   2.238   5.153   1.942
 9572SOL    HW229616   2.102   5.091   2.007
 9573SOL     OW29617   0.939   2.243   6.804
 9573SOL    HW129618   1.012   2.296   6.761
 9573SOL    HW229619   0.970   2.148   6.815
 9574SOL     OW29620   3.937   2.990   2.769
 9574SOL    HW129621   3.844   2.978   2.733
 9574SOL    HW229622   3.995   3.033   2.700
 9575SOL     OW29623   1.100   0.967   1.581
 9575SOL    HW129624   1.045   0.891   1.546
 9575SOL    HW229625   1.197   0.941   1.583
 9576SOL     OW29626   2.236   1.597   0.501
 9576SOL    HW129627   2.157   1.625   0.556
 9576SOL    HW229628   2.254   1.666   0.431
 9577SOL     OW29629   1.306   0.340   5.840
 9577SOL    HW129630   1.224   0.332   5.896
 9577SOL    HW229631   1.384   0.298   5.888
 9578SOL     OW29632   0.957   3.829   2.725
 9578SOL    HW129633   1.042   3.778   2.712
 9578SOL    HW229634   0.879   3.771   2.703
 9579SOL     OW29635   0.534   4.692   3.756
 9579SOL    HW129636   0.616   4.650   3.796
 9579SOL    HW229637   0.537   4.683   3.657
 9580SOL     OW29638   4.335   3.437   0.876
 9580SOL    HW129639   4.334   3.475   0.784
 9580SOL    HW229640   4.245   3.448   0.918
 9581SOL     OW29641   0.530   0.018   5.994
 9581SOL    HW129642   0.565   0.017   5.900
 9581SOL    HW229643   0.470   0.097   6.006
 9582SOL     OW29644   4.793   4.826   5.292
 9582SOL    HW129645   4.788   4.761   5.216
 9582SOL    HW229646   4.876   4.810   5.345
 9583SOL     OW29647   3.367   3.627   1.444
 9583SOL    HW129648   3.412   3.716   1.457
 9583SOL    HW229649   3.281   3.641   1.393
 9584SOL     OW29650   0.506   4.698   6.422
 9584SOL    HW129651   0.457   4.737   6.499
 9584SOL    HW229652   0.598   4.670   6.452
 9585SOL     OW29653   6.343   6.315   4.122
 9585SOL    HW129654   6.402   6.393   4.100
 9585SOL    HW229655   6.375   6.272   4.206
 9586SOL     OW29656   5.037   4.993   2.385
 9586SOL    HW129657   4.996   4.957   2.301
 9586SOL    HW229658   5.046   5.092   2.379
 9587SOL     OW29659   1.088   0.115   1.212
 9587SOL    HW129660   1.029   0.158   1.143
 9587SOL    HW229661   1.139   0.040   1.169
 9588SOL     OW29662   6.474   6.786   1.948
 9588SOL    HW129663   6.447   6.705   1.896
 9588SOL    HW229664   6.531   6.844   1.891
 9589SOL     OW29665   2.087   4.930   6.712
 9589SOL    HW129666   2.015   4.997   6.730
 9589SOL    HW229667   2.176   4.971   6.734
 9590SOL     OW29668   5.906   3.095   2.124
 9590SOL    HW129669   5.883   3.035   2.048
 9590SOL    HW229670   5.969   3.048   2.186
 9591SOL     OW29671   2.811   5.558   5.717
 9591SOL    HW129672   2.838   5.467   5.748
 9591SOL    HW229673   2.855   5.577   5.629
 9592SOL     OW29674   3.045   4.459   0.504
 9592SOL    HW129675   3.080   4.384   0.560
 9592SOL    HW229676   3.063   4.440   0.407
 9593SOL     OW29677   0.397   0.801   5.977
 9593SOL    HW129678   0.339   0.745   6.037
 9593SOL    HW229679   0.474   0.746   5.946
 9594SOL     OW29680   1.734   5.163   3.349
 9594SOL    HW129681   1.796   5.237   3.324
 9594SOL    HW229682   1.734   5.094   3.276
 9595SOL     OW29683   0.540   2.574   4.205
 9595SOL    HW129684   0.461   2.630   4.230
 9595SOL    HW229685   0.618   2.600   4.261
 9596SOL     OW29686   0.603   5.279   6.300
 9596SOL    HW129687   0.599   5.190   6.347
 9596SOL    HW229688   0.639   5.348   6.363
 9597SOL     OW29689   0.295   4.245   1.155
 9597SOL    HW129690   0.334   4.192   1.080
 9597SOL    HW229691   0.195   4.237   1.152
 9598SOL     OW29692   1.245   4.694   3.608
 9598SOL    HW129693   1.273   4.789   3.591
 9598SOL    HW229694   1.261   4.672   3.705
 9599SOL     OW29695   2.887   0.454   4.687
 9599SOL    HW129696   2.900   0.553   4.689
 9599SOL    HW229697   2.802   0.431   4.734
 9600SOL     OW29698   2.803   6.903   6.780
 9600SOL    HW129699   2.781   6.807   6.759
 9600SOL    HW229700   2.756   6.931   6.863
 9601SOL     OW29701   4.560   4.052   0.717
 9601SOL    HW129702   4.559   4.008   0.628
 9601SOL    HW229703   4.603   4.141   0.710
 9602SOL     OW29704   6.276   4.418   5.664
 9602SOL    HW129705   6.251   4.322   5.671
 9602SOL    HW229706   6.370   4.431   5.698
 9603SOL     OW29707   4.189   1.358   4.710
 9603SOL    HW129708   4.196   1.295   4.787
 9603SOL    HW229709   4.275   1.356   4.659
 9604SOL     OW29710   4.832   0.387   0.170
 9604SOL    HW129711   4.747   0.336   0.179
 9604SOL    HW229712   4.816   0.483   0.190
 9605SOL     OW29713   0.626   6.009   3.798
 9605SOL    HW129714   0.583   6.047   3.880
 9605SOL    HW229715   0.566   6.022   3.719
 9606SOL     OW29716   2.342   6.164   6.725
 9606SOL    HW129717   2.290   6.117   6.796
 9606SOL    HW229718   2.373   6.098   6.657
 9607SOL     OW29719   1.535   1.743   6.958
 9607SOL    HW129720   1.466   1.795   7.008
 9607SOL    HW229721   1.613   1.802   6.937
 9608SOL     OW29722   6.550   5.356   2.553
 9608SOL    HW129723   6.600   5.442   2.553
 9608SOL    HW229724   6.549   5.318   2.646
 9609SOL     OW29725   1.958   3.782   6.924
 9609SOL    HW129726   1.963   3.857   6.990
 9609SOL    HW229727   1.890   3.805   6.854
 9610SOL     OW29728   1.877   4.804   3.444
 9610SOL    HW129729   1.872   4.892   3.491
 9610SOL    HW229730   1.826   4.735   3.496
 9611SOL     OW29731   0.910   6.568   6.772
 9611SOL    HW129732   0.950   6.569   6.681
 9611SOL    HW229733   0.860   6.482   6.786
 9612SOL     OW29734   0.315   3.940   1.234
 9612SOL    HW129735   0.339   4.011   1.301
 9612SOL    HW229736   0.397   3.912   1.185
 9613SOL     OW29737   5.397   0.393   3.366
 9613SOL    HW129738   5.439   0.480   3.391
 9613SOL    HW229739   5.464   0.319   3.376
 9614SOL     OW29740   3.648   2.386   1.070
 9614SOL    HW129741   3.637   2.396   1.169
 9614SOL    HW229742   3.566   2.419   1.024
 9615SOL     OW29743   2.529   6.623   0.124
 9615SOL    HW129744   2.453   6.605   0.186
 9615SOL    HW229745   2.602   6.672   0.173
 9616SOL     OW29746   4.094   4.222   1.219
 9616SOL    HW129747   4.018   4.259   1.167
 9616SOL    HW229748   4.180   4.237   1.169
 9617SOL     OW29749   1.358   3.318   3.449
 9617SOL    HW129750   1.389   3.366   3.530
 9617SOL    HW229751   1.381   3.221   3.457
 9618SOL     OW29752   3.644   6.946   6.249
 9618SOL    HW129753   3.592   7.009   6.306
 9618SOL    HW229754   3.583   6.904   6.181
 9619SOL     OW29755   1.323   6.697   6.780
 9619SOL    HW129756   1.417   6.730   6.781
 9619SOL    HW229757   1.262   6.768   6.816
 9620SOL     OW29758   4.674   1.115   6.176
 9620SOL    HW129759   4.660   1.054   6.254
 9620SOL    HW229760   4.620   1.083   6.099
 9621SOL     OW29761   0.845   1.391   2.178
 9621SOL    HW129762   0.853   1.402   2.277
 9621SOL    HW229763   0.834   1.294   2.157
 9622SOL     OW29764   0.322   0.706   0.797
 9622SOL    HW129765   0.373   0.634   0.844
 9622SOL    HW229766   0.268   0.757   0.863
 9623SOL     OW29767   2.977   4.084   5.647
 9623SOL    HW129768   3.023   4.007   5.603
 9623SOL    HW229769   2.907   4.120   5.585
 9624SOL     OW29770   6.985   4.164   2.406
 9624SOL    HW129771   6.959   4.259   2.423
 9624SOL    HW229772   0.057   4.153   2.423
 9625SOL     OW29773   4.883   5.135   6.895
 9625SOL    HW129774   4.786   5.112   6.895
 9625SOL    HW229775   4.899   5.215   6.837
 9626SOL     OW29776   3.446   5.111   0.096
 9626SOL    HW129777   3.529   5.166   0.087
 9626SOL    HW229778   3.459   5.023   0.051
 9627SOL     OW29779   6.666   5.729   4.101
 9627SOL    HW129780   6.601   5.678   4.045
 9627SOL    HW229781   6.655   5.827   4.086
 9628SOL     OW29782   5.135   4.727   6.925
 9628SOL    HW129783   5.145   4.817   6.883
 9628SOL    HW229784   5.113   4.660   6.855
 9629SOL     OW29785   0.214   0.138   2.401
 9629SOL    HW129786   0.213   0.227   2.447
 9629SOL    HW229787   0.300   0.127   2.350
 9630SOL     OW29788   6.461   6.620   5.249
 9630SOL    HW129789   6.407   6.597   5.330
 9630SOL    HW229790   6.455   6.546   5.183
 9631SOL     OW29791   6.702   6.843   6.713
 9631SOL    HW129792   6.743   6.927   6.748
 9631SOL    HW229793   6.766   6.799   6.650
 9632SOL     OW29794   1.144   6.751   2.962
 9632SOL    HW129795   1.184   6.669   3.002
 9632SOL    HW229796   1.216   6.814   2.935
 9633SOL     OW29797   5.435   4.662   6.168
 9633SOL    HW129798   5.485   4.679   6.084
 9633SOL    HW229799   5.341   4.696   6.158
 9634SOL     OW29800   1.370   5.733   3.767
 9634SOL    HW129801   1.336   5.643   3.738
 9634SOL    HW229802   1.438   5.765   3.701
 9635SOL     OW29803   1.798   4.929   5.684
 9635SOL    HW129804   1.851   5.010   5.710
 9635SOL    HW229805   1.764   4.940   5.591
 9636SOL     OW29806   4.150   1.480   6.289
 9636SOL    HW129807   4.227   1.459   6.228
 9636SOL    HW229808   4.065   1.474   6.238
 9637SOL     OW29809   2.719   2.221   6.219
 9637SOL    HW129810   2.810   2.253   6.245
 9637SOL    HW229811   2.703   2.241   6.122
 9638SOL     OW29812   6.415   3.521   6.532
 9638SOL    HW129813   6.511   3.503   6.513
 9638SOL    HW229814   6.405   3.550   6.628
 9639SOL     OW29815   3.786   1.635   1.974
 9639SOL    HW129816   3.787   1.677   2.064
 9639SOL    HW229817   3.842   1.552   1.976
 9640SOL     OW29818   2.584   2.477   3.264
 9640SOL    HW129819   2.650   2.469   3.189
 9640SOL    HW229820   2.612   2.420   3.341
 9641SOL     OW29821   4.123   6.606   0.845
 9641SOL    HW129822   4.213   6.564   0.833
 9641SOL    HW229823   4.114   6.639   0.939
 9642SOL     OW29824   3.633   6.458   4.933
 9642SOL    HW129825   3.654   6.555   4.917
 9642SOL    HW229826   3.659   6.405   4.853
 9643SOL     OW29827   5.392   5.459   3.998
 9643SOL    HW129828   5.451   5.531   4.035
 9643SOL    HW229829   5.321   5.436   4.064
 9644SOL     OW29830   1.504   4.140   5.420
 9644SOL    HW129831   1.581   4.078   5.407
 9644SOL    HW229832   1.464   4.125   5.511
 9645SOL     OW29833   3.974   5.588   3.298
 9645SOL    HW129834   3.882   5.567   3.331
 9645SOL    HW229835   4.015   5.507   3.257
 9646SOL     OW29836   3.028   4.839   2.051
 9646SOL    HW129837   2.955   4.772   2.041
 9646SOL    HW229838   2.993   4.930   2.034
 9647SOL     OW29839   5.969   5.421   1.476
 9647SOL    HW129840   5.915   5.361   1.418
 9647SOL    HW229841   6.022   5.367   1.541
 9648SOL     OW29842   4.330   2.080   0.022
 9648SOL    HW129843   4.289   2.159   7.003
 9648SOL    HW229844   4.372   2.020   6.980
 9649SOL     OW29845   2.735   6.682   6.670
 9649SOL    HW129846   2.765   6.615   6.602
 9649SOL    HW229847   2.686   6.634   6.743
 9650SOL     OW29848   5.643   5.350   2.646
 9650SOL    HW129849   5.635   5.256   2.615
 9650SOL    HW229850   5.702   5.401   2.584
 9651SOL     OW29851   6.789   1.089   6.294
 9651SOL    HW129852   6.754   1.010   6.344
 9651SOL    HW229853   6.878   1.066   6.255
 9652SOL     OW29854   2.355   4.932   0.903
 9652SOL    HW129855   2.446   4.914   0.865
 9652SOL    HW229856   2.327   5.025   0.882
 9653SOL     OW29857   3.776   5.126   4.743
 9653SOL    HW129858   3.850   5.180   4.703
 9653SOL    HW229859   3.729   5.181   4.813
 9654SOL     OW29860   3.501   3.327   1.462
 9654SOL    HW129861   3.512   3.408   1.520
 9654SOL    HW229862   3.547   3.249   1.505
 9655SOL     OW29863   0.066   1.714   6.757
 9655SOL    HW129864   0.132   1.785   6.731
 9655SOL    HW229865   0.017   1.742   6.839
 9656SOL     OW29866   2.851   2.605   1.429
 9656SOL    HW129867   2.920   2.533   1.438
 9656SOL    HW229868   2.893   2.686   1.389
 9657SOL     OW29869   6.307   0.952   4.305
 9657SOL    HW129870   6.401   0.963   4.338
 9657SOL    HW229871   6.306   0.961   4.205
 9658SOL     OW29872   6.263   2.138   2.880
 9658SOL    HW129873   6.192   2.114   2.946
 9658SOL    HW229874   6.259   2.237   2.861
 9659SOL     OW29875   6.474   4.571   7.021
 9659SOL    HW129876   6.553   4.590   6.963
 9659SOL    HW229877   6.398   4.631   6.993
 9660SOL     OW29878   0.814   5.856   1.008
 9660SOL    HW129879   0.793   5.952   1.027
 9660SOL    HW229880   0.780   5.799   1.083
 9661SOL     OW29881   3.663   6.304   2.367
 9661SOL    HW129882   3.757   6.291   2.333
 9661SOL    HW229883   3.666   6.345   2.458
 9662SOL     OW29884   5.392   2.216   5.089
 9662SOL    HW129885   5.362   2.254   5.001
 9662SOL    HW229886   5.435   2.287   5.143
 9663SOL     OW29887   0.844   5.858   4.117
 9663SOL    HW129888   0.746   5.858   4.141
 9663SOL    HW229889   0.889   5.781   4.163
 9664SOL     OW29890   6.379   6.872   3.757
 9664SOL    HW129891   6.314   6.850   3.685
 9664SOL    HW229892   6.447   6.936   3.723
 9665SOL     OW29893   5.114   5.930   6.052
 9665SOL    HW129894   5.105   6.025   6.023
 9665SOL    HW229895   5.090   5.869   5.976
 9666SOL     OW29896   5.706   4.227   2.203
 9666SOL    HW129897   5.686   4.325   2.208
 9666SOL    HW229898   5.761   4.201   2.283
 9667SOL     OW29899   3.234   2.958   4.316
 9667SOL    HW129900   3.154   2.942   4.374
 9667SOL    HW229901   3.208   2.945   4.220
 9668SOL     OW29902   5.541   1.350   7.009
 9668SOL    HW129903   5.551   1.327   6.912
 9668SOL    HW229904   5.506   1.270   0.031
 9669SOL     OW29905   0.951   0.164   1.897
 9669SOL    HW129906   0.926   0.244   1.843
 9669SOL    HW229907   0.949   0.083   1.840
 9670SOL     OW29908   5.163   4.773   6.177
 9670SOL    HW129909   5.201   4.862   6.203
 9670SOL    HW229910   5.064   4.777   6.181
 9671SOL     OW29911   0.224   5.382   6.451
 9671SOL    HW129912   0.209   5.297   6.401
 9671SOL    HW229913   0.142   5.405   6.504
 9672SOL     OW29914   1.142   5.844   4.964
 9672SOL    HW129915   1.096   5.930   4.988
 9672SOL    HW229916   1.228   5.865   4.918
 9673SOL     OW29917   5.600   4.219   6.842
 9673SOL    HW129918   5.697   4.204   6.822
 9673SOL    HW229919   5.547   4.138   6.817
 9674SOL     OW29920   2.675   6.427   3.453
 9674SOL    HW129921   2.594   6.372   3.474
 9674SOL    HW229922   2.653   6.524   3.465
 9675SOL     OW29923   5.891   1.951   1.374
 9675SOL    HW129924   5.988   1.935   1.393
 9675SOL    HW229925   5.839   1.946   1.460
 9676SOL     OW29926   1.494   3.659   5.254
 9676SOL    HW129927   1.576   3.622   5.209
 9676SOL    HW229928   1.428   3.585   5.269
 9677SOL     OW29929   2.299   5.659   5.848
 9677SOL    HW129930   2.386   5.679   5.803
 9677SOL    HW229931   2.290   5.560   5.859
 9678SOL     OW29932   2.979   3.822   2.389
 9678SOL    HW129933   2.954   3.731   2.422
 9678SOL    HW229934   3.003   3.818   2.292
 9679SOL     OW29935   1.898   1.251   2.712
 9679SOL    HW129936   1.977   1.226   2.656
 9679SOL    HW229937   1.909   1.345   2.745
 9680SOL     OW29938   5.910   0.411   4.390
 9680SOL    HW129939   5.996   0.429   4.437
 9680SOL    HW229940   5.917   0.441   4.294
 9681SOL     OW29941   3.059   1.178   0.782
 9681SOL    HW129942   2.999   1.161   0.860
 9681SOL    HW229943   3.047   1.105   0.715
 9682SOL     OW29944   4.692   5.181   3.877
 9682SOL    HW129945   4.738   5.238   3.946
 9682SOL    HW229946   4.626   5.237   3.827
 9683SOL     OW29947   3.056   5.223   0.806
 9683SOL    HW129948   3.090   5.258   0.719
 9683SOL    HW229949   3.049   5.298   0.872
 9684SOL     OW29950   6.964   2.358   4.948
 9684SOL    HW129951   7.006   2.423   4.885
 9684SOL    HW229952   6.945   2.272   4.901
 9685SOL     OW29953   2.033   3.425   0.767
 9685SOL    HW129954   2.022   3.445   0.865
 9685SOL    HW229955   2.117   3.467   0.733
 9686SOL     OW29956   5.874   2.306   0.927
 9686SOL    HW129957   5.812   2.299   1.006
 9686SOL    HW229958   5.955   2.251   0.944
 9687SOL     OW29959   2.012   0.837   3.915
 9687SOL    HW129960   2.024   0.811   3.819
 9687SOL    HW229961   2.046   0.929   3.929
 9688SOL     OW29962   6.613   2.297   3.480
 9688SOL    HW129963   6.598   2.208   3.437
 9688SOL    HW229964   6.538   2.358   3.457
 9689SOL     OW29965   2.091   6.118   0.931
 9689SOL    HW129966   2.088   6.181   0.854
 9689SOL    HW229967   2.064   6.027   0.901
 9690SOL     OW29968   5.696   5.652   6.653
 9690SOL    HW129969   5.682   5.654   6.752
 9690SOL    HW229970   5.761   5.580   6.630
 9691SOL     OW29971   2.603   4.405   1.431
 9691SOL    HW129972   2.565   4.497   1.421
 9691SOL    HW229973   2.616   4.385   1.528
 9692SOL     OW29974   3.120   4.926   2.597
 9692SOL    HW129975   3.038   4.918   2.654
 9692SOL    HW229976   3.098   4.901   2.503
 9693SOL     OW29977   6.372   5.209   1.627
 9693SOL    HW129978   6.378   5.116   1.590
 9693SOL    HW229979   6.365   5.275   1.552
 9694SOL     OW29980   2.268   1.313   5.889
 9694SOL    HW129981   2.312   1.227   5.863
 9694SOL    HW229982   2.331   1.389   5.873
 9695SOL     OW29983   0.065   3.600   1.605
 9695SOL    HW129984   0.000   3.643   1.542
 9695SOL    HW229985   0.110   3.524   1.559
 9696SOL     OW29986   5.409   2.345   0.948
 9696SOL    HW129987   5.371   2.382   1.032
 9696SOL    HW229988   5.335   2.310   0.890
 9697SOL     OW29989   6.630   5.966   6.977
 9697SOL    HW129990   6.642   5.907   0.030
 9697SOL    HW229991   6.663   5.918   6.895
 9698SOL     OW29992   5.596   1.482   6.165
 9698SOL    HW129993   5.506   1.444   6.144
 9698SOL    HW229994   5.618   1.554   6.099
 9699SOL     OW29995   0.459   4.222   0.061
 9699SOL    HW129996   0.439   4.158   0.135
 9699SOL    HW229997   0.462   4.174   7.001
 9700SOL     OW29998   4.056   5.391   5.155
 9700SOL    HW129999   4.101   5.303   5.139
 9700SOL    HW230000   4.125   5.459   5.180
 9701SOL     OW30001   3.880   4.914   4.895
 9701SOL    HW130002   3.844   4.913   4.989
 9701SOL    HW230003   3.834   4.986   4.843
 9702SOL     OW30004   5.135   0.323   0.483
 9702SOL    HW130005   5.184   0.237   0.469
 9702SOL    HW230006   5.075   0.316   0.563
 9703SOL     OW30007   4.154   5.499   3.737
 9703SOL    HW130008   4.248   5.534   3.731
 9703SOL    HW230009   4.116   5.521   3.827
 9704SOL     OW30010   3.120   1.353   2.116
 9704SOL    HW130011   3.102   1.431   2.056
 9704SOL    HW230012   3.080   1.270   2.076
 9705SOL     OW30013   4.806   5.586   0.346
 9705SOL    HW130014   4.839   5.551   0.258
 9705SOL    HW230015   4.879   5.637   0.391
 9706SOL     OW30016   1.059   2.298   0.549
 9706SOL    HW130017   1.137   2.273   0.608
 9706SOL    HW230018   0.993   2.224   0.549
 9707SOL     OW30019   6.688   4.028   1.663
 9707SOL    HW130020   6.658   3.991   1.751
 9707SOL    HW230021   6.734   4.115   1.677
 9708SOL     OW30022   1.265   1.995   2.693
 9708SOL    HW130023   1.310   1.946   2.767
 9708SOL    HW230024   1.309   2.084   2.679
 9709SOL     OW30025   6.046   5.686   2.759
 9709SOL    HW130026   6.126   5.627   2.747
 9709SOL    HW230027   6.047   5.725   2.851
 9710SOL     OW30028   0.116   1.900   2.255
 9710SOL    HW130029   0.153   1.993   2.248
 9710SOL    HW230030   0.043   1.899   2.323
 9711SOL     OW30031   1.522   3.070   5.814
 9711SOL    HW130032   1.577   3.153   5.811
 9711SOL    HW230033   1.551   3.009   5.740
 9712SOL     OW30034   5.459   4.064   5.596
 9712SOL    HW130035   5.557   4.078   5.582
 9712SOL    HW230036   5.444   3.971   5.630
 9713SOL     OW30037   0.973   4.276   3.375
 9713SOL    HW130038   0.911   4.202   3.350
 9713SOL    HW230039   0.989   4.334   3.295
 9714SOL     OW30040   2.645   1.745   1.725
 9714SOL    HW130041   2.640   1.691   1.641
 9714SOL    HW230042   2.717   1.813   1.717
 9715SOL     OW30043   5.807   4.796   5.774
 9715SOL    HW130044   5.897   4.790   5.732
 9715SOL    HW230045   5.815   4.837   5.865
 9716SOL     OW30046   3.704   2.725   6.805
 9716SOL    HW130047   3.641   2.721   6.727
 9716SOL    HW230048   3.747   2.815   6.810
 9717SOL     OW30049   5.706   5.530   6.080
 9717SOL    HW130050   5.645   5.484   6.145
 9717SOL    HW230051   5.792   5.553   6.126
 9718SOL     OW30052   4.897   2.857   1.790
 9718SOL    HW130053   4.818   2.882   1.845
 9718SOL    HW230054   4.957   2.936   1.780
 9719SOL     OW30055   0.417   2.261   6.869
 9719SOL    HW130056   0.508   2.270   6.828
 9719SOL    HW230057   0.421   2.285   6.965
 9720SOL     OW30058   0.590   5.547   1.571
 9720SOL    HW130059   0.539   5.536   1.656
 9720SOL    HW230060   0.551   5.623   1.518
 9721SOL     OW30061   1.131   2.981   1.215
 9721SOL    HW130062   1.049   2.985   1.271
 9721SOL    HW230063   1.107   2.955   1.121
 9722SOL     OW30064   0.424   0.169   3.527
 9722SOL    HW130065   0.472   0.175   3.440
 9722SOL    HW230066   0.404   0.074   3.548
 9723SOL     OW30067   2.265   5.773   3.711
 9723SOL    HW130068   2.279   5.862   3.668
 9723SOL    HW230069   2.353   5.735   3.739
 9724SOL     OW30070   2.900   3.427   0.643
 9724SOL    HW130071   2.818   3.370   0.640
 9724SOL    HW230072   2.943   3.429   0.552
 9725SOL     OW30073   3.943   3.718   6.911
 9725SOL    HW130074   3.957   3.796   6.849
 9725SOL    HW230075   3.947   3.633   6.860
 9726SOL     OW30076   4.546   6.693   4.193
 9726SOL    HW130077   4.515   6.695   4.289
 9726SOL    HW230078   4.581   6.783   4.168
 9727SOL     OW30079   0.540   3.552   5.273
 9727SOL    HW130080   0.441   3.539   5.275
 9727SOL    HW230081   0.562   3.644   5.304
 9728SOL     OW30082   0.643   0.215   6.367
 9728SOL    HW130083   0.582   0.218   6.288
 9728SOL    HW230084   0.609   0.148   6.433
 9729SOL     OW30085   0.871   4.556   2.465
 9729SOL    HW130086   0.916   4.507   2.539
 9729SOL    HW230087   0.818   4.632   2.503
 9730SOL     OW30088   0.687   3.402   2.575
 9730SOL    HW130089   0.608   3.462   2.560
 9730SOL    HW230090   0.660   3.328   2.637
 9731SOL     OW30091   4.515   4.289   0.414
 9731SOL    HW130092   4.439   4.240   0.372
 9731SOL    HW230093   4.498   4.387   0.408
 9732SOL     OW30094   5.231   5.785   3.250
 9732SOL    HW130095   5.276   5.835   3.324
 9732SOL    HW230096   5.152   5.838   3.217
 9733SOL     OW30097   5.291   5.030   6.163
 9733SOL    HW130098   5.259   5.101   6.101
 9733SOL    HW230099   5.367   4.981   6.120
 9734SOL     OW30100   5.447   2.296   3.365
 9734SOL    HW130101   5.369   2.350   3.332
 9734SOL    HW230102   5.491   2.344   3.441
 9735SOL     OW30103   1.736   4.445   2.711
 9735SOL    HW130104   1.721   4.452   2.612
 9735SOL    HW230105   1.796   4.520   2.741
 9736SOL     OW30106   6.219   1.715   6.429
 9736SOL    HW130107   6.151   1.677   6.491
 9736SOL    HW230108   6.310   1.684   6.456
 9737SOL     OW30109   6.605   3.188   5.129
 9737SOL    HW130110   6.555   3.168   5.044
 9737SOL    HW230111   6.578   3.123   5.200
 9738SOL     OW30112   1.936   0.142   2.745
 9738SOL    HW130113   1.914   0.156   2.842
 9738SOL    HW230114   1.871   0.077   2.706
 9739SOL     OW30115   6.554   5.310   1.778
 9739SOL    HW130116   6.586   5.386   1.722
 9739SOL    HW230117   6.478   5.264   1.732
 9740SOL     OW30118   6.989   3.017   3.654
 9740SOL    HW130119   0.037   2.954   3.629
 9740SOL    HW230120   7.021   3.081   3.724
 9741SOL     OW30121   4.563   1.319   2.233
 9741SOL    HW130122   4.479   1.331   2.179
 9741SOL    HW230123   4.602   1.409   2.253
 9742SOL     OW30124   4.115   6.925   2.607
 9742SOL    HW130125   4.172   6.991   2.656
 9742SOL    HW230126   4.168   6.843   2.587
 9743SOL     OW30127   1.371   1.788   4.896
 9743SOL    HW130128   1.417   1.711   4.941
 9743SOL    HW230129   1.319   1.754   4.817
 9744SOL     OW30130   0.082   0.126   2.971
 9744SOL    HW130131   0.160   0.107   3.030
 9744SOL    HW230132   0.054   0.043   2.923
 9745SOL     OW30133   6.675   2.820   6.057
 9745SOL    HW130134   6.695   2.830   5.959
 9745SOL    HW230135   6.670   2.910   6.100
 9746SOL     OW30136   6.024   1.065   6.550
 9746SOL    HW130137   5.929   1.092   6.534
 9746SOL    HW230138   6.084   1.113   6.486
 9747SOL     OW30139   1.951   0.875   1.604
 9747SOL    HW130140   2.008   0.803   1.563
 9747SOL    HW230141   1.926   0.848   1.696
 9748SOL     OW30142   1.291   1.127   3.811
 9748SOL    HW130143   1.228   1.203   3.828
 9748SOL    HW230144   1.248   1.061   3.750
 9749SOL     OW30145   2.231   1.830   5.095
 9749SOL    HW130146   2.284   1.805   5.175
 9749SOL    HW230147   2.292   1.859   5.021
 9750SOL     OW30148   5.261   4.975   3.504
 9750SOL    HW130149   5.186   5.038   3.523
 9750SOL    HW230150   5.334   5.023   3.455
 9751SOL     OW30151   2.050   1.537   0.748
 9751SOL    HW130152   2.031   1.533   0.846
 9751SOL    HW230153   1.972   1.577   0.700
 9752SOL     OW30154   4.965   1.193   0.146
 9752SOL    HW130155   5.056   1.207   0.108
 9752SOL    HW230156   4.964   1.111   0.204
 9753SOL     OW30157   5.779   5.640   4.970
 9753SOL    HW130158   5.800   5.582   4.892
 9753SOL    HW230159   5.860   5.648   5.028
 9754SOL     OW30160   1.067   1.894   0.323
 9754SOL    HW130161   1.076   1.827   0.249
 9754SOL    HW230162   1.001   1.861   0.391
 9755SOL     OW30163   4.226   3.306   5.214
 9755SOL    HW130164   4.156   3.313   5.143
 9755SOL    HW230165   4.214   3.220   5.264
 9756SOL     OW30166   6.457   3.354   0.162
 9756SOL    HW130167   6.516   3.282   0.200
 9756SOL    HW230168   6.368   3.315   0.139
 9757SOL     OW30169   5.587   3.229   3.095
 9757SOL    HW130170   5.553   3.138   3.071
 9757SOL    HW230171   5.674   3.245   3.049
 9758SOL     OW30172   2.102   6.726   6.357
 9758SOL    HW130173   2.169   6.797   6.382
 9758SOL    HW230174   2.122   6.643   6.408
 9759SOL     OW30175   2.032   0.191   0.126
 9759SOL    HW130176   2.012   0.183   0.028
 9759SOL    HW230177   1.947   0.205   0.177
 9760SOL     OW30178   4.630   3.366   5.362
 9760SOL    HW130179   4.633   3.440   5.294
 9760SOL    HW230180   4.713   3.368   5.417
 9761SOL     OW30181   6.145   6.493   2.032
 9761SOL    HW130182   6.057   6.473   1.988
 9761SOL    HW230183   6.162   6.592   2.029
 9762SOL     OW30184   2.624   2.349   4.702
 9762SOL    HW130185   2.681   2.376   4.624
 9762SOL    HW230186   2.532   2.388   4.692
 9763SOL     OW30187   4.386   2.347   1.322
 9763SOL    HW130188   4.430   2.406   1.390
 9763SOL    HW230189   4.289   2.339   1.344
 9764SOL     OW30190   0.925   2.679   2.395
 9764SOL    HW130191   0.984   2.600   2.380
 9764SOL    HW230192   0.971   2.744   2.456
 9765SOL     OW30193   6.199   2.054   3.625
 9765SOL    HW130194   6.206   2.107   3.710
 9765SOL    HW230195   6.103   2.047   3.599
 9766SOL     OW30196   2.674   0.561   2.882
 9766SOL    HW130197   2.680   0.471   2.925
 9766SOL    HW230198   2.764   0.586   2.846
 9767SOL     OW30199   5.251   2.006   5.167
 9767SOL    HW130200   5.280   2.101   5.152
 9767SOL    HW230201   5.306   1.945   5.110
 9768SOL     OW30202   4.700   1.570   2.226
 9768SOL    HW130203   4.665   1.661   2.204
 9768SOL    HW230204   4.778   1.578   2.288
 9769SOL     OW30205   2.084   1.183   2.031
 9769SOL    HW130206   2.061   1.236   1.949
 9769SOL    HW230207   2.170   1.218   2.070
 9770SOL     OW30208   5.676   0.157   0.087
 9770SOL    HW130209   5.688   0.071   0.138
 9770SOL    HW230210   5.579   0.180   0.085
 9771SOL     OW30211   3.866   4.940   1.570
 9771SOL    HW130212   3.787   4.880   1.584
 9771SOL    HW230213   3.864   4.976   1.476
 9772SOL     OW30214   0.979   6.009   1.675
 9772SOL    HW130215   0.882   6.034   1.669
 9772SOL    HW230216   1.032   6.087   1.708
 9773SOL     OW30217   5.486   6.749   4.202
 9773SOL    HW130218   5.519   6.670   4.151
 9773SOL    HW230219   5.425   6.803   4.144
 9774SOL     OW30220   5.998   4.912   2.329
 9774SOL    HW130221   5.968   4.890   2.236
 9774SOL    HW230222   5.932   4.873   2.394
 9775SOL     OW30223   3.015   1.395   3.706
 9775SOL    HW130224   2.961   1.343   3.640
 9775SOL    HW230225   2.955   1.454   3.760
 9776SOL     OW30226   6.840   5.430   4.484
 9776SOL    HW130227   6.839   5.480   4.571
 9776SOL    HW230228   6.894   5.481   4.417
 9777SOL     OW30229   5.643   4.635   6.383
 9777SOL    HW130230   5.593   4.675   6.306
 9777SOL    HW230231   5.739   4.663   6.380
 9778SOL     OW30232   6.378   0.572   4.010
 9778SOL    HW130233   6.382   0.663   4.051
 9778SOL    HW230234   6.470   0.541   3.988
 9779SOL     OW30235   2.547   1.647   4.607
 9779SOL    HW130236   2.559   1.632   4.705
 9779SOL    HW230237   2.491   1.574   4.568
 9780SOL     OW30238   2.177   1.881   1.053
 9780SOL    HW130239   2.147   1.889   0.958
 9780SOL    HW230240   2.149   1.963   1.103
 9781SOL     OW30241   1.852   3.788   3.769
 9781SOL    HW130242   1.802   3.786   3.856
 9781SOL    HW230243   1.928   3.722   3.774
 9782SOL     OW30244   0.374   0.567   1.537
 9782SOL    HW130245   0.326   0.605   1.457
 9782SOL    HW230246   0.379   0.636   1.608
 9783SOL     OW30247   4.612   1.592   1.690
 9783SOL    HW130248   4.608   1.549   1.780
 9783SOL    HW230249   4.558   1.538   1.625
 9784SOL     OW30250   4.865   1.052   3.763
 9784SOL    HW130251   4.896   1.011   3.677
 9784SOL    HW230252   4.813   1.135   3.744
 9785SOL     OW30253   6.916   4.112   4.904
 9785SOL    HW130254   6.830   4.091   4.857
 9785SOL    HW230255   6.986   4.133   4.835
 9786SOL     OW30256   1.756   4.818   6.552
 9786SOL    HW130257   1.743   4.914   6.576
 9786SOL    HW230258   1.844   4.787   6.590
 9787SOL     OW30259   5.216   3.918   0.715
 9787SOL    HW130260   5.230   3.826   0.753
 9787SOL    HW230261   5.150   3.912   0.640
 9788SOL     OW30262   0.431   0.400   3.884
 9788SOL    HW130263   0.384   0.342   3.950
 9788SOL    HW230264   0.368   0.425   3.810
 9789SOL     OW30265   2.118   5.931   6.442
 9789SOL    HW130266   2.144   5.928   6.346
 9789SOL    HW230267   2.182   5.877   6.496
 9790SOL     OW30268   5.520   3.700   5.398
 9790SOL    HW130269   5.535   3.648   5.482
 9790SOL    HW230270   5.512   3.798   5.419
 9791SOL     OW30271   0.348   0.670   3.252
 9791SOL    HW130272   0.387   0.685   3.343
 9791SOL    HW230273   0.415   0.622   3.195
 9792SOL     OW30274   5.267   5.138   1.270
 9792SOL    HW130275   5.322   5.142   1.354
 9792SOL    HW230276   5.197   5.068   1.278
 9793SOL     OW30277   5.924   5.919   3.270
 9793SOL    HW130278   5.996   5.961   3.214
 9793SOL    HW230279   5.938   5.944   3.366
 9794SOL     OW30280   6.068   3.818   6.533
 9794SOL    HW130281   5.986   3.765   6.555
 9794SOL    HW230282   6.127   3.765   6.473
 9795SOL     OW30283   1.543   2.185   3.899
 9795SOL    HW130284   1.555   2.222   3.991
 9795SOL    HW230285   1.608   2.110   3.885
 9796SOL     OW30286   3.417   4.232   0.420
 9796SOL    HW130287   3.421   4.235   0.520
 9796SOL    HW230288   3.481   4.299   0.382
 9797SOL     OW30289   3.928   3.912   6.713
 9797SOL    HW130290   3.945   3.935   6.617
 9797SOL    HW230291   3.887   3.991   6.759
 9798SOL     OW30292   2.435   0.814   0.565
 9798SOL    HW130293   2.420   0.759   0.482
 9798SOL    HW230294   2.348   0.851   0.597
 9799SOL     OW30295   3.117   3.511   2.657
 9799SOL    HW130296   3.160   3.597   2.681
 9799SOL    HW230297   3.181   3.435   2.672
 9800SOL     OW30298   3.384   5.850   5.807
 9800SOL    HW130299   3.426   5.920   5.864
 9800SOL    HW230300   3.397   5.873   5.710
 9801SOL     OW30301   4.187   4.667   0.044
 9801SOL    HW130302   4.204   4.731   0.119
 9801SOL    HW230303   4.243   4.693   6.992
 9802SOL     OW30304   0.107   2.730   2.337
 9802SOL    HW130305   0.109   2.682   2.424
 9802SOL    HW230306   0.099   2.664   2.262
 9803SOL     OW30307   6.050   0.909   0.129
 9803SOL    HW130308   6.027   0.960   0.212
 9803SOL    HW230309   6.116   0.837   0.152
 9804SOL     OW30310   0.314   5.281   3.431
 9804SOL    HW130311   0.274   5.193   3.406
 9804SOL    HW230312   0.310   5.292   3.531
 9805SOL     OW30313   1.175   5.653   0.016
 9805SOL    HW130314   1.150   5.722   6.974
 9805SOL    HW230315   1.198   5.699   0.102
 9806SOL     OW30316   1.008   1.950   1.129
 9806SOL    HW130317   1.019   2.049   1.133
 9806SOL    HW230318   0.962   1.919   1.213
 9807SOL     OW30319   2.762   2.898   0.234
 9807SOL    HW130320   2.717   2.875   0.320
 9807SOL    HW230321   2.755   2.821   0.170
 9808SOL     OW30322   5.532   0.796   5.448
 9808SOL    HW130323   5.477   0.849   5.512
 9808SOL    HW230324   5.621   0.777   5.489
 9809SOL     OW30325   0.356   1.821   6.149
 9809SOL    HW130326   0.392   1.808   6.242
 9809SOL    HW230327   0.378   1.914   6.118
 9810SOL     OW30328   2.810   2.146   3.189
 9810SOL    HW130329   2.839   2.179   3.280
 9810SOL    HW230330   2.806   2.047   3.189
 9811SOL     OW30331   5.856   5.556   3.987
 9811SOL    HW130332   5.812   5.470   4.014
 9811SOL    HW230333   5.838   5.574   3.891
 9812SOL     OW30334   3.593   2.318   6.358
 9812SOL    HW130335   3.617   2.289   6.266
 9812SOL    HW230336   3.617   2.245   6.423
 9813SOL     OW30337   5.788   5.997   6.931
 9813SOL    HW130338   5.712   6.055   6.902
 9813SOL    HW230339   5.792   5.996   0.005
 9814SOL     OW30340   0.630   0.647   5.867
 9814SOL    HW130341   0.684   0.696   5.935
 9814SOL    HW230342   0.674   0.657   5.777
 9815SOL     OW30343   6.722   1.925   1.435
 9815SOL    HW130344   6.762   1.953   1.349
 9815SOL    HW230345   6.752   1.832   1.458
 9816SOL     OW30346   6.549   1.160   6.857
 9816SOL    HW130347   6.604   1.225   6.909
 9816SOL    HW230348   6.457   1.156   6.896
 9817SOL     OW30349   2.883   5.825   1.846
 9817SOL    HW130350   2.975   5.821   1.882
 9817SOL    HW230351   2.820   5.775   1.906
 9818SOL     OW30352   1.543   1.148   3.711
 9818SOL    HW130353   1.605   1.155   3.788
 9818SOL    HW230354   1.450   1.130   3.744
 9819SOL     OW30355   5.575   3.456   4.806
 9819SOL    HW130356   5.606   3.459   4.901
 9819SOL    HW230357   5.560   3.361   4.779
 9820SOL     OW30358   3.010   2.027   6.696
 9820SOL    HW130359   3.003   2.092   6.772
 9820SOL    HW230360   3.103   2.029   6.660
 9821SOL     OW30361   4.166   1.713   0.867
 9821SOL    HW130362   4.118   1.793   0.830
 9821SOL    HW230363   4.107   1.632   0.858
 9822SOL     OW30364   3.882   5.578   4.331
 9822SOL    HW130365   3.902   5.491   4.284
 9822SOL    HW230366   3.959   5.640   4.319
 9823SOL     OW30367   1.120   0.706   1.998
 9823SOL    HW130368   1.076   0.649   2.067
 9823SOL    HW230369   1.082   0.798   2.002
 9824SOL     OW30370   2.561   5.657   5.724
 9824SOL    HW130371   2.553   5.710   5.640
 9824SOL    HW230372   2.651   5.614   5.728
 9825SOL     OW30373   5.559   5.582   5.441
 9825SOL    HW130374   5.505   5.629   5.510
 9825SOL    HW230375   5.598   5.648   5.377
 9826SOL     OW30376   3.752   6.388   5.475
 9826SOL    HW130377   3.771   6.420   5.568
 9826SOL    HW230378   3.665   6.426   5.444
 9827SOL     OW30379   2.160   5.222   2.793
 9827SOL    HW130380   2.126   5.280   2.719
 9827SOL    HW230381   2.238   5.168   2.761
 9828SOL     OW30382   3.625   2.084   4.751
 9828SOL    HW130383   3.557   2.127   4.691
 9828SOL    HW230384   3.708   2.065   4.698
 9829SOL     OW30385   5.243   6.844   6.329
 9829SOL    HW130386   5.275   6.801   6.414
 9829SOL    HW230387   5.146   6.824   6.316
 9830SOL     OW30388   5.703   1.232   2.246
 9830SOL    HW130389   5.638   1.225   2.321
 9830SOL    HW230390   5.732   1.327   2.236
 9831SOL     OW30391   0.321   4.188   1.833
 9831SOL    HW130392   0.317   4.243   1.750
 9831SOL    HW230393   0.340   4.093   1.809
 9832SOL     OW30394   5.003   5.292   4.164
 9832SOL    HW130395   4.910   5.325   4.151
 9832SOL    HW230396   5.060   5.322   4.087
 9833SOL     OW30397   3.413   4.007   3.546
 9833SOL    HW130398   3.324   4.050   3.532
 9833SOL    HW230399   3.400   3.910   3.569
 9834SOL     OW30400   2.205   5.161   5.970
 9834SOL    HW130401   2.114   5.154   6.010
 9834SOL    HW230402   2.222   5.081   5.912
 9835SOL     OW30403   4.014   3.714   4.046
 9835SOL    HW130404   3.940   3.772   4.011
 9835SOL    HW230405   3.980   3.659   4.122
 9836SOL     OW30406   0.672   4.541   5.458
 9836SOL    HW130407   0.761   4.560   5.417
 9836SOL    HW230408   0.662   4.594   5.542
 9837SOL     OW30409   5.587   2.100   2.278
 9837SOL    HW130410   5.560   2.031   2.345
 9837SOL    HW230411   5.687   2.108   2.277
 9838SOL     OW30412   1.530   6.634   0.959
 9838SOL    HW130413   1.566   6.549   0.919
 9838SOL    HW230414   1.511   6.700   0.887
 9839SOL     OW30415   4.559   1.107   3.840
 9839SOL    HW130416   4.528   1.156   3.758
 9839SOL    HW230417   4.616   1.029   3.813
 9840SOL     OW30418   4.701   1.417   0.123
 9840SOL    HW130419   4.639   1.395   0.199
 9840SOL    HW230420   4.792   1.436   0.159
 9841SOL     OW30421   0.595   5.049   3.409
 9841SOL    HW130422   0.577   5.084   3.500
 9841SOL    HW230423   0.549   4.961   3.396
 9842SOL     OW30424   3.658   3.207   0.560
 9842SOL    HW130425   3.690   3.301   0.554
 9842SOL    HW230426   3.559   3.207   0.576
 9843SOL     OW30427   6.753   0.450   1.986
 9843SOL    HW130428   6.721   0.499   1.905
 9843SOL    HW230429   6.730   0.503   2.068
 9844SOL     OW30430   5.853   0.763   4.673
 9844SOL    HW130431   5.859   0.792   4.768
 9844SOL    HW230432   5.942   0.726   4.644
 9845SOL     OW30433   1.239   2.552   2.301
 9845SOL    HW130434   1.233   2.626   2.369
 9845SOL    HW230435   1.239   2.464   2.348
 9846SOL     OW30436   4.868   1.408   1.031
 9846SOL    HW130437   4.906   1.341   1.095
 9846SOL    HW230438   4.826   1.483   1.082
 9847SOL     OW30439   3.842   3.219   2.032
 9847SOL    HW130440   3.913   3.250   2.096
 9847SOL    HW230441   3.865   3.127   1.999
 9848SOL     OW30442   3.416   4.152   5.497
 9848SOL    HW130443   3.506   4.187   5.522
 9848SOL    HW230444   3.358   4.149   5.579
 9849SOL     OW30445   0.913   0.346   6.754
 9849SOL    HW130446   0.829   0.362   6.702
 9849SOL    HW230447   0.926   0.248   6.767
 9850SOL     OW30448   0.194   0.621   4.296
 9850SOL    HW130449   0.155   0.713   4.302
 9850SOL    HW230450   0.165   0.567   4.375
 9851SOL     OW30451   2.823   5.628   4.793
 9851SOL    HW130452   2.840   5.531   4.775
 9851SOL    HW230453   2.900   5.682   4.757
 9852SOL     OW30454   1.151   2.108   5.660
 9852SOL    HW130455   1.217   2.183   5.654
 9852SOL    HW230456   1.169   2.041   5.588
 9853SOL     OW30457   0.239   3.931   5.251
 9853SOL    HW130458   0.198   3.966   5.166
 9853SOL    HW230459   0.172   3.876   5.300
 9854SOL     OW30460   0.924   5.668   5.352
 9854SOL    HW130461   0.878   5.621   5.427
 9854SOL    HW230462   1.014   5.625   5.337
 9855SOL     OW30463   0.984   3.269   1.150
 9855SOL    HW130464   0.940   3.355   1.177
 9855SOL    HW230465   1.008   3.217   1.232
 9856SOL     OW30466   5.704   4.961   4.193
 9856SOL    HW130467   5.740   4.876   4.153
 9856SOL    HW230468   5.768   5.035   4.176
 9857SOL     OW30469   5.829   2.905   2.860
 9857SOL    HW130470   5.843   2.978   2.793
 9857SOL    HW230471   5.918   2.867   2.887
 9858SOL     OW30472   1.320   6.589   1.946
 9858SOL    HW130473   1.390   6.659   1.954
 9858SOL    HW230474   1.327   6.525   2.022
 9859SOL     OW30475   6.646   4.876   5.053
 9859SOL    HW130476   6.681   4.892   4.960
 9859SOL    HW230477   6.696   4.801   5.094
 9860SOL     OW30478   1.999   2.257   5.079
 9860SOL    HW130479   1.943   2.241   5.160
 9860SOL    HW230480   2.096   2.258   5.104
 9861SOL     OW30481   3.404   1.210   3.611
 9861SOL    HW130482   3.441   1.136   3.667
 9861SOL    HW230483   3.329   1.175   3.555
 9862SOL     OW30484   2.749   4.229   0.996
 9862SOL    HW130485   2.753   4.130   1.009
 9862SOL    HW230486   2.792   4.275   1.074
 9863SOL     OW30487   3.035   5.818   0.915
 9863SOL    HW130488   3.125   5.811   0.958
 9863SOL    HW230489   3.028   5.751   0.841
 9864SOL     OW30490   2.961   6.878   5.331
 9864SOL    HW130491   3.046   6.843   5.292
 9864SOL    HW230492   2.968   6.879   5.431
 9865SOL     OW30493   0.308   6.971   5.098
 9865SOL    HW130494   0.398   6.928   5.105
 9865SOL    HW230495   0.297   7.011   5.007
 9866SOL     OW30496   5.766   4.412   5.082
 9866SOL    HW130497   5.813   4.450   5.002
 9866SOL    HW230498   5.814   4.330   5.113
 9867SOL     OW30499   4.931   2.506   2.754
 9867SOL    HW130500   5.019   2.542   2.788
 9867SOL    HW230501   4.856   2.549   2.805
 9868SOL     OW30502   0.391   4.192   3.636
 9868SOL    HW130503   0.382   4.284   3.598
 9868SOL    HW230504   0.390   4.125   3.561
 9869SOL     OW30505   0.881   2.471   1.082
 9869SOL    HW130506   0.892   2.376   1.051
 9869SOL    HW230507   0.783   2.493   1.086
 9870SOL     OW30508   4.250   1.104   2.036
 9870SOL    HW130509   4.154   1.084   2.055
 9870SOL    HW230510   4.263   1.114   1.937
 9871SOL     OW30511   6.603   2.726   5.733
 9871SOL    HW130512   6.701   2.705   5.725
 9871SOL    HW230513   6.553   2.641   5.752
 9872SOL     OW30514   2.311   5.440   5.251
 9872SOL    HW130515   2.359   5.386   5.182
 9872SOL    HW230516   2.321   5.397   5.341
 9873SOL     OW30517   1.645   2.294   5.587
 9873SOL    HW130518   1.547   2.276   5.590
 9873SOL    HW230519   1.690   2.249   5.665
 9874SOL     OW30520   1.085   2.780   4.272
 9874SOL    HW130521   1.010   2.758   4.209
 9874SOL    HW230522   1.074   2.873   4.306
 9875SOL     OW30523   0.543   6.252   1.430
 9875SOL    HW130524   0.625   6.267   1.484
 9875SOL    HW230525   0.494   6.339   1.419
 9876SOL     OW30526   3.536   0.230   3.592
 9876SOL    HW130527   3.585   0.271   3.515
 9876SOL    HW230528   3.443   0.205   3.563
 9877SOL     OW30529   6.839   4.205   4.171
 9877SOL    HW130530   6.749   4.182   4.209
 9877SOL    HW230531   6.859   4.301   4.189
 9878SOL     OW30532   1.906   2.864   6.939
 9878SOL    HW130533   1.914   2.906   0.002
 9878SOL    HW230534   1.962   2.915   6.873
 9879SOL     OW30535   1.331   4.398   5.445
 9879SOL    HW130536   1.411   4.344   5.469
 9879SOL    HW230537   1.264   4.394   5.519
 9880SOL     OW30538   2.868   0.863   6.718
 9880SOL    HW130539   2.792   0.834   6.661
 9880SOL    HW230540   2.834   0.917   6.795
 9881SOL     OW30541   5.702   0.578   4.817
 9881SOL    HW130542   5.750   0.651   4.768
 9881SOL    HW230543   5.627   0.544   4.761
 9882SOL     OW30544   3.779   3.452   4.563
 9882SOL    HW130545   3.725   3.431   4.482
 9882SOL    HW230546   3.798   3.550   4.567
 9883SOL     OW30547   1.844   5.618   1.933
 9883SOL    HW130548   1.852   5.536   1.990
 9883SOL    HW230549   1.850   5.699   1.991
 9884SOL     OW30550   1.582   3.169   6.873
 9884SOL    HW130551   1.602   3.186   6.969
 9884SOL    HW230552   1.552   3.254   6.830
 9885SOL     OW30553   0.466   3.073   3.838
 9885SOL    HW130554   0.536   3.087   3.768
 9885SOL    HW230555   0.482   3.136   3.914
 9886SOL     OW30556   5.748   6.179   1.905
 9886SOL    HW130557   5.834   6.139   1.871
 9886SOL    HW230558   5.675   6.160   1.839
 9887SOL     OW30559   4.291   6.897   0.380
 9887SOL    HW130560   4.379   6.911   0.425
 9887SOL    HW230561   4.217   6.923   0.443
 9888SOL     OW30562   5.716   5.990   2.650
 9888SOL    HW130563   5.775   6.059   2.692
 9888SOL    HW230564   5.658   6.033   2.582
 9889SOL     OW30565   6.688   4.730   3.018
 9889SOL    HW130566   6.741   4.645   3.015
 9889SOL    HW230567   6.643   4.738   3.107
 9890SOL     OW30568   6.189   2.512   0.373
 9890SOL    HW130569   6.175   2.495   0.471
 9890SOL    HW230570   6.112   2.565   0.337
 9891SOL     OW30571   5.072   4.804   0.955
 9891SOL    HW130572   5.005   4.876   0.935
 9891SOL    HW230573   5.145   4.808   0.888
 9892SOL     OW30574   2.306   4.836   3.746
 9892SOL    HW130575   2.258   4.770   3.688
 9892SOL    HW230576   2.294   4.928   3.708
 9893SOL     OW30577   6.218   6.032   2.697
 9893SOL    HW130578   6.220   6.104   2.628
 9893SOL    HW230579   6.265   6.063   2.779
 9894SOL     OW30580   3.592   2.011   6.232
 9894SOL    HW130581   3.653   1.972   6.164
 9894SOL    HW230582   3.530   2.076   6.189
 9895SOL     OW30583   5.712   2.110   6.373
 9895SOL    HW130584   5.713   2.203   6.337
 9895SOL    HW230585   5.637   2.101   6.439
 9896SOL     OW30586   4.133   3.102   0.845
 9896SOL    HW130587   4.060   3.063   0.788
 9896SOL    HW230588   4.221   3.091   0.799
 9897SOL     OW30589   5.262   1.637   3.080
 9897SOL    HW130590   5.355   1.669   3.099
 9897SOL    HW230591   5.224   1.596   3.163
 9898SOL     OW30592   1.170   4.684   5.436
 9898SOL    HW130593   1.138   4.686   5.530
 9898SOL    HW230594   1.132   4.604   5.389
 9899SOL     OW30595   5.529   4.466   2.217
 9899SOL    HW130596   5.579   4.468   2.131
 9899SOL    HW230597   5.447   4.410   2.207
 9900SOL     OW30598   1.533   1.988   3.469
 9900SOL    HW130599   1.632   1.993   3.464
 9900SOL    HW230600   1.506   1.912   3.529
 9901SOL     OW30601   1.681   1.727   6.433
 9901SOL    HW130602   1.739   1.805   6.455
 9901SOL    HW230603   1.701   1.652   6.496
 9902SOL     OW30604   3.971   3.525   0.760
 9902SOL    HW130605   3.879   3.487   0.760
 9902SOL    HW230606   3.992   3.563   0.850
 9903SOL     OW30607   4.741   0.884   2.603
 9903SOL    HW130608   4.783   0.961   2.651
 9903SOL    HW230609   4.725   0.809   2.667
 9904SOL     OW30610   6.750   3.495   6.765
 9904SOL    HW130611   6.660   3.452   6.776
 9904SOL    HW230612   6.753   3.580   6.817
 9905SOL     OW30613   1.422   6.420   6.691
 9905SOL    HW130614   1.391   6.513   6.708
 9905SOL    HW230615   1.483   6.419   6.612
 9906SOL     OW30616   1.491   3.114   6.315
 9906SOL    HW130617   1.545   3.106   6.231
 9906SOL    HW230618   1.420   3.044   6.315
 9907SOL     OW30619   2.788   5.913   3.432
 9907SOL    HW130620   2.886   5.894   3.435
 9907SOL    HW230621   2.768   5.994   3.486
 9908SOL     OW30622   0.778   3.137   6.322
 9908SOL    HW130623   0.689   3.097   6.304
 9908SOL    HW230624   0.778   3.180   6.412
 9909SOL     OW30625   2.791   0.896   3.302
 9909SOL    HW130626   2.715   0.955   3.333
 9909SOL    HW230627   2.769   0.801   3.321
 9910SOL     OW30628   0.411   4.848   1.141
 9910SOL    HW130629   0.385   4.910   1.067
 9910SOL    HW230630   0.509   4.855   1.158
 9911SOL     OW30631   5.086   5.156   2.665
 9911SOL    HW130632   5.062   5.063   2.636
 9911SOL    HW230633   5.098   5.157   2.765
 9912SOL     OW30634   3.885   0.730   2.801
 9912SOL    HW130635   3.917   0.638   2.824
 9912SOL    HW230636   3.845   0.729   2.709
 9913SOL     OW30637   5.624   2.820   2.084
 9913SOL    HW130638   5.712   2.786   2.117
 9913SOL    HW230639   5.567   2.743   2.055
 9914SOL     OW30640   1.695   0.716   5.571
 9914SOL    HW130641   1.735   0.664   5.646
 9914SOL    HW230642   1.621   0.664   5.530
 9915SOL     OW30643   5.641   3.835   4.162
 9915SOL    HW130644   5.584   3.887   4.097
 9915SOL    HW230645   5.608   3.741   4.166
 9916SOL     OW30646   2.154   3.203   3.091
 9916SOL    HW130647   2.187   3.141   3.020
 9916SOL    HW230648   2.116   3.285   3.048
 9917SOL     OW30649   3.436   3.822   4.993
 9917SOL    HW130650   3.474   3.758   5.060
 9917SOL    HW230651   3.466   3.915   5.016
 9918SOL     OW30652   1.540   1.449   6.065
 9918SOL    HW130653   1.562   1.544   6.088
 9918SOL    HW230654   1.577   1.389   6.135
 9919SOL     OW30655   1.496   5.572   2.761
 9919SOL    HW130656   1.411   5.571   2.814
 9919SOL    HW230657   1.473   5.582   2.664
 9920SOL     OW30658   4.000   0.013   1.957
 9920SOL    HW130659   3.997   0.093   2.018
 9920SOL    HW230660   4.009   6.956   2.011
 9921SOL     OW30661   5.970   6.794   3.330
 9921SOL    HW130662   6.031   6.748   3.265
 9921SOL    HW230663   5.938   6.880   3.290
 9922SOL     OW30664   4.786   4.680   0.821
 9922SOL    HW130665   4.797   4.632   0.908
 9922SOL    HW230666   4.723   4.630   0.762
 9923SOL     OW30667   6.555   2.623   6.373
 9923SOL    HW130668   6.481   2.690   6.370
 9923SOL    HW230669   6.547   2.562   6.294
 9924SOL     OW30670   5.840   1.189   1.969
 9924SOL    HW130671   5.851   1.286   1.950
 9924SOL    HW230672   5.786   1.177   2.053
 9925SOL     OW30673   2.200   3.539   5.706
 9925SOL    HW130674   2.257   3.537   5.788
 9925SOL    HW230675   2.258   3.543   5.625
 9926SOL     OW30676   2.682   1.754   0.994
 9926SOL    HW130677   2.658   1.796   0.906
 9926SOL    HW230678   2.678   1.654   0.984
 9927SOL     OW30679   1.064   2.029   2.370
 9927SOL    HW130680   1.105   1.946   2.333
 9927SOL    HW230681   1.021   2.008   2.458
 9928SOL     OW30682   0.313   4.577   1.868
 9928SOL    HW130683   0.240   4.641   1.843
 9928SOL    HW230684   0.279   4.511   1.934
 9929SOL     OW30685   3.110   4.226   5.273
 9929SOL    HW130686   3.170   4.302   5.296
 9929SOL    HW230687   3.147   4.177   5.194
 9930SOL     OW30688   0.204   0.565   5.650
 9930SOL    HW130689   0.296   0.552   5.613
 9930SOL    HW230690   0.138   0.511   5.597
 9931SOL     OW30691   0.591   6.208   4.431
 9931SOL    HW130692   0.601   6.230   4.528
 9931SOL    HW230693   0.679   6.177   4.394
 9932SOL     OW30694   1.609   1.943   0.498
 9932SOL    HW130695   1.668   2.023   0.509
 9932SOL    HW230696   1.558   1.927   0.582
 9933SOL     OW30697   2.339   0.715   3.761
 9933SOL    HW130698   2.311   0.620   3.775
 9933SOL    HW230699   2.438   0.719   3.746
 9934SOL     OW30700   5.948   1.343   0.417
 9934SOL    HW130701   5.997   1.428   0.434
 9934SOL    HW230702   5.851   1.362   0.403
 9935SOL     OW30703   3.244   2.662   0.980
 9935SOL    HW130704   3.238   2.624   1.072
 9935SOL    HW230705   3.161   2.638   0.929
 9936SOL     OW30706   5.223   4.954   5.857
 9936SOL    HW130707   5.289   4.934   5.784
 9936SOL    HW230708   5.201   4.870   5.906
 9937SOL     OW30709   6.944   0.330   3.032
 9937SOL    HW130710   6.930   0.338   3.131
 9937SOL    HW230711   7.000   0.250   3.012
 9938SOL     OW30712   5.913   1.208   4.725
 9938SOL    HW130713   5.879   1.290   4.679
 9938SOL    HW230714   5.843   1.174   4.788
 9939SOL     OW30715   1.385   3.652   0.815
 9939SOL    HW130716   1.444   3.673   0.893
 9939SOL    HW230717   1.435   3.669   0.730
 9940SOL     OW30718   6.545   7.014   3.473
 9940SOL    HW130719   6.541   0.088   3.473
 9940SOL    HW230720   6.633   6.984   3.510
 9941SOL     OW30721   3.832   4.995   5.623
 9941SOL    HW130722   3.907   4.953   5.674
 9941SOL    HW230723   3.748   4.943   5.637
 9942SOL     OW30724   4.994   5.410   2.572
 9942SOL    HW130725   5.056   5.332   2.580
 9942SOL    HW230726   4.908   5.389   2.619
 9943SOL     OW30727   1.615   3.979   6.216
 9943SOL    HW130728   1.546   3.908   6.205
 9943SOL    HW230729   1.630   4.024   6.128
 9944SOL     OW30730   1.142   5.214   6.551
 9944SOL    HW130731   1.091   5.166   6.622
 9944SOL    HW230732   1.106   5.306   6.540
 9945SOL     OW30733   6.497   3.782   6.401
 9945SOL    HW130734   6.522   3.719   6.327
 9945SOL    HW230735   6.422   3.743   6.455
 9946SOL     OW30736   5.577   0.684   3.098
 9946SOL    HW130737   5.618   0.768   3.132
 9946SOL    HW230738   5.649   0.616   3.081
 9947SOL     OW30739   1.128   1.985   4.015
 9947SOL    HW130740   1.156   2.044   4.090
 9947SOL    HW230741   1.028   1.975   4.015
 9948SOL     OW30742   6.806   6.750   5.037
 9948SOL    HW130743   6.763   6.722   5.123
 9948SOL    HW230744   6.748   6.722   4.960
 9949SOL     OW30745   0.083   4.468   4.729
 9949SOL    HW130746   0.097   4.479   4.631
 9949SOL    HW230747   0.106   4.553   4.776
 9950SOL     OW30748   6.267   4.714   6.631
 9950SOL    HW130749   6.351   4.675   6.593
 9950SOL    HW230750   6.190   4.692   6.570
 9951SOL     OW30751   1.682   3.224   2.634
 9951SOL    HW130752   1.604   3.173   2.597
 9951SOL    HW230753   1.754   3.161   2.662
 9952SOL     OW30754   0.810   3.738   1.559
 9952SOL    HW130755   0.879   3.720   1.629
 9952SOL    HW230756   0.728   3.777   1.601
 9953SOL     OW30757   6.384   2.928   3.645
 9953SOL    HW130758   6.416   2.907   3.553
 9953SOL    HW230759   6.399   3.026   3.663
 9954SOL     OW30760   2.636   1.714   5.155
 9954SOL    HW130761   2.566   1.700   5.226
 9954SOL    HW230762   2.716   1.659   5.176
 9955SOL     OW30763   4.434   3.399   0.102
 9955SOL    HW130764   4.439   3.359   0.193
 9955SOL    HW230765   4.479   3.339   0.037
 9956SOL     OW30766   0.547   4.026   2.407
 9956SOL    HW130767   0.606   3.958   2.364
 9956SOL    HW230768   0.483   3.980   2.469
 9957SOL     OW30769   5.871   0.053   1.607
 9957SOL    HW130770   5.829   0.004   1.531
 9957SOL    HW230771   5.929   7.017   1.659
 9958SOL     OW30772   3.571   5.038   6.269
 9958SOL    HW130773   3.514   4.965   6.305
 9958SOL    HW230774   3.520   5.124   6.272
 9959SOL     OW30775   4.662   3.723   1.586
 9959SOL    HW130776   4.601   3.646   1.567
 9959SOL    HW230777   4.756   3.696   1.565
 9960SOL     OW30778   6.493   0.086   1.291
 9960SOL    HW130779   6.589   0.081   1.264
 9960SOL    HW230780   6.476   0.018   1.363
 9961SOL     OW30781   1.310   4.407   1.862
 9961SOL    HW130782   1.245   4.444   1.796
 9961SOL    HW230783   1.287   4.440   1.954
 9962SOL     OW30784   3.711   6.744   1.909
 9962SOL    HW130785   3.666   6.688   1.840
 9962SOL    HW230786   3.692   6.841   1.891
 9963SOL     OW30787   2.892   2.354   0.304
 9963SOL    HW130788   2.970   2.372   0.244
 9963SOL    HW230789   2.863   2.259   0.296
 9964SOL     OW30790   4.291   4.861   5.566
 9964SOL    HW130791   4.308   4.782   5.507
 9964SOL    HW230792   4.299   4.945   5.512
 9965SOL     OW30793   3.448   5.818   5.124
 9965SOL    HW130794   3.389   5.748   5.083
 9965SOL    HW230795   3.542   5.783   5.129
 9966SOL     OW30796   3.069   4.864   2.340
 9966SOL    HW130797   2.997   4.818   2.393
 9966SOL    HW230798   3.064   4.835   2.245
 9967SOL     OW30799   6.074   6.465   2.469
 9967SOL    HW130800   6.043   6.448   2.562
 9967SOL    HW230801   5.995   6.460   2.407
 9968SOL     OW30802   4.294   5.802   6.737
 9968SOL    HW130803   4.359   5.785   6.663
 9968SOL    HW230804   4.202   5.811   6.699
 9969SOL     OW30805   1.124   4.463   4.548
 9969SOL    HW130806   1.150   4.560   4.545
 9969SOL    HW230807   1.192   4.412   4.600
 9970SOL     OW30808   5.447   5.108   1.463
 9970SOL    HW130809   5.410   5.103   1.556
 9970SOL    HW230810   5.516   5.181   1.459
 9971SOL     OW30811   1.593   2.834   1.189
 9971SOL    HW130812   1.495   2.817   1.206
 9971SOL    HW230813   1.616   2.926   1.219
 9972SOL     OW30814   3.463   4.304   1.153
 9972SOL    HW130815   3.372   4.317   1.193
 9972SOL    HW230816   3.461   4.326   1.056
 9973SOL     OW30817   4.637   2.660   4.914
 9973SOL    HW130818   4.549   2.620   4.887
 9973SOL    HW230819   4.708   2.630   4.850
 9974SOL     OW30820   6.559   2.087   3.332
 9974SOL    HW130821   6.523   2.124   3.246
 9974SOL    HW230822   6.483   2.058   3.390
 9975SOL     OW30823   0.591   5.263   6.649
 9975SOL    HW130824   0.558   5.190   6.589
 9975SOL    HW230825   0.515   5.321   6.677
 9976SOL     OW30826   1.255   5.045   5.926
 9976SOL    HW130827   1.353   5.026   5.931
 9976SOL    HW230828   1.204   4.969   5.966
 9977SOL     OW30829   5.154   5.231   5.271
 9977SOL    HW130830   5.205   5.152   5.306
 9977SOL    HW230831   5.142   5.298   5.345
 9978SOL     OW30832   0.272   2.340   5.965
 9978SOL    HW130833   0.217   2.337   6.048
 9978SOL    HW230834   0.225   2.291   5.892
 9979SOL     OW30835   5.415   3.837   5.988
 9979SOL    HW130836   5.468   3.802   6.065
 9979SOL    HW230837   5.323   3.798   5.990
 9980SOL     OW30838   1.930   0.947   0.413
 9980SOL    HW130839   1.880   1.032   0.431
 9980SOL    HW230840   1.909   0.880   0.485
 9981SOL     OW30841   1.580   2.167   0.702
 9981SOL    HW130842   1.583   2.183   0.800
 9981SOL    HW230843   1.673   2.159   0.666
 9982SOL     OW30844   1.921   1.293   4.493
 9982SOL    HW130845   1.823   1.302   4.475
 9982SOL    HW230846   1.972   1.346   4.425
 9983SOL     OW30847   6.417   2.730   2.538
 9983SOL    HW130848   6.482   2.775   2.598
 9983SOL    HW230849   6.405   2.635   2.566
 9984SOL     OW30850   0.163   6.059   0.899
 9984SOL    HW130851   0.262   6.065   0.913
 9984SOL    HW230852   0.117   6.115   0.968
 9985SOL     OW30853   3.168   5.306   1.217
 9985SOL    HW130854   3.193   5.391   1.265
 9985SOL    HW230855   3.122   5.329   1.131
 9986SOL     OW30856   5.985   4.374   0.824
 9986SOL    HW130857   5.903   4.344   0.776
 9986SOL    HW230858   6.017   4.460   0.784
 9987SOL     OW30859   5.316   3.196   1.686
 9987SOL    HW130860   5.391   3.169   1.746
 9987SOL    HW230861   5.351   3.207   1.593
 9988SOL     OW30862   0.042   5.296   4.598
 9988SOL    HW130863   6.991   5.353   4.572
 9988SOL    HW230864   0.073   5.243   4.519
 9989SOL     OW30865   6.143   3.526   2.191
 9989SOL    HW130866   6.192   3.496   2.109
 9989SOL    HW230867   6.132   3.626   2.188
 9990SOL     OW30868   1.031   6.374   3.478
 9990SOL    HW130869   1.052   6.299   3.541
 9990SOL    HW230870   0.968   6.438   3.522
 9991SOL     OW30871   1.669   3.412   3.792
 9991SOL    HW130872   1.610   3.346   3.839
 9991SOL    HW230873   1.685   3.490   3.852
 9992SOL     OW30874   3.169   3.947   1.180
 9992SOL    HW130875   3.154   3.872   1.116
 9992SOL    HW230876   3.264   3.977   1.174
 9993SOL     OW30877   3.157   6.444   3.968
 9993SOL    HW130878   3.225   6.388   4.016
 9993SOL    HW230879   3.128   6.398   3.885
 9994SOL     OW30880   6.948   4.096   3.259
 9994SOL    HW130881   7.020   4.157   3.225
 9994SOL    HW230882   6.890   4.146   3.323
 9995SOL     OW30883   3.252   1.038   3.121
 9995SOL    HW130884   3.179   1.089   3.168
 9995SOL    HW230885   3.214   0.952   3.085
 9996SOL     OW30886   3.320   3.975   0.763
 9996SOL    HW130887   3.377   3.946   0.685
 9996SOL    HW230888   3.232   3.927   0.759
 9997SOL     OW30889   4.793   1.491   3.415
 9997SOL    HW130890   4.850   1.549   3.357
 9997SOL    HW230891   4.771   1.407   3.366
 9998SOL     OW30892   4.911   3.789   2.582
 9998SOL    HW130893   4.853   3.849   2.638
 9998SOL    HW230894   4.858   3.755   2.504
 9999SOL     OW30895   6.924   6.598   4.454
 9999SOL    HW130896   6.897   6.577   4.548
 9999SOL    HW230897   7.004   6.543   4.429
10000SOL     OW30898   5.859   1.536   1.596
10000SOL    HW130899   5.912   1.517   1.679
10000SOL    HW230900   5.800   1.457   1.576
10001SOL     OW30901   3.410   6.238   2.280
10001SOL    HW130902   3.399   6.281   2.190
10001SOL    HW230903   3.507   6.237   2.305
10002SOL     OW30904   2.679   1.642   1.417
10002SOL    HW130905   2.759   1.605   1.369
10002SOL    HW230906   2.653   1.730   1.378
10003SOL     OW30907   3.392   1.709   2.299
10003SOL    HW130908   3.409   1.803   2.327
10003SOL    HW230909   3.479   1.659   2.296
10004SOL     OW30910   5.216   4.075   4.607
10004SOL    HW130911   5.231   3.977   4.597
10004SOL    HW230912   5.292   4.116   4.658
10005SOL     OW30913   3.462   5.431   2.582
10005SOL    HW130914   3.473   5.474   2.671
10005SOL    HW230915   3.395   5.357   2.588
10006SOL     OW30916   5.132   0.303   5.224
10006SOL    HW130917   5.098   0.266   5.311
10006SOL    HW230918   5.163   0.398   5.238
10007SOL     OW30919   0.682   3.522   4.669
10007SOL    HW130920   0.608   3.568   4.719
10007SOL    HW230921   0.709   3.578   4.591
10008SOL     OW30922   4.968   1.869   3.700
10008SOL    HW130923   4.927   1.890   3.611
10008SOL    HW230924   5.028   1.943   3.727
10009SOL     OW30925   1.476   4.334   1.529
10009SOL    HW130926   1.562   4.283   1.540
10009SOL    HW230927   1.488   4.427   1.564
10010SOL     OW30928   3.057   5.852   6.910
10010SOL    HW130929   3.156   5.861   6.917
10010SOL    HW230930   3.032   5.816   6.820
10011SOL     OW30931   0.395   4.045   6.835
10011SOL    HW130932   0.450   4.086   6.762
10011SOL    HW230933   0.300   4.039   6.805
10012SOL     OW30934   4.735   0.286   2.740
10012SOL    HW130935   4.811   0.313   2.681
10012SOL    HW230936   4.658   0.258   2.683
10013SOL     OW30937   0.833   4.124   3.695
10013SOL    HW130938   0.821   4.076   3.608
10013SOL    HW230939   0.872   4.062   3.762
10014SOL     OW30940   1.405   6.768   2.135
10014SOL    HW130941   1.502   6.793   2.125
10014SOL    HW230942   1.350   6.822   2.072
10015SOL     OW30943   4.037   5.120   0.417
10015SOL    HW130944   4.053   5.174   0.334
10015SOL    HW230945   3.939   5.115   0.435
10016SOL     OW30946   2.358   1.374   4.907
10016SOL    HW130947   2.343   1.347   4.812
10016SOL    HW230948   2.367   1.474   4.912
10017SOL     OW30949   1.826   1.230   3.051
10017SOL    HW130950   1.899   1.176   3.010
10017SOL    HW230951   1.776   1.174   3.117
10018SOL     OW30952   6.465   4.152   5.558
10018SOL    HW130953   6.559   4.168   5.586
10018SOL    HW230954   6.403   4.170   5.635
10019SOL     OW30955   0.518   1.288   3.332
10019SOL    HW130956   0.425   1.287   3.295
10019SOL    HW230957   0.580   1.330   3.266
10020SOL     OW30958   0.378   1.026   2.112
10020SOL    HW130959   0.462   1.080   2.098
10020SOL    HW230960   0.402   0.934   2.144
10021SOL     OW30961   0.951   3.119   2.114
10021SOL    HW130962   0.872   3.093   2.169
10021SOL    HW230963   1.016   3.043   2.110
10022SOL     OW30964   2.948   5.521   0.591
10022SOL    HW130965   2.933   5.618   0.570
10022SOL    HW230966   2.955   5.470   0.505
10023SOL     OW30967   2.662   5.474   5.237
10023SOL    HW130968   2.565   5.480   5.263
10023SOL    HW230969   2.691   5.378   5.239
10024SOL     OW30970   0.728   5.212   2.948
10024SOL    HW130971   0.656   5.146   2.930
10024SOL    HW230972   0.802   5.168   2.999
10025SOL     OW30973   1.451   3.075   2.557
10025SOL    HW130974   1.415   3.073   2.650
10025SOL    HW230975   1.383   3.115   2.496
10026SOL     OW30976   5.099   6.988   3.643
10026SOL    HW130977   5.181   0.003   3.602
10026SOL    HW230978   5.094   7.012   3.739
10027SOL     OW30979   0.486   2.213   5.158
10027SOL    HW130980   0.533   2.189   5.073
10027SOL    HW230981   0.485   2.313   5.168
10028SOL     OW30982   2.396   1.453   1.189
10028SOL    HW130983   2.311   1.485   1.146
10028SOL    HW230984   2.453   1.532   1.213
10029SOL     OW30985   1.415   3.042   3.718
10029SOL    HW130986   1.444   3.079   3.807
10029SOL    HW230987   1.486   3.061   3.650
10030SOL     OW30988   3.563   0.451   5.131
10030SOL    HW130989   3.615   0.516   5.076
10030SOL    HW230990   3.518   0.385   5.070
10031SOL     OW30991   4.827   5.061   4.608
10031SOL    HW130992   4.852   4.965   4.602
10031SOL    HW230993   4.907   5.115   4.633
10032SOL     OW30994   4.039   0.282   5.930
10032SOL    HW130995   4.116   0.222   5.910
10032SOL    HW230996   3.991   0.248   6.011
10033SOL     OW30997   4.794   2.021   4.503
10033SOL    HW130998   4.708   2.060   4.536
10033SOL    HW230999   4.819   1.944   4.561
10034SOL     OW31000   2.090   1.092   3.950
10034SOL    HW131001   2.035   1.175   3.944
10034SOL    HW231002   2.163   1.105   4.017
10035SOL     OW31003   6.261   4.152   0.410
10035SOL    HW131004   6.311   4.175   0.326
10035SOL    HW231005   6.317   4.091   0.466
10036SOL     OW31006   6.893   0.722   0.768
10036SOL    HW131007   6.922   0.733   0.673
10036SOL    HW231008   6.844   0.636   0.778
10037SOL     OW31009   6.207   6.863   6.802
10037SOL    HW131010   6.220   6.849   6.900
10037SOL    HW231011   6.118   6.906   6.785
10038SOL     OW31012   4.588   0.158   6.019
10038SOL    HW131013   4.550   0.088   6.078
10038SOL    HW231014   4.579   0.130   5.923
10039SOL     OW31015   5.412   6.445   5.378
10039SOL    HW131016   5.423   6.437   5.477
10039SOL    HW231017   5.433   6.539   5.349
10040SOL     OW31018   4.390   6.423   5.753
10040SOL    HW131019   4.368   6.341   5.805
10040SOL    HW231020   4.323   6.436   5.680
10041SOL     OW31021   5.583   5.443   6.515
10041SOL    HW131022   5.682   5.437   6.499
10041SOL    HW231023   5.562   5.533   6.555
10042SOL     OW31024   0.441   1.096   5.299
10042SOL    HW131025   0.357   1.148   5.316
10042SOL    HW231026   0.417   1.001   5.277
10043SOL     OW31027   0.725   0.989   3.993
10043SOL    HW131028   0.797   1.028   3.936
10043SOL    HW231029   0.681   0.914   3.943
10044SOL     OW31030   2.971   2.215   3.452
10044SOL    HW131031   3.024   2.137   3.420
10044SOL    HW231032   2.998   2.239   3.545
10045SOL     OW31033   5.012   0.034   3.907
10045SOL    HW131034   5.046   0.124   3.878
10045SOL    HW231035   5.043   0.017   4.001
10046SOL     OW31036   1.631   2.370   1.380
10046SOL    HW131037   1.537   2.386   1.349
10046SOL    HW231038   1.687   2.337   1.304
10047SOL     OW31039   5.736   3.188   4.938
10047SOL    HW131040   5.706   3.260   5.001
10047SOL    HW231041   5.713   3.214   4.844
10048SOL     OW31042   3.761   1.959   2.410
10048SOL    HW131043   3.805   2.042   2.375
10048SOL    HW231044   3.794   1.940   2.503
10049SOL     OW31045   0.448   0.836   6.966
10049SOL    HW131046   0.365   0.877   6.928
10049SOL    HW231047   0.458   0.864   0.035
10050SOL     OW31048   6.559   2.525   5.019
10050SOL    HW131049   6.638   2.560   4.969
10050SOL    HW231050   6.589   2.486   5.106
10051SOL     OW31051   6.068   2.100   5.073
10051SOL    HW131052   6.147   2.161   5.064
10051SOL    HW231053   5.984   2.151   5.053
10052SOL     OW31054   2.512   2.527   2.498
10052SOL    HW131055   2.466   2.548   2.584
10052SOL    HW231056   2.589   2.465   2.516
10053SOL     OW31057   3.672   5.230   1.614
10053SOL    HW131058   3.767   5.259   1.628
10053SOL    HW231059   3.627   5.220   1.703
10054SOL     OW31060   4.132   5.675   5.982
10054SOL    HW131061   4.138   5.625   5.895
10054SOL    HW231062   4.072   5.754   5.971
10055SOL     OW31063   5.526   2.077   5.617
10055SOL    HW131064   5.569   2.027   5.541
10055SOL    HW231065   5.556   2.172   5.615
10056SOL     OW31066   6.771   5.209   1.012
10056SOL    HW131067   6.726   5.223   0.923
10056SOL    HW231068   6.743   5.120   1.049
10057SOL     OW31069   3.850   1.426   4.414
10057SOL    HW131070   3.899   1.456   4.496
10057SOL    HW231071   3.752   1.424   4.432
10058SOL     OW31072   0.131   3.710   4.710
10058SOL    HW131073   0.198   3.765   4.661
10058SOL    HW231074   0.039   3.745   4.692
10059SOL     OW31075   5.236   6.064   0.661
10059SOL    HW131076   5.292   5.997   0.612
10059SOL    HW231077   5.216   6.141   0.601
10060SOL     OW31078   2.349   1.431   2.335
10060SOL    HW131079   2.379   1.365   2.266
10060SOL    HW231080   2.347   1.388   2.425
10061SOL     OW31081   5.222   1.011   4.622
10061SOL    HW131082   5.211   0.912   4.622
10061SOL    HW231083   5.292   1.037   4.556
10062SOL     OW31084   6.242   6.592   4.864
10062SOL    HW131085   6.216   6.503   4.826
10062SOL    HW231086   6.263   6.583   4.961
10063SOL     OW31087   1.657   1.625   3.782
10063SOL    HW131088   1.599   1.641   3.862
10063SOL    HW231089   1.615   1.555   3.724
10064SOL     OW31090   5.155   6.137   6.800
10064SOL    HW131091   5.097   6.217   6.817
10064SOL    HW231092   5.241   6.167   6.758
10065SOL     OW31093   2.025   0.863   2.188
10065SOL    HW131094   2.015   0.909   2.100
10065SOL    HW231095   1.940   0.872   2.240
10066SOL     OW31096   1.669   1.214   3.935
10066SOL    HW131097   1.599   1.279   3.963
10066SOL    HW231098   1.745   1.264   3.893
10067SOL     OW31099   6.090   3.988   5.179
10067SOL    HW131100   6.020   3.917   5.193
10067SOL    HW231101   6.148   3.962   5.102
10068SOL     OW31102   6.285   3.347   3.648
10068SOL    HW131103   6.239   3.291   3.578
10068SOL    HW231104   6.218   3.409   3.689
10069SOL     OW31105   1.875   5.043   3.608
10069SOL    HW131106   1.838   5.082   3.692
10069SOL    HW231107   1.841   5.095   3.530
10070SOL     OW31108   7.026   0.108   5.355
10070SOL    HW131109   6.931   0.110   5.325
10070SOL    HW231110   0.042   0.022   5.325
10071SOL     OW31111   5.407   5.636   3.690
10071SOL    HW131112   5.377   5.647   3.785
10071SOL    HW231113   5.493   5.685   3.677
10072SOL     OW31114   0.208   5.852   3.721
10072SOL    HW131115   0.142   5.871   3.794
10072SOL    HW231116   0.182   5.768   3.674
10073SOL     OW31117   5.796   4.919   4.607
10073SOL    HW131118   5.866   4.862   4.649
10073SOL    HW231119   5.765   4.876   4.522
10074SOL     OW31120   1.498   1.189   5.167
10074SOL    HW131121   1.501   1.091   5.186
10074SOL    HW231122   1.589   1.229   5.179
10075SOL     OW31123   1.167   2.448   2.690
10075SOL    HW131124   1.243   2.383   2.681
10075SOL    HW231125   1.203   2.538   2.716
10076SOL     OW31126   6.048   7.011   4.161
10076SOL    HW131127   6.086   6.920   4.143
10076SOL    HW231128   5.948   7.007   4.154
10077SOL     OW31129   3.615   2.883   6.179
10077SOL    HW131130   3.658   2.824   6.247
10077SOL    HW231131   3.675   2.892   6.099
10078SOL     OW31132   0.170   6.120   3.973
10078SOL    HW131133   0.140   6.193   4.034
10078SOL    HW231134   0.096   6.098   3.909
10079SOL     OW31135   0.735   3.384   2.282
10079SOL    HW131136   0.711   3.443   2.359
10079SOL    HW231137   0.653   3.338   2.248
10080SOL     OW31138   3.602   1.316   5.471
10080SOL    HW131139   3.698   1.319   5.442
10080SOL    HW231140   3.545   1.360   5.402
10081SOL     OW31141   0.788   0.816   0.452
10081SOL    HW131142   0.713   0.832   0.515
10081SOL    HW231143   0.755   0.824   0.358
10082SOL     OW31144   0.116   4.672   2.389
10082SOL    HW131145   0.199   4.710   2.348
10082SOL    HW231146   0.044   4.665   2.320
10083SOL     OW31147   5.015   0.601   3.297
10083SOL    HW131148   5.107   0.638   3.307
10083SOL    HW231149   4.972   0.595   3.387
10084SOL     OW31150   3.212   1.369   6.475
10084SOL    HW131151   3.134   1.318   6.512
10084SOL    HW231152   3.282   1.304   6.444
10085SOL     OW31153   1.000   6.630   2.242
10085SOL    HW131154   1.093   6.593   2.248
10085SOL    HW231155   0.935   6.559   2.270
10086SOL     OW31156   5.852   4.918   1.738
10086SOL    HW131157   5.757   4.902   1.711
10086SOL    HW231158   5.913   4.865   1.678
10087SOL     OW31159   6.848   6.868   4.060
10087SOL    HW131160   6.754   6.841   4.038
10087SOL    HW231161   6.905   6.860   3.978
10088SOL     OW31162   6.969   0.397   6.948
10088SOL    HW131163   7.017   0.457   6.884
10088SOL    HW231164   6.905   0.451   7.003
10089SOL     OW31165   2.733   2.378   3.055
10089SOL    HW131166   2.743   2.297   3.113
10089SOL    HW231167   2.767   2.357   2.963
10090SOL     OW31168   1.400   4.865   1.061
10090SOL    HW131169   1.323   4.804   1.081
10090SOL    HW231170   1.388   4.906   0.971
10091SOL     OW31171   1.581   3.005   5.389
10091SOL    HW131172   1.583   2.970   5.483
10091SOL    HW231173   1.493   2.983   5.347
10092SOL     OW31174   1.914   3.580   5.150
10092SOL    HW131175   1.982   3.530   5.096
10092SOL    HW231176   1.958   3.657   5.196
10093SOL     OW31177   0.305   4.094   4.792
10093SOL    HW131178   0.385   4.066   4.846
10093SOL    HW231179   0.325   4.083   4.695
10094SOL     OW31180   1.519   6.075   2.101
10094SOL    HW131181   1.585   6.046   2.170
10094SOL    HW231182   1.559   6.066   2.010
10095SOL     OW31183   5.851   1.642   5.213
10095SOL    HW131184   5.904   1.571   5.167
10095SOL    HW231185   5.866   1.730   5.167
10096SOL     OW31186   5.450   5.106   2.396
10096SOL    HW131187   5.403   5.166   2.461
10096SOL    HW231188   5.382   5.058   2.340
10097SOL     OW31189   1.101   1.188   0.052
10097SOL    HW131190   1.138   1.234   0.132
10097SOL    HW231191   1.011   1.152   0.073
10098SOL     OW31192   2.538   0.810   5.092
10098SOL    HW131193   2.497   0.830   5.181
10098SOL    HW231194   2.573   0.895   5.052
10099SOL     OW31195   6.888   5.084   0.304
10099SOL    HW131196   6.967   5.059   0.360
10099SOL    HW231197   6.920   5.106   0.211
10100SOL     OW31198   4.629   0.262   4.716
10100SOL    HW131199   4.727   0.278   4.705
10100SOL    HW231200   4.609   0.165   4.704
10101SOL     OW31201   6.216   3.720   1.267
10101SOL    HW131202   6.258   3.787   1.328
10101SOL    HW231203   6.131   3.758   1.229
10102SOL     OW31204   1.425   0.827   2.475
10102SOL    HW131205   1.463   0.737   2.456
10102SOL    HW231206   1.493   0.897   2.453
10103SOL     OW31207   2.323   1.641   6.112
10103SOL    HW131208   2.380   1.718   6.140
10103SOL    HW231209   2.273   1.605   6.191
10104SOL     OW31210   1.291   2.767   4.565
10104SOL    HW131211   1.386   2.788   4.542
10104SOL    HW231212   1.250   2.715   4.490
10105SOL     OW31213   1.461   0.669   0.021
10105SOL    HW131214   1.366   0.663   7.018
10105SOL    HW231215   1.473   0.616   0.105
10106SOL     OW31216   4.373   6.492   0.890
10106SOL    HW131217   4.465   6.516   0.860
10106SOL    HW231218   4.362   6.515   0.987
10107SOL     OW31219   0.322   1.405   6.756
10107SOL    HW131220   0.257   1.335   6.785
10107SOL    HW231221   0.305   1.429   6.660
10108SOL     OW31222   6.693   6.562   0.383
10108SOL    HW131223   6.690   6.639   0.447
10108SOL    HW231224   6.669   6.593   0.292
10109SOL     OW31225   4.239   0.118   1.308
10109SOL    HW131226   4.252   0.218   1.302
10109SOL    HW231227   4.222   0.082   1.216
10110SOL     OW31228   4.759   6.106   4.818
10110SOL    HW131229   4.758   6.162   4.901
10110SOL    HW231230   4.666   6.076   4.797
10111SOL     OW31231   5.368   3.929   3.454
10111SOL    HW131232   5.287   3.904   3.400
10111SOL    HW231233   5.450   3.915   3.400
10112SOL     OW31234   5.769   3.743   3.873
10112SOL    HW131235   5.696   3.724   3.808
10112SOL    HW231236   5.770   3.841   3.894
10113SOL     OW31237   4.302   6.797   5.169
10113SOL    HW131238   4.235   6.735   5.129
10113SOL    HW231239   4.392   6.776   5.132
10114SOL     OW31240   5.549   0.939   1.178
10114SOL    HW131241   5.469   0.970   1.126
10114SOL    HW231242   5.575   0.848   1.147
10115SOL     OW31243   3.534   1.398   4.127
10115SOL    HW131244   3.448   1.347   4.130
10115SOL    HW231245   3.568   1.399   4.033
10116SOL     OW31246   6.932   6.082   0.368
10116SOL    HW131247   6.858   6.141   0.333
10116SOL    HW231248   7.009   6.140   0.395
10117SOL     OW31249   0.312   6.653   5.026
10117SOL    HW131250   0.399   6.699   5.043
10117SOL    HW231251   0.267   6.694   4.947
10118SOL     OW31252   1.456   5.073   3.044
10118SOL    HW131253   1.446   4.982   3.084
10118SOL    HW231254   1.546   5.110   3.069
10119SOL     OW31255   0.473   6.293   4.178
10119SOL    HW131256   0.495   6.242   4.261
10119SOL    HW231257   0.525   6.378   4.176
10120SOL     OW31258   1.677   4.161   4.926
10120SOL    HW131259   1.608   4.093   4.899
10120SOL    HW231260   1.766   4.117   4.937
10121SOL     OW31261   6.458   4.502   6.322
10121SOL    HW131262   6.507   4.419   6.351
10121SOL    HW231263   6.362   4.480   6.305
10122SOL     OW31264   6.012   2.810   0.983
10122SOL    HW131265   6.082   2.741   0.963
10122SOL    HW231266   5.983   2.854   0.898
10123SOL     OW31267   6.167   0.083   0.153
10123SOL    HW131268   6.098   0.121   0.214
10123SOL    HW231269   6.208   0.156   0.098
10124SOL     OW31270   2.151   3.627   6.818
10124SOL    HW131271   2.207   3.690   6.764
10124SOL    HW231272   2.086   3.679   6.873
10125SOL     OW31273   1.596   1.075   2.516
10125SOL    HW131274   1.684   1.084   2.469
10125SOL    HW231275   1.606   1.015   2.595
10126SOL     OW31276   0.498   6.772   5.839
10126SOL    HW131277   0.587   6.755   5.797
10126SOL    HW231278   0.511   6.799   5.934
10127SOL     OW31279   2.298   4.395   6.330
10127SOL    HW131280   2.264   4.344   6.251
10127SOL    HW231281   2.314   4.333   6.406
10128SOL     OW31282   1.826   0.951   1.378
10128SOL    HW131283   1.862   1.021   1.316
10128SOL    HW231284   1.891   0.936   1.452
10129SOL     OW31285   6.115   2.583   3.347
10129SOL    HW131286   6.048   2.626   3.407
10129SOL    HW231287   6.068   2.546   3.266
10130SOL     OW31288   1.798   3.925   2.233
10130SOL    HW131289   1.866   3.995   2.212
10130SOL    HW231290   1.752   3.948   2.319
10131SOL     OW31291   0.659   0.265   3.957
10131SOL    HW131292   0.589   0.329   3.924
10131SOL    HW231293   0.726   0.249   3.884
10132SOL     OW31294   3.246   6.889   4.835
10132SOL    HW131295   3.330   6.840   4.812
10132SOL    HW231296   3.258   6.936   4.922
10133SOL     OW31297   4.824   6.449   1.462
10133SOL    HW131298   4.867   6.536   1.438
10133SOL    HW231299   4.754   6.464   1.532
10134SOL     OW31300   6.983   6.100   3.785
10134SOL    HW131301   6.932   6.117   3.700
10134SOL    HW231302   6.950   6.016   3.827
10135SOL     OW31303   4.901   3.664   3.541
10135SOL    HW131304   4.926   3.602   3.615
10135SOL    HW231305   4.808   3.699   3.558
10136SOL     OW31306   5.235   0.640   3.522
10136SOL    HW131307   5.320   0.605   3.482
10136SOL    HW231308   5.252   0.730   3.562
10137SOL     OW31309   5.716   4.205   4.003
10137SOL    HW131310   5.777   4.145   3.952
10137SOL    HW231311   5.625   4.164   4.008
10138SOL     OW31312   5.114   2.477   0.794
10138SOL    HW131313   5.163   2.563   0.804
10138SOL    HW231314   5.123   2.424   0.878
10139SOL     OW31315   3.751   3.968   3.293
10139SOL    HW131316   3.782   3.998   3.203
10139SOL    HW231317   3.820   3.908   3.334
10140SOL     OW31318   6.215   6.135   6.173
10140SOL    HW131319   6.217   6.234   6.189
10140SOL    HW231320   6.247   6.115   6.081
10141SOL     OW31321   4.136   1.782   4.559
10141SOL    HW131322   4.059   1.834   4.520
10141SOL    HW231323   4.164   1.824   4.645
10142SOL     OW31324   6.162   6.957   4.951
10142SOL    HW131325   6.235   6.923   5.010
10142SOL    HW231326   6.115   6.879   4.907
10143SOL     OW31327   4.448   0.886   0.160
10143SOL    HW131328   4.375   0.951   0.185
10143SOL    HW231329   4.432   0.853   0.067
10144SOL     OW31330   3.641   0.273   6.612
10144SOL    HW131331   3.713   0.240   6.552
10144SOL    HW231332   3.667   0.257   6.707
10145SOL     OW31333   2.952   5.459   5.296
10145SOL    HW131334   2.920   5.365   5.283
10145SOL    HW231335   2.884   5.523   5.260
10146SOL     OW31336   3.931   5.392   4.599
10146SOL    HW131337   3.959   5.386   4.503
10146SOL    HW231338   4.000   5.349   4.657
10147SOL     OW31339   5.301   4.341   5.257
10147SOL    HW131340   5.335   4.319   5.348
10147SOL    HW231341   5.238   4.269   5.227
10148SOL     OW31342   4.415   5.497   6.881
10148SOL    HW131343   4.484   5.567   6.863
10148SOL    HW231344   4.342   5.536   6.937
10149SOL     OW31345   6.059   2.705   0.215
10149SOL    HW131346   6.097   2.752   0.135
10149SOL    HW231347   5.964   2.680   0.198
10150SOL     OW31348   4.041   3.915   0.434
10150SOL    HW131349   4.044   3.890   0.531
10150SOL    HW231350   3.983   3.996   0.422
10151SOL     OW31351   0.885   6.823   6.857
10151SOL    HW131352   0.924   6.732   6.841
10151SOL    HW231353   0.812   6.816   6.925
10152SOL     OW31354   0.063   5.989   4.493
10152SOL    HW131355   0.121   6.045   4.553
10152SOL    HW231356   0.103   5.986   4.401
10153SOL     OW31357   4.895   6.264   3.969
10153SOL    HW131358   4.946   6.279   4.054
10153SOL    HW231359   4.856   6.172   3.969
10154SOL     OW31360   5.266   6.926   5.222
10154SOL    HW131361   5.357   6.919   5.182
10154SOL    HW231362   5.226   7.014   5.198
10155SOL     OW31363   3.874   1.980   5.490
10155SOL    HW131364   3.816   2.058   5.516
10155SOL    HW231365   3.952   2.013   5.437
10156SOL     OW31366   5.675   1.222   3.090
10156SOL    HW131367   5.634   1.306   3.126
10156SOL    HW231368   5.712   1.239   2.999
10157SOL     OW31369   6.547   2.401   6.954
10157SOL    HW131370   6.621   2.333   6.950
10157SOL    HW231371   6.535   2.432   0.022
10158SOL     OW31372   5.801   3.773   1.025
10158SOL    HW131373   5.839   3.689   0.985
10158SOL    HW231374   5.867   3.847   1.016
10159SOL     OW31375   2.948   3.369   0.086
10159SOL    HW131376   2.919   3.409   7.026
10159SOL    HW231377   2.902   3.281   0.098
10160SOL     OW31378   2.160   2.798   1.946
10160SOL    HW131379   2.138   2.835   2.036
10160SOL    HW231380   2.201   2.870   1.889
10161SOL     OW31381   3.013   2.775   6.461
10161SOL    HW131382   2.976   2.866   6.477
10161SOL    HW231383   2.965   2.732   6.385
10162SOL     OW31384   3.551   4.651   0.681
10162SOL    HW131385   3.559   4.653   0.581
10162SOL    HW231386   3.523   4.559   0.711
10163SOL     OW31387   5.979   4.728   6.172
10163SOL    HW131388   5.920   4.660   6.129
10163SOL    HW231389   5.952   4.740   6.268
10164SOL     OW31390   5.707   4.097   4.774
10164SOL    HW131391   5.793   4.063   4.813
10164SOL    HW231392   5.659   4.152   4.842
10165SOL     OW31393   0.180   1.916   3.255
10165SOL    HW131394   0.162   1.869   3.341
10165SOL    HW231395   0.103   1.977   3.233
10166SOL     OW31396   3.469   2.068   1.718
10166SOL    HW131397   3.408   1.992   1.697
10166SOL    HW231398   3.417   2.154   1.719
10167SOL     OW31399   2.591   3.345   6.857
10167SOL    HW131400   2.612   3.251   6.830
10167SOL    HW231401   2.493   3.363   6.845
10168SOL     OW31402   6.115   3.625   5.755
10168SOL    HW131403   6.156   3.610   5.664
10168SOL    HW231404   6.027   3.578   5.760
10169SOL     OW31405   6.936   3.996   3.609
10169SOL    HW131406   6.908   3.915   3.662
10169SOL    HW231407   6.856   4.034   3.563
10170SOL     OW31408   0.899   5.275   5.301
10170SOL    HW131409   0.912   5.185   5.343
10170SOL    HW231410   0.910   5.346   5.371
10171SOL     OW31411   6.661   2.387   5.250
10171SOL    HW131412   6.656   2.293   5.215
10171SOL    HW231413   6.589   2.401   5.318
10172SOL     OW31414   0.026   6.626   5.151
10172SOL    HW131415   0.111   6.635   5.099
10172SOL    HW231416   6.976   6.660   5.097
10173SOL     OW31417   1.235   3.408   1.867
10173SOL    HW131418   1.237   3.442   1.773
10173SOL    HW231419   1.252   3.310   1.867
10174SOL     OW31420   5.513   5.553   2.795
10174SOL    HW131421   5.565   5.489   2.738
10174SOL    HW231422   5.512   5.643   2.752
10175SOL     OW31423   5.221   1.568   3.868
10175SOL    HW131424   5.309   1.542   3.827
10175SOL    HW231425   5.233   1.652   3.921
10176SOL     OW31426   1.092   3.834   5.219
10176SOL    HW131427   1.085   3.766   5.146
10176SOL    HW231428   1.023   3.815   5.289
10177SOL     OW31429   2.532   0.664   0.779
10177SOL    HW131430   2.473   0.638   0.856
10177SOL    HW231431   2.481   0.722   0.716
10178SOL     OW31432   0.218   0.645   6.149
10178SOL    HW131433   0.305   0.601   6.170
10178SOL    HW231434   0.144   0.601   6.200
10179SOL     OW31435   0.978   1.965   6.820
10179SOL    HW131436   1.051   2.002   6.878
10179SOL    HW231437   0.936   1.886   6.866
10180SOL     OW31438   4.275   0.508   5.785
10180SOL    HW131439   4.336   0.465   5.852
10180SOL    HW231440   4.304   0.602   5.769
10181SOL     OW31441   6.349   2.794   1.495
10181SOL    HW131442   6.425   2.857   1.512
10181SOL    HW231443   6.385   2.709   1.457
10182SOL     OW31444   4.146   1.082   1.565
10182SOL    HW131445   4.189   1.123   1.485
10182SOL    HW231446   4.192   0.995   1.586
10183SOL     OW31447   6.929   2.507   6.577
10183SOL    HW131448   6.831   2.491   6.562
10183SOL    HW231449   6.982   2.450   6.515
10184SOL     OW31450   4.710   0.944   6.397
10184SOL    HW131451   4.643   0.892   6.449
10184SOL    HW231452   4.771   0.881   6.348
10185SOL     OW31453   6.059   6.091   2.128
10185SOL    HW131454   6.059   6.069   2.225
10185SOL    HW231455   6.008   6.021   2.078
10186SOL     OW31456   5.650   3.476   3.836
10186SOL    HW131457   5.723   3.523   3.885
10186SOL    HW231458   5.643   3.512   3.743
10187SOL     OW31459   0.755   3.399   0.470
10187SOL    HW131460   0.727   3.381   0.376
10187SOL    HW231461   0.841   3.352   0.489
10188SOL     OW31462   3.497   5.768   0.561
10188SOL    HW131463   3.512   5.849   0.504
10188SOL    HW231464   3.464   5.797   0.651
10189SOL     OW31465   0.780   1.393   6.142
10189SOL    HW131466   0.753   1.356   6.053
10189SOL    HW231467   0.704   1.446   6.181
10190SOL     OW31468   4.946   3.063   2.046
10190SOL    HW131469   4.860   3.014   2.031
10190SOL    HW231470   4.976   3.104   1.960
10191SOL     OW31471   5.506   5.189   5.763
10191SOL    HW131472   5.587   5.218   5.813
10191SOL    HW231473   5.532   5.129   5.687
10192SOL     OW31474   4.230   1.088   5.244
10192SOL    HW131475   4.181   1.147   5.308
10192SOL    HW231476   4.323   1.122   5.230
10193SOL     OW31477   4.184   3.460   1.765
10193SOL    HW131478   4.155   3.367   1.790
10193SOL    HW231479   4.284   3.462   1.754
10194SOL     OW31480   5.566   5.673   5.890
10194SOL    HW131481   5.640   5.623   5.936
10194SOL    HW231482   5.499   5.703   5.959
10195SOL     OW31483   6.360   5.764   0.683
10195SOL    HW131484   6.450   5.744   0.645
10195SOL    HW231485   6.339   5.698   0.755
10196SOL     OW31486   4.864   1.419   3.661
10196SOL    HW131487   4.824   1.468   3.583
10196SOL    HW231488   4.837   1.323   3.656
10197SOL     OW31489   5.667   1.668   5.706
10197SOL    HW131490   5.716   1.732   5.646
10197SOL    HW231491   5.634   1.591   5.651
10198SOL     OW31492   2.657   6.923   2.239
10198SOL    HW131493   2.703   6.948   2.154
10198SOL    HW231494   2.723   6.884   2.304
10199SOL     OW31495   2.254   3.057   0.251
10199SOL    HW131496   2.299   3.011   0.327
10199SOL    HW231497   2.156   3.038   0.252
10200SOL     OW31498   5.095   2.090   0.104
10200SOL    HW131499   5.075   2.138   0.018
10200SOL    HW231500   5.133   2.154   0.170
10201SOL     OW31501   1.355   4.838   0.792
10201SOL    HW131502   1.359   4.755   0.738
10201SOL    HW231503   1.267   4.884   0.776
10202SOL     OW31504   3.740   4.108   0.452
10202SOL    HW131505   3.831   4.147   0.458
10202SOL    HW231506   3.673   4.181   0.437
10203SOL     OW31507   6.440   3.046   2.910
10203SOL    HW131508   6.341   3.045   2.918
10203SOL    HW231509   6.466   3.086   2.822
10204SOL     OW31510   5.155   6.099   0.059
10204SOL    HW131511   5.217   6.024   0.083
10204SOL    HW231512   5.156   6.112   6.986
10205SOL     OW31513   1.283   0.179   1.475
10205SOL    HW131514   1.253   0.084   1.480
10205SOL    HW231515   1.244   0.222   1.394
10206SOL     OW31516   6.999   0.888   0.262
10206SOL    HW131517   0.031   0.852   0.189
10206SOL    HW231518   0.017   0.967   0.305
10207SOL     OW31519   1.180   2.062   6.969
10207SOL    HW131520   1.241   2.140   6.956
10207SOL    HW231521   1.103   2.089   0.001
10208SOL     OW31522   6.100   4.411   4.231
10208SOL    HW131523   6.076   4.456   4.317
10208SOL    HW231524   6.199   4.399   4.227
10209SOL     OW31525   0.294   0.132   0.410
10209SOL    HW131526   0.337   0.176   0.331
10209SOL    HW231527   0.281   0.200   0.483
10210SOL     OW31528   4.648   6.471   1.681
10210SOL    HW131529   4.701   6.539   1.731
10210SOL    HW231530   4.550   6.493   1.689
10211SOL     OW31531   4.067   6.259   4.803
10211SOL    HW131532   4.001   6.240   4.876
10211SOL    HW231533   4.033   6.336   4.748
10212SOL     OW31534   0.687   0.372   5.303
10212SOL    HW131535   0.780   0.345   5.329
10212SOL    HW231536   0.623   0.302   5.335
10213SOL     OW31537   5.749   3.058   1.495
10213SOL    HW131538   5.833   3.021   1.534
10213SOL    HW231539   5.736   3.153   1.525
10214SOL     OW31540   1.603   1.681   2.369
10214SOL    HW131541   1.596   1.639   2.278
10214SOL    HW231542   1.593   1.781   2.360
10215SOL     OW31543   4.003   3.272   3.269
10215SOL    HW131544   4.040   3.210   3.200
10215SOL    HW231545   3.980   3.360   3.227
10216SOL     OW31546   0.088   1.242   1.623
10216SOL    HW131547   0.114   1.174   1.554
10216SOL    HW231548   0.019   1.203   1.683
10217SOL     OW31549   3.146   1.882   3.015
10217SOL    HW131550   3.163   1.978   2.991
10217SOL    HW231551   3.082   1.842   2.950
10218SOL     OW31552   1.997   1.600   1.442
10218SOL    HW131553   2.067   1.656   1.487
10218SOL    HW231554   2.000   1.617   1.343
10219SOL     OW31555   6.966   1.865   2.719
10219SOL    HW131556   0.020   1.912   2.682
10219SOL    HW231557   6.970   1.768   2.696
10220SOL     OW31558   5.143   2.120   1.055
10220SOL    HW131559   5.131   2.218   1.070
10220SOL    HW231560   5.075   2.069   1.107
10221SOL     OW31561   0.859   4.888   3.409
10221SOL    HW131562   0.771   4.936   3.415
10221SOL    HW231563   0.878   4.843   3.496
10222SOL     OW31564   2.895   3.664   5.718
10222SOL    HW131565   2.857   3.755   5.699
10222SOL    HW231566   2.822   3.596   5.712
10223SOL     OW31567   1.178   5.248   1.415
10223SOL    HW131568   1.214   5.211   1.500
10223SOL    HW231569   1.100   5.194   1.385
10224SOL     OW31570   6.844   3.034   4.871
10224SOL    HW131571   6.838   3.124   4.914
10224SOL    HW231572   6.800   2.966   4.929
10225SOL     OW31573   1.125   5.052   5.663
10225SOL    HW131574   1.171   5.100   5.589
10225SOL    HW231575   1.180   5.057   5.746
10226SOL     OW31576   2.886   1.169   6.129
10226SOL    HW131577   2.829   1.195   6.207
10226SOL    HW231578   2.951   1.243   6.109
10227SOL     OW31579   5.768   5.085   0.851
10227SOL    HW131580   5.821   5.168   0.839
10227SOL    HW231581   5.791   5.020   0.779
10228SOL     OW31582   0.446   6.486   2.116
10228SOL    HW131583   0.408   6.452   2.030
10228SOL    HW231584   0.546   6.479   2.113
10229SOL     OW31585   0.822   3.313   4.930
10229SOL    HW131586   0.908   3.310   4.879
10229SOL    HW231587   0.816   3.400   4.979
10230SOL     OW31588   5.551   6.065   3.070
10230SOL    HW131589   5.550   6.070   3.170
10230SOL    HW231590   5.639   6.030   3.039
10231SOL     OW31591   6.759   5.541   5.542
10231SOL    HW131592   6.794   5.535   5.448
10231SOL    HW231593   6.813   5.609   5.593
10232SOL     OW31594   3.004   1.120   3.275
10232SOL    HW131595   2.989   1.217   3.296
10232SOL    HW231596   2.917   1.071   3.275
10233SOL     OW31597   3.913   4.134   5.133
10233SOL    HW131598   3.981   4.201   5.161
10233SOL    HW231599   3.825   4.155   5.176
10234SOL     OW31600   6.262   1.301   1.596
10234SOL    HW131601   6.214   1.372   1.544
10234SOL    HW231602   6.332   1.259   1.538
10235SOL     OW31603   2.227   3.019   1.811
10235SOL    HW131604   2.246   3.115   1.794
10235SOL    HW231605   2.303   2.963   1.777
10236SOL     OW31606   2.935   0.502   6.894
10236SOL    HW131607   3.025   0.545   6.888
10236SOL    HW231608   2.946   0.403   6.899
10237SOL     OW31609   0.399   3.507   6.833
10237SOL    HW131610   0.422   3.546   6.922
10237SOL    HW231611   0.443   3.561   6.761
10238SOL     OW31612   3.700   4.404   1.709
10238SOL    HW131613   3.651   4.478   1.754
10238SOL    HW231614   3.716   4.330   1.774
10239SOL     OW31615   1.456   3.080   4.991
10239SOL    HW131616   1.476   3.177   5.001
10239SOL    HW231617   1.542   3.029   4.987
10240SOL     OW31618   2.357   5.272   2.425
10240SOL    HW131619   2.384   5.289   2.330
10240SOL    HW231620   2.380   5.178   2.451
10241SOL     OW31621   6.118   0.130   2.282
10241SOL    HW131622   6.020   0.150   2.281
10241SOL    HW231623   6.166   0.205   2.329
10242SOL     OW31624   0.303   1.560   0.774
10242SOL    HW131625   0.238   1.636   0.776
10242SOL    HW231626   0.307   1.521   0.682
10243SOL     OW31627   2.696   4.741   2.180
10243SOL    HW131628   2.769   4.699   2.126
10243SOL    HW231629   2.666   4.825   2.135
10244SOL     OW31630   1.833   4.573   0.396
10244SOL    HW131631   1.765   4.518   0.446
10244SOL    HW231632   1.911   4.591   0.456
10245SOL     OW31633   3.813   3.804   0.907
10245SOL    HW131634   3.902   3.849   0.912
10245SOL    HW231635   3.762   3.841   0.829
10246SOL     OW31636   3.535   3.947   4.243
10246SOL    HW131637   3.477   4.028   4.235
10246SOL    HW231638   3.590   3.937   4.160
10247SOL     OW31639   6.243   4.150   5.778
10247SOL    HW131640   6.224   4.054   5.799
10247SOL    HW231641   6.280   4.195   5.859
10248SOL     OW31642   1.490   6.258   2.939
10248SOL    HW131643   1.583   6.292   2.925
10248SOL    HW231644   1.448   6.238   2.850
10249SOL     OW31645   3.043   5.729   6.616
10249SOL    HW131646   3.127   5.761   6.572
10249SOL    HW231647   2.973   5.711   6.547
10250SOL     OW31648   6.642   3.235   1.399
10250SOL    HW131649   6.622   3.167   1.328
10250SOL    HW231650   6.557   3.277   1.429
10251SOL     OW31651   1.954   1.661   4.494
10251SOL    HW131652   2.044   1.701   4.477
10251SOL    HW231653   1.884   1.711   4.443
10252SOL     OW31654   4.102   4.295   6.381
10252SOL    HW131655   4.201   4.279   6.377
10252SOL    HW231656   4.085   4.393   6.395
10253SOL     OW31657   3.040   5.378   0.351
10253SOL    HW131658   2.986   5.301   0.317
10253SOL    HW231659   3.062   5.439   0.274
10254SOL     OW31660   5.042   1.241   4.914
10254SOL    HW131661   4.943   1.230   4.915
10254SOL    HW231662   5.084   1.162   4.870
10255SOL     OW31663   2.695   6.559   1.185
10255SOL    HW131664   2.633   6.484   1.208
10255SOL    HW231665   2.755   6.531   1.110
10256SOL     OW31666   4.269   1.962   2.120
10256SOL    HW131667   4.178   1.928   2.143
10256SOL    HW231668   4.333   1.885   2.116
10257SOL     OW31669   2.187   5.177   3.946
10257SOL    HW131670   2.154   5.173   3.851
10257SOL    HW231671   2.154   5.261   3.989
10258SOL     OW31672   3.810   2.166   3.683
10258SOL    HW131673   3.903   2.172   3.646
10258SOL    HW231674   3.812   2.178   3.782
10259SOL     OW31675   0.549   3.753   2.819
10259SOL    HW131676   0.631   3.737   2.764
10259SOL    HW231677   0.519   3.848   2.807
10260SOL     OW31678   0.978   1.636   3.099
10260SOL    HW131679   1.060   1.603   3.147
10260SOL    HW231680   0.917   1.681   3.164
10261SOL     OW31681   6.421   4.797   1.327
10261SOL    HW131682   6.387   4.705   1.346
10261SOL    HW231683   6.492   4.792   1.257
10262SOL     OW31684   2.947   0.557   5.575
10262SOL    HW131685   2.872   0.511   5.624
10262SOL    HW231686   3.031   0.549   5.628
10263SOL     OW31687   5.837   6.849   0.779
10263SOL    HW131688   5.802   6.891   0.695
10263SOL    HW231689   5.869   6.921   0.841
10264SOL     OW31690   0.007   6.643   6.950
10264SOL    HW131691   7.026   6.680   6.858
10264SOL    HW231692   7.025   6.718   7.016
10265SOL     OW31693   3.243   2.584   1.267
10265SOL    HW131694   3.158   2.558   1.311
10265SOL    HW231695   3.302   2.633   1.332
10266SOL     OW31696   3.580   2.878   3.607
10266SOL    HW131697   3.568   2.824   3.690
10266SOL    HW231698   3.675   2.910   3.601
10267SOL     OW31699   5.161   1.717   0.447
10267SOL    HW131700   5.094   1.757   0.385
10267SOL    HW231701   5.219   1.790   0.484
10268SOL     OW31702   6.418   6.814   2.410
10268SOL    HW131703   6.467   6.867   2.340
10268SOL    HW231704   6.357   6.749   2.365
10269SOL     OW31705   0.981   3.977   6.027
10269SOL    HW131706   1.012   3.926   5.947
10269SOL    HW231707   0.901   3.931   6.067
10270SOL     OW31708   3.410   5.019   2.288
10270SOL    HW131709   3.394   5.008   2.386
10270SOL    HW231710   3.357   4.952   2.237
10271SOL     OW31711   3.968   2.366   0.196
10271SOL    HW131712   3.869   2.350   0.201
10271SOL    HW231713   4.015   2.305   0.259
10272SOL     OW31714   1.067   0.892   5.500
10272SOL    HW131715   1.155   0.863   5.536
10272SOL    HW231716   1.007   0.919   5.575
10273SOL     OW31717   2.765   5.578   2.686
10273SOL    HW131718   2.776   5.671   2.720
10273SOL    HW231719   2.850   5.548   2.643
10274SOL     OW31720   0.391   4.582   6.184
10274SOL    HW131721   0.413   4.628   6.098
10274SOL    HW231722   0.460   4.604   6.252
10275SOL     OW31723   0.743   6.406   2.016
10275SOL    HW131724   0.741   6.444   2.108
10275SOL    HW231725   0.830   6.358   2.002
10276SOL     OW31726   5.578   6.053   5.381
10276SOL    HW131727   5.650   6.122   5.392
10276SOL    HW231728   5.581   5.990   5.459
10277SOL     OW31729   1.836   5.995   5.057
10277SOL    HW131730   1.869   6.085   5.084
10277SOL    HW231731   1.887   5.925   5.106
10278SOL     OW31732   1.597   1.426   3.354
10278SOL    HW131733   1.686   1.471   3.342
10278SOL    HW231734   1.527   1.476   3.304
10279SOL     OW31735   1.173   4.783   4.227
10279SOL    HW131736   1.127   4.695   4.211
10279SOL    HW231737   1.241   4.772   4.300
10280SOL     OW31738   6.802   2.809   6.362
10280SOL    HW131739   6.764   2.720   6.335
10280SOL    HW231740   6.795   2.819   6.461
10281SOL     OW31741   6.136   1.671   3.326
10281SOL    HW131742   6.193   1.596   3.360
10281SOL    HW231743   6.050   1.633   3.291
10282SOL     OW31744   5.603   3.567   4.192
10282SOL    HW131745   5.682   3.526   4.147
10282SOL    HW231746   5.600   3.537   4.287
10283SOL     OW31747   1.852   3.190   1.090
10283SOL    HW131748   1.850   3.276   1.141
10283SOL    HW231749   1.766   3.179   1.039
10284SOL     OW31750   5.174   1.989   5.430
10284SOL    HW131751   5.192   1.997   5.332
10284SOL    HW231752   5.252   1.947   5.476
10285SOL     OW31753   5.220   6.417   3.197
10285SOL    HW131754   5.205   6.360   3.117
10285SOL    HW231755   5.168   6.380   3.274
10286SOL     OW31756   3.641   1.396   3.874
10286SOL    HW131757   3.611   1.486   3.843
10286SOL    HW231758   3.715   1.364   3.815
10287SOL     OW31759   3.483   5.192   1.822
10287SOL    HW131760   3.449   5.204   1.915
10287SOL    HW231761   3.420   5.235   1.757
10288SOL     OW31762   4.690   6.109   2.812
10288SOL    HW131763   4.668   6.028   2.758
10288SOL    HW231764   4.647   6.100   2.903
10289SOL     OW31765   2.807   6.394   6.825
10289SOL    HW131766   2.871   6.451   6.773
10289SOL    HW231767   2.734   6.451   6.862
10290SOL     OW31768   2.904   3.665   3.137
10290SOL    HW131769   2.892   3.566   3.125
10290SOL    HW231770   3.001   3.686   3.142
10291SOL     OW31771   3.796   1.770   2.199
10291SOL    HW131772   3.788   1.858   2.247
10291SOL    HW231773   3.749   1.699   2.252
10292SOL     OW31774   1.648   2.047   5.270
10292SOL    HW131775   1.664   2.054   5.172
10292SOL    HW231776   1.697   2.120   5.318
10293SOL     OW31777   1.181   3.501   2.409
10293SOL    HW131778   1.120   3.455   2.344
10293SOL    HW231779   1.206   3.591   2.374
10294SOL     OW31780   4.607   1.936   3.473
10294SOL    HW131781   4.525   1.889   3.506
10294SOL    HW231782   4.580   2.008   3.408
10295SOL     OW31783   0.533   3.198   5.804
10295SOL    HW131784   0.520   3.210   5.706
10295SOL    HW231785   0.581   3.277   5.841
10296SOL     OW31786   5.249   1.148   0.060
10296SOL    HW131787   5.255   1.228   0.121
10296SOL    HW231788   5.270   1.065   0.111
10297SOL     OW31789   1.989   1.152   5.844
10297SOL    HW131790   1.994   1.069   5.788
10297SOL    HW231791   2.081   1.183   5.866
10298SOL     OW31792   3.135   4.203   0.993
10298SOL    HW131793   3.070   4.149   1.046
10298SOL    HW231794   3.228   4.181   1.022
10299SOL     OW31795   3.873   5.026   3.035
10299SOL    HW131796   3.964   4.985   3.038
10299SOL    HW231797   3.827   4.998   2.950
10300SOL     OW31798   1.607   4.382   2.247
10300SOL    HW131799   1.632   4.334   2.163
10300SOL    HW231800   1.574   4.315   2.314
10301SOL     OW31801   5.020   1.902   4.910
10301SOL    HW131802   5.113   1.889   4.943
10301SOL    HW231803   5.013   1.867   4.817
10302SOL     OW31804   2.574   6.693   4.821
10302SOL    HW131805   2.506   6.746   4.771
10302SOL    HW231806   2.665   6.730   4.803
10303SOL     OW31807   1.450   5.651   3.144
10303SOL    HW131808   1.454   5.750   3.133
10303SOL    HW231809   1.404   5.611   3.065
10304SOL     OW31810   5.513   6.953   1.649
10304SOL    HW131811   5.457   7.019   1.699
10304SOL    HW231812   5.481   6.861   1.668
10305SOL     OW31813   1.259   4.255   5.885
10305SOL    HW131814   1.309   4.314   5.948
10305SOL    HW231815   1.170   4.231   5.925
10306SOL     OW31816   5.314   5.872   0.006
10306SOL    HW131817   5.364   5.833   0.083
10306SOL    HW231818   5.375   5.878   6.953
10307SOL     OW31819   3.151   2.135   5.338
10307SOL    HW131820   3.150   2.208   5.270
10307SOL    HW231821   3.190   2.169   5.423
10308SOL     OW31822   2.129   3.852   2.857
10308SOL    HW131823   2.057   3.894   2.912
10308SOL    HW231824   2.193   3.923   2.827
10309SOL     OW31825   6.777   2.240   6.990
10309SOL    HW131826   6.835   2.300   6.934
10309SOL    HW231827   6.810   2.240   0.057
10310SOL     OW31828   3.425   4.221   0.706
10310SOL    HW131829   3.393   4.129   0.727
10310SOL    HW231830   3.523   4.227   0.725
10311SOL     OW31831   6.519   5.986   0.760
10311SOL    HW131832   6.589   5.996   0.689
10311SOL    HW231833   6.448   5.922   0.728
10312SOL     OW31834   4.233   6.028   2.271
10312SOL    HW131835   4.270   6.113   2.309
10312SOL    HW231836   4.134   6.026   2.283
10313SOL     OW31837   4.384   6.003   1.793
10313SOL    HW131838   4.479   6.019   1.821
10313SOL    HW231839   4.326   6.076   1.830
10314SOL     OW31840   6.758   0.534   1.681
10314SOL    HW131841   6.838   0.586   1.712
10314SOL    HW231842   6.788   0.461   1.620
10315SOL     OW31843   5.320   5.538   5.284
10315SOL    HW131844   5.389   5.480   5.328
10315SOL    HW231845   5.366   5.602   5.221
10316SOL     OW31846   6.111   1.769   5.187
10316SOL    HW131847   6.088   1.860   5.221
10316SOL    HW231848   6.131   1.708   5.265
10317SOL     OW31849   4.910   6.136   6.087
10317SOL    HW131850   4.845   6.106   6.157
10317SOL    HW231851   4.867   6.131   5.997
10318SOL     OW31852   5.011   0.491   6.964
10318SOL    HW131853   5.087   0.435   6.928
10318SOL    HW231854   4.931   0.478   6.906
10319SOL     OW31855   0.558   2.957   5.438
10319SOL    HW131856   0.518   2.875   5.480
10319SOL    HW231857   0.647   2.976   5.479
10320SOL     OW31858   0.688   0.028   2.416
10320SOL    HW131859   0.718   6.961   2.431
10320SOL    HW231860   0.764   0.082   2.381
10321SOL     OW31861   4.223   2.130   1.913
10321SOL    HW131862   4.237   2.057   1.980
10321SOL    HW231863   4.128   2.129   1.883
10322SOL     OW31864   5.972   5.484   5.396
10322SOL    HW131865   6.071   5.485   5.408
10322SOL    HW231866   5.940   5.390   5.396
10323SOL     OW31867   6.069   3.573   4.888
10323SOL    HW131868   6.065   3.474   4.905
10323SOL    HW231869   5.977   3.612   4.891
10324SOL     OW31870   3.188   3.046   2.153
10324SOL    HW131871   3.090   3.064   2.149
10324SOL    HW231872   3.232   3.084   2.071
10325SOL     OW31873   6.799   4.099   2.220
10325SOL    HW131874   6.836   4.050   2.141
10325SOL    HW231875   6.869   4.105   2.292
10326SOL     OW31876   3.563   4.884   0.361
10326SOL    HW131877   3.475   4.889   0.408
10326SOL    HW231878   3.551   4.840   0.272
10327SOL     OW31879   2.056   1.941   0.812
10327SOL    HW131880   2.035   1.931   0.714
10327SOL    HW231881   1.973   1.970   0.861
10328SOL     OW31882   6.774   2.661   1.211
10328SOL    HW131883   6.805   2.750   1.178
10328SOL    HW231884   6.705   2.624   1.148
10329SOL     OW31885   3.175   1.115   3.492
10329SOL    HW131886   3.119   1.103   3.409
10329SOL    HW231887   3.121   1.088   3.572
10330SOL     OW31888   4.409   1.067   2.463
10330SOL    HW131889   4.318   1.110   2.464
10330SOL    HW231890   4.461   1.099   2.542
10331SOL     OW31891   6.495   0.782   6.077
10331SOL    HW131892   6.508   0.876   6.107
10331SOL    HW231893   6.402   0.771   6.040
10332SOL     OW31894   0.002   0.390   1.305
10332SOL    HW131895   0.068   0.365   1.234
10332SOL    HW231896   0.050   0.404   1.392
10333SOL     OW31897   0.508   4.539   5.191
10333SOL    HW131898   0.561   4.532   5.106
10333SOL    HW231899   0.571   4.534   5.269
10334SOL     OW31900   3.175   0.430   3.654
10334SOL    HW131901   3.177   0.367   3.732
10334SOL    HW231902   3.210   0.384   3.573
10335SOL     OW31903   2.877   3.990   6.200
10335SOL    HW131904   2.779   3.972   6.186
10335SOL    HW231905   2.927   3.904   6.195
10336SOL     OW31906   6.748   0.101   2.280
10336SOL    HW131907   6.741   0.096   2.380
10336SOL    HW231908   6.841   0.125   2.254
10337SOL     OW31909   0.111   6.257   5.924
10337SOL    HW131910   0.074   6.180   5.872
10337SOL    HW231911   0.066   6.342   5.894
10338SOL     OW31912   1.637   5.980   2.336
10338SOL    HW131913   1.730   5.969   2.301
10338SOL    HW231914   1.624   5.921   2.416
10339SOL     OW31915   4.283   4.088   6.411
10339SOL    HW131916   4.331   4.043   6.336
10339SOL    HW231917   4.272   4.023   6.487
10340SOL     OW31918   1.240   3.906   1.172
10340SOL    HW131919   1.146   3.906   1.137
10340SOL    HW231920   1.239   3.929   1.269
10341SOL     OW31921   2.104   3.674   2.646
10341SOL    HW131922   2.139   3.699   2.556
10341SOL    HW231923   2.120   3.749   2.710
10342SOL     OW31924   1.912   0.553   5.049
10342SOL    HW131925   1.851   0.479   5.020
10342SOL    HW231926   1.922   0.551   5.148
10343SOL     OW31927   3.660   5.772   6.854
10343SOL    HW131928   3.755   5.742   6.849
10343SOL    HW231929   3.657   5.870   6.875
10344SOL     OW31930   4.503   3.518   1.095
10344SOL    HW131931   4.469   3.501   1.003
10344SOL    HW231932   4.429   3.510   1.161
10345SOL     OW31933   1.698   1.466   6.492
10345SOL    HW131934   1.636   1.421   6.556
10345SOL    HW231935   1.772   1.404   6.468
10346SOL     OW31936   0.416   5.159   1.442
10346SOL    HW131937   0.368   5.177   1.527
10346SOL    HW231938   0.400   5.234   1.377
10347SOL     OW31939   3.994   1.937   3.752
10347SOL    HW131940   3.919   1.967   3.811
10347SOL    HW231941   4.019   2.011   3.689
10348SOL     OW31942   6.746   2.187   0.508
10348SOL    HW131943   6.801   2.237   0.442
10348SOL    HW231944   6.673   2.245   0.542
10349SOL     OW31945   1.100   0.815   0.832
10349SOL    HW131946   1.044   0.748   0.784
10349SOL    HW231947   1.047   0.897   0.850
10350SOL     OW31948   2.308   6.535   5.093
10350SOL    HW131949   2.333   6.620   5.047
10350SOL    HW231950   2.339   6.539   5.188
10351SOL     OW31951   4.159   4.650   5.820
10351SOL    HW131952   4.256   4.674   5.817
10351SOL    HW231953   4.148   4.559   5.861
10352SOL     OW31954   3.958   1.510   6.089
10352SOL    HW131955   3.971   1.449   6.010
10352SOL    HW231956   3.959   1.605   6.058
10353SOL     OW31957   6.748   2.656   4.897
10353SOL    HW131958   6.845   2.634   4.900
10353SOL    HW231959   6.730   2.736   4.954
10354SOL     OW31960   5.896   2.813   2.503
10354SOL    HW131961   5.797   2.805   2.504
10354SOL    HW231962   5.936   2.732   2.547
10355SOL     OW31963   1.670   6.857   1.845
10355SOL    HW131964   1.710   6.949   1.847
10355SOL    HW231965   1.676   6.816   1.935
10356SOL     OW31966   1.083   4.771   5.073
10356SOL    HW131967   1.086   4.865   5.039
10356SOL    HW231968   1.174   4.745   5.105
10357SOL     OW31969   1.657   3.253   6.492
10357SOL    HW131970   1.743   3.265   6.442
10357SOL    HW231971   1.588   3.214   6.431
10358SOL     OW31972   6.513   3.236   3.155
10358SOL    HW131973   6.553   3.166   3.214
10358SOL    HW231974   6.490   3.196   3.066
10359SOL     OW31975   0.664   1.538   1.894
10359SOL    HW131976   0.760   1.510   1.892
10359SOL    HW231977   0.606   1.465   1.858
10360SOL     OW31978   5.483   5.329   3.212
10360SOL    HW131979   5.568   5.350   3.164
10360SOL    HW231980   5.420   5.406   3.205
10361SOL     OW31981   2.773   6.914   3.548
10361SOL    HW131982   2.801   6.914   3.452
10361SOL    HW231983   2.680   6.952   3.556
10362SOL     OW31984   0.829   5.077   4.757
10362SOL    HW131985   0.802   4.981   4.744
10362SOL    HW231986   0.916   5.093   4.711
10363SOL     OW31987   5.050   1.284   1.737
10363SOL    HW131988   5.138   1.265   1.780
10363SOL    HW231989   5.004   1.358   1.787
10364SOL     OW31990   2.892   3.700   1.191
10364SOL    HW131991   2.814   3.640   1.178
10364SOL    HW231992   2.864   3.781   1.243
10365SOL     OW31993   4.741   4.591   5.955
10365SOL    HW131994   4.758   4.690   5.945
10365SOL    HW231995   4.655   4.577   6.004
10366SOL     OW31996   3.163   0.975   3.936
10366SOL    HW131997   3.200   1.059   3.975
10366SOL    HW231998   3.238   0.911   3.918
10367SOL     OW31999   6.411   1.981   2.527
10367SOL    HW132000   6.468   2.058   2.555
10367SOL    HW232001   6.431   1.902   2.587
10368SOL     OW32002   1.957   1.144   1.647
10368SOL    HW132003   1.996   1.213   1.586
10368SOL    HW232004   1.954   1.056   1.600
10369SOL     OW32005   3.906   0.802   5.474
10369SOL    HW132006   3.999   0.804   5.511
10369SOL    HW232007   3.861   0.717   5.502
10370SOL     OW32008   5.311   1.329   4.830
10370SOL    HW132009   5.253   1.381   4.891
10370SOL    HW232010   5.257   1.293   4.754
10371SOL     OW32011   3.193   6.144   4.927
10371SOL    HW132012   3.173   6.050   4.898
10371SOL    HW232013   3.126   6.172   4.996
10372SOL     OW32014   0.987   1.992   6.289
10372SOL    HW132015   1.079   2.022   6.313
10372SOL    HW232016   0.992   1.909   6.234
10373SOL     OW32017   2.182   6.045   4.676
10373SOL    HW132018   2.152   6.121   4.734
10373SOL    HW232019   2.106   5.980   4.665
10374SOL     OW32020   3.960   1.288   2.462
10374SOL    HW132021   3.916   1.355   2.522
10374SOL    HW232022   3.935   1.196   2.491
10375SOL     OW32023   3.420   1.705   6.227
10375SOL    HW132024   3.387   1.725   6.320
10375SOL    HW232025   3.425   1.791   6.175
10376SOL     OW32026   0.729   6.338   3.462
10376SOL    HW132027   0.754   6.249   3.498
10376SOL    HW232028   0.785   6.357   3.381
10377SOL     OW32029   6.843   0.763   4.158
10377SOL    HW132030   6.821   0.666   4.163
10377SOL    HW232031   6.882   0.785   4.068
10378SOL     OW32032   6.430   0.343   5.832
10378SOL    HW132033   6.392   0.418   5.887
10378SOL    HW232034   6.355   0.288   5.795
10379SOL     OW32035   3.776   6.702   4.919
10379SOL    HW132036   3.838   6.736   4.848
10379SOL    HW232037   3.779   6.763   4.998
10380SOL     OW32038   0.195   1.105   3.948
10380SOL    HW132039   0.248   1.123   3.866
10380SOL    HW232040   0.255   1.067   4.019
10381SOL     OW32041   4.165   5.452   6.202
10381SOL    HW132042   4.188   5.434   6.297
10381SOL    HW232043   4.078   5.502   6.198
10382SOL     OW32044   2.551   4.468   6.723
10382SOL    HW132045   2.498   4.545   6.687
10382SOL    HW232046   2.645   4.497   6.742
10383SOL     OW32047   0.324   3.250   0.931
10383SOL    HW132048   0.385   3.175   0.906
10383SOL    HW232049   0.273   3.280   0.850
10384SOL     OW32050   0.648   0.023   0.739
10384SOL    HW132051   0.623   0.022   0.642
10384SOL    HW232052   0.618   0.109   0.780
10385SOL     OW32053   4.548   0.479   6.629
10385SOL    HW132054   4.498   0.402   6.588
10385SOL    HW232055   4.608   0.520   6.561
10386SOL     OW32056   6.287   3.273   5.042
10386SOL    HW132057   6.205   3.283   4.987
10386SOL    HW232058   6.367   3.265   4.982
10387SOL     OW32059   3.858   2.139   2.218
10387SOL    HW132060   3.807   2.194   2.151
10387SOL    HW232061   3.956   2.152   2.203
10388SOL     OW32062   1.316   5.853   3.431
10388SOL    HW132063   1.347   5.893   3.517
10388SOL    HW232064   1.328   5.753   3.434
10389SOL     OW32065   0.286   6.400   1.873
10389SOL    HW132066   0.340   6.448   1.803
10389SOL    HW232067   0.190   6.399   1.846
10390SOL     OW32068   1.747   3.821   1.517
10390SOL    HW132069   1.821   3.859   1.463
10390SOL    HW232070   1.781   3.792   1.606
10391SOL     OW32071   1.159   5.535   5.227
10391SOL    HW132072   1.164   5.553   5.129
10391SOL    HW232073   1.247   5.498   5.259
10392SOL     OW32074   6.748   4.206   0.143
10392SOL    HW132075   6.771   4.193   0.047
10392SOL    HW232076   6.668   4.266   0.150
10393SOL     OW32077   1.534   1.753   2.951
10393SOL    HW132078   1.597   1.788   2.881
10393SOL    HW232079   1.443   1.740   2.911
10394SOL     OW32080   2.544   6.523   6.019
10394SOL    HW132081   2.446   6.535   6.002
10394SOL    HW232082   2.557   6.468   6.102
10395SOL     OW32083   6.132   1.000   4.780
10395SOL    HW132084   6.058   1.057   4.745
10395SOL    HW232085   6.095   0.935   4.846
10396SOL     OW32086   1.409   0.050   4.300
10396SOL    HW132087   1.483   0.109   4.267
10396SOL    HW232088   1.426   6.982   4.271
10397SOL     OW32089   3.486   1.649   3.699
10397SOL    HW132090   3.393   1.650   3.664
10397SOL    HW232091   3.547   1.692   3.632
10398SOL     OW32092   6.354   2.162   0.130
10398SOL    HW132093   6.367   2.162   0.229
10398SOL    HW232094   6.419   2.226   0.088
10399SOL     OW32095   4.301   1.409   5.121
10399SOL    HW132096   4.263   1.404   5.213
10399SOL    HW232097   4.319   1.316   5.088
10400SOL     OW32098   3.610   5.628   1.672
10400SOL    HW132099   3.658   5.614   1.759
10400SOL    HW232100   3.662   5.585   1.598
10401SOL     OW32101   6.847   0.406   2.396
10401SOL    HW132102   6.883   0.349   2.322
10401SOL    HW232103   6.753   0.378   2.415
10402SOL     OW32104   0.438   2.745   5.612
10402SOL    HW132105   0.502   2.702   5.677
10402SOL    HW232106   0.345   2.732   5.644
10403SOL     OW32107   5.507   1.821   2.435
10403SOL    HW132108   5.438   1.807   2.364
10403SOL    HW232109   5.463   1.845   2.521
10404SOL     OW32110   0.491   6.650   3.688
10404SOL    HW132111   0.416   6.673   3.750
10404SOL    HW232112   0.548   6.580   3.730
10405SOL     OW32113   1.670   5.304   5.037
10405SOL    HW132114   1.578   5.330   5.064
10405SOL    HW232115   1.666   5.225   4.976
10406SOL     OW32116   1.934   4.068   4.943
10406SOL    HW132117   1.999   4.142   4.923
10406SOL    HW232118   1.982   3.980   4.940
10407SOL     OW32119   1.438   1.064   6.625
10407SOL    HW132120   1.363   1.073   6.691
10407SOL    HW232121   1.471   1.155   6.600
10408SOL     OW32122   4.287   6.093   2.779
10408SOL    HW132123   4.240   6.153   2.714
10408SOL    HW232124   4.333   6.148   2.849
10409SOL     OW32125   0.691   4.847   1.163
10409SOL    HW132126   0.692   4.842   1.263
10409SOL    HW232127   0.779   4.816   1.127
10410SOL     OW32128   5.239   1.069   1.219
10410SOL    HW132129   5.296   1.090   1.298
10410SOL    HW232130   5.175   1.144   1.203
10411SOL     OW32131   2.638   4.937   4.205
10411SOL    HW132132   2.609   4.851   4.248
10411SOL    HW232133   2.558   4.991   4.180
10412SOL     OW32134   0.839   1.404   0.924
10412SOL    HW132135   0.820   1.331   0.858
10412SOL    HW232136   0.934   1.432   0.917
10413SOL     OW32137   1.149   1.979   0.705
10413SOL    HW132138   1.057   1.993   0.670
10413SOL    HW232139   1.209   2.053   0.673
10414SOL     OW32140   4.700   6.226   6.375
10414SOL    HW132141   4.649   6.228   6.461
10414SOL    HW232142   4.789   6.182   6.390
10415SOL     OW32143   1.896   4.442   3.817
10415SOL    HW132144   1.800   4.471   3.818
10415SOL    HW232145   1.952   4.512   3.863
10416SOL     OW32146   6.736   1.759   6.032
10416SOL    HW132147   6.649   1.800   6.005
10416SOL    HW232148   6.746   1.669   5.990
10417SOL     OW32149   4.312   4.774   3.329
10417SOL    HW132150   4.313   4.717   3.247
10417SOL    HW232151   4.359   4.727   3.403
10418SOL     OW32152   6.464   4.324   5.327
10418SOL    HW132153   6.449   4.261   5.403
10418SOL    HW232154   6.557   4.360   5.332
10419SOL     OW32155   2.630   1.340   4.989
10419SOL    HW132156   2.682   1.421   4.963
10419SOL    HW232157   2.550   1.331   4.930
10420SOL     OW32158   6.916   3.899   2.488
10420SOL    HW132159   6.860   3.887   2.570
10420SOL    HW232160   6.928   3.997   2.471
10421SOL     OW32161   1.461   3.758   3.970
10421SOL    HW132162   1.503   3.797   3.888
10421SOL    HW232163   1.431   3.831   4.031
10422SOL     OW32164   6.569   4.124   5.110
10422SOL    HW132165   6.648   4.178   5.082
10422SOL    HW232166   6.541   4.152   5.202
10423SOL     OW32167   4.069   4.836   4.447
10423SOL    HW132168   3.977   4.857   4.416
10423SOL    HW232169   4.085   4.879   4.536
10424SOL     OW32170   4.712   1.347   0.527
10424SOL    HW132171   4.763   1.412   0.584
10424SOL    HW232172   4.740   1.254   0.549
10425SOL     OW32173   0.955   6.551   1.709
10425SOL    HW132174   1.055   6.558   1.710
10425SOL    HW232175   0.915   6.642   1.719
10426SOL     OW32176   4.498   3.120   5.446
10426SOL    HW132177   4.525   3.051   5.379
10426SOL    HW232178   4.545   3.206   5.426
10427SOL     OW32179   5.286   5.543   5.842
10427SOL    HW132180   5.372   5.593   5.831
10427SOL    HW232181   5.277   5.475   5.769
10428SOL     OW32182   1.189   1.636   3.735
10428SOL    HW132183   1.215   1.542   3.757
10428SOL    HW232184   1.106   1.660   3.784
10429SOL     OW32185   1.169   3.692   2.647
10429SOL    HW132186   1.228   3.657   2.720
10429SOL    HW232187   1.185   3.639   2.563
10430SOL     OW32188   3.693   5.810   4.421
10430SOL    HW132189   3.698   5.855   4.332
10430SOL    HW232190   3.681   5.712   4.408
10431SOL     OW32191   2.833   1.499   4.434
10431SOL    HW132192   2.850   1.550   4.349
10431SOL    HW232193   2.853   1.558   4.512
10432SOL     OW32194   1.033   0.776   5.931
10432SOL    HW132195   0.995   0.849   5.873
10432SOL    HW232196   1.000   0.788   6.025
10433SOL     OW32197   1.334   6.048   1.633
10433SOL    HW132198   1.359   6.094   1.548
10433SOL    HW232199   1.290   6.113   1.695
10434SOL     OW32200   5.157   6.568   4.898
10434SOL    HW132201   5.151   6.468   4.894
10434SOL    HW232202   5.099   6.608   4.827
10435SOL     OW32203   0.910   2.369   6.119
10435SOL    HW132204   0.987   2.305   6.121
10435SOL    HW232205   0.826   2.319   6.096
10436SOL     OW32206   6.276   3.908   4.740
10436SOL    HW132207   6.242   3.930   4.648
10436SOL    HW232208   6.325   3.987   4.776
10437SOL     OW32209   5.277   4.957   5.397
10437SOL    HW132210   5.357   4.906   5.429
10437SOL    HW232211   5.196   4.898   5.401
10438SOL     OW32212   6.637   6.852   5.475
10438SOL    HW132213   6.566   6.807   5.531
10438SOL    HW232214   6.678   6.927   5.527
10439SOL     OW32215   6.547   1.115   4.916
10439SOL    HW132216   6.563   1.208   4.881
10439SOL    HW232217   6.629   1.060   4.899
10440SOL     OW32218   6.864   1.386   6.932
10440SOL    HW132219   6.836   1.349   6.844
10440SOL    HW232220   6.923   1.320   6.979
10441SOL     OW32221   3.812   1.787   1.286
10441SOL    HW132222   3.890   1.829   1.333
10441SOL    HW232223   3.844   1.750   1.198
10442SOL     OW32224   3.336   1.029   5.293
10442SOL    HW132225   3.272   0.957   5.319
10442SOL    HW232226   3.413   1.029   5.357
10443SOL     OW32227   0.211   1.989   2.651
10443SOL    HW132228   0.201   2.015   2.748
10443SOL    HW232229   0.226   2.070   2.596
10444SOL     OW32230   3.443   5.061   3.486
10444SOL    HW132231   3.436   4.989   3.554
10444SOL    HW232232   3.358   5.067   3.434
10445SOL     OW32233   0.231   3.585   1.851
10445SOL    HW132234   0.264   3.510   1.909
10445SOL    HW232235   0.135   3.569   1.828
10446SOL     OW32236   2.019   4.326   5.457
10446SOL    HW132237   2.100   4.290   5.410
10446SOL    HW232238   1.936   4.287   5.415
10447SOL     OW32239   6.166   2.065   2.561
10447SOL    HW132240   6.258   2.055   2.523
10447SOL    HW232241   6.101   2.013   2.504
10448SOL     OW32242   2.988   0.771   3.772
10448SOL    HW132243   3.009   0.742   3.865
10448SOL    HW232244   2.989   0.871   3.767
10449SOL     OW32245   3.642   5.468   6.878
10449SOL    HW132246   3.690   5.420   6.951
10449SOL    HW232247   3.646   5.567   6.894
10450SOL     OW32248   6.425   0.829   6.519
10450SOL    HW132249   6.332   0.845   6.550
10450SOL    HW232250   6.483   0.810   6.599
10451SOL     OW32251   2.739   0.523   3.958
10451SOL    HW132252   2.743   0.613   4.001
10451SOL    HW232253   2.826   0.504   3.913
10452SOL     OW32254   7.001   2.466   2.752
10452SOL    HW132255   7.002   2.384   2.694
10452SOL    HW232256   0.014   2.445   2.841
10453SOL     OW32257   4.352   6.199   2.445
10453SOL    HW132258   4.439   6.220   2.490
10453SOL    HW232259   4.277   6.239   2.497
10454SOL     OW32260   6.218   0.986   6.905
10454SOL    HW132261   6.165   0.933   6.971
10454SOL    HW232262   6.238   1.076   6.943
10455SOL     OW32263   6.194   6.238   4.409
10455SOL    HW132264   6.284   6.270   4.439
10455SOL    HW232265   6.123   6.285   4.461
10456SOL     OW32266   0.047   5.612   0.067
10456SOL    HW132267   7.009   5.651   0.132
10456SOL    HW232268   0.082   5.525   0.102
10457SOL     OW32269   4.470   3.848   6.638
10457SOL    HW132270   4.430   3.874   6.726
10457SOL    HW232271   4.399   3.806   6.581
10458SOL     OW32272   6.659   0.646   6.252
10458SOL    HW132273   6.747   0.612   6.218
10458SOL    HW232274   6.599   0.667   6.175
10459SOL     OW32275   6.368   5.039   0.892
10459SOL    HW132276   6.369   5.139   0.896
10459SOL    HW232277   6.444   5.008   0.835
10460SOL     OW32278   7.003   4.230   1.930
10460SOL    HW132279   6.995   4.158   1.998
10460SOL    HW232280   6.912   4.258   1.900
10461SOL     OW32281   6.392   4.664   5.415
10461SOL    HW132282   6.335   4.619   5.484
10461SOL    HW232283   6.485   4.675   5.451
10462SOL     OW32284   4.670   1.472   1.958
10462SOL    HW132285   4.618   1.388   1.943
10462SOL    HW232286   4.678   1.488   2.056
10463SOL     OW32287   4.795   1.564   6.339
10463SOL    HW132288   4.845   1.535   6.421
10463SOL    HW232289   4.744   1.648   6.360
10464SOL     OW32290   5.786   5.779   2.371
10464SOL    HW132291   5.851   5.730   2.313
10464SOL    HW232292   5.834   5.820   2.448
10465SOL     OW32293   4.972   4.495   2.795
10465SOL    HW132294   5.050   4.527   2.849
10465SOL    HW232295   4.944   4.567   2.731
10466SOL     OW32296   4.904   4.548   6.172
10466SOL    HW132297   4.928   4.579   6.264
10466SOL    HW232298   4.875   4.626   6.117
10467SOL     OW32299   1.767   2.667   6.805
10467SOL    HW132300   1.717   2.600   6.861
10467SOL    HW232301   1.829   2.719   6.864
10468SOL     OW32302   3.654   5.635   3.658
10468SOL    HW132303   3.642   5.693   3.739
10468SOL    HW232304   3.708   5.554   3.681
10469SOL     OW32305   5.014   3.881   5.814
10469SOL    HW132306   4.946   3.927   5.756
10469SOL    HW232307   5.033   3.790   5.777
10470SOL     OW32308   2.554   1.673   3.461
10470SOL    HW132309   2.585   1.638   3.549
10470SOL    HW232310   2.633   1.689   3.402
10471SOL     OW32311   2.717   0.574   6.711
10471SOL    HW132312   2.783   0.562   6.786
10471SOL    HW232313   2.720   0.493   6.652
10472SOL     OW32314   2.674   5.216   0.983
10472SOL    HW132315   2.637   5.124   0.992
10472SOL    HW232316   2.674   5.242   0.887
10473SOL     OW32317   5.617   6.025   5.905
10473SOL    HW132318   5.561   6.090   5.957
10473SOL    HW232319   5.661   5.961   5.969
10474SOL     OW32320   5.012   0.705   4.267
10474SOL    HW132321   4.950   0.744   4.336
10474SOL    HW232322   4.960   0.685   4.184
10475SOL     OW32323   2.457   6.431   1.869
10475SOL    HW132324   2.514   6.349   1.876
10475SOL    HW232325   2.509   6.511   1.898
10476SOL     OW32326   4.941   6.461   6.034
10476SOL    HW132327   4.927   6.375   5.985
10476SOL    HW232328   5.038   6.474   6.051
10477SOL     OW32329   6.818   0.060   4.488
10477SOL    HW132330   6.851   7.006   4.439
10477SOL    HW232331   6.883   0.084   4.560
10478SOL     OW32332   6.719   6.781   0.534
10478SOL    HW132333   6.630   6.813   0.569
10478SOL    HW232334   6.763   6.725   0.604
10479SOL     OW32335   6.688   1.915   2.174
10479SOL    HW132336   6.621   1.882   2.107
10479SOL    HW232337   6.711   1.842   2.238
10480SOL     OW32338   1.504   0.412   1.919
10480SOL    HW132339   1.467   0.472   1.989
10480SOL    HW232340   1.436   0.399   1.847
10481SOL     OW32341   1.167   6.385   2.873
10481SOL    HW132342   1.070   6.408   2.869
10481SOL    HW232343   1.210   6.433   2.949
10482SOL     OW32344   6.303   4.823   4.877
10482SOL    HW132345   6.272   4.893   4.942
10482SOL    HW232346   6.363   4.759   4.924
10483SOL     OW32347   5.026   5.749   0.467
10483SOL    HW132348   4.958   5.823   0.473
10483SOL    HW232349   5.034   5.705   0.557
10484SOL     OW32350   4.616   1.348   1.252
10484SOL    HW132351   4.636   1.250   1.262
10484SOL    HW232352   4.546   1.360   1.182
10485SOL     OW32353   3.196   4.241   6.658
10485SOL    HW132354   3.130   4.251   6.584
10485SOL    HW232355   3.199   4.145   6.687
10486SOL     OW32356   6.823   1.216   1.121
10486SOL    HW132357   6.845   1.313   1.109
10486SOL    HW232358   6.728   1.207   1.149
10487SOL     OW32359   5.213   6.684   2.242
10487SOL    HW132360   5.308   6.678   2.272
10487SOL    HW232361   5.175   6.772   2.269
10488SOL     OW32362   2.865   2.690   6.214
10488SOL    HW132363   2.835   2.608   6.167
10488SOL    HW232364   2.921   2.746   6.153
10489SOL     OW32365   0.701   0.014   5.525
10489SOL    HW132366   0.645   7.003   5.451
10489SOL    HW232367   0.772   6.974   5.550
10490SOL     OW32368   6.350   1.825   2.065
10490SOL    HW132369   6.447   1.806   2.051
10490SOL    HW232370   6.339   1.887   2.143
10491SOL     OW32371   1.681   3.567   7.012
10491SOL    HW132372   1.678   3.667   7.014
10491SOL    HW232373   1.731   3.537   6.931
10492SOL     OW32374   5.840   3.562   5.542
10492SOL    HW132375   5.747   3.558   5.579
10492SOL    HW232376   5.882   3.649   5.567
10493SOL     OW32377   3.205   1.123   1.612
10493SOL    HW132378   3.126   1.155   1.665
10493SOL    HW232379   3.252   1.202   1.573
10494SOL     OW32380   5.007   2.710   5.238
10494SOL    HW132381   5.045   2.622   5.208
10494SOL    HW232382   5.052   2.738   5.323
10495SOL     OW32383   2.313   6.968   0.403
10495SOL    HW132384   2.226   6.960   0.452
10495SOL    HW232385   2.358   6.878   0.399
10496SOL     OW32386   0.670   6.389   1.051
10496SOL    HW132387   0.593   6.362   0.994
10496SOL    HW232388   0.745   6.420   0.993
10497SOL     OW32389   2.225   6.619   2.009
10497SOL    HW132390   2.193   6.616   1.914
10497SOL    HW232391   2.263   6.709   2.028
10498SOL     OW32392   2.864   6.086   1.780
10498SOL    HW132393   2.943   6.136   1.745
10498SOL    HW232394   2.889   5.989   1.792
10499SOL     OW32395   3.043   6.081   2.319
10499SOL    HW132396   3.025   6.059   2.223
10499SOL    HW232397   3.003   6.170   2.341
10500SOL     OW32398   0.334   1.090   5.964
10500SOL    HW132399   0.373   0.998   5.965
10500SOL    HW232400   0.408   1.157   5.962
10501SOL     OW32401   1.709   5.544   3.125
10501SOL    HW132402   1.613   5.572   3.127
10501SOL    HW232403   1.765   5.615   3.168
10502SOL     OW32404   3.240   0.740   0.704
10502SOL    HW132405   3.337   0.725   0.685
10502SOL    HW232406   3.198   0.655   0.737
10503SOL     OW32407   4.606   2.790   0.177
10503SOL    HW132408   4.605   2.733   0.095
10503SOL    HW232409   4.585   2.734   0.257
10504SOL     OW32410   1.834   2.452   0.135
10504SOL    HW132411   1.841   2.401   0.221
10504SOL    HW232412   1.754   2.513   0.139
10505SOL     OW32413   6.258   5.591   0.927
10505SOL    HW132414   6.194   5.649   0.978
10505SOL    HW232415   6.207   5.534   0.863
10506SOL     OW32416   0.507   5.283   6.056
10506SOL    HW132417   0.520   5.277   6.154
10506SOL    HW232418   0.585   5.330   6.014
10507SOL     OW32419   2.590   6.560   6.898
10507SOL    HW132420   2.545   6.624   6.960
10507SOL    HW232421   2.522   6.507   6.848
10508SOL     OW32422   5.648   5.870   4.906
10508SOL    HW132423   5.681   5.784   4.944
10508SOL    HW232424   5.720   5.939   4.911
10509SOL     OW32425   0.288   6.415   6.259
10509SOL    HW132426   0.330   6.491   6.210
10509SOL    HW232427   0.311   6.329   6.214
10510SOL     OW32428   5.523   5.425   6.241
10510SOL    HW132429   5.425   5.444   6.239
10510SOL    HW232430   5.552   5.407   6.334
10511SOL     OW32431   4.637   2.785   1.120
10511SOL    HW132432   4.630   2.719   1.045
10511SOL    HW232433   4.567   2.856   1.108
10512SOL     OW32434   3.817   0.769   5.892
10512SOL    HW132435   3.784   0.674   5.888
10512SOL    HW232436   3.827   0.796   5.988
10513SOL     OW32437   0.083   2.881   5.298
10513SOL    HW132438   0.150   2.807   5.309
10513SOL    HW232439   0.093   2.923   5.208
10514SOL     OW32440   0.385   3.910   0.057
10514SOL    HW132441   0.375   3.909   6.984
10514SOL    HW232442   0.427   3.824   0.086
10515SOL     OW32443   6.226   2.341   3.161
10515SOL    HW132444   6.315   2.364   3.122
10515SOL    HW232445   6.238   2.289   3.245
10516SOL     OW32446   4.766   1.038   6.810
10516SOL    HW132447   4.705   1.091   6.750
10516SOL    HW232448   4.773   1.083   6.899
10517SOL     OW32449   0.496   2.034   2.911
10517SOL    HW132450   0.509   1.978   2.829
10517SOL    HW232451   0.437   2.111   2.889
10518SOL     OW32452   0.981   4.479   6.976
10518SOL    HW132453   1.017   4.386   6.971
10518SOL    HW232454   1.014   4.531   6.897
10519SOL     OW32455   2.611   2.416   6.412
10519SOL    HW132456   2.656   2.333   6.379
10519SOL    HW232457   2.557   2.456   6.338
10520SOL     OW32458   1.691   2.368   6.482
10520SOL    HW132459   1.732   2.429   6.415
10520SOL    HW232460   1.743   2.373   6.568
10521SOL     OW32461   6.019   5.246   1.712
10521SOL    HW132462   5.936   5.218   1.759
10521SOL    HW232463   6.057   5.168   1.661
10522SOL     OW32464   6.652   0.623   0.330
10522SOL    HW132465   6.560   0.603   0.295
10522SOL    HW232466   6.643   0.671   0.418
10523SOL     OW32467   0.341   6.373   5.016
10523SOL    HW132468   0.312   6.464   5.046
10523SOL    HW232469   0.387   6.380   4.928
10524SOL     OW32470   1.992   1.702   5.053
10524SOL    HW132471   2.076   1.754   5.040
10524SOL    HW232472   1.927   1.723   4.980
10525SOL     OW32473   2.888   6.982   5.820
10525SOL    HW132474   2.835   7.005   5.902
10525SOL    HW232475   2.834   7.004   5.739
10526SOL     OW32476   0.401   6.837   3.333
10526SOL    HW132477   0.306   6.865   3.342
10526SOL    HW232478   0.455   6.913   3.297
10527SOL     OW32479   0.296   2.696   4.295
10527SOL    HW132480   0.223   2.683   4.362
10527SOL    HW232481   0.291   2.789   4.259
10528SOL     OW32482   0.709   4.011   5.569
10528SOL    HW132483   0.736   4.013   5.665
10528SOL    HW232484   0.646   4.087   5.550
10529SOL     OW32485   2.348   6.053   3.723
10529SOL    HW132486   2.347   6.148   3.693
10529SOL    HW232487   2.257   6.027   3.755
10530SOL     OW32488   1.822   1.375   5.853
10530SOL    HW132489   1.842   1.412   5.944
10530SOL    HW232490   1.876   1.293   5.838
10531SOL     OW32491   1.186   3.035   4.593
10531SOL    HW132492   1.097   3.002   4.626
10531SOL    HW232493   1.245   2.956   4.575
10532SOL     OW32494   2.263   3.722   0.121
10532SOL    HW132495   2.347   3.721   0.176
10532SOL    HW232496   2.191   3.771   0.170
10533SOL     OW32497   3.295   1.692   4.197
10533SOL    HW132498   3.290   1.642   4.110
10533SOL    HW232499   3.342   1.779   4.182
10534SOL     OW32500   6.396   5.786   1.617
10534SOL    HW132501   6.397   5.726   1.537
10534SOL    HW232502   6.327   5.858   1.604
10535SOL     OW32503   0.228   2.270   1.459
10535SOL    HW132504   0.325   2.250   1.477
10535SOL    HW232505   0.205   2.359   1.499
10536SOL     OW32506   3.637   0.937   2.865
10536SOL    HW132507   3.708   1.004   2.884
10536SOL    HW232508   3.679   0.847   2.852
10537SOL     OW32509   3.252   5.687   3.086
10537SOL    HW132510   3.308   5.713   3.166
10537SOL    HW232511   3.167   5.739   3.087
10538SOL     OW32512   4.738   3.044   6.979
10538SOL    HW132513   4.726   2.946   6.960
10538SOL    HW232514   4.807   3.082   6.918
10539SOL     OW32515   0.854   3.875   6.279
10539SOL    HW132516   0.885   3.799   6.221
10539SOL    HW232517   0.819   3.839   6.365
10540SOL     OW32518   1.534   1.854   5.418
10540SOL    HW132519   1.572   1.927   5.362
10540SOL    HW232520   1.580   1.851   5.506
10541SOL     OW32521   3.750   3.625   1.759
10541SOL    HW132522   3.693   3.591   1.684
10541SOL    HW232523   3.692   3.657   1.834
10542SOL     OW32524   6.984   2.027   0.215
10542SOL    HW132525   0.012   1.974   0.280
10542SOL    HW232526   6.927   1.966   0.161
10543SOL     OW32527   0.621   1.588   4.764
10543SOL    HW132528   0.650   1.628   4.677
10543SOL    HW232529   0.701   1.549   4.811
10544SOL     OW32530   1.129   0.136   2.479
10544SOL    HW132531   1.038   0.164   2.510
10544SOL    HW232532   1.126   0.041   2.448
10545SOL     OW32533   5.830   1.319   2.830
10545SOL    HW132534   5.861   1.395   2.772
10545SOL    HW232535   5.736   1.295   2.807
10546SOL     OW32536   0.645   1.158   5.966
10546SOL    HW132537   0.648   1.178   5.868
10546SOL    HW232538   0.735   1.126   5.996
10547SOL     OW32539   4.621   1.820   1.277
10547SOL    HW132540   4.703   1.858   1.319
10547SOL    HW232541   4.610   1.725   1.306
10548SOL     OW32542   5.131   3.472   4.892
10548SOL    HW132543   5.057   3.489   4.957
10548SOL    HW232544   5.106   3.508   4.803
10549SOL     OW32545   6.600   0.566   2.238
10549SOL    HW132546   6.512   0.550   2.285
10549SOL    HW232547   6.606   0.661   2.210
10550SOL     OW32548   4.600   6.328   4.664
10550SOL    HW132549   4.631   6.341   4.758
10550SOL    HW232550   4.500   6.326   4.662
10551SOL     OW32551   1.838   2.484   5.531
10551SOL    HW132552   1.763   2.418   5.537
10551SOL    HW232553   1.804   2.572   5.498
10552SOL     OW32554   4.132   1.976   5.972
10552SOL    HW132555   4.102   2.039   6.043
10552SOL    HW232556   4.232   1.968   5.974
10553SOL     OW32557   1.221   4.762   2.207
10553SOL    HW132558   1.316   4.730   2.210
10553SOL    HW232559   1.167   4.699   2.151
10554SOL     OW32560   5.020   4.977   6.545
10554SOL    HW132561   4.939   4.999   6.491
10554SOL    HW232562   5.013   4.882   6.577
10555SOL     OW32563   2.801   3.170   1.074
10555SOL    HW132564   2.760   3.203   1.159
10555SOL    HW232565   2.855   3.242   1.032
10556SOL     OW32566   1.981   2.980   5.250
10556SOL    HW132567   1.896   3.030   5.263
10556SOL    HW232568   1.965   2.899   5.195
10557SOL     OW32569   1.358   2.826   3.204
10557SOL    HW132570   1.352   2.789   3.297
10557SOL    HW232571   1.292   2.779   3.145
10558SOL     OW32572   4.131   6.967   4.325
10558SOL    HW132573   4.052   7.027   4.311
10558SOL    HW232574   4.193   6.975   4.247
10559SOL     OW32575   3.871   0.661   1.077
10559SOL    HW132576   3.839   0.700   1.164
10559SOL    HW232577   3.930   0.582   1.096
10560SOL     OW32578   2.755   6.175   4.264
10560SOL    HW132579   2.764   6.154   4.166
10560SOL    HW232580   2.726   6.093   4.313
10561SOL     OW32581   2.842   4.710   0.398
10561SOL    HW132582   2.929   4.750   0.372
10561SOL    HW232583   2.850   4.668   0.488
10562SOL     OW32584   5.454   6.395   0.633
10562SOL    HW132585   5.552   6.399   0.610
10562SOL    HW232586   5.405   6.465   0.580
10563SOL     OW32587   1.418   0.752   3.945
10563SOL    HW132588   1.432   0.833   4.002
10563SOL    HW232589   1.422   0.778   3.849
10564SOL     OW32590   5.878   6.562   2.243
10564SOL    HW132591   5.876   6.487   2.177
10564SOL    HW232592   5.926   6.640   2.204
10565SOL     OW32593   0.609   0.696   5.460
10565SOL    HW132594   0.561   0.676   5.374
10565SOL    HW232595   0.645   0.789   5.458
10566SOL     OW32596   4.011   3.161   6.825
10566SOL    HW132597   4.100   3.128   6.858
10566SOL    HW232598   4.024   3.240   6.766
10567SOL     OW32599   2.399   2.434   4.110
10567SOL    HW132600   2.444   2.515   4.147
10567SOL    HW232601   2.300   2.449   4.108
10568SOL     OW32602   5.779   1.287   1.509
10568SOL    HW132603   5.767   1.219   1.436
10568SOL    HW232604   5.826   1.245   1.587
10569SOL     OW32605   6.742   2.665   1.684
10569SOL    HW132606   6.729   2.617   1.771
10569SOL    HW232607   6.809   2.738   1.696
10570SOL     OW32608   1.566   4.784   3.043
10570SOL    HW132609   1.542   4.690   3.064
10570SOL    HW232610   1.614   4.824   3.121
10571SOL     OW32611   0.361   5.019   4.386
10571SOL    HW132612   0.407   4.974   4.309
10571SOL    HW232613   0.423   5.022   4.464
10572SOL     OW32614   6.646   3.557   3.344
10572SOL    HW132615   6.623   3.490   3.414
10572SOL    HW232616   6.727   3.608   3.371
10573SOL     OW32617   5.109   6.007   4.482
10573SOL    HW132618   5.063   6.044   4.401
10573SOL    HW232619   5.100   5.907   4.483
10574SOL     OW32620   1.780   1.819   4.311
10574SOL    HW132621   1.778   1.783   4.217
10574SOL    HW232622   1.689   1.850   4.337
10575SOL     OW32623   6.876   0.767   3.391
10575SOL    HW132624   6.957   0.738   3.339
10575SOL    HW232625   6.893   0.855   3.434
10576SOL     OW32626   7.014   6.540   5.411
10576SOL    HW132627   6.946   6.584   5.351
10576SOL    HW232628   0.077   6.578   5.393
10577SOL     OW32629   1.291   2.638   6.511
10577SOL    HW132630   1.365   2.661   6.574
10577SOL    HW232631   1.239   2.720   6.488
10578SOL     OW32632   6.046   0.680   3.769
10578SOL    HW132633   6.014   0.732   3.848
10578SOL    HW232634   6.105   0.605   3.800
10579SOL     OW32635   3.731   1.817   0.444
10579SOL    HW132636   3.681   1.779   0.366
10579SOL    HW232637   3.809   1.758   0.466
10580SOL     OW32638   6.985   0.334   0.401
10580SOL    HW132639   7.011   0.247   0.359
10580SOL    HW232640   0.038   0.395   0.405
10581SOL     OW32641   5.830   6.984   2.882
10581SOL    HW132642   5.752   6.950   2.934
10581SOL    HW232643   5.877   6.907   2.838
10582SOL     OW32644   4.069   4.949   6.656
10582SOL    HW132645   4.137   4.900   6.710
10582SOL    HW232646   3.980   4.903   6.663
10583SOL     OW32647   4.194   0.988   5.735
10583SOL    HW132648   4.102   1.006   5.699
10583SOL    HW232649   4.230   0.905   5.693
10584SOL     OW32650   6.264   7.015   0.863
10584SOL    HW132651   6.287   6.967   0.948
10584SOL    HW232652   6.228   6.949   0.796
10585SOL     OW32653   1.673   3.281   5.466
10585SOL    HW132654   1.713   3.282   5.558
10585SOL    HW232655   1.655   3.186   5.439
10586SOL     OW32656   1.741   5.548   5.601
10586SOL    HW132657   1.792   5.633   5.600
10586SOL    HW232658   1.734   5.512   5.508
10587SOL     OW32659   5.924   4.626   6.907
10587SOL    HW132660   5.923   4.672   6.995
10587SOL    HW232661   5.874   4.681   6.840
10588SOL     OW32662   0.676   4.588   1.794
10588SOL    HW132663   0.590   4.602   1.842
10588SOL    HW232664   0.747   4.561   1.860
10589SOL     OW32665   5.349   1.454   4.389
10589SOL    HW132666   5.427   1.411   4.435
10589SOL    HW232667   5.283   1.383   4.362
10590SOL     OW32668   0.886   0.313   1.565
10590SOL    HW132669   0.896   0.363   1.651
10590SOL    HW232670   0.915   0.371   1.489
10591SOL     OW32671   1.107   1.839   5.949
10591SOL    HW132672   1.186   1.818   6.006
10591SOL    HW232673   1.097   1.769   5.878
10592SOL     OW32674   5.724   2.489   0.524
10592SOL    HW132675   5.802   2.510   0.583
10592SOL    HW232676   5.751   2.418   0.459
10593SOL     OW32677   2.840   5.198   0.248
10593SOL    HW132678   2.827   5.122   0.311
10593SOL    HW232679   2.884   5.165   0.164
10594SOL     OW32680   5.524   1.504   3.454
10594SOL    HW132681   5.506   1.425   3.514
10594SOL    HW232682   5.467   1.581   3.483
10595SOL     OW32683   3.498   0.330   6.290
10595SOL    HW132684   3.452   0.398   6.347
10595SOL    HW232685   3.470   0.238   6.320
10596SOL     OW32686   4.308   0.128   1.751
10596SOL    HW132687   4.346   0.050   1.801
10596SOL    HW232688   4.236   0.095   1.689
10597SOL     OW32689   2.874   1.230   4.795
10597SOL    HW132690   2.882   1.189   4.704
10597SOL    HW232691   2.844   1.325   4.786
10598SOL     OW32692   2.667   2.484   0.349
10598SOL    HW132693   2.685   2.581   0.333
10598SOL    HW232694   2.748   2.431   0.324
10599SOL     OW32695   5.597   2.138   0.121
10599SOL    HW132696   5.540   2.057   0.113
10599SOL    HW232697   5.565   2.194   0.198
10600SOL     OW32698   1.757   3.327   0.343
10600SOL    HW132699   1.665   3.312   0.377
10600SOL    HW232700   1.776   3.426   0.341
10601SOL     OW32701   1.968   5.149   6.100
10601SOL    HW132702   1.987   5.062   6.145
10601SOL    HW232703   1.880   5.184   6.131
10602SOL     OW32704   5.120   1.526   3.290
10602SOL    HW132705   5.101   1.428   3.287
10602SOL    HW232706   5.118   1.558   3.384
10603SOL     OW32707   2.500   5.878   3.446
10603SOL    HW132708   2.574   5.852   3.508
10603SOL    HW232709   2.520   5.967   3.405
10604SOL     OW32710   5.578   4.217   4.996
10604SOL    HW132711   5.606   4.155   5.069
10604SOL    HW232712   5.629   4.302   5.004
10605SOL     OW32713   1.595   5.010   0.687
10605SOL    HW132714   1.672   5.032   0.747
10605SOL    HW232715   1.527   4.957   0.738
10606SOL     OW32716   5.988   0.474   2.421
10606SOL    HW132717   5.924   0.438   2.353
10606SOL    HW232718   5.972   0.572   2.432
10607SOL     OW32719   4.297   3.606   5.819
10607SOL    HW132720   4.206   3.648   5.823
10607SOL    HW232721   4.362   3.664   5.868
10608SOL     OW32722   5.849   2.227   5.022
10608SOL    HW132723   5.862   2.262   4.930
10608SOL    HW232724   5.753   2.202   5.035
10609SOL     OW32725   3.236   6.151   1.871
10609SOL    HW132726   3.312   6.086   1.879
10609SOL    HW232727   3.218   6.168   1.774
10610SOL     OW32728   0.188   4.152   6.359
10610SOL    HW132729   0.174   4.056   6.334
10610SOL    HW232730   0.232   4.156   6.449
10611SOL     OW32731   4.797   3.316   6.452
10611SOL    HW132732   4.709   3.312   6.406
10611SOL    HW232733   4.839   3.225   6.452
10612SOL     OW32734   2.437   0.151   5.395
10612SOL    HW132735   2.412   0.144   5.492
10612SOL    HW232736   2.443   0.060   5.355
10613SOL     OW32737   0.249   0.061   5.675
10613SOL    HW132738   0.279   7.015   5.613
10613SOL    HW232739   0.322   0.128   5.685
10614SOL     OW32740   6.858   1.623   4.212
10614SOL    HW132741   6.823   1.598   4.122
10614SOL    HW232742   6.825   1.558   4.280
10615SOL     OW32743   4.154   5.807   5.650
10615SOL    HW132744   4.107   5.744   5.711
10615SOL    HW232745   4.167   5.764   5.560
10616SOL     OW32746   3.623   6.462   0.783
10616SOL    HW132747   3.545   6.511   0.821
10616SOL    HW232748   3.683   6.527   0.736
10617SOL     OW32749   2.511   2.844   0.691
10617SOL    HW132750   2.571   2.916   0.726
10617SOL    HW232751   2.477   2.789   0.767
10618SOL     OW32752   5.788   3.732   7.019
10618SOL    HW132753   5.719   3.693   0.053
10618SOL    HW232754   5.818   3.820   0.028
10619SOL     OW32755   0.515   3.628   1.831
10619SOL    HW132756   0.415   3.632   1.825
10619SOL    HW232757   0.542   3.624   1.927
10620SOL     OW32758   1.084   6.252   5.591
10620SOL    HW132759   1.104   6.164   5.549
10620SOL    HW232760   1.001   6.245   5.645
10621SOL     OW32761   1.582   5.693   1.055
10621SOL    HW132762   1.675   5.661   1.074
10621SOL    HW232763   1.586   5.768   0.988
10622SOL     OW32764   4.622   1.072   1.141
10622SOL    HW132765   4.572   1.009   1.082
10622SOL    HW232766   4.720   1.049   1.140
10623SOL     OW32767   5.842   3.739   3.527
10623SOL    HW132768   5.877   3.833   3.527
10623SOL    HW232769   5.899   3.683   3.587
10624SOL     OW32770   1.028   1.039   4.797
10624SOL    HW132771   1.120   1.047   4.757
10624SOL    HW232772   0.995   1.129   4.824
10625SOL     OW32773   0.771   4.306   0.119
10625SOL    HW132774   0.802   4.400   0.103
10625SOL    HW232775   0.685   4.291   0.071
10626SOL     OW32776   1.252   2.620   1.473
10626SOL    HW132777   1.211   2.639   1.384
10626SOL    HW232778   1.313   2.694   1.499
10627SOL     OW32779   5.325   6.082   2.252
10627SOL    HW132780   5.377   6.164   2.228
10627SOL    HW232781   5.281   6.095   2.341
10628SOL     OW32782   5.766   5.159   6.188
10628SOL    HW132783   5.725   5.244   6.153
10628SOL    HW232784   5.717   5.130   6.270
10629SOL     OW32785   2.536   4.461   5.114
10629SOL    HW132786   2.631   4.490   5.125
10629SOL    HW232787   2.488   4.523   5.053
10630SOL     OW32788   6.287   0.957   3.633
10630SOL    HW132789   6.367   0.897   3.623
10630SOL    HW232790   6.209   0.917   3.584
10631SOL     OW32791   1.690   5.172   4.759
10631SOL    HW132792   1.661   5.191   4.665
10631SOL    HW232793   1.787   5.147   4.759
10632SOL     OW32794   5.607   2.281   4.272
10632SOL    HW132795   5.566   2.285   4.363
10632SOL    HW232796   5.574   2.357   4.217
10633SOL     OW32797   2.974   4.279   1.247
10633SOL    HW132798   2.914   4.357   1.236
10633SOL    HW232799   3.069   4.310   1.254
10634SOL     OW32800   3.537   5.305   0.838
10634SOL    HW132801   3.546   5.347   0.929
10634SOL    HW232802   3.561   5.208   0.843
10635SOL     OW32803   2.749   1.086   1.489
10635SOL    HW132804   2.807   1.119   1.414
10635SOL    HW232805   2.792   1.007   1.532
10636SOL     OW32806   1.494   2.208   2.239
10636SOL    HW132807   1.477   2.185   2.143
10636SOL    HW232808   1.551   2.291   2.243
10637SOL     OW32809   3.497   4.062   5.862
10637SOL    HW132810   3.446   4.003   5.924
10637SOL    HW232811   3.433   4.118   5.809
10638SOL     OW32812   6.932   5.713   2.621
10638SOL    HW132813   6.918   5.616   2.603
10638SOL    HW232814   6.853   5.765   2.587
10639SOL     OW32815   0.833   1.733   3.299
10639SOL    HW132816   0.896   1.794   3.347
10639SOL    HW232817   0.740   1.770   3.305
10640SOL     OW32818   4.075   6.802   6.781
10640SOL    HW132819   3.992   6.770   6.826
10640SOL    HW232820   4.103   6.735   6.712
10641SOL     OW32821   3.453   2.154   0.015
10641SOL    HW132822   3.481   2.234   0.068
10641SOL    HW232823   3.485   2.164   6.947
10642SOL     OW32824   0.361   2.653   1.503
10642SOL    HW132825   0.292   2.604   1.558
10642SOL    HW232826   0.322   2.739   1.470
10643SOL     OW32827   2.180   4.774   6.039
10643SOL    HW132828   2.230   4.821   5.966
10643SOL    HW232829   2.161   4.680   6.011
10644SOL     OW32830   4.807   2.370   3.671
10644SOL    HW132831   4.747   2.449   3.681
10644SOL    HW232832   4.757   2.287   3.693
10645SOL     OW32833   0.736   0.988   4.268
10645SOL    HW132834   0.698   1.079   4.281
10645SOL    HW232835   0.745   0.969   4.170
10646SOL     OW32836   0.525   1.855   4.774
10646SOL    HW132837   0.530   1.755   4.783
10646SOL    HW232838   0.477   1.878   4.689
10647SOL     OW32839   5.066   5.862   6.828
10647SOL    HW132840   5.101   5.946   6.787
10647SOL    HW232841   5.125   5.835   6.904
10648SOL     OW32842   5.147   3.209   6.577
10648SOL    HW132843   5.243   3.183   6.591
10648SOL    HW232844   5.133   3.303   6.608
10649SOL     OW32845   0.087   4.755   3.667
10649SOL    HW132846   0.156   4.773   3.737
10649SOL    HW232847   0.100   4.818   3.590
10650SOL     OW32848   1.392   6.104   3.146
10650SOL    HW132849   1.403   6.163   3.226
10650SOL    HW232850   1.427   6.152   3.065
10651SOL     OW32851   4.929   0.375   5.861
10651SOL    HW132852   4.870   0.359   5.940
10651SOL    HW232853   4.873   0.407   5.784
10652SOL     OW32854   3.444   0.166   0.310
10652SOL    HW132855   3.427   0.245   0.251
10652SOL    HW232856   3.458   0.084   0.254
10653SOL     OW32857   5.035   4.890   4.053
10653SOL    HW132858   5.027   4.933   4.143
10653SOL    HW232859   5.069   4.956   3.987
10654SOL     OW32860   4.592   0.575   1.221
10654SOL    HW132861   4.645   0.504   1.267
10654SOL    HW232862   4.566   0.646   1.287
10655SOL     OW32863   3.482   5.423   1.495
10655SOL    HW132864   3.577   5.392   1.487
10655SOL    HW232865   3.469   5.468   1.583
10656SOL     OW32866   6.355   1.895   0.693
10656SOL    HW132867   6.333   1.813   0.746
10656SOL    HW232868   6.450   1.889   0.661
10657SOL     OW32869   6.343   6.871   0.427
10657SOL    HW132870   6.353   6.958   0.379
10657SOL    HW232871   6.331   6.797   0.361
10658SOL     OW32872   0.134   4.011   5.023
10658SOL    HW132873   0.167   4.089   4.971
10658SOL    HW232874   0.035   4.015   5.031
10659SOL     OW32875   6.884   6.432   1.194
10659SOL    HW132876   6.806   6.465   1.141
10659SOL    HW232877   6.962   6.418   1.133
10660SOL     OW32878   5.537   4.173   6.544
10660SOL    HW132879   5.582   4.262   6.561
10660SOL    HW232880   5.496   4.140   6.629
10661SOL     OW32881   0.093   6.608   2.768
10661SOL    HW132882   0.065   6.573   2.857
10661SOL    HW232883   0.018   6.658   2.726
10662SOL     OW32884   6.156   0.813   2.349
10662SOL    HW132885   6.083   0.776   2.406
10662SOL    HW232886   6.119   0.882   2.287
10663SOL     OW32887   0.622   6.859   1.127
10663SOL    HW132888   0.529   6.896   1.123
10663SOL    HW232889   0.620   6.770   1.172
10664SOL     OW32890   1.980   4.238   6.425
10664SOL    HW132891   1.976   4.324   6.373
10664SOL    HW232892   2.054   4.243   6.492
10665SOL     OW32893   1.328   1.025   7.010
10665SOL    HW132894   1.259   1.095   0.004
10665SOL    HW232895   1.314   0.946   0.042
10666SOL     OW32896   4.160   4.389   0.321
10666SOL    HW132897   4.086   4.451   0.349
10666SOL    HW232898   4.162   4.383   0.221
10667SOL     OW32899   3.865   1.703   5.586
10667SOL    HW132900   3.853   1.666   5.494
10667SOL    HW232901   3.896   1.798   5.580
10668SOL     OW32902   1.258   1.892   5.465
10668SOL    HW132903   1.356   1.911   5.460
10668SOL    HW232904   1.244   1.803   5.509
10669SOL     OW32905   0.016   6.635   0.950
10669SOL    HW132906   0.027   6.735   0.955
10669SOL    HW232907   0.045   6.594   1.036
10670SOL     OW32908   4.896   4.592   5.640
10670SOL    HW132909   4.935   4.631   5.723
10670SOL    HW232910   4.796   4.595   5.645
10671SOL     OW32911   2.034   3.408   2.970
10671SOL    HW132912   1.939   3.434   2.950
10671SOL    HW232913   2.075   3.476   3.031
10672SOL     OW32914   0.035   3.008   0.716
10672SOL    HW132915   0.016   3.024   0.813
10672SOL    HW232916   0.053   3.095   0.671
10673SOL     OW32917   2.303   2.438   5.638
10673SOL    HW132918   2.241   2.440   5.559
10673SOL    HW232919   2.266   2.378   5.708
10674SOL     OW32920   4.077   3.468   0.514
10674SOL    HW132921   4.019   3.462   0.595
10674SOL    HW232922   4.033   3.528   0.447
10675SOL     OW32923   1.430   0.438   6.299
10675SOL    HW132924   1.339   0.424   6.339
10675SOL    HW232925   1.437   0.532   6.266
10676SOL     OW32926   6.150   0.177   6.569
10676SOL    HW132927   6.114   0.151   6.479
10676SOL    HW232928   6.248   0.195   6.562
10677SOL     OW32929   0.789   1.088   2.243
10677SOL    HW132930   0.881   1.121   2.261
10677SOL    HW232931   0.763   1.021   2.312
10678SOL     OW32932   3.735   5.327   2.853
10678SOL    HW132933   3.806   5.330   2.924
10678SOL    HW232934   3.688   5.415   2.849
10679SOL     OW32935   5.646   5.036   5.583
10679SOL    HW132936   5.662   5.057   5.486
10679SOL    HW232937   5.697   4.953   5.608
10680SOL     OW32938   1.632   3.130   3.551
10680SOL    HW132939   1.656   3.223   3.523
10680SOL    HW232940   1.669   3.065   3.485
10681SOL     OW32941   0.148   3.938   6.749
10681SOL    HW132942   0.089   3.919   6.671
10681SOL    HW232943   0.098   3.992   6.816
10682SOL     OW32944   1.860   1.951   3.114
10682SOL    HW132945   1.875   1.860   3.153
10682SOL    HW232946   1.763   1.974   3.118
10683SOL     OW32947   2.809   2.332   3.747
10683SOL    HW132948   2.819   2.358   3.651
10683SOL    HW232949   2.843   2.239   3.760
10684SOL     OW32950   4.668   4.045   0.049
10684SOL    HW132951   4.569   4.059   0.049
10684SOL    HW232952   4.699   4.029   6.982
10685SOL     OW32953   0.465   3.615   3.037
10685SOL    HW132954   0.504   3.646   2.951
10685SOL    HW232955   0.419   3.691   3.083
10686SOL     OW32956   3.943   6.096   6.588
10686SOL    HW132957   3.956   6.071   6.492
10686SOL    HW232958   4.031   6.115   6.630
10687SOL     OW32959   0.140   5.378   1.825
10687SOL    HW132960   0.133   5.328   1.911
10687SOL    HW232961   0.048   5.398   1.791
10688SOL     OW32962   6.354   4.105   2.125
10688SOL    HW132963   6.390   4.071   2.212
10688SOL    HW232964   6.355   4.205   2.125
10689SOL     OW32965   6.864   6.943   3.236
10689SOL    HW132966   6.843   6.876   3.165
10689SOL    HW232967   6.819   0.003   3.213
10690SOL     OW32968   4.624   5.604   3.132
10690SOL    HW132969   4.562   5.525   3.135
10690SOL    HW232970   4.701   5.588   3.194
10691SOL     OW32971   6.573   1.798   1.659
10691SOL    HW132972   6.661   1.827   1.696
10691SOL    HW232973   6.570   1.819   1.561
10692SOL     OW32974   2.910   5.831   3.711
10692SOL    HW132975   2.991   5.788   3.751
10692SOL    HW232976   2.894   5.919   3.756
10693SOL     OW32977   1.923   1.171   1.259
10693SOL    HW132978   1.928   1.218   1.170
10693SOL    HW232979   1.985   1.216   1.324
10694SOL     OW32980   3.478   6.250   1.255
10694SOL    HW132981   3.440   6.250   1.163
10694SOL    HW232982   3.541   6.327   1.266
10695SOL     OW32983   6.648   2.306   4.087
10695SOL    HW132984   6.651   2.341   4.181
10695SOL    HW232985   6.728   2.340   4.037
10696SOL     OW32986   6.698   5.044   1.373
10696SOL    HW132987   6.708   5.020   1.277
10696SOL    HW232988   6.615   5.097   1.387
10697SOL     OW32989   0.049   6.344   3.537
10697SOL    HW132990   0.008   6.327   3.447
10697SOL    HW232991   0.107   6.267   3.562
10698SOL     OW32992   2.752   0.206   3.852
10698SOL    HW132993   2.684   0.262   3.900
10698SOL    HW232994   2.783   0.133   3.913
10699SOL     OW32995   4.671   1.684   3.006
10699SOL    HW132996   4.598   1.697   2.940
10699SOL    HW232997   4.743   1.752   2.991
10700SOL     OW32998   0.702   0.166   0.267
10700SOL    HW132999   0.675   0.141   0.174
10700SOL    HW233000   0.720   0.264   0.272
10701SOL     OW33001   4.265   6.072   6.804
10701SOL    HW133002   4.252   6.116   6.715
10701SOL    HW233003   4.301   5.980   6.791
10702SOL     OW33004   5.668   2.168   1.786
10702SOL    HW133005   5.573   2.141   1.802
10702SOL    HW233006   5.717   2.168   1.873
10703SOL     OW33007   3.546   4.064   3.043
10703SOL    HW133008   3.520   4.072   3.139
10703SOL    HW233009   3.514   3.976   3.007
10704SOL     OW33010   4.871   6.750   2.062
10704SOL    HW133011   4.931   6.831   2.068
10704SOL    HW233012   4.814   6.745   2.144
10705SOL     OW33013   1.266   3.657   6.980
10705SOL    HW133014   1.239   3.703   6.895
10705SOL    HW233015   1.268   3.724   0.028
10706SOL     OW33016   4.545   0.345   2.531
10706SOL    HW133017   4.576   0.437   2.556
10706SOL    HW233018   4.446   0.345   2.522
10707SOL     OW33019   6.960   6.797   5.846
10707SOL    HW133020   7.011   6.882   5.854
10707SOL    HW233021   6.892   6.805   5.773
10708SOL     OW33022   5.069   0.827   1.421
10708SOL    HW133023   5.114   0.785   1.499
10708SOL    HW233024   5.078   0.927   1.426
10709SOL     OW33025   5.812   0.642   5.582
10709SOL    HW133026   5.861   0.603   5.661
10709SOL    HW233027   5.864   0.624   5.499
10710SOL     OW33028   6.736   6.453   4.260
10710SOL    HW133029   6.768   6.405   4.178
10710SOL    HW233030   6.796   6.430   4.337
10711SOL     OW33031   2.189   0.258   3.877
10711SOL    HW133032   2.238   0.180   3.838
10711SOL    HW233033   2.221   0.275   3.970
10712SOL     OW33034   3.815   0.968   4.217
10712SOL    HW133035   3.782   1.062   4.208
10712SOL    HW233036   3.915   0.967   4.211
10713SOL     OW33037   2.001   5.411   2.101
10713SOL    HW133038   2.015   5.366   2.189
10713SOL    HW233039   2.014   5.509   2.112
10714SOL     OW33040   0.497   4.969   4.630
10714SOL    HW133041   0.482   4.880   4.674
10714SOL    HW233042   0.533   5.034   4.697
10715SOL     OW33043   5.498   1.816   4.061
10715SOL    HW133044   5.540   1.903   4.086
10715SOL    HW233045   5.545   1.778   3.982
10716SOL     OW33046   6.545   1.299   3.917
10716SOL    HW133047   6.603   1.247   3.855
10716SOL    HW233048   6.450   1.293   3.886
10717SOL     OW33049   0.631   1.508   1.157
10717SOL    HW133050   0.550   1.504   1.099
10717SOL    HW233051   0.711   1.475   1.106
10718SOL     OW33052   6.790   5.542   0.671
10718SOL    HW133053   6.850   5.477   0.626
10718SOL    HW233054   6.756   5.503   0.757
10719SOL     OW33055   5.010   0.363   3.152
10719SOL    HW133056   5.046   0.363   3.059
10719SOL    HW233057   5.001   0.458   3.184
10720SOL     OW33058   6.720   3.316   6.214
10720SOL    HW133059   6.782   3.320   6.135
10720SOL    HW233060   6.760   3.366   6.290
10721SOL     OW33061   6.383   2.176   4.462
10721SOL    HW133062   6.371   2.226   4.376
10721SOL    HW233063   6.343   2.084   4.453
10722SOL     OW33064   6.724   3.696   6.950
10722SOL    HW133065   6.771   3.764   7.005
10722SOL    HW233066   6.642   3.665   6.997
10723SOL     OW33067   5.181   4.155   6.924
10723SOL    HW133068   5.108   4.209   6.965
10723SOL    HW233069   5.146   4.065   6.898
10724SOL     OW33070   4.384   6.752   6.193
10724SOL    HW133071   4.416   6.745   6.288
10724SOL    HW233072   4.418   6.674   6.141
10725SOL     OW33073   0.493   5.902   4.474
10725SOL    HW133074   0.413   5.963   4.469
10725SOL    HW233075   0.574   5.956   4.498
10726SOL     OW33076   5.401   0.775   5.023
10726SOL    HW133077   5.354   0.696   4.984
10726SOL    HW233078   5.349   0.809   5.101
10727SOL     OW33079   2.123   4.642   4.782
10727SOL    HW133080   2.218   4.674   4.774
10727SOL    HW233081   2.120   4.561   4.840
10728SOL     OW33082   4.914   6.935   2.937
10728SOL    HW133083   4.984   6.866   2.958
10728SOL    HW233084   4.937   6.979   2.850
10729SOL     OW33085   6.306   1.878   2.871
10729SOL    HW133086   6.375   1.853   2.803
10729SOL    HW233087   6.275   1.972   2.854
10730SOL     OW33088   2.209   6.067   2.477
10730SOL    HW133089   2.162   6.094   2.393
10730SOL    HW233090   2.304   6.099   2.473
10731SOL     OW33091   3.208   5.515   6.977
10731SOL    HW133092   3.213   5.419   6.950
10731SOL    HW233093   3.283   5.536   0.013
10732SOL     OW33094   5.437   6.628   3.045
10732SOL    HW133095   5.389   6.603   3.129
10732SOL    HW233096   5.524   6.578   3.040
10733SOL     OW33097   5.654   1.501   0.641
10733SOL    HW133098   5.648   1.466   0.547
10733SOL    HW233099   5.565   1.489   0.686
10734SOL     OW33100   0.594   0.037   6.588
10734SOL    HW133101   0.590   6.966   6.570
10734SOL    HW233102   0.502   0.073   6.599
10735SOL     OW33103   0.737   5.482   2.305
10735SOL    HW133104   0.719   5.529   2.391
10735SOL    HW233105   0.772   5.390   2.323
10736SOL     OW33106   0.222   0.770   3.977
10736SOL    HW133107   0.233   0.685   4.029
10736SOL    HW233108   0.245   0.848   4.035
10737SOL     OW33109   0.661   2.071   1.370
10737SOL    HW133110   0.592   2.128   1.416
10737SOL    HW233111   0.657   1.978   1.406
10738SOL     OW33112   2.365   0.951   2.476
10738SOL    HW133113   2.442   1.010   2.500
10738SOL    HW233114   2.334   0.900   2.557
10739SOL     OW33115   6.083   1.647   2.854
10739SOL    HW133116   6.163   1.707   2.852
10739SOL    HW233117   6.096   1.577   2.924
10740SOL     OW33118   1.465   6.527   5.537
10740SOL    HW133119   1.540   6.588   5.566
10740SOL    HW233120   1.503   6.439   5.510
10741SOL     OW33121   1.637   2.619   3.395
10741SOL    HW133122   1.684   2.552   3.453
10741SOL    HW233123   1.545   2.586   3.375
10742SOL     OW33124   6.106   5.793   1.870
10742SOL    HW133125   6.028   5.736   1.892
10742SOL    HW233126   6.183   5.769   1.930
10743SOL     OW33127   3.770   1.037   5.185
10743SOL    HW133128   3.709   1.103   5.141
10743SOL    HW233129   3.721   0.991   5.259
10744SOL     OW33130   3.010   0.733   1.296
10744SOL    HW133131   3.043   0.758   1.205
10744SOL    HW233132   3.044   0.798   1.363
10745SOL     OW33133   2.337   4.740   1.083
10745SOL    HW133134   2.342   4.818   1.022
10745SOL    HW233135   2.384   4.761   1.169
10746SOL     OW33136   2.846   5.648   1.098
10746SOL    HW133137   2.834   5.684   1.190
10746SOL    HW233138   2.911   5.706   1.048
10747SOL     OW33139   5.831   2.499   4.346
10747SOL    HW133140   5.787   2.425   4.295
10747SOL    HW233141   5.927   2.475   4.364
10748SOL     OW33142   4.704   5.470   0.980
10748SOL    HW133143   4.698   5.375   1.009
10748SOL    HW233144   4.641   5.525   1.034
10749SOL     OW33145   6.222   4.936   3.384
10749SOL    HW133146   6.157   4.955   3.458
10749SOL    HW233147   6.215   5.007   3.315
10750SOL     OW33148   4.782   4.030   4.006
10750SOL    HW133149   4.708   4.026   3.939
10750SOL    HW233150   4.751   4.080   4.087
10751SOL     OW33151   1.559   3.340   4.984
10751SOL    HW133152   1.602   3.376   5.067
10751SOL    HW233153   1.462   3.367   4.983
10752SOL     OW33154   6.225   5.127   7.008
10752SOL    HW133155   6.168   5.089   6.935
10752SOL    HW233156   6.305   5.067   7.022
10753SOL     OW33157   4.382   6.766   4.429
10753SOL    HW133158   4.308   6.825   4.462
10753SOL    HW233159   4.372   6.674   4.465
10754SOL     OW33160   0.340   2.903   1.715
10754SOL    HW133161   0.249   2.922   1.677
10754SOL    HW233162   0.409   2.951   1.661
10755SOL     OW33163   0.079   1.679   1.728
10755SOL    HW133164   7.019   1.638   1.756
10755SOL    HW233165   0.145   1.672   1.803
10756SOL     OW33166   6.080   2.201   0.117
10756SOL    HW133167   6.081   2.196   0.018
10756SOL    HW233168   6.171   2.179   0.153
10757SOL     OW33169   6.904   4.018   0.571
10757SOL    HW133170   6.995   4.026   0.612
10757SOL    HW233171   6.840   3.982   0.638
10758SOL     OW33172   1.050   5.463   6.625
10758SOL    HW133173   1.076   5.541   6.568
10758SOL    HW233174   0.993   5.494   6.702
10759SOL     OW33175   1.264   2.536   6.232
10759SOL    HW133176   1.288   2.598   6.308
10759SOL    HW233177   1.186   2.479   6.259
10760SOL     OW33178   1.319   6.079   0.247
10760SOL    HW133179   1.253   6.141   0.205
10760SOL    HW233180   1.339   6.004   0.184
10761SOL     OW33181   0.672   2.327   6.363
10761SOL    HW133182   0.755   2.290   6.404
10761SOL    HW233183   0.675   2.317   6.264
10762SOL     OW33184   4.158   0.458   6.153
10762SOL    HW133185   4.147   0.529   6.084
10762SOL    HW233186   4.146   0.368   6.110
10763SOL     OW33187   5.682   0.962   2.504
10763SOL    HW133188   5.738   1.044   2.508
10763SOL    HW233189   5.709   0.899   2.577
10764SOL     OW33190   4.479   0.924   5.110
10764SOL    HW133191   4.441   1.002   5.060
10764SOL    HW233192   4.579   0.927   5.106
10765SOL     OW33193   5.660   1.589   2.406
10765SOL    HW133194   5.587   1.652   2.382
10765SOL    HW233195   5.698   1.614   2.495
10766SOL     OW33196   1.916   4.999   0.045
10766SOL    HW133197   1.820   4.978   0.029
10766SOL    HW233198   1.937   4.988   0.143
10767SOL     OW33199   1.958   6.680   0.453
10767SOL    HW133200   2.018   6.601   0.446
10767SOL    HW233201   1.894   6.681   0.376
10768SOL     OW33202   5.188   5.405   0.446
10768SOL    HW133203   5.197   5.464   0.366
10768SOL    HW233204   5.275   5.359   0.464
10769SOL     OW33205   2.769   4.195   5.524
10769SOL    HW133206   2.802   4.260   5.455
10769SOL    HW233207   2.730   4.115   5.479
10770SOL     OW33208   5.555   6.836   4.454
10770SOL    HW133209   5.593   6.760   4.506
10770SOL    HW233210   5.552   6.812   4.357
10771SOL     OW33211   4.485   0.496   5.562
10771SOL    HW133212   4.423   0.425   5.530
10771SOL    HW233213   4.512   0.554   5.485
10772SOL     OW33214   5.819   6.732   4.356
10772SOL    HW133215   5.735   6.770   4.319
10772SOL    HW233216   5.869   6.802   4.407
10773SOL     OW33217   6.713   4.605   6.905
10773SOL    HW133218   6.775   4.617   6.828
10773SOL    HW233219   6.759   4.631   6.990
10774SOL     OW33220   1.307   2.633   0.979
10774SOL    HW133221   1.232   2.603   0.920
10774SOL    HW233222   1.394   2.609   0.936
10775SOL     OW33223   1.348   4.336   1.230
10775SOL    HW133224   1.355   4.331   1.330
10775SOL    HW233225   1.252   4.337   1.203
10776SOL     OW33226   5.990   0.673   2.890
10776SOL    HW133227   5.968   0.625   2.975
10776SOL    HW233228   5.958   0.619   2.812
10777SOL     OW33229   2.999   1.037   3.722
10777SOL    HW133230   2.916   1.093   3.729
10777SOL    HW233231   3.059   1.057   3.799
10778SOL     OW33232   6.584   6.172   4.986
10778SOL    HW133233   6.626   6.156   4.896
10778SOL    HW233234   6.507   6.110   4.999
10779SOL     OW33235   5.554   4.576   3.296
10779SOL    HW133236   5.553   4.676   3.291
10779SOL    HW233237   5.524   4.538   3.209
10780SOL     OW33238   0.257   6.017   4.698
10780SOL    HW133239   0.173   6.036   4.751
10780SOL    HW233240   0.320   5.965   4.755
10781SOL     OW33241   6.158   1.411   4.941
10781SOL    HW133242   6.204   1.324   4.928
10781SOL    HW233243   6.127   1.446   4.852
10782SOL     OW33244   6.671   3.175   5.543
10782SOL    HW133245   6.671   3.075   5.538
10782SOL    HW233246   6.765   3.209   5.537
10783SOL     OW33247   1.611   2.455   2.240
10783SOL    HW133248   1.628   2.477   2.337
10783SOL    HW233249   1.545   2.521   2.202
10784SOL     OW33250   2.631   6.089   2.120
10784SOL    HW133251   2.672   6.020   2.061
10784SOL    HW233252   2.533   6.072   2.129
10785SOL     OW33253   1.534   5.286   1.733
10785SOL    HW133254   1.476   5.329   1.664
10785SOL    HW233255   1.616   5.248   1.689
10786SOL     OW33256   4.342   2.410   2.514
10786SOL    HW133257   4.316   2.358   2.433
10786SOL    HW233258   4.426   2.461   2.496
10787SOL     OW33259   3.114   1.433   4.248
10787SOL    HW133260   3.170   1.503   4.205
10787SOL    HW233261   3.103   1.453   4.346
10788SOL     OW33262   1.038   4.534   0.356
10788SOL    HW133263   1.095   4.452   0.353
10788SOL    HW233264   0.942   4.507   0.367
10789SOL     OW33265   6.321   0.844   0.209
10789SOL    HW133266   6.294   0.836   0.305
10789SOL    HW233267   6.384   0.921   0.199
10790SOL     OW33268   0.167   1.958   5.324
10790SOL    HW133269   0.107   2.038   5.331
10790SOL    HW233270   0.119   1.885   5.275
10791SOL     OW33271   2.180   1.551   2.137
10791SOL    HW133272   2.092   1.556   2.183
10791SOL    HW233273   2.246   1.505   2.196
10792SOL     OW33274   3.609   2.298   1.329
10792SOL    HW133275   3.664   2.272   1.409
10792SOL    HW233276   3.513   2.305   1.356
10793SOL     OW33277   5.147   1.600   4.910
10793SOL    HW133278   5.237   1.572   4.875
10793SOL    HW233279   5.109   1.670   4.850
10794SOL     OW33280   4.375   3.173   1.628
10794SOL    HW133281   4.451   3.139   1.683
10794SOL    HW233282   4.290   3.162   1.679
10795SOL     OW33283   0.204   4.045   2.404
10795SOL    HW133284   0.216   3.983   2.327
10795SOL    HW233285   0.190   3.992   2.488
10796SOL     OW33286   5.805   6.818   6.622
10796SOL    HW133287   5.861   6.900   6.636
10796SOL    HW233288   5.721   6.827   6.676
10797SOL     OW33289   4.006   2.689   0.445
10797SOL    HW133290   4.024   2.759   0.515
10797SOL    HW233291   3.916   2.706   0.404
10798SOL     OW33292   2.384   0.178   6.209
10798SOL    HW133293   2.343   0.113   6.146
10798SOL    HW233294   2.475   0.147   6.236
10799SOL     OW33295   3.138   1.912   2.557
10799SOL    HW133296   3.219   1.970   2.571
10799SOL    HW233297   3.166   1.816   2.557
10800SOL     OW33298   1.625   0.205   0.577
10800SOL    HW133299   1.601   0.204   0.674
10800SOL    HW233300   1.547   0.176   0.523
10801SOL     OW33301   2.064   6.238   5.411
10801SOL    HW133302   2.029   6.171   5.477
10801SOL    HW233303   2.161   6.221   5.394
10802SOL     OW33304   1.348   3.484   4.037
10802SOL    HW133305   1.375   3.577   4.011
10802SOL    HW233306   1.347   3.476   4.137
10803SOL     OW33307   5.348   4.287   5.530
10803SOL    HW133308   5.273   4.317   5.589
10803SOL    HW233309   5.385   4.201   5.564
10804SOL     OW33310   6.181   3.893   1.769
10804SOL    HW133311   6.190   3.986   1.732
10804SOL    HW233312   6.109   3.891   1.837
10805SOL     OW33313   4.045   6.930   0.548
10805SOL    HW133314   3.967   6.955   0.606
10805SOL    HW233315   4.034   6.837   0.514
10806SOL     OW33316   5.776   3.529   0.338
10806SOL    HW133317   5.826   3.443   0.353
10806SOL    HW233318   5.751   3.568   0.427
10807SOL     OW33319   3.226   5.945   3.555
10807SOL    HW133320   3.258   5.888   3.630
10807SOL    HW233321   3.297   6.012   3.532
10808SOL     OW33322   1.000   3.307   6.620
10808SOL    HW133323   1.057   3.229   6.596
10808SOL    HW233324   0.993   3.314   6.720
10809SOL     OW33325   2.830   1.674   4.180
10809SOL    HW133326   2.753   1.702   4.239
10809SOL    HW233327   2.899   1.746   4.179
10810SOL     OW33328   0.184   1.490   5.622
10810SOL    HW133329   0.153   1.583   5.601
10810SOL    HW233330   0.157   1.467   5.716
10811SOL     OW33331   4.052   4.921   5.762
10811SOL    HW133332   4.127   4.987   5.756
10811SOL    HW233333   4.088   4.828   5.748
10812SOL     OW33334   6.716   3.185   2.832
10812SOL    HW133335   6.644   3.214   2.769
10812SOL    HW233336   6.792   3.145   2.781
10813SOL     OW33337   2.781   5.644   1.659
10813SOL    HW133338   2.699   5.676   1.612
10813SOL    HW233339   2.810   5.712   1.726
10814SOL     OW33340   2.005   0.446   5.335
10814SOL    HW133341   2.093   0.401   5.316
10814SOL    HW233342   2.010   0.494   5.422
10815SOL     OW33343   5.067   4.000   2.865
10815SOL    HW133344   5.124   4.081   2.869
10815SOL    HW233345   5.108   3.927   2.920
10816SOL     OW33346   1.824   1.085   2.385
10816SOL    HW133347   1.911   1.056   2.424
10816SOL    HW233348   1.839   1.131   2.298
10817SOL     OW33349   5.351   0.429   2.662
10817SOL    HW133350   5.419   0.457   2.594
10817SOL    HW233351   5.398   0.395   2.744
10818SOL     OW33352   5.418   3.197   6.708
10818SOL    HW133353   5.426   3.297   6.707
10818SOL    HW233354   5.510   3.157   6.710
10819SOL     OW33355   0.557   4.070   6.591
10819SOL    HW133356   0.513   4.018   6.518
10819SOL    HW233357   0.656   4.063   6.582
10820SOL     OW33358   0.310   6.914   3.924
10820SOL    HW133359   0.317   6.821   3.961
10820SOL    HW233360   0.218   6.949   3.943
10821SOL     OW33361   0.185   6.994   2.161
10821SOL    HW133362   0.183   7.015   2.259
10821SOL    HW233363   0.266   6.939   2.140
10822SOL     OW33364   1.443   3.451   2.035
10822SOL    HW133365   1.363   3.414   1.989
10822SOL    HW233366   1.459   3.400   2.120
10823SOL     OW33367   2.895   5.705   1.388
10823SOL    HW133368   2.952   5.765   1.443
10823SOL    HW233369   2.842   5.645   1.447
10824SOL     OW33370   5.189   0.373   3.534
10824SOL    HW133371   5.261   0.344   3.470
10824SOL    HW233372   5.191   0.473   3.543
10825SOL     OW33373   2.878   1.307   1.283
10825SOL    HW133374   2.864   1.392   1.333
10825SOL    HW233375   2.976   1.291   1.272
10826SOL     OW33376   6.842   3.732   1.997
10826SOL    HW133377   6.894   3.713   2.080
10826SOL    HW233378   6.755   3.682   2.000
10827SOL     OW33379   6.639   3.619   4.405
10827SOL    HW133380   6.649   3.589   4.500
10827SOL    HW233381   6.596   3.709   4.403
10828SOL     OW33382   1.354   5.778   1.197
10828SOL    HW133383   1.438   5.782   1.142
10828SOL    HW233384   1.299   5.700   1.166
10829SOL     OW33385   3.255   3.886   1.679
10829SOL    HW133386   3.208   3.910   1.594
10829SOL    HW233387   3.248   3.962   1.744
10830SOL     OW33388   6.057   3.418   4.293
10830SOL    HW133389   6.033   3.512   4.270
10830SOL    HW233390   6.145   3.395   4.251
10831SOL     OW33391   4.976   0.690   2.835
10831SOL    HW133392   5.072   0.708   2.811
10831SOL    HW233393   4.958   0.725   2.927
10832SOL     OW33394   0.976   2.103   0.115
10832SOL    HW133395   0.877   2.118   0.114
10832SOL    HW233396   1.001   2.048   0.194
10833SOL     OW33397   2.238   1.092   4.163
10833SOL    HW133398   2.311   1.145   4.208
10833SOL    HW233399   2.271   1.000   4.144
10834SOL     OW33400   0.767   0.925   5.365
10834SOL    HW133401   0.798   0.972   5.447
10834SOL    HW233402   0.718   0.989   5.305
10835SOL     OW33403   6.307   1.493   2.169
10835SOL    HW133404   6.345   1.402   2.190
10835SOL    HW233405   6.365   1.563   2.211
10836SOL     OW33406   0.233   1.533   5.342
10836SOL    HW133407   0.275   1.601   5.402
10836SOL    HW233408   0.303   1.470   5.308
10837SOL     OW33409   6.555   4.667   0.362
10837SOL    HW133410   6.648   4.695   0.341
10837SOL    HW233411   6.493   4.744   0.345
10838SOL     OW33412   5.988   7.013   6.729
10838SOL    HW133413   6.046   0.023   6.657
10838SOL    HW233414   5.912   0.049   6.746
10839SOL     OW33415   2.620   1.828   0.082
10839SOL    HW133416   2.630   1.898   0.011
10839SOL    HW233417   2.564   1.863   0.156
10840SOL     OW33418   3.307   5.945   1.405
10840SOL    HW133419   3.330   5.987   1.317
10840SOL    HW233420   3.368   5.868   1.422
10841SOL     OW33421   4.099   6.290   6.044
10841SOL    HW133422   4.099   6.390   6.046
10841SOL    HW233423   4.051   6.258   5.963
10842SOL     OW33424   6.552   2.827   0.962
10842SOL    HW133425   6.525   2.738   0.927
10842SOL    HW233426   6.497   2.899   0.919
10843SOL     OW33427   1.357   1.626   2.069
10843SOL    HW133428   1.454   1.611   2.088
10843SOL    HW233429   1.305   1.542   2.086
10844SOL     OW33430   6.666   6.404   4.657
10844SOL    HW133431   6.713   6.458   4.727
10844SOL    HW233432   6.731   6.375   4.587
10845SOL     OW33433   1.044   1.073   1.868
10845SOL    HW133434   1.116   1.058   1.935
10845SOL    HW233435   1.067   1.024   1.783
10846SOL     OW33436   4.405   1.779   0.882
10846SOL    HW133437   4.313   1.740   0.878
10846SOL    HW233438   4.435   1.802   0.790
10847SOL     OW33439   3.062   1.610   5.880
10847SOL    HW133440   3.118   1.615   5.963
10847SOL    HW233441   3.018   1.521   5.875
10848SOL     OW33442   2.512   1.461   6.918
10848SOL    HW133443   2.432   1.442   6.861
10848SOL    HW233444   2.487   1.523   6.993
10849SOL     OW33445   3.112   5.010   3.822
10849SOL    HW133446   3.119   4.982   3.918
10849SOL    HW233447   3.053   4.947   3.772
10850SOL     OW33448   4.867   6.465   0.018
10850SOL    HW133449   4.816   6.390   0.060
10850SOL    HW233450   4.818   6.551   0.034
10851SOL     OW33451   2.640   2.817   6.308
10851SOL    HW133452   2.616   2.899   6.256
10851SOL    HW233453   2.737   2.796   6.295
10852SOL     OW33454   6.988   0.996   6.148
10852SOL    HW133455   0.047   1.006   6.198
10852SOL    HW233456   7.007   0.986   6.050
10853SOL     OW33457   3.066   2.234   4.581
10853SOL    HW133458   3.099   2.226   4.487
10853SOL    HW233459   3.144   2.250   4.642
10854SOL     OW33460   5.274   0.277   6.793
10854SOL    HW133461   5.370   0.279   6.766
10854SOL    HW233462   5.244   0.182   6.804
10855SOL     OW33463   2.036   6.258   2.631
10855SOL    HW133464   1.944   6.220   2.627
10855SOL    HW233465   2.103   6.183   2.622
10856SOL     OW33466   5.977   6.342   0.637
10856SOL    HW133467   6.053   6.278   0.647
10856SOL    HW233468   6.000   6.428   0.683
10857SOL     OW33469   6.341   2.625   3.489
10857SOL    HW133470   6.274   2.606   3.418
10857SOL    HW233471   6.359   2.542   3.542
10858SOL     OW33472   1.860   3.587   0.308
10858SOL    HW133473   1.915   3.563   0.228
10858SOL    HW233474   1.919   3.604   0.386
10859SOL     OW33475   0.565   4.215   3.323
10859SOL    HW133476   0.524   4.152   3.389
10859SOL    HW233477   0.656   4.183   3.297
10860SOL     OW33478   0.294   1.103   0.491
10860SOL    HW133479   0.324   1.171   0.558
10860SOL    HW233480   0.287   1.014   0.534
10861SOL     OW33481   3.450   2.804   1.714
10861SOL    HW133482   3.446   2.857   1.798
10861SOL    HW233483   3.471   2.864   1.636
10862SOL     OW33484   2.777   2.500   6.023
10862SOL    HW133485   2.836   2.455   5.956
10862SOL    HW233486   2.681   2.486   5.998
10863SOL     OW33487   2.253   0.139   3.189
10863SOL    HW133488   2.254   0.071   3.116
10863SOL    HW233489   2.253   0.093   3.278
10864SOL     OW33490   2.882   4.652   1.412
10864SOL    HW133491   2.932   4.641   1.498
10864SOL    HW233492   2.900   4.573   1.354
10865SOL     OW33493   5.415   3.217   3.684
10865SOL    HW133494   5.334   3.160   3.671
10865SOL    HW233495   5.389   3.300   3.733
10866SOL     OW33496   6.744   2.578   0.724
10866SOL    HW133497   6.742   2.537   0.632
10866SOL    HW233498   6.791   2.516   0.787
10867SOL     OW33499   2.705   2.823   0.490
10867SOL    HW133500   2.803   2.822   0.514
10867SOL    HW233501   2.651   2.832   0.573
10868SOL     OW33502   0.567   1.770   3.360
10868SOL    HW133503   0.515   1.732   3.436
10868SOL    HW233504   0.507   1.785   3.282
10869NA      NA33505   0.154   1.761   6.046
10870NA      NA33506   4.432   4.562   5.327
10871NA      NA33507   1.729   5.031   2.720
10872NA      NA33508   5.095   4.372   3.837
10873NA      NA33509   4.246   2.267   5.189
10874NA      NA33510   3.091   5.105   1.306
10875NA      NA33511   1.211   5.329   0.564
10876NA      NA33512   3.719   4.253   1.506
10877NA      NA33513   4.746   4.265   0.481
10878NA      NA33514   3.598   1.254   6.281
10879NA      NA33515   5.162   6.097   2.075
10880NA      NA33516   1.372   0.399   5.422
10881NA      NA33517   4.960   4.908   1.720
10882NA      NA33518   3.461   3.340   0.075
   7.02668   7.02668   7.02668
